Membrane in water
40344
    1TMC1    C1    1   2.204   2.226  11.491 -0.4387 -0.4553  0.4101
    1TMC1    C2    2   2.329   2.166  11.494 -0.1568 -0.0051  0.5297
    1TMC1    C3    3   2.437   2.244  11.457 -0.1228  0.5095 -0.0135
    1TMC1    C4    4   2.188   2.360  11.458 -0.0583 -0.1360  0.6131
    1TMC1    C5    5   2.298   2.424  11.411  0.1883  0.6366  0.2672
    1TMC1    C6    6   2.424   2.373  11.415  0.1557 -0.1217 -0.3080
    1TMC1     C    7   2.091   2.162  11.559 -0.6103  0.2065 -0.4759
    1TMC1     O    8   2.005   2.227  11.614  0.3014 -0.3823 -0.1481
    1TMC1     H    9   2.342   2.078  11.556  0.6178 -1.3839 -1.6232
    1TMC1    H1   10   2.085   2.388  11.441  0.9182  1.7427 -2.3112
    1TMC1    H2   11   2.516   2.428  11.397 -0.2931  1.0760  0.9888
    1TMC1    C7   12   2.273   2.549  11.347  0.0303  0.1194 -0.0128
    1TMC1    C8   13   2.547   2.214  11.544 -0.3236 -0.5468  0.4705
    1TMC1    O1   14   2.157   2.588  11.331  0.8902  0.7148  0.3046
    1TMC1    O2   15   2.567   2.100  11.577 -0.1830  0.0385  0.8984
    1TMC1    O3   16   2.386   2.607  11.311  0.1748 -0.5513 -0.6363
    1TMC1    H3   17   2.382   2.688  11.255  1.5192 -0.0900 -0.0543
    1TMC1    O5   18   2.551   2.325  11.627 -0.2939 -0.2812 -0.5449
    1TMC1    H5   19   2.544   2.414  11.587  1.9530  0.1541  0.0416
    2MPD2     C   20   1.859   1.746  11.746 -0.0827  0.5170 -0.5270
    2MPD2    C1   21   1.866   1.872  11.798  0.0415 -0.6012 -0.2470
    2MPD2    C2   22   1.946   1.965  11.727 -0.2028  0.0689 -0.2761
    2MPD2    C3   23   2.031   1.934  11.621 -0.5753 -0.5758 -0.1689
    2MPD2    C4   24   2.035   1.797  11.583 -0.4348 -0.6183 -0.1135
    2MPD2    C5   25   1.949   1.710  11.648  0.4717  0.6459 -0.1274
    2MPD2     H   26   1.954   2.067  11.763  1.3240  0.1077 -0.7095
    2MPD2    H1   27   2.106   1.759  11.511 -0.6094 -0.4018 -0.4029
    2MPD2    H2   28   1.809   1.664  11.796 -2.6733  2.2042 -0.3117
    2MPD2    H3   29   1.972   1.605  11.640  1.4079  0.7133  1.6864
    2MPD2     N   30   2.106   2.025  11.548 -0.0464 -0.3750 -0.0625
    2MPD2    H5   31   2.183   1.985  11.496  1.4764  1.9587  0.4025
    2MPD2    N1   32   1.801   1.916  11.913  0.5400 -0.1833 -0.6490
    2MPD2    H7   33   1.806   2.016  11.932 -1.3086 -0.2854  0.3980
    3TMC1    C1   34   0.931   3.065  11.324 -0.4535 -0.2430  0.2944
    3TMC1    C2   35   0.991   3.167  11.259  0.2417 -0.5261  0.3847
    3TMC1    C3   36   1.044   3.134  11.135  0.3404  0.4451  0.6444
    3TMC1    C4   37   0.922   2.936  11.279 -0.7392  0.3221 -0.3127
    3TMC1    C5   38   0.977   2.904  11.158 -0.7843  0.0517 -0.0801
    3TMC1    C6   39   1.048   3.001  11.091 -0.1264  0.1439 -0.3086
    3TMC1     C   40   0.826   3.092  11.422  0.2568  0.3422  1.0818
    3TMC1     O   41   0.767   2.997  11.472  0.3000  0.1171 -0.2331
    3TMC1     H   42   0.988   3.271  11.289 -0.3910 -0.6732  0.8334
    3TMC1    H1   43   0.881   2.852  11.335  1.6076  0.6202  1.8468
    3TMC1    H2   44   1.078   2.986  10.988  0.5593 -0.5970  0.0064
    3TMC1    C7   45   0.972   2.766  11.105  0.7652  0.4094  1.0600
    3TMC1    C8   46   1.079   3.246  11.045 -0.2351 -0.4840 -0.4008
    3TMC1    O1   47   0.925   2.675  11.169  0.3325 -0.5297 -0.5339
    3TMC1    O2   48   1.102   3.362  11.080 -0.3258 -0.3566 -0.4073
    3TMC1    O3   49   1.062   2.737  11.011  0.2396 -0.1519 -0.0557
    3TMC1    H3   50   1.126   2.799  10.969  0.3271 -0.4012 -0.2926
    3TMC1    O5   51   1.093   3.203  10.917 -0.6184 -0.2930 -0.0386
    3TMC1    H5   52   1.036   3.128  10.888  0.3989 -0.6479 -1.1178
    4MPD2     C   53   0.600   3.404  11.759 -0.8756  0.2882 -0.2266
    4MPD2    C1   54   0.667   3.478  11.663 -0.4040  0.0553  0.1139
    4MPD2    C2   55   0.726   3.414  11.555 -0.3462  0.6938 -0.5945
    4MPD2    C3   56   0.730   3.279  11.543 -0.0527  0.0184  0.7049
    4MPD2    C4   57   0.665   3.205  11.635  0.5466 -0.3356  0.0614
    4MPD2    C5   58   0.599   3.261  11.748 -0.7245  0.8626  0.6091
    4MPD2     H   59   0.770   3.477  11.478 -0.9435 -0.4065 -1.8369
    4MPD2    H1   60   0.659   3.096  11.634 -1.1260 -0.2550  1.8673
    4MPD2    H2   61   0.557   3.453  11.846  0.0985 -1.0602  1.0301
    4MPD2    H3   62   0.551   3.210  11.830 -3.3384  0.2599 -1.3155
    4MPD2     N   63   0.810   3.224  11.442  0.1243 -0.0216  0.8327
    4MPD2    H5   64   0.879   3.282  11.395 -0.2046  0.1998  0.6258
    4MPD2    N1   65   0.663   3.617  11.667  0.3225  0.1999  0.1455
    4MPD2    H7   66   0.678   3.664  11.578  1.0162  0.6500  0.4961
    5TCq1    O1   67   1.784   0.386  11.896 -1.4038 -0.6692  0.3244
    5TCq1    C1   68   1.762   0.521  11.894 -0.1800 -0.8651 -0.2709
    5TCq1    O2   69   1.801   0.602  11.981  0.4538  0.5407 -0.3843
    5TCq1    C2   70   1.632   0.527  11.829  0.1261 -0.0468 -0.5166
    5TCq1    C3   71   1.540   0.593  11.900 -0.3899  0.9329 -0.1932
    5TCq1    C4   72   1.409   0.561  11.883 -0.2627  0.5710 -0.4411
    5TCq1    C5   73   1.380   0.458  11.794 -0.1782 -0.2479 -0.5140
    5TCq1    C6   74   1.477   0.397  11.717 -0.1026 -0.1760 -0.0477
    5TCq1    C7   75   1.606   0.439  11.728 -0.2658 -0.1223  0.2011
    5TCq1    C8   76   1.441   0.304  11.610  0.5498  0.5744  0.1202
    5TCq1    O4   77   1.519   0.216  11.580  0.0638  0.0123  0.1156
    5TCq1    C9   78   1.302   0.617  11.963  0.3518 -0.2418 -0.2028
    5TCq1    O5   79   1.201   0.548  11.974  0.2147  0.0192 -0.7145
    5TCq1    O6   80   1.323   0.724  12.026  0.2554  0.0927 -0.1205
    5TCq1    H1   81   1.726   0.321  11.850 -0.5131 -0.7748 -0.6461
    5TCq1    H2   82   1.563   0.658  11.984 -0.7993  0.3963  0.3331
    5TCq1    H3   83   1.276   0.426  11.794 -0.3992  0.4650 -0.9493
    5TCq1    H4   84   1.685   0.380  11.682 -0.8302 -0.0185 -0.8996
    6MPD2     C   85   1.147   0.338  11.384 -0.3569 -0.5563 -0.6690
    6MPD2    C1   86   1.261   0.281  11.441 -0.1628  0.2105  0.3085
    6MPD2    C2   87   1.304   0.161  11.384 -0.9424 -0.0624 -0.1451
    6MPD2    C3   88   1.238   0.099  11.278 -0.2204 -0.1179 -0.7444
    6MPD2    C4   89   1.121   0.158  11.232 -0.5780  0.0882  0.2639
    6MPD2    C5   90   1.084   0.281  11.281 -0.0189  0.4775 -0.3485
    6MPD2     H   91   1.396   0.114  11.415 -1.4034 -0.2398  0.9555
    6MPD2    H1   92   1.058   0.119  11.154  0.0017 -1.3777  0.5364
    6MPD2    H2   93   1.099   0.424  11.427  2.8308 -0.5488  2.8990
    6MPD2    H3   94   0.994   0.315  11.232  0.0942  1.9423  0.4650
    6MPD2     N   95   1.285   4.713  11.226 -0.0028  0.6747  0.5206
    6MPD2    H5   96   1.379   4.696  11.261 -0.4685 -1.3889  0.7621
    6MPD2    N1   97   1.326   0.342  11.552  0.6634  1.2352 -0.4575
    6MPD2    H7   98   1.270   0.418  11.591 -0.1311  0.5885 -0.3350
    7TCq1    O1   99   2.897   4.539  12.717 -0.1705  0.2076  0.4644
    7TCq1    C1  100   2.995   4.470  12.779  0.6377 -0.0909 -0.6086
    7TCq1    O2  101   3.043   4.501  12.888 -0.2678  0.1828 -0.2318
    7TCq1    C2  102   3.006   4.330  12.735  0.3572  0.9583  0.7688
    7TCq1    C3  103   2.985   4.280  12.609 -0.1331  0.0143 -0.4871
    7TCq1    C4  104   3.016   4.153  12.576  0.1957 -0.3466  0.3717
    7TCq1    C5  105   3.090   4.081  12.659 -0.3350  0.2185  0.0331
    7TCq1    C6  106   3.112   4.126  12.785  0.2418 -0.2809  0.2686
    7TCq1    C7  107   3.075   4.249  12.826  0.6296 -0.5807  0.1010
    7TCq1    C8  108   3.208   4.052  12.871  0.0068  0.3119  0.3082
    7TCq1    O4  109   3.237   3.932  12.850 -0.1730  0.4344 -0.1611
    7TCq1    C9  110   2.993   4.107  12.438  0.1888 -0.2050 -0.3163
    7TCq1    O5  111   2.940   4.181  12.354  0.2876 -0.0534  0.1855
    7TCq1    O6  112   3.008   3.984  12.414  0.2259  0.4178 -0.5135
    7TCq1    H1  113   2.861   4.486  12.642 -0.3405  0.4198  0.3957
    7TCq1    H2  114   2.939   4.338  12.530  0.6857 -0.2677 -1.1722
    7TCq1    H3  115   3.140   3.992  12.623  0.1729  0.3515  0.4055
    7TCq1    H4  116   3.073   4.277  12.931 -1.4047 -0.0713 -0.0722
    8MPD2     C  117   3.491   4.023  13.298  0.8857 -0.2721  0.2797
    8MPD2    C1  118   3.418   3.922  13.239  0.6154  0.0266  0.1248
    8MPD2    C2  119   3.355   3.957  13.120  0.6910 -0.4114 -0.2313
    8MPD2    C3  120   3.335   4.089  13.074 -0.4033  0.5867 -0.3679
    8MPD2    C4  121   3.386   4.186  13.154 -0.5964  0.1264  0.6766
    8MPD2    C5  122   3.474   4.151  13.260  0.3550  0.4216  0.0868
    8MPD2     H  123   3.301   3.880  13.065 -0.5028 -0.5147  1.0703
    8MPD2    H1  124   3.381   4.292  13.135  0.6582 -0.0822 -0.8091
    8MPD2    H2  125   3.555   3.985  13.377 -0.2536 -0.5225  1.0772
    8MPD2    H3  126   3.518   4.229  13.321  1.7826 -2.5279  2.8777
    8MPD2     N  127   3.265   4.135  12.963 -0.0472  0.1847 -0.2253
    8MPD2    H5  128   3.252   4.234  12.946  0.6901  0.4552  0.7699
    8MPD2    N1  129   3.431   3.793  13.287  0.0652 -0.1546 -0.5219
    8MPD2    H7  130   3.482   3.775  13.373 -1.7251  1.5220  0.9166
    9TMC1    C1  131   1.837   3.221  11.186 -0.0534 -0.0449  0.9840
    9TMC1    C2  132   1.867   3.308  11.297 -0.1280  0.2115 -1.1529
    9TMC1    C3  133   1.899   3.437  11.262 -0.0967  0.5650 -0.0033
    9TMC1    C4  134   1.810   3.276  11.067 -0.5600 -0.5646  0.2379
    9TMC1    C5  135   1.824   3.411  11.048 -0.4074  0.1326  0.7999
    9TMC1    C6  136   1.883   3.490  11.142 -0.2383  0.2836  0.0100
    9TMC1     C  137   1.783   3.091  11.213  0.0095  0.4463 -0.2079
    9TMC1     O  138   1.780   3.008  11.124 -0.0701 -0.0840  0.3340
    9TMC1     H  139   1.892   3.267  11.394 -1.6411  0.8784 -0.4732
    9TMC1    H1  140   1.772   3.213  10.987  0.8542 -2.8769  1.3614
    9TMC1    H2  141   1.889   3.598  11.135 -0.3142  0.2692 -0.2890
    9TMC1    C7  142   1.804   3.460  10.911 -0.0128 -1.1682 -0.6560
    9TMC1    C8  143   1.928   3.530  11.370 -0.5281 -0.4476 -0.0333
    9TMC1    O1  144   1.714   3.425  10.841 -0.0468 -0.1670 -0.2388
    9TMC1    O2  145   1.893   3.646  11.378  0.5726 -0.4947  0.1565
    9TMC1    O3  146   1.926   3.490  10.872  0.1255  0.2216  0.0513
    9TMC1    H3  147   1.977   3.523  10.949  0.5552 -1.9003  0.6834
    9TMC1    O5  148   2.013   3.478  11.463 -0.2044 -0.4299 -0.1454
    9TMC1    H5  149   2.067   3.400  11.438 -1.3371 -1.5138  0.8011
   10MPD2     C  150   1.732   2.841  11.374  0.4317  0.0020  0.3907
   10MPD2    C1  151   1.688   2.962  11.403 -0.1990  0.2326 -0.0806
   10MPD2    C2  152   1.605   2.983  11.514  0.2193  0.3676 -0.4891
   10MPD2    C3  153   1.571   2.873  11.585 -0.1788  0.5623 -0.0036
   10MPD2    C4  154   1.621   2.748  11.551  0.0215  0.1374 -0.0868
   10MPD2    C5  155   1.696   2.733  11.444 -0.2485  0.4537  0.5712
   10MPD2     H  156   1.552   3.074  11.542  0.0316  0.5319 -1.3876
   10MPD2    H1  157   1.576   2.664  11.602 -0.5688  1.0733  0.9606
   10MPD2    H2  158   1.807   2.823  11.298  0.1110  0.2885  0.0075
   10MPD2    H3  159   1.741   2.642  11.406  0.2393  0.3147  1.4980
   10MPD2     N  160   1.489   2.869  11.697  0.1054  0.7545 -0.0621
   10MPD2    H5  161   1.456   2.778  11.726  0.9233  0.5497  0.2349
   10MPD2    N1  162   1.732   3.079  11.337 -0.7078  0.0789 -0.4630
   10MPD2    H7  163   1.737   3.162  11.396  1.1964  1.8125 -3.0619
   11TCq1    O1  164   2.611   2.932  13.844 -0.0464 -0.6480  0.1373
   11TCq1    C1  165   2.529   2.872  13.929 -0.0184  1.0511 -0.5219
   11TCq1    O2  166   2.453   2.784  13.900 -0.0824 -0.2314 -0.4084
   11TCq1    C2  167   2.573   2.895  14.066  0.0530  0.4382  0.3043
   11TCq1    C3  168   2.710   2.880  14.087 -0.3766 -0.0978 -0.0922
   11TCq1    C4  169   2.760   2.854  14.216 -0.0515 -0.2975 -0.0413
   11TCq1    C5  170   2.674   2.815  14.309  0.1948  0.9598 -0.2152
   11TCq1    C6  171   2.543   2.810  14.293 -0.2878 -0.2390  0.4664
   11TCq1    C7  172   2.485   2.848  14.168  0.0923 -0.9384  0.4024
   11TCq1    C8  173   2.460   2.766  14.406  0.6665  0.5311  0.0416
   11TCq1    O4  174   2.511   2.768  14.518 -0.2903 -0.2161 -0.4641
   11TCq1    C9  175   2.908   2.876  14.249  0.1519 -0.7054 -0.5379
   11TCq1    O5  176   2.935   2.859  14.370  0.0471  0.1044  0.3370
   11TCq1    O6  177   2.986   2.918  14.162  0.2913  0.6881 -0.4753
   11TCq1    H1  178   2.646   3.008  13.894 -1.7188 -0.3966  0.9467
   11TCq1    H2  179   2.781   2.917  14.014  0.4303 -0.8593  0.3088
   11TCq1    H3  180   2.715   2.793  14.407 -0.3302 -2.0041 -0.6386
   11TCq1    H4  181   2.381   2.835  14.144  0.6264 -1.6008 -1.5361
   12MPD2     C  182   2.219   2.712  14.589 -0.0844 -0.4203  0.1468
   12MPD2    C1  183   2.240   2.665  14.454 -0.3294 -0.2767 -0.3809
   12MPD2    C2  184   2.141   2.571  14.411  0.5394 -0.2238  0.0865
   12MPD2    C3  185   2.031   2.526  14.485  0.3799  0.5282  0.4451
   12MPD2    C4  186   2.026   2.563  14.621 -0.3253 -0.4683 -0.4791
   12MPD2    C5  187   2.113   2.663  14.660  0.4354 -0.0279 -0.3970
   12MPD2     H  188   2.130   2.553  14.304  1.2992 -2.0166  0.3141
   12MPD2    H1  189   1.941   2.542  14.686 -0.5261 -0.9286 -0.8963
   12MPD2    H2  190   2.294   2.772  14.640 -1.2344 -0.6252  2.0633
   12MPD2    H3  191   2.110   2.708  14.759 -1.4188 -0.5420 -0.2210
   12MPD2     N  192   1.940   2.440  14.422  0.7451 -0.1938  0.8496
   12MPD2    H5  193   1.980   2.407  14.335  1.5165 -0.4236  1.2883
   12MPD2    N1  194   2.348   2.706  14.367  0.4202  0.1342  0.1175
   12MPD2    H7  195   2.328   2.693  14.268  1.9159 -2.6393  0.1733
   13TCq1    O1  196   2.047   3.200  10.870 -0.0799  0.2944  0.1722
   13TCq1    C1  197   1.965   3.094  10.837  0.8564  0.0023 -0.2639
   13TCq1    O2  198   1.855   3.096  10.782  0.0086 -0.1587  0.1399
   13TCq1    C2  199   2.030   2.966  10.871  0.0647 -0.4478  0.2929
   13TCq1    C3  200   2.153   2.971  10.918  0.3493 -0.3621  0.2070
   13TCq1    C4  201   2.191   2.868  11.001 -0.3784  0.4683  0.4518
   13TCq1    C5  202   2.107   2.766  11.038  0.0483 -0.5538  0.2170
   13TCq1    C6  203   1.981   2.772  10.991 -0.1740  0.3569 -0.5590
   13TCq1    C7  204   1.939   2.876  10.905 -0.2130  0.5892 -0.5719
   13TCq1    C8  205   1.876   2.678  11.025 -0.4234  0.2919 -0.1937
   13TCq1    O4  206   1.779   2.672  10.954  0.3538 -0.0407  0.4070
   13TCq1    C9  207   2.336   2.874  11.047 -0.5767  0.6062 -0.4344
   13TCq1    O5  208   2.379   2.821  11.156 -0.4138 -0.3409  0.7534
   13TCq1    O6  209   2.413   2.942  10.976  0.1870  0.2089 -0.1612
   13TCq1    H1  210   2.108   3.171  10.941 -1.2022  0.9953  1.4328
   13TCq1    H2  211   2.226   3.042  10.880 -1.8320  1.5699 -0.3859
   13TCq1    H3  212   2.145   2.693  11.109  0.6529 -1.0201 -0.5798
   13TCq1    H4  213   1.841   2.874  10.858 -0.1106 -1.1803 -0.7117
   14MPD2     C  214   1.889   2.402  11.266 -0.0725  0.8308 -0.6242
   14MPD2    C1  215   1.826   2.504  11.197  0.2286  0.2902  1.0172
   14MPD2    C2  216   1.690   2.506  11.183  0.0674  0.7137 -0.0538
   14MPD2    C3  217   1.618   2.413  11.263  0.3668  0.6473  0.4429
   14MPD2    C4  218   1.684   2.309  11.326 -0.1862  0.3378 -0.4307
   14MPD2    C5  219   1.813   2.305  11.325 -0.4482  0.2363 -0.3110
   14MPD2     H  220   1.628   2.584  11.139 -1.2351  1.1828  2.5641
   14MPD2    H1  221   1.636   2.231  11.384 -0.4924  0.3328 -0.6943
   14MPD2    H2  222   1.996   2.394  11.279 -0.3761 -0.9885  0.7775
   14MPD2    H3  223   1.863   2.224  11.378 -0.5296 -0.5120 -1.3569
   14MPD2     N  224   1.477   2.439  11.286 -0.1287 -0.4512 -0.6212
   14MPD2    H5  225   1.442   2.527  11.249  0.6622  0.3256  0.4940
   14MPD2    N1  226   1.917   2.599  11.136 -0.4753 -0.8064  0.5075
   14MPD2    H7  227   2.007   2.609  11.180  0.8659 -0.7523 -2.2291
   15TCq1    O1  228   3.155   2.568   1.561  0.0058  0.1827 -0.1881
   15TCq1    C1  229   3.189   2.550   1.438 -0.0045  0.0760  0.0053
   15TCq1    O2  230   3.105   2.527   1.355  0.7835  0.0826  0.5138
   15TCq1    C2  231   3.314   2.468   1.448  0.7881  0.2625  0.1356
   15TCq1    C3  232   3.409   2.502   1.537  0.3459  0.1796  0.6905
   15TCq1    C4  233   3.529   2.426   1.529  0.0771 -0.7760  0.9581
   15TCq1    C5  234   3.544   2.318   1.453 -0.0116 -0.0142  0.1075
   15TCq1    C6  235   3.450   2.301   1.359 -0.6165  0.3094 -0.4752
   15TCq1    C7  236   3.336   2.375   1.353  0.3347 -0.2001  0.9322
   15TCq1    C8  237   3.451   2.177   1.275  0.4421 -0.1210  0.4498
   15TCq1    O4  238   3.530   2.087   1.305 -0.3863  0.5346  0.5123
   15TCq1    C9  239   3.643   2.468   1.606 -0.4152 -0.0485 -0.5086
   15TCq1    O5  240   3.750   2.418   1.574 -0.1844  0.7664 -0.5419
   15TCq1    O6  241   3.624   2.561   1.691 -0.2591 -0.2344 -0.5081
   15TCq1    H1  242   3.227   2.562   1.628 -0.3466 -0.7718  0.1004
   15TCq1    H2  243   3.401   2.566   1.625  1.3539 -0.2298  1.0804
   15TCq1    H3  244   3.631   2.254   1.456  0.8252  1.0958 -0.7089
   15TCq1    H4  245   3.257   2.371   1.280 -0.6231  1.6184  1.8712
   16MPD2     C  246   3.305   2.155   0.938  0.1537 -0.2529  1.1834
   16MPD2    C1  247   3.358   2.104   1.049 -0.1148 -0.3593 -0.1544
   16MPD2    C2  248   3.404   1.972   1.048 -0.1208 -0.8224 -0.0780
   16MPD2    C3  249   3.388   1.893   0.942  0.2025 -0.2065 -0.2262
   16MPD2    C4  250   3.336   1.944   0.827  0.2110  0.5347  0.1391
   16MPD2    C5  251   3.303   2.077   0.825  0.6410  0.3606 -0.1229
   16MPD2     H  252   3.446   1.924   1.136 -1.2136 -0.6640  0.5355
   16MPD2    H1  253   3.323   1.893   0.732  1.8791  0.3132  0.0277
   16MPD2    H2  254   3.269   2.255   0.916  0.9580 -0.7271 -2.2877
   16MPD2    H3  255   3.261   2.121   0.735 -2.2481  0.1665  1.1118
   16MPD2     N  256   3.442   1.759   0.951 -0.3588 -0.5796 -0.4687
   16MPD2    H5  257   3.486   1.732   1.038 -0.8748 -0.1484 -0.0781
   16MPD2    N1  258   3.368   2.189   1.161  0.3051 -0.2448 -0.7107
   16MPD2    H7  259   3.332   2.283   1.145  0.4334 -0.7033 -3.7148
   17TMC1    C1  260   1.523   2.114  11.054 -0.3845  0.3652  0.1126
   17TMC1    C2  261   1.397   2.122  11.107 -0.6259 -0.0796  0.7211
   17TMC1    C3  262   1.296   2.173  11.033  0.1554 -0.7167  0.0661
   17TMC1    C4  263   1.540   2.142  10.920  0.1161  0.0655  0.4388
   17TMC1    C5  264   1.432   2.188  10.848  0.3778 -0.3343 -0.5667
   17TMC1    C6  265   1.311   2.211  10.905 -0.1977  0.9405 -0.1867
   17TMC1     C  266   1.617   2.026  11.128  0.0200  0.4306 -0.1447
   17TMC1     O  267   1.579   1.965  11.228 -0.1275  0.1137  0.3394
   17TMC1     H  268   1.385   2.106  11.213  1.7931  0.1313  1.0209
   17TMC1    H1  269   1.623   2.097  10.867 -0.3288 -0.8330  0.5172
   17TMC1    H2  270   1.227   2.250  10.848 -1.0469 -0.2554  0.2567
   17TMC1    C7  271   1.455   2.182  10.706 -0.9450  1.1845  0.1747
   17TMC1    C8  272   1.174   2.208  11.095 -0.7340  0.3115  0.0731
   17TMC1    O1  273   1.563   2.194  10.650  0.1674  0.6204 -0.3241
   17TMC1    O2  274   1.114   2.133  11.165 -0.1772  0.9224  0.5991
   17TMC1    O3  275   1.337   2.202  10.646 -0.2422  0.1001  0.4194
   17TMC1    H3  276   1.256   2.183  10.697  0.1095  1.1845  1.3863
   17TMC1    O5  277   1.160   2.343  11.085 -0.1593 -0.4677  0.3942
   17TMC1    H5  278   1.230   2.391  11.034  1.0637  0.5000  3.0145
   18MPD2     C  279   1.844   1.842  11.214  0.1822 -0.1876 -0.3954
   18MPD2    C1  280   1.844   1.926  11.102 -1.4544 -0.4525  1.2414
   18MPD2    C2  281   1.962   1.927  11.030  0.0084  0.0964  0.2691
   18MPD2    C3  282   2.076   1.838  11.046 -0.2232 -0.6034 -0.4165
   18MPD2    C4  283   2.052   1.744  11.138  0.4899  0.4494  0.4022
   18MPD2    C5  284   1.948   1.754  11.228  0.1613  0.1296 -0.4176
   18MPD2     H  285   1.959   2.004  10.954  0.5656 -0.0075  0.1371
   18MPD2    H1  286   2.119   1.661  11.154  0.8817  0.3751 -1.7075
   18MPD2    H2  287   1.754   1.824  11.271  1.1286 -0.1995  1.1236
   18MPD2    H3  288   1.945   1.673  11.300 -2.2468  1.2321  0.7741
   18MPD2     N  289   2.190   1.837  10.957 -0.4866 -0.5375  0.3016
   18MPD2    H5  290   2.257   1.761  10.958 -1.5958 -1.5142  0.7183
   18MPD2    N1  291   1.737   2.013  11.064  0.2229  0.0759 -0.2705
   18MPD2    H7  292   1.754   2.080  10.989  2.2625  0.2858  0.3662
   19TMC2    C1  293   3.327   2.620  14.235 -0.4498 -0.4328 -0.1348
   19TMC2    C2  294   3.321   2.692  14.357  0.5143  1.1079  0.8240
   19TMC2    C3  295   3.207   2.677  14.435  0.0835 -0.1670  0.3212
   19TMC2    C4  296   3.221   2.542  14.195 -0.7455  0.2842 -0.2730
   19TMC2    C5  297   3.109   2.536  14.276  0.0269 -0.2937  0.8016
   19TMC2    C6  298   3.104   2.596  14.396  0.6775 -0.0985  0.4699
   19TMC2     C  299   3.460   2.585  14.179 -0.4744 -0.4477 -0.4662
   19TMC2     O  300   3.458   2.502  14.089  0.1029  0.2261  0.6934
   19TMC2     H  301   3.401   2.752  14.399 -0.7785  1.2088  3.1805
   19TMC2    H1  302   3.227   2.485  14.103 -1.0704 -1.6857  0.9271
   19TMC2    H2  303   3.031   2.575  14.473 -0.2100  0.4448 -0.2238
   19TMC2    C7  304   3.000   2.451  14.233 -0.2826 -0.3088 -0.3372
   19TMC2    C8  305   3.198   2.752  14.557  0.2981 -0.2455 -0.3806
   19TMC2    O1  306   3.026   2.391  14.131 -0.3731 -0.4908  0.2689
   19TMC2    O2  307   3.299   2.778  14.622 -0.4893  0.2479 -0.2200
   19TMC2    O5  308   3.089   2.828  14.574 -0.0286  0.4135  0.0919
   19TMC2    H5  309   3.031   2.820  14.495 -0.4697 -1.0407  0.5743
   20MPD2     C  310   3.759   2.544  14.132 -0.3739 -0.3122  0.0088
   20MPD2    C1  311   3.696   2.578  14.254 -0.3676  0.1967  0.3053
   20MPD2    C2  312   3.777   2.569  14.370 -0.0733 -0.2430  0.1560
   20MPD2    C3  313   3.912   2.533  14.368 -0.0521  0.2236 -0.0471
   20MPD2    C4  314   3.975   2.504  14.245 -0.2420 -0.3234 -0.8796
   20MPD2    C5  315   3.897   2.506  14.131 -1.4145 -0.2227 -0.3165
   20MPD2     H  316   3.725   2.583  14.465 -2.0313 -3.7285 -0.4081
   20MPD2    H1  317   4.080   2.478  14.232 -0.3444  0.2431 -2.9270
   20MPD2    H2  318   3.703   2.575  14.044  0.4844 -0.1054 -0.4696
   20MPD2    H3  319   3.941   2.493  14.034 -1.4173 -3.7083  0.1554
   20MPD2     N  320   3.982   2.493  14.480  0.5167  0.0078 -0.6681
   20MPD2    H5  321   4.079   2.467  14.464 -0.3166 -3.4546  0.0357
   20MPD2    N1  322   3.562   2.619  14.259 -0.2158  0.1503 -0.0415
   20MPD2    H7  323   3.551   2.662  14.351 -0.3574  2.3633 -1.0947
   21TMC2    C1  324   0.724   3.305  13.972  0.1842  0.0776  0.4995
   21TMC2    C2  325   0.824   3.207  13.962 -0.4370 -0.1994 -0.2067
   21TMC2    C3  326   0.781   3.081  13.991 -0.0724 -0.0033  0.1155
   21TMC2    C4  327   0.589   3.272  13.971 -0.7267 -0.0464 -0.2937
   21TMC2    C5  328   0.556   3.147  14.014  0.1346  0.2254 -0.6888
   21TMC2    C6  329   0.657   3.053  14.026 -0.3282  0.0729 -0.2105
   21TMC2     C  330   0.754   3.378  14.088  0.3503  0.1951  0.2897
   21TMC2     O  331   0.862   3.358  14.144  0.1400 -0.0322 -0.2405
   21TMC2     H  332   0.927   3.231  13.937 -0.4243 -0.3810 -0.3246
   21TMC2    H1  333   0.511   3.346  13.961  0.3491  1.0917 -0.2689
   21TMC2    H2  334   0.634   2.959  14.076  2.7299  0.5274  1.9736
   21TMC2    C7  335   0.445   3.129  14.109  0.0187 -0.6839 -0.2572
   21TMC2    C8  336   0.883   2.996  14.054 -0.1735  0.2380 -0.7901
   21TMC2    O1  337   0.447   3.030  14.183 -0.0728  0.4311 -0.0101
   21TMC2    O2  338   0.865   2.880  14.077  0.3112 -0.1783 -0.3853
   21TMC2    O5  339   0.919   3.088  14.154  0.0975  0.4811  0.6397
   21TMC2    H5  340   0.890   3.180  14.137  0.6381  0.3919 -0.7674
   22MPD2     C  341   0.583   3.455  14.562 -0.3996 -0.1338  0.1104
   22MPD2    C1  342   0.675   3.359  14.514 -0.2690 -0.9174  0.7066
   22MPD2    C2  343   0.698   3.347  14.381  0.3029  1.0648 -0.2650
   22MPD2    C3  344   0.631   3.432  14.294  0.8282 -0.2351 -0.1404
   22MPD2    C4  345   0.534   3.519  14.342  0.6109  0.4248 -0.2085
   22MPD2    C5  346   0.511   3.533  14.474 -0.0319 -0.5693 -0.9294
   22MPD2     H  347   0.766   3.268  14.349 -0.8583 -0.5603  1.2935
   22MPD2    H1  348   0.470   3.574  14.274  1.2326  0.2137 -0.9625
   22MPD2    H2  349   0.557   3.465  14.667  0.0779  0.6792  0.1500
   22MPD2    H3  350   0.432   3.600  14.508  0.0890  0.4627 -2.7030
   22MPD2     N  351   0.642   3.424  14.151 -0.2325  0.0771  0.0369
   22MPD2    H5  352   0.572   3.470  14.094 -0.6388  4.4501  4.0332
   22MPD2    N1  353   0.743   3.270  14.603  0.9954  0.6371  0.2520
   22MPD2    H7  354   0.797   3.195  14.561 -1.6822 -0.9851 -0.2738
   23TMC2    C1  355   1.660   4.008  14.536 -0.3071 -0.0172  0.3100
   23TMC2    C2  356   1.686   4.105  14.447 -0.1077  0.0887 -0.4249
   23TMC2    C3  357   1.614   4.099  14.334  0.4310 -0.0415 -0.1220
   23TMC2    C4  358   1.568   3.911  14.516 -0.6507 -0.0983 -0.3325
   23TMC2    C5  359   1.493   3.917  14.410 -0.2039 -0.1239 -0.0882
   23TMC2    C6  360   1.517   4.009  14.308  0.3012  0.1033  0.4366
   23TMC2     C  361   1.749   3.997  14.646  0.5464 -0.7453  0.0810
   23TMC2     O  362   1.753   3.888  14.699 -0.1352  0.0890 -0.5302
   23TMC2     H  363   1.777   4.163  14.453  0.4304 -0.6658 -1.4620
   23TMC2    H1  364   1.552   3.843  14.599 -0.3241  0.5006  0.2219
   23TMC2    H2  365   1.461   4.025  14.217  1.8853 -2.0580 -0.9338
   23TMC2    C7  366   1.392   3.817  14.402  0.1314 -0.0267  0.1557
   23TMC2    C8  367   1.592   4.223  14.263  0.2447 -0.0232 -0.1406
   23TMC2    O1  368   1.410   3.726  14.481 -0.4180  0.4383  0.5983
   23TMC2    O2  369   1.478   4.260  14.237  0.2785 -0.4359 -0.1547
   23TMC2    O5  370   1.694   4.309  14.283  0.2801  0.2288  0.2145
   23TMC2    H5  371   1.777   4.265  14.312  0.2518  0.6687  0.9614
   24MPD2     C  372   2.056   4.159  15.021 -0.0814  0.8142  0.0516
   24MPD2    C1  373   2.056   4.032  14.961  0.0027 -0.3454 -0.0861
   24MPD2    C2  374   1.965   4.018  14.852  0.1031  0.2321  0.7057
   24MPD2    C3  375   1.901   4.122  14.787  0.2775 -0.0039  0.5239
   24MPD2    C4  376   1.928   4.250  14.830  0.5311  0.8293  0.0344
   24MPD2    C5  377   2.001   4.265  14.946 -0.0382 -0.0922 -0.3737
   24MPD2     H  378   1.948   3.915  14.820 -0.7184  0.2844  0.9763
   24MPD2    H1  379   1.895   4.338  14.777 -0.0375  0.6567  0.1021
   24MPD2    H2  380   2.106   4.175  15.116  3.1095 -2.8789 -0.9810
   24MPD2    H3  381   2.014   4.364  14.989 -0.5479 -0.0723 -0.2709
   24MPD2     N  382   1.802   4.109  14.689 -0.1947  0.2686 -0.4636
   24MPD2    H5  383   1.755   4.195  14.661 -2.5258 -0.4662  1.2004
   24MPD2    N1  384   2.131   3.925  15.012 -0.0555 -0.1145  0.0303
   24MPD2    H7  385   2.139   3.846  14.948  2.4675 -2.0893  2.8217
   25TMC2    C1  386   1.333   1.303  11.500  0.7265 -0.1544  0.2159
   25TMC2    C2  387   1.434   1.370  11.438 -0.4945 -0.0924 -0.2510
   25TMC2    C3  388   1.434   1.505  11.440  0.1378 -0.0695 -0.4614
   25TMC2    C4  389   1.233   1.371  11.568  0.7748  0.0458  0.2257
   25TMC2    C5  390   1.240   1.508  11.564 -0.5070  0.6522 -0.9011
   25TMC2    C6  391   1.339   1.582  11.494 -0.2975 -0.7729  0.2260
   25TMC2     C  392   1.336   1.162  11.491 -0.2648  0.4995  0.4608
   25TMC2     O  393   1.449   1.109  11.506  0.0035  0.3677 -0.4125
   25TMC2     H  394   1.515   1.314  11.392 -0.7265 -0.8407  0.2426
   25TMC2    H1  395   1.151   1.318  11.615  1.0289 -0.4832  0.0742
   25TMC2    H2  396   1.331   1.689  11.483 -1.4069 -0.9052 -0.2814
   25TMC2    C7  397   1.160   1.579  11.663  0.4439  0.1686  0.4095
   25TMC2    C8  398   1.543   1.565  11.368 -0.1735 -0.0047 -0.8214
   25TMC2    O1  399   1.125   1.517  11.763  0.0974  0.2102 -0.0022
   25TMC2    O2  400   1.591   1.519  11.263  0.4529  0.7067 -0.0230
   25TMC2    O5  401   1.586   1.667  11.435 -0.0125 -0.0156 -0.1570
   25TMC2    H5  402   1.552   1.682  11.526  0.6175  1.6814 -0.2137
   26MPD2     C  403   1.231   0.803  11.143  0.3329 -0.8029 -0.1228
   26MPD2    C1  404   1.106   0.854  11.178  0.2084 -0.3524 -0.8783
   26MPD2    C2  405   1.108   0.950  11.282 -0.0583  0.0468  0.5361
   26MPD2    C3  406   1.224   1.003  11.335  0.0774  0.4595  0.4074
   26MPD2    C4  407   1.340   0.940  11.303  0.0768  0.3391 -0.4067
   26MPD2    C5  408   1.339   0.851  11.202 -0.2400 -0.6112  0.7150
   26MPD2     H  409   1.021   1.003  11.318 -1.3237 -2.8639  1.7419
   26MPD2    H1  410   1.442   0.959  11.336  0.2828 -0.1323 -0.7675
   26MPD2    H2  411   1.251   0.724  11.071  0.1705  0.1183 -1.1735
   26MPD2    H3  412   1.434   0.802  11.183 -0.4946 -0.1336 -1.7855
   26MPD2     N  413   1.222   1.115  11.422 -0.2812 -0.8153 -0.2283
   26MPD2    H5  414   1.144   1.180  11.426  0.6853  0.2843  0.6518
   26MPD2    N1  415   0.987   0.795  11.130  0.3568  0.7555 -0.4211
   26MPD2    H7  416   0.991   0.731  11.051  0.2986  0.5528 -0.2613
   27TMC2    C1  417   4.741   3.436  12.564  0.3516  0.1680 -0.2173
   27TMC2    C2  418   4.678   3.499  12.463 -0.2729  0.3993 -0.7898
   27TMC2    C3  419   0.021   3.550  12.368  1.0248 -0.0347  0.3306
   27TMC2    C4  420   0.137   3.416  12.570 -0.3638  0.2969 -0.4046
   27TMC2    C5  421   0.213   3.467  12.474  0.3725  0.4951  0.4601
   27TMC2    C6  422   0.156   3.529  12.370  0.1224 -0.1041  0.6683
   27TMC2     C  423   4.661   3.379  12.672  0.6857  0.6514  0.3081
   27TMC2     O  424   4.717   3.294  12.743  0.0612  0.0490 -0.3124
   27TMC2     H  425   4.576   3.535  12.465 -0.1154  0.7605  1.4560
   27TMC2    H1  426   0.170   3.367  12.661 -2.6528  1.5585  1.1139
   27TMC2    H2  427   0.213   3.583  12.296 -1.8324 -1.0729 -1.5538
   27TMC2    C7  428   0.340   3.531  12.518  0.3149  0.5137 -0.2363
   27TMC2    C8  429   4.715   3.644  12.270  0.0651 -0.0091 -0.0583
   27TMC2    O1  430   0.376   3.632  12.465  0.3328  0.3586 -0.5855
   27TMC2    O2  431   0.036   3.742  12.237 -0.1435 -0.1028  0.0467
   27TMC2    O5  432   4.585   3.632  12.263 -0.2441 -0.0827  0.4051
   27TMC2    H5  433   4.565   3.537  12.267  0.8286 -0.4338 -2.0824
   28MPD2     C  434   4.187   3.219  12.780 -0.2149 -0.2287 -0.8954
   28MPD2    C1  435   4.179   3.354  12.735  0.1994  0.4231 -0.2735
   28MPD2    C2  436   4.301   3.417  12.708 -0.0888 -0.4987  0.2047
   28MPD2    C3  437   4.421   3.358  12.731 -0.5118 -0.4840  0.4607
   28MPD2    C4  438   4.424   3.233  12.802 -0.1336 -0.6340  0.2591
   28MPD2    C5  439   4.313   3.164  12.816  0.6955 -0.7486 -0.2046
   28MPD2     H  440   4.311   3.517  12.669 -0.5470  0.1824  1.8321
   28MPD2    H1  441   4.520   3.191  12.829 -0.6582  0.3204  3.6568
   28MPD2    H2  442   4.095   3.163  12.794  0.4698 -0.5838  2.1521
   28MPD2    H3  443   4.304   3.067  12.863 -0.7158 -0.5152  0.0387
   28MPD2     N  444   4.533   3.417  12.666  0.1876  0.6147 -0.1894
   28MPD2    H5  445   4.513   3.505  12.619  0.6445  0.9475  0.2427
   28MPD2    N1  446   4.048   3.410  12.709 -0.1131 -0.1950 -0.9004
   28MPD2    H7  447   3.967   3.350  12.719  1.1037 -1.2862  2.4337
   29TMC2    C1  448   4.009   1.334  14.663  0.5365 -0.6486  0.1250
   29TMC2    C2  449   4.018   1.333  14.799 -0.1505  0.4250  0.3612
   29TMC2    C3  450   4.035   1.448  14.864 -0.4860 -0.5665  0.7900
   29TMC2    C4  451   4.013   1.447  14.590  0.0821  0.0830  0.1510
   29TMC2    C5  452   4.022   1.567  14.664 -0.8229  0.0076 -0.0150
   29TMC2    C6  453   4.031   1.567  14.805 -0.0653  0.4562 -0.5305
   29TMC2     C  454   3.954   1.214  14.600 -0.3109  0.3761  0.6547
   29TMC2     O  455   3.982   1.100  14.635  0.3925  0.1973 -0.2223
   29TMC2     H  456   4.016   1.238  14.852  0.7860 -0.3363 -0.9574
   29TMC2    H1  457   3.989   1.454  14.485 -1.1306  0.1330  0.4289
   29TMC2    H2  458   4.027   1.660  14.860 -1.0941 -0.5750  1.1408
   29TMC2    C7  459   3.976   1.687  14.601 -0.3341  0.1513  0.5530
   29TMC2    C8  460   4.010   1.450  15.007  0.2569  0.3414  0.7486
   29TMC2    O1  461   3.900   1.670  14.504  0.3714 -0.0136 -0.4821
   29TMC2    O2  462   3.965   1.359  15.077 -0.6963  0.3044 -0.2478
   29TMC2    O5  463   4.101   1.535  15.057  1.2279 -0.4341  0.0219
   29TMC2    H5  464   4.148   1.601  15.001 -2.4686  1.1488 -1.1687
   30MPD2     C  465   3.620   1.012  14.285  0.5304  0.5067  0.1496
   30MPD2    C1  466   3.743   0.976  14.314  0.0592 -0.2921 -0.3190
   30MPD2    C2  467   3.823   1.065  14.383 -0.0439 -0.7044  1.0825
   30MPD2    C3  468   3.775   1.179  14.440  0.0657  0.6600 -0.9894
   30MPD2    C4  469   3.652   1.212  14.406 -0.4236 -0.3920  0.7229
   30MPD2    C5  470   3.572   1.139  14.327 -0.0993  0.0122  0.5680
   30MPD2     H  471   3.929   1.041  14.395  0.7237  1.3557 -1.5665
   30MPD2    H1  472   3.624   1.306  14.451  0.8493  0.8308 -1.0633
   30MPD2    H2  473   3.556   0.960  14.215  0.0906  0.6989  0.4168
   30MPD2    H3  474   3.474   1.174  14.294  0.1072  1.1504  1.1606
   30MPD2     N  475   3.853   1.263  14.523  0.3593 -0.9110 -0.3280
   30MPD2    H5  476   3.818   1.357  14.541 -0.5327 -1.0273 -1.4274
   30MPD2    N1  477   3.800   0.855  14.267 -0.2513  0.0756 -0.5530
   30MPD2    H7  478   3.895   0.828  14.289  0.0742  1.6322 -0.0427
   31TMC2    C1  479   1.758   0.078  15.428  0.3611 -0.4760  0.1159
   31TMC2    C2  480   1.642   0.143  15.451  0.2392  0.2719  0.0817
   31TMC2    C3  481   1.595   0.160  15.580 -0.6442 -0.4126  0.0721
   31TMC2    C4  482   1.838   0.036  15.533  0.7427 -0.1793 -0.3497
   31TMC2    C5  483   1.792   0.074  15.661 -0.1577 -0.2440  0.5614
   31TMC2    C6  484   1.682   0.146  15.682  0.0958  0.4719  0.4460
   31TMC2     C  485   1.822   0.128  15.306  0.6492 -0.2700  0.0250
   31TMC2     O  486   1.769   0.226  15.256  0.3671 -0.1894 -1.0014
   31TMC2     H  487   1.568   0.121  15.375  3.3815 -1.3018 -2.5243
   31TMC2    H1  488   1.938   4.736  15.533  0.8775  0.1335 -0.8969
   31TMC2    H2  489   1.648   0.167  15.783 -3.0406 -3.1745  0.1349
   31TMC2    C7  490   1.876   0.029  15.772 -0.2699 -0.3003  0.4782
   31TMC2    C8  491   1.459   0.208  15.605  0.5664 -0.3407 -0.3192
   31TMC2    O1  492   1.939   4.667  15.754  0.1724 -0.4311  0.1651
   31TMC2    O2  493   1.419   0.202  15.719  0.2475 -0.0773  0.0423
   31TMC2    O5  494   1.430   0.294  15.504  0.5155 -0.2367 -0.1366
   31TMC2    H5  495   1.486   0.290  15.424  0.7927  1.8324 -0.0603
   32MPD2     C  496   2.139   0.121  14.911 -0.2814  0.7013 -0.0188
   32MPD2    C1  497   2.044   0.210  14.941  0.1336 -0.9472  0.2076
   32MPD2    C2  498   1.978   0.200  15.059  0.0903  0.5559  0.3604
   32MPD2    C3  499   2.007   0.094  15.150 -0.3330 -0.1807 -0.8479
   32MPD2    C4  500   2.090   4.740  15.109  0.3659 -0.3743  0.0221
   32MPD2    C5  501   2.161   0.017  14.994 -0.1003 -0.4372 -0.1313
   32MPD2     H  502   1.897   0.269  15.080 -0.2994  0.1285  0.2710
   32MPD2    H1  503   2.106   4.653  15.173 -0.8457 -0.5069  0.1468
   32MPD2    H2  504   2.206   0.125  14.827  0.3097 -0.1284  0.4086
   32MPD2    H3  505   2.222   4.674  14.967 -0.5779 -0.4519 -1.1841
   32MPD2     N  506   1.939   0.067  15.269 -0.6246 -0.2371 -0.4207
   32MPD2    H5  507   1.976   4.729  15.318  3.0292  0.9872 -1.1610
   32MPD2    N1  508   2.015   0.305  14.840  0.6019  0.3039 -0.1295
   32MPD2    H7  509   2.077   0.309  14.759 -1.2232  0.6968 -1.5159
   33TMC2    C1  510   1.941   2.602  10.235 -0.0196 -0.0985 -0.2232
   33TMC2    C2  511   1.807   2.565  10.248 -0.1318 -0.0606  0.1218
   33TMC2    C3  512   1.707   2.654  10.211  0.4437 -0.2620 -0.6091
   33TMC2    C4  513   1.962   2.724  10.177  0.2852 -0.6921  0.1117
   33TMC2    C5  514   1.862   2.810  10.136  0.3436 -0.2976 -0.4148
   33TMC2    C6  515   1.729   2.766  10.142 -0.6136 -0.3933  0.2234
   33TMC2     C  516   2.054   2.530  10.306 -0.1606  1.0040 -0.7479
   33TMC2     O  517   2.028   2.423  10.365 -0.2045  0.1817  0.0212
   33TMC2     H  518   1.778   2.473  10.299 -0.5585  0.8056  1.4307
   33TMC2    H1  519   2.062   2.765  10.181  0.4829 -1.1151 -0.7104
   33TMC2    H2  520   1.644   2.818  10.100 -0.0794  2.1344  2.2600
   33TMC2    C7  521   1.894   2.920  10.048 -0.5613 -0.6541 -0.6661
   33TMC2    C8  522   1.579   2.599  10.170 -0.4498  0.4692  0.1631
   33TMC2    O1  523   2.014   2.948  10.029 -0.4341 -0.0418 -0.1675
   33TMC2    O2  524   1.528   2.631  10.064  0.1074 -0.2927 -0.1064
   33TMC2    O5  525   1.541   2.499  10.254 -0.3816  0.3646  0.1314
   33TMC2    H5  526   1.587   2.494  10.340 -0.3579  0.5579  0.1285
   34MPD2     C  527   2.540   2.465  10.489  0.1486 -0.8310 -0.4478
   34MPD2    C1  528   2.428   2.391  10.520 -0.2477 -0.1893 -0.3131
   34MPD2    C2  529   2.307   2.435  10.461 -0.4774 -0.0773  0.3163
   34MPD2    C3  530   2.300   2.538  10.369 -0.5183 -0.6151 -0.7864
   34MPD2    C4  531   2.414   2.606  10.354 -0.5394  0.0991  0.1393
   34MPD2    C5  532   2.530   2.582  10.424  0.7385  0.4041  0.1977
   34MPD2     H  533   2.220   2.372  10.477 -0.4725  0.1771  1.3536
   34MPD2    H1  534   2.411   2.696  10.294 -0.2211 -0.3110 -0.4962
   34MPD2    H2  535   2.632   2.436  10.538 -1.9163 -1.2380  3.1782
   34MPD2    H3  536   2.618   2.645  10.413  0.7563  0.3550  0.0548
   34MPD2     N  537   2.179   2.589  10.306  0.0276 -0.5639 -0.2997
   34MPD2    H5  538   2.183   2.686  10.275 -0.3432 -0.1372  0.9656
   34MPD2    N1  539   2.428   2.278  10.608  0.2255  0.4777  0.0203
   34MPD2    H7  540   2.336   2.239  10.626 -0.5292  1.6159 -1.3397
   35TMC2    C1  541   3.000   3.696  11.301 -0.1760  0.4732  0.4548
   35TMC2    C2  542   2.941   3.755  11.190  0.4497 -0.3637  0.1129
   35TMC2    C3  543   2.808   3.796  11.208  0.2019 -0.0993 -0.3821
   35TMC2    C4  544   2.925   3.669  11.417 -0.0543 -0.8062 -0.0582
   35TMC2    C5  545   2.790   3.702  11.423  0.1790  0.0370 -0.2454
   35TMC2    C6  546   2.728   3.771  11.317  0.3084  0.0133 -0.1953
   35TMC2     C  547   3.142   3.723  11.310  0.3521 -0.5333  0.1681
   35TMC2     O  548   3.187   3.802  11.224  0.2926  0.3497  0.5609
   35TMC2     H  549   2.994   3.757  11.096 -0.7554  2.2014 -0.5010
   35TMC2    H1  550   2.971   3.620  11.501  0.5726  3.4059  2.0558
   35TMC2    H2  551   2.626   3.808  11.315 -0.1780 -1.3701 -1.0838
   35TMC2    C7  552   2.713   3.616  11.512  0.0451  0.1650 -0.2881
   35TMC2    C8  553   2.728   3.851  11.095 -0.2783  0.1263  0.6403
   35TMC2    O1  554   2.758   3.515  11.564 -0.4986  0.6221  0.1639
   35TMC2    O2  555   2.609   3.837  11.077  0.0281  0.4660 -0.1232
   35TMC2    O5  556   2.814   3.896  11.003 -0.1969 -0.5356 -0.2681
   35TMC2    H5  557   2.885   3.935  11.058  0.3928  0.6902 -1.9228
   36MPD2     C  558   3.612   3.738  11.510  0.7001  0.1915 -0.5909
   36MPD2    C1  559   3.532   3.664  11.599 -0.1528  0.0291 -0.3308
   36MPD2    C2  560   3.399   3.650  11.568 -0.1405 -0.6032 -0.4466
   36MPD2    C3  561   3.342   3.695  11.451  0.1149  0.5486  0.2770
   36MPD2    C4  562   3.433   3.754  11.361  0.4255  0.6731  0.2456
   36MPD2    C5  563   3.564   3.779  11.390 -0.3279  0.3912  0.3504
   36MPD2     H  564   3.336   3.589  11.631  1.4404 -0.3336  1.3884
   36MPD2    H1  565   3.402   3.777  11.259 -1.8586  1.7974  1.1842
   36MPD2    H2  566   3.717   3.755  11.533  1.1218 -0.0009 -2.3490
   36MPD2    H3  567   3.637   3.817  11.319  2.3958 -3.2926  1.2325
   36MPD2     N  568   3.207   3.671  11.421  0.2484 -0.2040 -0.4029
   36MPD2    H5  569   3.159   3.605  11.480 -1.3332  1.3396  0.0329
   36MPD2    N1  570   3.589   3.617  11.718 -0.4076 -0.1862 -0.0016
   36MPD2    H7  571   3.675   3.663  11.746 -0.7343  1.6094 -1.9271
   37TMC2    C1  572   0.742   4.498  11.436  0.1159 -0.0097  0.0114
   37TMC2    C2  573   0.659   4.473  11.332  0.8323 -0.3729 -0.1609
   37TMC2    C3  574   0.708   4.401  11.224 -0.1032  0.4030  0.1689
   37TMC2    C4  575   0.874   4.470  11.439 -0.4016 -0.0614  0.0087
   37TMC2    C5  576   0.917   4.404  11.327  0.4447  0.4396 -0.3960
   37TMC2    C6  577   0.835   4.352  11.233 -0.1543 -0.1318  0.3459
   37TMC2     C  578   0.676   4.463  11.560  0.1794  0.4703  0.7728
   37TMC2     O  579   0.560   4.427  11.547 -0.7459  0.4662 -0.8327
   37TMC2     H  580   0.551   4.481  11.330  0.9495  0.9147 -1.0840
   37TMC2    H1  581   0.944   4.519  11.505  1.2903  0.7648 -2.3929
   37TMC2    H2  582   0.865   4.287  11.152  0.0788  1.5035 -0.8624
   37TMC2    C7  583   1.050   4.355  11.351  0.3740 -0.4557 -0.5811
   37TMC2    C8  584   0.610   4.317  11.160 -0.1909  0.1284  0.7152
   37TMC2    O1  585   1.128   4.425  11.415 -0.9291  0.2608 -0.0213
   37TMC2    O2  586   0.617   4.194  11.148  0.1949  0.0201 -0.2679
   37TMC2    O5  587   0.520   4.402  11.093  0.3026 -0.0432  0.3514
   37TMC2    H5  588   0.530   4.500  11.101 -1.6848  0.2930 -1.4279
   38MPD2     C  589   0.696   4.317  12.049 -0.2531 -0.0358  0.0224
   38MPD2    C1  590   0.818   4.373  12.010 -1.2843 -0.1244  0.1924
   38MPD2    C2  591   0.842   4.407  11.879 -0.4625 -0.8007 -0.5433
   38MPD2    C3  592   0.744   4.401  11.787 -0.3581  0.2089  0.2843
   38MPD2    C4  593   0.621   4.357  11.827 -0.0114  0.4381  0.6419
   38MPD2    C5  594   0.597   4.318  11.956  0.0573 -0.1373  0.1518
   38MPD2     H  595   0.939   4.442  11.846 -1.6484  2.4758 -0.5062
   38MPD2    H1  596   0.543   4.347  11.753 -0.2954 -0.4684  1.0580
   38MPD2    H2  597   0.675   4.282  12.149  0.7627  0.5776  0.4471
   38MPD2    H3  598   0.497   4.283  11.978  0.1407 -0.0720  0.6416
   38MPD2     N  599   0.766   4.459  11.658  0.0106  0.4408 -0.5099
   38MPD2    H5  600   0.857   4.500  11.642  0.0079  1.2961  1.5932
   38MPD2    N1  601   0.936   4.372  12.086 -0.1230  1.1034 -0.5603
   38MPD2    H7  602   1.017   4.416  12.043  0.2324 -0.1811 -1.2224
   39TMC2    C1  603   4.357   0.944   1.542 -0.9477 -0.4364  0.0482
   39TMC2    C2  604   4.338   0.940   1.678  0.0346  0.2828  0.1479
   39TMC2    C3  605   4.452   0.909   1.754 -0.1697 -0.5102 -0.1983
   39TMC2    C4  606   4.480   0.962   1.485 -0.1892  0.1087 -0.0899
   39TMC2    C5  607   4.588   0.949   1.563 -0.0996 -0.4166 -0.4351
   39TMC2    C6  608   4.576   0.921   1.699 -0.0675  0.9738  0.0110
   39TMC2     C  609   4.244   0.924   1.453  0.5004  0.5851 -0.2227
   39TMC2     O  610   4.130   0.945   1.490 -0.6413  0.5135  0.0836
   39TMC2     H  611   4.235   0.927   1.708  0.2658 -0.4854  0.5955
   39TMC2    H1  612   4.489   0.975   1.378 -3.6554 -0.2251 -0.3999
   39TMC2    H2  613   4.668   0.915   1.756  0.9570  1.0756 -1.6269
   39TMC2    C7  614   4.719   0.939   1.492 -0.2780  0.7417  0.6150
   39TMC2    C8  615   4.444   0.902   1.901  1.0611 -0.4112  0.4382
   39TMC2    O1  616   0.067   0.888   1.555  0.0637  0.2558 -0.1537
   39TMC2    O2  617   4.514   0.817   1.951  0.2825 -0.4066 -0.1967
   39TMC2    O5  618   4.341   0.952   1.959 -0.2314  0.0788  0.2256
   39TMC2    H5  619   4.292   1.022   1.911 -0.9163  0.7924  1.9793
   40MPD2     C  620   4.260   0.808   1.106  0.1591 -0.2970  0.7544
   40MPD2    C1  621   4.199   0.870   1.212  0.2823 -0.5503 -0.3084
   40MPD2    C2  622   4.070   0.919   1.200  0.9194 -0.1239 -0.2887
   40MPD2    C3  623   4.006   0.908   1.079 -0.3417  0.0052  0.3737
   40MPD2    C4  624   4.074   0.855   0.967  0.0063  0.2665  0.0209
   40MPD2    C5  625   4.203   0.804   0.986 -0.0352 -0.6348 -0.1336
   40MPD2     H  626   4.010   0.962   1.279  0.0685 -1.8944  0.0296
   40MPD2    H1  627   4.029   0.814   0.877 -0.4063  0.8186 -0.0223
   40MPD2    H2  628   4.364   0.776   1.109  0.2574  0.0979  1.3060
   40MPD2    H3  629   4.248   0.763   0.897  0.5607 -0.9935  0.3349
   40MPD2     N  630   3.873   0.943   1.052 -0.0535 -0.1772 -0.2401
   40MPD2    H5  631   3.846   0.932   0.955 -2.0072 -2.7841  0.5731
   40MPD2    N1  632   4.282   0.878   1.329  0.8251  0.5369 -0.3422
   40MPD2    H7  633   4.376   0.841   1.319  1.7067  3.0592 -1.2793
   41TMC2    C1  634   2.077   4.592  13.778 -0.1051 -0.0632  0.1977
   41TMC2    C2  635   1.947   4.554  13.780  0.4354  0.6144 -0.0389
   41TMC2    C3  636   1.913   4.461  13.684  0.4849  0.1722  0.5781
   41TMC2    C4  637   2.172   4.532  13.700 -0.1072 -0.1036 -0.6583
   41TMC2    C5  638   2.126   4.439  13.609 -1.1311 -0.6141 -0.4347
   41TMC2    C6  639   2.003   4.400  13.607 -0.1003 -0.4189 -0.7740
   41TMC2     C  640   2.127   4.663  13.891  0.4836 -0.2391  0.7325
   41TMC2     O  641   2.103   0.037  13.914 -0.0377  0.4769  0.2402
   41TMC2     H  642   1.875   4.580  13.856 -1.0263 -0.4643 -1.0515
   41TMC2    H1  643   2.276   4.559  13.713  0.7764 -2.9608 -1.6935
   41TMC2    H2  644   1.968   4.326  13.536 -3.4645 -0.6148  1.0811
   41TMC2    C7  645   2.221   4.404  13.501  0.2550 -0.3414 -0.3490
   41TMC2    C8  646   1.779   4.416  13.660 -0.0353 -0.5358  0.0678
   41TMC2    O1  647   2.324   4.473  13.492  0.7844  0.3314 -0.1382
   41TMC2    O2  648   1.749   4.303  13.623  0.1023 -0.1019 -0.0541
   41TMC2    O5  649   1.708   4.526  13.676 -0.3864 -0.1385  0.2435
   41TMC2    H5  650   1.755   4.609  13.700 -2.2111  0.7721  0.7093
   42MPD2     C  651   2.258   4.715  14.167 -0.2928  0.1958 -0.3884
   42MPD2    C1  652   2.234   4.599  14.105 -0.2618  0.3899  0.2059
   42MPD2    C2  653   2.252   4.481  14.173 -0.1395 -0.3714  0.0610
   42MPD2    C3  654   2.328   4.488  14.289 -0.5095  0.0611  0.0519
   42MPD2    C4  655   2.365   4.610  14.347  0.1634 -0.0364  0.0902
   42MPD2    C5  656   2.327   4.723  14.284 -0.1805  0.6255  0.2369
   42MPD2     H  657   2.212   4.387  14.137  1.0427 -1.3916  1.3984
   42MPD2    H1  658   2.405   4.612  14.447  2.9729  0.3854 -1.0424
   42MPD2    H2  659   2.253   0.067  14.116 -0.3464  1.3567  1.7831
   42MPD2    H3  660   2.345   0.082  14.316 -1.0123 -0.0246  2.7838
   42MPD2     N  661   2.382   4.373  14.354  0.3003  0.0870 -0.1004
   42MPD2    H5  662   2.447   4.391  14.430 -1.5622  1.7239  1.0874
   42MPD2    N1  663   2.194   4.576  13.967 -0.8579  0.3199 -0.0772
   42MPD2    H7  664   2.202   4.484  13.924 -0.0673 -0.4307  1.6975
   43TMC2    C1  665   4.345   2.322   0.781  0.2115  0.2907 -0.2255
   43TMC2    C2  666   4.222   2.358   0.824 -0.2538 -0.5916 -0.2044
   43TMC2    C3  667   4.224   2.434   0.943  0.3786 -0.3865 -0.0954
   43TMC2    C4  668   4.466   2.347   0.849  0.1873 -0.5392  0.1255
   43TMC2    C5  669   4.458   2.418   0.964  0.2134  0.0832  0.0229
   43TMC2    C6  670   4.341   2.461   1.010  0.0059  0.1317  0.1129
   43TMC2     C  671   4.347   2.267   0.650 -0.2497 -0.7598 -0.5210
   43TMC2     O  672   4.449   2.202   0.632 -0.1292  0.2999  0.1471
   43TMC2     H  673   4.124   2.342   0.781 -0.3496  0.8133 -0.5147
   43TMC2    H1  674   4.562   2.316   0.808  0.6503  0.1952  0.6631
   43TMC2    H2  675   4.338   2.500   1.110 -1.8961  0.9604 -0.2740
   43TMC2    C7  676   4.580   2.445   1.041  0.1482 -0.0824 -0.2203
   43TMC2    C8  677   4.089   2.468   1.002 -0.2499 -0.0499  0.0593
   43TMC2    O1  678   4.677   2.379   1.020  0.2568  0.1490  0.2587
   43TMC2    O2  679   4.008   2.509   0.924  0.3736 -0.0817 -0.3284
   43TMC2    O5  680   4.107   2.508   1.132  0.6708  0.0708 -0.4972
   43TMC2    H5  681   4.160   2.435   1.171  1.5100  0.1041 -1.5713
   44MPD2     C  682   4.243   2.143   0.174 -0.1066 -0.5894 -0.0987
   44MPD2    C1  683   4.336   2.098   0.258 -0.0812 -0.4102  0.0941
   44MPD2    C2  684   4.336   2.136   0.387 -0.0575 -0.2094  0.4574
   44MPD2    C3  685   4.243   2.234   0.432 -0.4058 -0.3174 -0.5153
   44MPD2    C4  686   4.143   2.275   0.339 -0.3207 -1.4006 -0.4805
   44MPD2    C5  687   4.146   2.228   0.218  0.3851  0.1048  0.2561
   44MPD2     H  688   4.400   2.088   0.460  0.6315  0.6896  0.4404
   44MPD2    H1  689   4.063   2.343   0.366 -0.4449 -0.8124 -2.2867
   44MPD2    H2  690   4.250   2.122   0.068 -1.7768  2.0490 -0.7415
   44MPD2    H3  691   4.076   2.267   0.145  0.4304  0.4691  0.4102
   44MPD2     N  692   4.242   2.288   0.566 -0.2547 -0.3783 -0.4593
   44MPD2    H5  693   4.164   2.348   0.593 -0.6097 -1.2120  0.3880
   44MPD2    N1  694   4.431   1.993   0.222 -0.5846  0.3689  0.1723
   44MPD2    H7  695   4.479   1.949   0.300 -0.8378  1.9279  1.1847
   45TMC2    C1  696   0.515   3.653   9.793  0.7258 -0.3798  0.8277
   45TMC2    C2  697   0.633   3.607   9.748 -0.2153 -0.1135 -0.2727
   45TMC2    C3  698   0.721   3.704   9.704  0.1571 -0.2203  0.4055
   45TMC2    C4  699   0.489   3.786   9.806 -0.8449  0.5159 -0.1699
   45TMC2    C5  700   0.567   3.877   9.745  0.0857 -0.0227 -0.8309
   45TMC2    C6  701   0.685   3.834   9.698 -0.4240 -0.1721 -0.2354
   45TMC2     C  702   0.407   3.556   9.808  0.0269 -0.4161 -0.4628
   45TMC2     O  703   0.451   3.443   9.824 -0.0431  0.2565 -0.1725
   45TMC2     H  704   0.664   3.505   9.732 -0.4198 -0.6704  2.8800
   45TMC2    H1  705   0.405   3.818   9.867 -0.8791 -1.3647  0.7555
   45TMC2    H2  706   0.756   3.902   9.652 -0.2227 -0.7828 -0.8312
   45TMC2    C7  707   0.548   4.015   9.780 -0.3661  0.3776  0.1711
   45TMC2    C8  708   0.864   3.675   9.667  0.0287  0.5077  0.0414
   45TMC2    O1  709   0.505   4.031   9.894 -0.1202  0.0783  0.1391
   45TMC2    O2  710   0.937   3.749   9.604  0.0496 -0.5751 -0.0161
   45TMC2    O5  711   0.907   3.609   9.780 -0.0258 -0.3791 -0.3377
   45TMC2    H5  712   0.834   3.560   9.824 -1.4446  0.2858 -1.9634
   46MPD2     C  713   0.156   3.392   9.747 -0.0530  0.6803 -0.7568
   46MPD2    C1  714   0.167   3.528   9.746  0.1701  0.0309 -0.1130
   46MPD2    C2  715   0.058   3.607   9.705  0.2136  0.1896  0.2617
   46MPD2    C3  716   4.684   3.554   9.676 -0.3515  0.5500 -0.0651
   46MPD2    C4  717   4.668   3.419   9.686 -0.1705 -0.0603  0.1551
   46MPD2    C5  718   0.027   3.337   9.723 -0.2868 -0.1884 -0.7920
   46MPD2     H  719   0.080   3.712   9.692 -1.4395  0.2100 -2.2840
   46MPD2    H1  720   4.575   3.370   9.658 -0.1470  0.3613 -0.6612
   46MPD2    H2  721   0.237   3.327   9.778 -0.4036  0.5092 -0.2024
   46MPD2    H3  722   0.018   3.229   9.729 -1.7011 -0.0969 -1.3492
   46MPD2     N  723   4.582   3.646   9.637 -0.5490 -0.4154  0.4454
   46MPD2    H5  724   4.616   3.742   9.634 -1.4105 -0.1026  0.6372
   46MPD2    N1  725   0.285   3.604   9.774  0.1137 -0.4716  0.0582
   46MPD2    H7  726   0.276   3.704   9.758 -2.6632 -0.9645 -1.5512
   47TMC2    C1  727   1.932   4.322  10.226  0.6757 -0.7282  0.4863
   47TMC2    C2  728   1.946   4.251  10.111  0.3127  0.1204  0.3642
   47TMC2    C3  729   1.837   4.239  10.032  0.3999 -0.3861 -0.4991
   47TMC2    C4  730   1.818   4.387  10.254  0.5214 -0.1861  0.1170
   47TMC2    C5  731   1.707   4.378  10.169 -0.3223 -0.6964  0.5158
   47TMC2    C6  732   1.714   4.295  10.065  0.5729 -0.3101 -1.4283
   47TMC2     C  733   2.032   4.303  10.332 -0.4765 -0.3680  1.3745
   47TMC2     O  734   1.986   4.295  10.444 -0.3387  0.6375 -0.1458
   47TMC2     H  735   2.034   4.190  10.095  1.1327  1.4399 -0.1398
   47TMC2    H1  736   1.820   4.443  10.346  0.7582 -0.8007  0.4798
   47TMC2    H2  737   1.629   4.284   9.999  1.6378  0.3571 -2.9181
   47TMC2    C7  738   1.606   4.476  10.187  0.0407 -0.0009 -0.9032
   47TMC2    C8  739   1.858   4.174   9.899  0.4631 -0.4533 -0.2065
   47TMC2    O1  740   1.648   4.583  10.227 -0.0922  0.3061 -0.1489
   47TMC2    O2  741   1.941   4.089   9.875 -0.3379  0.1578 -0.5053
   47TMC2    O5  742   1.790   4.251   9.811  0.3106  0.4137 -0.0045
   47TMC2    H5  743   1.746   4.325   9.859 -0.4564 -1.0253  1.5342
   48MPD2     C  744   2.271   4.240  10.490 -1.1093  1.4170  0.0832
   48MPD2    C1  745   2.264   4.231  10.350  0.3055  0.1522  0.2184
   48MPD2    C2  746   2.377   4.206  10.278  0.4667 -0.6132  0.1871
   48MPD2    C3  747   2.501   4.177  10.336 -0.4774 -0.5631 -1.0303
   48MPD2    C4  748   2.506   4.198  10.470  0.5442  0.1162  0.1577
   48MPD2    C5  749   2.392   4.215  10.548  0.3309 -0.6770  0.2861
   48MPD2     H  750   2.361   4.195  10.171 -0.5343 -2.5176  0.5507
   48MPD2    H1  751   2.600   4.187  10.523  1.4004  0.0284 -1.3947
   48MPD2    H2  752   2.190   4.272  10.555 -1.7172 -0.9344  0.5064
   48MPD2    H3  753   2.404   4.222  10.656  2.8394  2.5628 -0.1704
   48MPD2     N  754   2.623   4.141  10.259  0.6064  0.3212 -0.2419
   48MPD2    H5  755   2.597   4.139  10.161  3.5154 -1.8755 -0.9540
   48MPD2    N1  756   2.151   4.264  10.277 -0.6152 -0.4759  0.0892
   48MPD2    H7  757   2.172   4.268  10.178  0.1915 -0.4005  0.2683
   49TMC2    C1  758   0.792   2.765  10.347 -0.0656 -0.0501 -0.6229
   49TMC2    C2  759   0.738   2.728  10.462  0.8652 -0.8864  0.6106
   49TMC2    C3  760   0.684   2.823  10.547 -0.1187  0.0597 -0.5849
   49TMC2    C4  761   0.799   2.896  10.313  0.0656  0.2561  0.0864
   49TMC2    C5  762   0.749   2.989  10.400 -0.3381  0.7105 -0.4388
   49TMC2    C6  763   0.705   2.958  10.528  0.1692 -0.2703 -0.0918
   49TMC2     C  764   0.837   2.672  10.250 -0.4869  0.6315 -0.1672
   49TMC2     O  765   0.914   2.706  10.165 -0.1418 -0.1791 -0.5398
   49TMC2     H  766   0.742   2.624  10.494  0.9594 -0.3923  2.1571
   49TMC2    H1  767   0.830   2.936  10.217  0.7838  0.2213  0.3060
   49TMC2    H2  768   0.666   3.026  10.602 -0.5207  4.1103 -4.4487
   49TMC2    C7  769   0.775   3.125  10.363 -0.2347 -0.0594 -0.2288
   49TMC2    C8  770   0.671   2.785  10.684 -0.1610 -0.2564  0.2338
   49TMC2    O1  771   0.880   3.130  10.303 -0.3644  0.8518 -0.4678
   49TMC2    O2  772   0.731   2.845  10.773 -0.0948  0.2747 -0.0361
   49TMC2    O5  773   0.613   2.661  10.678 -0.6015  0.2018  0.6288
   49TMC2    H5  774   0.572   2.649  10.590 -0.3495 -1.9704  0.8098
   50MPD2     C  775   0.902   2.414  10.103  0.3297 -0.2962  0.5336
   50MPD2    C1  776   0.836   2.426  10.225 -0.2808 -0.0907  0.3604
   50MPD2    C2  777   0.795   2.308  10.289  0.3506 -0.0945 -0.0828
   50MPD2    C3  778   0.840   2.187  10.244 -0.3786 -0.2429 -0.9910
   50MPD2    C4  779   0.911   2.171  10.126  0.2275 -0.5158  0.4676
   50MPD2    C5  780   0.932   2.286  10.059 -0.1570 -0.2605  0.5738
   50MPD2     H  781   0.737   2.322  10.380  2.4326  0.3928  1.1685
   50MPD2    H1  782   0.944   2.074  10.089  1.8908  0.4554 -0.6207
   50MPD2    H2  783   0.925   2.494  10.034  0.6378 -0.3662  0.5544
   50MPD2    H3  784   0.975   2.277   9.960 -2.6138  0.0552 -0.5326
   50MPD2     N  785   0.824   2.075  10.328 -1.1943  0.5277  0.2489
   50MPD2    H5  786   0.841   1.980  10.297 -3.2951 -0.0567  0.8563
   50MPD2    N1  787   0.800   2.547  10.280  0.7928 -0.3431 -0.7133
   50MPD2    H7  788   0.741   2.532  10.362  1.7990 -1.1276 -0.1235
   51TMC2    C1  789   3.021   0.760   2.042 -0.5418 -0.0061  0.5691
   51TMC2    C2  790   3.016   0.736   2.172  0.5480 -0.3453  0.1291
   51TMC2    C3  791   2.942   0.817   2.251 -0.5597  0.1478  0.3982
   51TMC2    C4  792   2.961   0.868   1.991  0.3862 -1.3725  0.0648
   51TMC2    C5  793   2.880   0.948   2.070 -0.1724  0.5818 -0.2772
   51TMC2    C6  794   2.859   0.914   2.200 -0.0622  0.3803  0.0734
   51TMC2     C  795   3.052   0.653   1.950  0.0400  0.7798  0.5378
   51TMC2     O  796   3.000   0.652   1.837 -0.5019  0.0119  0.5986
   51TMC2     H  797   3.065   0.652   2.220 -1.7746  0.4361  3.8216
   51TMC2    H1  798   2.973   0.890   1.885 -0.4055 -0.6650  0.1229
   51TMC2    H2  799   2.786   0.967   2.260 -3.3533 -2.3382 -1.4944
   51TMC2    C7  800   2.840   1.081   2.036 -0.2118 -0.3084 -0.0234
   51TMC2    C8  801   2.909   0.771   2.378  0.0501  0.1968 -0.2680
   51TMC2    O1  802   2.776   1.144   2.116 -0.2970 -0.0906 -0.8061
   51TMC2    O2  803   2.917   0.656   2.422 -0.4399 -0.3225 -0.4649
   51TMC2    O5  804   2.907   0.878   2.455  0.0505 -0.1490 -0.0801
   51TMC2    H5  805   2.933   0.962   2.411  0.9551  0.1344  0.9951
   52MPD2     C  806   3.259   0.226   1.820  0.0462 -1.0013 -0.6238
   52MPD2    C1  807   3.135   0.273   1.784  0.3491 -0.1536  0.2392
   52MPD2    C2  808   3.093   0.384   1.851  0.3226  0.0584  0.1178
   52MPD2    C3  809   3.177   0.446   1.943 -0.2058 -0.3627  0.0883
   52MPD2    C4  810   3.293   0.389   1.992  0.6937 -0.5897 -0.0733
   52MPD2    C5  811   3.327   0.268   1.927 -0.0374 -0.0264 -0.0078
   52MPD2     H  812   2.992   0.422   1.848  0.7708  1.3973  1.9648
   52MPD2    H1  813   3.360   0.425   2.070  0.8733 -0.0212 -0.4911
   52MPD2    H2  814   3.308   0.142   1.771  0.3135  0.0928 -2.2188
   52MPD2    H3  815   3.425   0.225   1.948  0.2696  0.9296  0.5468
   52MPD2     N  816   3.148   0.569   2.002 -0.4069  0.3640 -0.4428
   52MPD2    H5  817   3.201   0.605   2.081  0.0103  0.4406 -0.7564
   52MPD2    N1  818   3.056   0.221   1.680 -0.3693 -0.4242 -0.1241
   52MPD2    H7  819   2.974   0.275   1.652  0.3548  1.3910  1.2345
   53TMC2    C1  820   1.699   4.159  11.596  0.2537 -0.1624  0.3731
   53TMC2    C2  821   1.812   4.095  11.642  0.2652 -0.2107 -0.7505
   53TMC2    C3  822   1.843   4.112  11.769  0.3884  0.3261 -0.3813
   53TMC2    C4  823   1.627   4.246  11.675  0.2903  0.6544  0.7928
   53TMC2    C5  824   1.662   4.255  11.805 -0.5036  0.2436  0.1626
   53TMC2    C6  825   1.770   4.185  11.852 -0.2716  0.7182  0.1056
   53TMC2     C  826   1.623   4.080  11.506  0.0647  1.2071  0.0798
   53TMC2     O  827   1.671   3.972  11.468  0.0938  0.1736  0.0632
   53TMC2     H  828   1.875   4.032  11.581 -0.1295 -0.4808 -0.8771
   53TMC2    H1  829   1.540   4.307  11.653 -0.3521  0.2366  2.1673
   53TMC2    H2  830   1.806   4.187  11.955 -2.8710 -1.8915  1.0723
   53TMC2    C7  831   1.586   4.340  11.894 -0.5343  0.0495 -0.6866
   53TMC2    C8  832   1.984   4.119  11.791  0.1845  0.0018  0.1538
   53TMC2    O1  833   1.465   4.354  11.868  0.5148  0.4820 -0.3860
   53TMC2    O2  834   2.043   4.203  11.862  0.2330  0.5554 -0.0699
   53TMC2    O5  835   2.017   3.979  11.797  0.4475 -1.2423 -0.7467
   53TMC2    H5  836   1.968   3.914  11.743 -1.5055  2.4231 -3.4159
   54MPD2     C  837   1.370   3.954  11.407  0.5851  0.8377 -0.1789
   54MPD2    C1  838   1.387   4.086  11.420  0.0054  0.0361 -0.1484
   54MPD2    C2  839   1.288   4.175  11.397 -0.0406  0.5788 -0.0261
   54MPD2    C3  840   1.173   4.136  11.342 -0.1891  0.2227 -0.1583
   54MPD2    C4  841   1.158   3.998  11.316  0.2016  0.1834 -0.4151
   54MPD2    C5  842   1.257   3.910  11.349  0.4007 -0.3954 -0.1883
   54MPD2     H  843   1.295   4.278  11.430  0.0382  0.5959 -0.0975
   54MPD2    H1  844   1.063   3.960  11.279 -0.6609  2.8424 -0.9794
   54MPD2    H2  845   1.445   3.882  11.435  1.2596  0.6637 -2.4554
   54MPD2    H3  846   1.238   3.803  11.343  1.7298 -0.7840  2.8612
   54MPD2     N  847   1.061   4.222  11.311  0.0444 -0.0862  0.1195
   54MPD2    H5  848   0.985   4.168  11.270  1.2218  1.0577 -3.5816
   54MPD2    N1  849   1.504   4.138  11.474  0.3770 -0.4316 -0.2806
   54MPD2    H7  850   1.509   4.239  11.477 -0.0358 -0.3828 -1.2320
   55TMC2    C1  851   2.526   2.782   0.014 -0.7403  0.5170  0.0730
   55TMC2    C2  852   2.573   2.789  17.657 -0.0164 -0.0672  0.7421
   55TMC2    C3  853   2.690   2.717  17.624  0.0505  0.1926 -0.6990
   55TMC2    C4  854   2.577   2.692   0.107 -0.6529 -0.6500  0.2514
   55TMC2    C5  855   2.687   2.614   0.068 -0.2519 -0.0191 -0.5951
   55TMC2    C6  856   2.741   2.624  17.708 -0.9272  0.2913 -0.3549
   55TMC2     C  857   2.416   2.862   0.059  0.1884  0.2493  0.1334
   55TMC2     O  858   2.369   2.847   0.167  0.1144  0.0653 -0.1417
   55TMC2     H  859   2.539   2.855  17.578  0.1300 -1.9038 -0.8592
   55TMC2    H1  860   2.515   2.676   0.194  0.5424 -1.9887  0.8585
   55TMC2    H2  861   2.810   2.547  17.676 -1.1022  0.0183 -0.0755
   55TMC2    C7  862   2.719   2.500   0.153  0.8862 -0.4841  0.3160
   55TMC2    C8  863   2.755   2.736  17.498  0.7518 -0.1273  0.5391
   55TMC2    O1  864   2.780   2.409   0.098 -0.2501  0.1531  0.0075
   55TMC2    O2  865   2.704   2.769  17.392  0.0981 -0.7880 -0.2469
   55TMC2    O5  866   2.886   2.704  17.519  0.0144 -0.5749  0.3296
   55TMC2    H5  867   2.914   2.676  17.609  1.7254  0.1650  0.0311
   56MPD2     C  868   2.269   3.154  17.657 -0.0946 -0.2642 -0.6069
   56MPD2    C1  869   2.276   3.040  17.733  0.5099  0.1027  0.5500
   56MPD2    C2  870   2.172   3.023   0.055  0.1784 -0.0042 -0.1777
   56MPD2    C3  871   2.056   3.096   0.054 -0.2157  0.3120 -0.4758
   56MPD2    C4  872   2.049   3.201  17.733  0.0569 -0.0761 -0.0585
   56MPD2    C5  873   2.155   3.232  17.657  0.0343 -0.2757 -0.0446
   56MPD2     H  874   2.170   2.938   0.122  0.2329  1.0705  1.1985
   56MPD2    H1  875   1.954   3.254  17.734 -0.6253 -1.2842 -0.6634
   56MPD2    H2  876   2.341   3.182  17.581  2.3552 -0.1802  1.7935
   56MPD2    H3  877   2.146   3.315  17.587 -1.7327 -0.4726 -0.0538
   56MPD2     N  878   1.948   3.062   0.135  0.2058  0.6752  0.2954
   56MPD2    H5  879   1.960   2.974   0.183 -1.7900  0.1298 -0.2195
   56MPD2    N1  880   2.389   2.956  17.732  0.6378 -0.6635 -0.0367
   56MPD2    H7  881   2.460   2.967  17.661  1.2451  1.1341  0.8293
   57TMC2    C1  882   1.594   3.055  13.834  0.0610  0.3071 -0.3424
   57TMC2    C2  883   1.571   2.923  13.876  0.7631 -0.6652  0.5063
   57TMC2    C3  884   1.667   2.831  13.845 -0.1248 -0.1810 -0.7651
   57TMC2    C4  885   1.696   3.093  13.754 -0.0685  0.2766  0.4052
   57TMC2    C5  886   1.789   2.996  13.722  0.5387  0.0342  0.1639
   57TMC2    C6  887   1.777   2.867  13.772  0.3129  0.1685  0.0247
   57TMC2     C  888   1.501   3.155  13.876  0.7130 -0.3598  0.5505
   57TMC2     O  889   1.517   3.261  13.819 -0.1502  0.2285 -0.6755
   57TMC2     H  890   1.495   2.891  13.947  0.6293 -0.8664  0.2760
   57TMC2    H1  891   1.698   3.197  13.722  0.2430 -0.9377 -3.4845
   57TMC2    H2  892   1.858   2.796  13.764 -0.2978 -0.8341  2.8286
   57TMC2    C7  893   1.866   3.014  13.599 -0.2152 -0.3543  0.0456
   57TMC2    C8  894   1.678   2.712  13.922 -0.6683  0.1720 -0.1341
   57TMC2    O1  895   1.841   3.116  13.535 -0.5184  0.4358  0.7990
   57TMC2    O2  896   1.787   2.679  13.970 -0.2221  0.1909 -0.0611
   57TMC2    O5  897   1.561   2.662  13.950 -0.2135  0.1350 -0.6124
   57TMC2    H5  898   1.487   2.701  13.899 -0.0582  0.2361 -0.7582
   58MPD2     C  899   1.157   3.353  14.198  0.5986 -0.1220 -0.1823
   58MPD2    C1  900   1.210   3.410  14.088 -0.1316  0.1951 -0.3772
   58MPD2    C2  901   1.313   3.340  14.032  0.0219  0.1126 -0.4105
   58MPD2    C3  902   1.343   3.210  14.072  0.4710 -0.3420  0.1254
   58MPD2    C4  903   1.290   3.158  14.187 -0.0907  0.3731  0.1406
   58MPD2    C5  904   1.197   3.232  14.251  0.7636  0.3455  0.2782
   58MPD2     H  905   1.365   3.382  13.947 -0.2833  1.4100  0.0473
   58MPD2    H1  906   1.308   3.058  14.226 -3.5525  0.3297  1.6199
   58MPD2    H2  907   1.083   3.408  14.254  0.2081  1.7528 -2.5610
   58MPD2    H3  908   1.149   3.179  14.332 -0.0027  1.2149  0.3943
   58MPD2     N  909   1.432   3.130  13.995 -0.1614 -0.1439 -0.5832
   58MPD2    H5  910   1.459   3.047  14.047  0.6703 -0.3807 -1.4022
   58MPD2    N1  911   1.152   3.526  14.035  0.3398  0.1408 -0.1651
   58MPD2    H7  912   1.067   3.562  14.078 -0.5582 -0.6488 -1.2731
   59TMC2    C1  913   3.443   3.091  12.896  0.1696  0.8002 -0.3016
   59TMC2    C2  914   3.324   3.035  12.945 -0.6240  0.0462 -0.1334
   59TMC2    C3  915   3.280   2.925  12.877  0.1806 -0.1112  0.0101
   59TMC2    C4  916   3.506   3.042  12.791 -0.0986  0.1405  0.1776
   59TMC2    C5  917   3.458   2.931  12.724 -0.5063 -0.5465 -0.3441
   59TMC2    C6  918   3.341   2.871  12.763  0.5398  0.2445  0.2660
   59TMC2     C  919   3.462   3.227  12.934 -0.3223  0.0529 -0.0987
   59TMC2     O  920   3.360   3.287  12.963 -0.3749 -0.0801 -0.2261
   59TMC2     H  921   3.270   3.074  13.031  1.5469  3.3341 -0.2504
   59TMC2    H1  922   3.595   3.090  12.752 -0.6739  1.9045  1.0583
   59TMC2    H2  923   3.306   2.785  12.707  1.2721  1.6633 -2.3762
   59TMC2    C7  924   3.527   2.883  12.599 -0.1727  0.2211 -0.7377
   59TMC2    C8  925   3.166   2.864  12.931  0.4046  0.7011  0.1644
   59TMC2    O1  926   3.490   2.774  12.562 -0.1437 -0.1350 -0.3458
   59TMC2    O2  927   3.124   2.885  13.047  0.4103 -0.0328  0.7065
   59TMC2    O5  928   3.079   2.884  12.828  0.1316  0.1385 -0.1176
   59TMC2    H5  929   3.121   2.859  12.743 -0.6118 -0.9218 -0.1650
   60MPD2     C  930   3.560   3.515  12.948 -0.0480  0.8509  0.7539
   60MPD2    C1  931   3.647   3.403  12.955  0.5551  0.0820  0.5208
   60MPD2    C2  932   3.778   3.423  12.985  0.3909 -0.1392 -0.6715
   60MPD2    C3  933   3.821   3.548  13.023 -0.0185 -0.1784 -0.6108
   60MPD2    C4  934   3.738   3.662  13.027  0.3963  0.0644 -0.2496
   60MPD2    C5  935   3.608   3.640  12.981 -0.1168  0.5394  0.5789
   60MPD2     H  936   3.843   3.337  12.998  0.0358 -0.0838  1.3766
   60MPD2    H1  937   3.774   3.761  13.053 -1.0021  0.5103  0.0089
   60MPD2    H2  938   3.459   3.503  12.911  1.0991 -3.2516 -1.0810
   60MPD2    H3  939   3.545   3.728  12.976 -1.0025 -0.0781  0.8224
   60MPD2     N  940   3.957   3.568  13.074  0.4133 -0.0810  0.1418
   60MPD2    H5  941   3.987   3.664  13.088 -0.4664  0.1349  0.5511
   60MPD2    N1  942   3.597   3.271  12.939  0.6240  0.4819  0.2684
   60MPD2    H7  943   3.671   3.201  12.937  1.0283  0.9397 -0.8025
   61TMC2    C1  944   3.002   4.366  15.743 -0.1542 -0.0960  0.7381
   61TMC2    C2  945   2.999   4.323  15.872  0.0057  0.2776  0.2581
   61TMC2    C3  946   2.976   4.425  15.961 -0.3245 -0.0844  0.5149
   61TMC2    C4  947   2.965   4.485  15.703 -0.0044  0.5037  0.1623
   61TMC2    C5  948   2.936   4.583  15.789 -0.0632 -0.0683 -0.1869
   61TMC2    C6  949   2.942   4.554  15.925  0.7177  0.3822 -0.1147
   61TMC2     C  950   3.112   4.297  15.668  0.3452  0.1967 -0.2511
   61TMC2     O  951   3.168   4.199  15.711  0.4326  0.1276  0.1463
   61TMC2     H  952   3.029   4.220  15.890 -0.3207 -0.0292 -0.9408
   61TMC2    H1  953   2.961   4.504  15.596 -1.4871  2.6277  0.6106
   61TMC2    H2  954   2.951   4.629  16.002 -1.8355  2.6750 -2.0537
   61TMC2    C7  955   2.947   4.726  15.739  0.6872  0.5971 -0.0332
   61TMC2    C8  956   3.023   4.397  16.095 -0.6190  0.4630  0.3819
   61TMC2    O1  957   3.000   0.063  15.814  0.0642  0.3562 -0.0321
   61TMC2    O2  958   3.111   4.305  16.115  0.2413 -0.6823 -0.0334
   61TMC2    O5  959   2.930   4.439  16.182  0.3579  0.3151  0.2215
   61TMC2    H5  960   2.869   4.508  16.149  1.9798  1.5892 -0.1128
   62MPD2     C  961   3.306   4.199  15.473  0.0905  0.2293 -0.2669
   62MPD2    C1  962   3.216   4.299  15.444  0.4259  0.3683 -0.0839
   62MPD2    C2  963   3.221   4.371  15.324 -0.0091  0.1137  0.4953
   62MPD2    C3  964   3.313   4.334  15.226  0.4289 -0.3151  0.6669
   62MPD2    C4  965   3.398   4.223  15.251  0.0241 -0.0308  0.4891
   62MPD2    C5  966   3.388   4.158  15.371  0.1066  0.1201 -0.4480
   62MPD2     H  967   3.156   4.457  15.311 -1.2956 -1.3379 -2.7605
   62MPD2    H1  968   3.473   4.207  15.175  0.1803  2.4612  0.0908
   62MPD2    H2  969   3.334   4.168  15.573 -3.3925 -1.0166  0.3416
   62MPD2    H3  970   3.475   4.095  15.381 -1.0964 -1.7208 -1.6404
   62MPD2     N  971   3.330   4.388  15.096  0.4008 -0.6716  0.5285
   62MPD2    H5  972   3.372   4.333  15.022  3.0354  0.6432  1.0454
   62MPD2    N1  973   3.129   4.350  15.541  0.2416  0.3502 -0.0247
   62MPD2    H7  974   3.062   4.425  15.525  2.0389  1.3828 -2.7248
   63TMC2    C1  975   2.425   4.339  11.489  0.8847 -0.1019 -0.7504
   63TMC2    C2  976   2.494   4.364  11.608 -0.5359  0.2106  0.7018
   63TMC2    C3  977   2.581   4.469  11.617  0.1900 -0.8220 -0.0522
   63TMC2    C4  978   2.462   4.401  11.370  0.6018 -0.3472 -0.7043
   63TMC2    C5  979   2.563   4.492  11.382  0.1084  0.0279 -0.3705
   63TMC2    C6  980   2.623   4.529  11.501  0.0129 -0.0336  0.0487
   63TMC2     C  981   2.350   4.218  11.491 -0.0385  0.3045  0.2689
   63TMC2     O  982   2.275   4.194  11.582 -1.0652  0.1496 -0.3780
   63TMC2     H  983   2.477   4.301  11.695 -0.4577 -1.6533 -0.6205
   63TMC2    H1  984   2.413   4.375  11.277 -2.8898  1.1505  0.6926
   63TMC2    H2  985   2.702   4.604  11.499  0.2676 -0.3707 -2.6442
   63TMC2    C7  986   2.618   4.526  11.252  0.1882  0.0751 -0.4533
   63TMC2    C8  987   2.678   4.450  11.723 -0.8100  0.9739 -0.4452
   63TMC2    O1  988   2.547   4.510  11.157 -0.3134 -0.2408  0.9670
   63TMC2    O2  989   2.666   4.358  11.803 -0.2383 -0.4760 -0.5591
   63TMC2    O5  990   2.764   4.552  11.734  0.1565 -0.2692  0.2253
   63TMC2    H5  991   2.750   4.636  11.685  0.6029 -0.1292  0.3334
   64MPD2     C  992   2.106   3.855  11.221  0.0994  0.1311 -0.0399
   64MPD2    C1  993   2.237   3.859  11.179  0.6198 -0.3467  0.0251
   64MPD2    C2  994   2.330   3.947  11.235 -0.1047 -0.3957  0.4188
   64MPD2    C3  995   2.289   4.038  11.330 -0.7383  0.1282 -0.3053
   64MPD2    C4  996   2.166   4.021  11.380  0.0681 -0.4130 -0.1325
   64MPD2    C5  997   2.076   3.933  11.323  0.0010 -0.2090 -0.2015
   64MPD2     H  998   2.434   3.958  11.208  0.4017  0.1577  2.6444
   64MPD2    H1  999   2.132   4.061  11.475 -1.1370  1.1790 -1.2365
   64MPD2    H2 1000   2.028   3.795  11.175 -0.0123 -0.7528  1.2951
   64MPD2    H3 1001   1.978   3.921  11.368  0.6447  0.3345  1.3141
   64MPD2     N 1002   2.379   4.139  11.380 -0.4213 -0.5182 -0.1415
   64MPD2    H5 1003   2.464   4.156  11.325 -1.7257  0.2150 -1.9516
   64MPD2    N1 1004   2.285   3.784  11.072 -0.2734  0.8121 -0.1343
   64MPD2    H7 1005   2.386   3.789  11.057 -0.2078 -1.1482 -0.3770
   65TMC2    C1 1006   3.917   3.811  15.976  0.2941 -0.2509  0.3353
   65TMC2    C2 1007   3.997   3.806  16.090 -0.5688  0.1324  0.1879
   65TMC2    C3 1008   4.030   3.925  16.148  0.4819  0.4748  0.5498
   65TMC2    C4 1009   3.895   3.927  15.914 -0.1559  0.0554 -0.0707
   65TMC2    C5 1010   3.930   4.045  15.972 -0.5684 -0.2806 -0.0021
   65TMC2    C6 1011   3.994   4.044  16.095  0.7802  0.2236 -0.3136
   65TMC2     C 1012   3.886   3.680  15.916  0.3654  0.2005  0.7651
   65TMC2     O 1013   3.877   3.582  15.994 -0.2550  0.3967  0.8292
   65TMC2     H 1014   4.021   3.713  16.140 -0.6022  0.2523  0.4298
   65TMC2    H1 1015   3.822   3.927  15.834  1.5356  1.6145 -1.6151
   65TMC2    H2 1016   4.021   4.135  16.149  1.7017  1.3070 -2.5852
   65TMC2    C7 1017   3.848   4.165  15.931 -0.0024 -0.9974  0.2314
   65TMC2    C8 1018   4.136   3.936  16.247 -0.3790 -0.1989 -0.5285
   65TMC2    O1 1019   3.832   4.179  15.808 -0.0514  0.3059 -1.1003
   65TMC2    O2 1020   4.154   4.035  16.324  0.4335 -0.4768 -0.3435
   65TMC2    O5 1021   4.229   3.851  16.207 -0.1504  0.4597  0.2108
   65TMC2    H5 1022   4.198   3.808  16.125 -0.9617 -0.6422  1.0979
   66MPD2     C 1023   3.836   3.445  15.732 -0.7236 -0.2015 -1.0913
   66MPD2    C1 1024   3.850   3.577  15.683  0.0070 -0.0422  0.3241
   66MPD2    C2 1025   3.857   3.601  15.545 -0.1509 -0.1147 -0.3895
   66MPD2    C3 1026   3.861   3.501  15.454  0.4466  0.3653 -0.2035
   66MPD2    C4 1027   3.846   3.371  15.497 -0.3612  0.9668  0.5370
   66MPD2    C5 1028   3.832   3.343  15.637  1.3010 -0.3342  0.0649
   66MPD2     H 1029   3.859   3.705  15.515 -1.6777  0.4724  1.5247
   66MPD2    H1 1030   3.854   3.286  15.430 -0.4851  0.9205  0.5809
   66MPD2    H2 1031   3.852   3.414  15.834 -1.5266 -1.7153 -1.4103
   66MPD2    H3 1032   3.827   3.242  15.676  1.1177 -0.3223  0.0725
   66MPD2     N 1033   3.880   3.529  15.312  0.2556  0.5091 -0.5647
   66MPD2    H5 1034   3.884   3.444  15.256  0.4521 -0.6641  1.2300
   66MPD2    N1 1035   3.877   3.681  15.778  0.0431 -0.1941  1.1800
   66MPD2    H7 1036   3.911   3.769  15.740 -1.9355  0.5699  1.1814
   67TMC2    C1 1037   4.338   3.537  14.257  0.1967 -0.2299  0.1949
   67TMC2    C2 1038   4.230   3.626  14.242 -0.2677 -0.0530 -0.0703
   67TMC2    C3 1039   4.220   3.727  14.337 -0.8396 -0.2498 -0.2787
   67TMC2    C4 1040   4.433   3.552  14.352 -0.2873 -0.7892 -0.1549
   67TMC2    C5 1041   4.408   3.645  14.447  0.7150  0.3584  0.4972
   67TMC2    C6 1042   4.299   3.727  14.445  0.1627  0.0514  0.6687
   67TMC2     C 1043   4.354   3.432  14.161 -0.4317 -0.3873  0.8391
   67TMC2     O 1044   4.468   3.392  14.141 -0.2766  0.6341  0.1898
   67TMC2     H 1045   4.172   3.631  14.151  1.5853 -0.3492 -1.2657
   67TMC2    H1 1046   4.518   3.486  14.345  0.8451  0.5169  1.2661
   67TMC2    H2 1047   4.300   3.817  14.505 -1.1144  1.1941 -1.0353
   67TMC2    C7 1048   4.500   3.649  14.552 -0.2856 -0.0020 -0.1719
   67TMC2    C8 1049   4.129   3.828  14.300  0.4568  0.6542 -0.1385
   67TMC2    O1 1050   4.618   3.625  14.520  0.4334  0.1146  0.0077
   67TMC2    O2 1051   4.049   3.822  14.211 -0.1911  0.1034  0.5649
   67TMC2    O5 1052   4.146   3.947  14.371  0.3954 -0.5148 -0.1175
   67TMC2    H5 1053   4.235   3.953  14.410  0.3386  0.6481 -0.1702
   68MPD2     C 1054   4.333   3.228  13.947 -0.6298  0.3161  0.9967
   68MPD2    C1 1055   4.224   3.287  14.008  0.4981 -0.1693  0.8193
   68MPD2    C2 1056   4.097   3.247  13.963  0.8152 -1.0256 -0.0532
   68MPD2    C3 1057   4.080   3.142  13.874  0.4299 -0.2748  0.4575
   68MPD2    C4 1058   4.195   3.083  13.814  0.2879  0.9219 -0.5003
   68MPD2    C5 1059   4.322   3.124  13.857  0.6897  0.6220  0.2888
   68MPD2     H 1060   4.004   3.288  14.000  0.8070  0.4605 -1.6884
   68MPD2    H1 1061   4.191   2.996  13.750 -0.4219 -1.1059  2.2900
   68MPD2    H2 1062   4.430   3.251  13.990 -0.1590  2.0672 -0.9939
   68MPD2    H3 1063   4.407   3.071  13.815  0.3320 -0.4079  0.8637
   68MPD2     N 1064   3.958   3.108  13.813  0.2715  0.1693 -0.2118
   68MPD2    H5 1065   3.964   3.046  13.733  1.8692  0.8454 -0.6230
   68MPD2    N1 1066   4.237   3.396  14.097 -0.6530 -0.3664 -0.3546
   68MPD2    H7 1067   4.147   3.440  14.111 -0.1462  0.5621 -0.0574
   69TMC2    C1 1068   1.136   0.373  12.400  0.2200 -0.0448  0.2916
   69TMC2    C2 1069   1.107   0.509  12.383  0.2207  0.4753 -0.0973
   69TMC2    C3 1070   1.201   0.586  12.315 -0.2399  0.0600 -0.1294
   69TMC2    C4 1071   1.253   0.318  12.349 -0.5252 -0.3132  0.2438
   69TMC2    C5 1072   1.348   0.399  12.296  0.7090 -0.8994  0.5226
   69TMC2    C6 1073   1.320   0.528  12.275  0.6348 -0.4870 -0.0142
   69TMC2     C 1074   1.031   0.286  12.449  0.0864 -0.6032  0.6449
   69TMC2     O 1075   1.068   0.182  12.509 -0.0296 -0.5383  0.6772
   69TMC2     H 1076   1.020   0.551  12.433 -0.0554  0.4791 -0.5861
   69TMC2    H1 1077   1.256   0.210  12.336 -2.8868 -0.2714 -0.7690
   69TMC2    H2 1078   1.404   0.590  12.246  0.0900  0.0894 -0.3539
   69TMC2    C7 1079   1.442   0.333  12.213 -0.2851 -1.2050  0.7470
   69TMC2    C8 1080   1.224   0.725  12.361  0.3511 -0.1215 -0.6467
   69TMC2    O1 1081   1.555   0.379  12.222  0.4695 -0.1076  0.2558
   69TMC2    O2 1082   1.169   0.761  12.462 -0.0265  0.2983  0.5187
   69TMC2    O5 1083   1.213   0.800  12.247 -0.1266 -0.2074  0.0767
   69TMC2    H5 1084   1.270   0.762  12.177  0.3349  1.1027 -0.2669
   70MPD2     C 1085   0.666   0.346  12.408 -0.0847 -0.1319 -1.0814
   70MPD2    C1 1086   0.781   0.298  12.469 -0.0949 -0.2283  0.5807
   70MPD2    C2 1087   0.770   0.199  12.560  0.4275  0.3342 -0.2404
   70MPD2    C3 1088   0.655   0.143  12.593  0.3787  0.6175  0.3119
   70MPD2    C4 1089   0.537   0.187  12.530  0.3171  0.4112 -0.4274
   70MPD2    C5 1090   0.547   0.293  12.437 -0.1578  0.5741 -0.1418
   70MPD2     H 1091   0.857   0.154  12.606  0.7416  0.2599 -0.9102
   70MPD2    H1 1092   0.441   0.145  12.558 -0.0561  1.8909  0.5532
   70MPD2    H2 1093   0.670   0.406  12.318 -1.3850 -0.0302 -1.0781
   70MPD2    H3 1094   0.457   0.329  12.389  0.5072  0.6544 -1.3339
   70MPD2     N 1095   0.657   0.020  12.667  0.1447 -0.0994  0.5688
   70MPD2    H5 1096   0.750   4.733  12.694 -0.2875 -2.1047 -0.2182
   70MPD2    N1 1097   0.902   0.338  12.416  0.0217  0.5240 -0.2712
   70MPD2    H7 1098   0.897   0.422  12.358 -2.9167  2.1434  2.3545
   71TMC2    C1 1099   4.141   0.551   1.404  1.2449  0.3452 -0.0344
   71TMC2    C2 1100   4.274   0.546   1.440  0.1625  0.6228  0.3349
   71TMC2    C3 1101   4.306   0.562   1.571  0.9618  0.2422  0.1459
   71TMC2    C4 1102   4.044   0.594   1.491 -0.7106  0.5788  0.4956
   71TMC2    C5 1103   4.087   0.641   1.612 -0.0052 -0.0901 -0.0925
   71TMC2    C6 1104   4.213   0.615   1.661 -0.0542  0.3370 -0.1421
   71TMC2     C 1105   4.094   0.513   1.266  0.5112  0.9740 -0.1809
   71TMC2     O 1106   3.996   0.570   1.225 -0.0098 -0.1771  0.0507
   71TMC2     H 1107   4.345   0.535   1.359 -0.7091 -1.8624 -0.1116
   71TMC2    H1 1108   3.945   0.621   1.458 -0.0524  1.0014 -1.1447
   71TMC2    H2 1109   4.253   0.638   1.759  1.0955 -1.0152 -0.2871
   71TMC2    C7 1110   4.000   0.645   1.729 -0.2035  1.2437 -0.5737
   71TMC2    C8 1111   4.449   0.582   1.606 -0.3882 -0.0231 -1.1504
   71TMC2    O1 1112   4.056   0.701   1.824  0.2169  0.2391  0.4411
   71TMC2    O2 1113   4.538   0.605   1.532  0.8283  0.1123 -0.4772
   71TMC2    O5 1114   4.471   0.501   1.709  0.1710  0.2971  0.2733
   71TMC2    H5 1115   4.389   0.472   1.754 -0.0338  0.7076  0.1612
   72MPD2     C 1116   4.076   0.279   0.809 -0.5140  0.0812 -0.6963
   72MPD2    C1 1117   4.005   0.386   0.853  0.1104  0.2874  0.2461
   72MPD2    C2 1118   4.037   0.438   0.980 -0.2513  0.2340 -0.1492
   72MPD2    C3 1119   4.127   0.378   1.065  0.2273  0.1339 -1.0183
   72MPD2    C4 1120   4.183   0.261   1.020  0.1839 -0.5409 -0.7055
   72MPD2    C5 1121   4.162   0.222   0.888 -0.1094 -0.1454  0.0944
   72MPD2     H 1122   3.982   0.529   0.999 -1.1613 -0.4894  0.6671
   72MPD2    H1 1123   4.251   0.202   1.081 -0.1844 -0.2379  0.0043
   72MPD2    H2 1124   4.067   0.223   0.716 -2.2860  0.7688 -0.9439
   72MPD2    H3 1125   4.207   0.127   0.860  2.3869  0.8026  0.8757
   72MPD2     N 1126   4.158   0.416   1.197  0.2239  0.3533  0.2061
   72MPD2    H5 1127   4.225   0.363   1.252 -2.6440 -2.8306  0.6870
   72MPD2    N1 1128   3.903   0.440   0.772 -0.5256 -0.0966  0.1831
   72MPD2    H7 1129   3.865   0.528   0.804  1.4120  1.3556 -1.5510
   73TMC2    C1 1130   4.000   1.403  13.571 -0.0369 -0.5376 -0.2845
   73TMC2    C2 1131   4.119   1.450  13.544 -0.5217 -0.0444 -0.9609
   73TMC2    C3 1132   4.191   1.508  13.639 -0.2709  0.0916 -0.2996
   73TMC2    C4 1133   3.952   1.408  13.698  0.9190 -0.6827 -0.6229
   73TMC2    C5 1134   4.014   1.504  13.788  0.7293  0.0153  0.3282
   73TMC2    C6 1135   4.140   1.535  13.761  0.2694 -0.2715  0.1640
   73TMC2     C 1136   3.893   1.439  13.486 -1.3088  0.2658 -0.3473
   73TMC2     O 1137   3.788   1.473  13.541 -0.0163  0.3315  0.2329
   73TMC2     H 1138   4.156   1.460  13.442 -0.3739  1.0106 -0.7958
   73TMC2    H1 1139   3.857   1.361  13.725 -0.8268  2.9418 -0.3866
   73TMC2    H2 1140   4.184   1.607  13.829 -1.0524  1.8935 -1.2700
   73TMC2    C7 1141   3.943   1.620  13.834  0.6366 -0.2852 -0.6574
   73TMC2    C8 1142   4.327   1.539  13.605  0.1114 -0.0124  0.0523
   73TMC2    O1 1143   4.000   1.708  13.898 -0.1857  0.1583  0.0210
   73TMC2    O2 1144   4.379   1.482  13.512  0.3083  0.2253 -0.3300
   73TMC2    O5 1145   4.394   1.618  13.694 -0.8127  0.2284 -0.9526
   73TMC2    H5 1146   4.342   1.691  13.734 -1.7981  0.2992 -2.3979
   74MPD2     C 1147   3.731   1.608  13.024  0.7781  0.2156  0.2317
   74MPD2    C1 1148   3.680   1.634  13.147 -0.9003 -0.0655 -0.1022
   74MPD2    C2 1149   3.734   1.569  13.259 -0.1667  0.3453  0.0246
   74MPD2    C3 1150   3.845   1.482  13.242  0.2456  0.3054 -0.1106
   74MPD2    C4 1151   3.895   1.451  13.112  0.8406  0.2601  0.7411
   74MPD2    C5 1152   3.835   1.520  13.006 -0.0237  0.2200 -1.1230
   74MPD2     H 1153   3.694   1.580  13.360  2.1546 -0.9038  1.0816
   74MPD2    H1 1154   3.974   1.383  13.085  0.8165  1.3066 -1.9469
   74MPD2    H2 1155   3.685   1.659  12.939 -1.8847 -0.2144  1.4194
   74MPD2    H3 1156   3.862   1.503  12.903  2.0276  0.5824 -0.6476
   74MPD2     N 1157   3.919   1.422  13.348  0.5291  0.2142  0.5406
   74MPD2    H5 1158   4.004   1.370  13.326  0.0048 -0.1156 -0.6884
   74MPD2    N1 1159   3.566   1.721  13.151 -0.6574 -0.2249  0.0399
   74MPD2    H7 1160   3.539   1.761  13.062  0.5597 -2.5055 -1.3702
   75TMC2    C1 1161   3.742   3.129  13.729  0.1669 -0.4079 -0.9215
   75TMC2    C2 1162   3.729   2.990  13.714 -0.1197  0.1693 -0.2721
   75TMC2    C3 1163   3.606   2.945  13.680 -0.4415 -0.4767 -0.3562
   75TMC2    C4 1164   3.628   3.206  13.728  0.8959 -0.2231 -0.0724
   75TMC2    C5 1165   3.504   3.150  13.700  0.4289  0.5000  0.0883
   75TMC2    C6 1166   3.492   3.020  13.665  0.2406 -0.9567 -0.0474
   75TMC2     C 1167   3.838   3.167  13.831  0.4372  0.2214 -0.3139
   75TMC2     O 1168   3.812   3.261  13.902  0.5583  0.1565 -0.0083
   75TMC2     H 1169   3.822   2.935  13.701  0.7649  1.6942 -0.4332
   75TMC2    H1 1170   3.639   3.310  13.756 -1.4732  0.4574 -1.6473
   75TMC2    H2 1171   3.396   2.973  13.645 -0.1958 -0.1231  0.0742
   75TMC2    C7 1172   3.392   3.230  13.663  0.1441 -0.0664  0.5831
   75TMC2    C8 1173   3.587   2.803  13.663 -0.5588 -0.0198 -0.6196
   75TMC2    O1 1174   3.292   3.169  13.630  0.2805 -0.1848 -0.1093
   75TMC2    O2 1175   3.686   2.731  13.655  0.3916  0.0591  0.3973
   75TMC2    O5 1176   3.472   2.772  13.725 -0.8283 -0.2201  0.2044
   75TMC2    H5 1177   3.423   2.847  13.766 -1.5257 -0.3920 -0.2988
   76TMC2    C1 1178   2.671   3.984  12.249 -0.9386 -0.0785  0.6508
   76TMC2    C2 1179   2.797   3.963  12.203  0.0130  0.3625  0.3108
   76TMC2    C3 1180   2.832   3.834  12.178 -0.4873  0.1199 -0.0742
   76TMC2    C4 1181   2.587   3.880  12.279 -0.0660 -0.1901 -0.2132
   76TMC2    C5 1182   2.628   3.749  12.253  1.0599 -0.0657 -0.0634
   76TMC2    C6 1183   2.753   3.721  12.196  0.5978 -0.6247 -0.5620
   76TMC2     C 1184   2.603   4.106  12.214  0.6517  0.2622 -0.1031
   76TMC2     O 1185   2.486   4.090  12.186 -0.1353 -0.2596  0.9511
   76TMC2     H 1186   2.852   4.051  12.171  0.2525  0.3792  0.7652
   76TMC2    H1 1187   2.485   3.896  12.314  0.2323  0.8269  0.1905
   76TMC2    H2 1188   2.783   3.620  12.170  0.2231 -0.4325 -1.7008
   76TMC2    C7 1189   2.522   3.649  12.253 -0.4839  0.2916  0.1836
   76TMC2    C8 1190   2.951   3.813  12.114 -0.4610  0.8286 -0.4608
   76TMC2    O1 1191   2.523   3.551  12.181  0.7603  0.4498  0.2759
   76TMC2    O2 1192   2.977   3.723  12.036  0.1019 -0.0448  0.8305
   76TMC2    O5 1193   3.035   3.908  12.157  0.2574 -0.0619 -0.1869
   76TMC2    H5 1194   3.012   3.924  12.251  0.8494 -1.4188  0.1967
   77MPD2     C 1195   2.589   4.585  12.053 -0.3890 -0.1036  0.2626
   77MPD2    C1 1196   2.497   4.482  12.037 -0.1411 -0.2497  0.0114
   77MPD2    C2 1197   2.527   4.361  12.084  0.3985 -0.4759 -0.1504
   77MPD2    C3 1198   2.648   4.338  12.152 -0.8560  0.4724 -0.3405
   77MPD2    C4 1199   2.734   4.440  12.166 -0.3079 -0.2070 -0.3918
   77MPD2    C5 1200   2.709   4.564  12.113 -0.0757 -0.3640  0.4366
   77MPD2     H 1201   2.452   4.283  12.080 -0.0058 -0.1457  1.1144
   77MPD2    H1 1202   2.829   4.427  12.217  0.5013  1.6369 -1.4023
   77MPD2    H2 1203   2.567   4.686  12.022 -2.3467 -0.4468  0.5620
   77MPD2    H3 1204   2.775   4.650  12.119  0.3549 -0.5619 -1.4564
   77MPD2     N 1205   2.681   4.217  12.219 -0.0237 -0.4974  0.1817
   77MPD2    H5 1206   2.770   4.204  12.265  2.0013 -0.4774 -3.7015
   77MPD2    N1 1207   2.369   4.500  11.978 -0.4102 -0.4802 -0.2712
   77MPD2    H7 1208   2.328   4.415  11.941 -1.5688  0.8483 -2.0172
   78TMC2    C1 1209   3.635   4.046   1.647 -0.6439  0.4193  0.5861
   78TMC2    C2 1210   3.588   3.930   1.584 -0.4145  0.8164 -0.6150
   78TMC2    C3 1211   3.685   3.856   1.518 -0.2103  0.1159  0.3843
   78TMC2    C4 1212   3.767   4.081   1.643 -0.0736 -0.1519  0.2353
   78TMC2    C5 1213   3.863   3.999   1.588  0.3102 -0.0215  0.3407
   78TMC2    C6 1214   3.819   3.890   1.516  0.3412 -0.1423 -0.0839
   78TMC2     C 1215   3.549   4.138   1.714 -0.6987  0.1133 -0.0717
   78TMC2     O 1216   3.607   4.227   1.770  0.4542  0.2788  0.2289
   78TMC2     H 1217   3.482   3.908   1.589 -0.2728 -0.3199 -2.4679
   78TMC2    H1 1218   3.803   4.168   1.697  1.2351  0.0586 -0.9629
   78TMC2    H2 1219   3.886   3.831   1.455  0.6636 -1.7964  1.8447
   78TMC2    C7 1220   3.999   4.040   1.572  0.0719 -0.2479  0.3856
   78TMC2    C8 1221   3.638   3.735   1.450  0.0310 -0.4809  0.0515
   78TMC2    O1 1222   4.041   3.989   1.470  0.2832 -0.0053  0.0973
   78TMC2    O2 1223   3.693   3.693   1.349  0.0093  0.0505  0.3299
   78TMC2    O5 1224   3.538   3.680   1.523 -0.3531  0.1398 -0.8220
   78TMC2    H5 1225   3.542   3.702   1.619 -0.0491  0.9411 -1.0207
   79MPD1     C 1226   3.109   4.404   1.744 -0.2325 -0.6677 -0.3288
   79MPD1    C1 1227   3.240   4.451   1.752 -0.9294 -0.2403 -0.0786
   79MPD1    C2 1228   3.343   4.360   1.738 -0.3844 -0.2736  0.3443
   79MPD1    C3 1229   3.313   4.225   1.716 -0.1811  0.4650 -0.1229
   79MPD1    C4 1230   3.180   4.188   1.697  0.0360  0.1144 -0.5561
   79MPD1    C5 1231   3.081   4.276   1.718  0.6346 -0.1267 -0.5192
   79MPD1     H 1232   3.442   4.402   1.748 -0.9805  1.6005 -1.5694
   79MPD1    H1 1233   3.155   4.085   1.672 -2.2691  0.5315 -0.0056
   79MPD1    H2 1234   3.030   4.473   1.771  0.2267 -0.7763  1.2809
   79MPD1    H3 1235   2.979   4.240   1.711  0.7927 -0.5701 -0.5359
   79MPD1     N 1236   3.410   4.123   1.707 -0.0282  0.2838  0.1088
   79MPD1    H5 1237   3.377   4.030   1.684  1.8098 -0.3538 -0.0204
   79MPD1    N1 1238   3.267   4.577   1.799 -0.4567 -0.6571 -0.0133
   79MPD1    H6 1239   3.366   4.601   1.796 -0.2437 -1.5055  0.2493
   79MPD1    H7 1240   3.218   4.640   1.736 -0.1585 -0.2794  0.1326
   80TMC2    C1 1241   1.684   3.525  11.889 -0.7104  0.7209  0.1186
   80TMC2    C2 1242   1.742   3.470  11.779 -0.5117 -0.2393 -0.0748
   80TMC2    C3 1243   1.657   3.406  11.690  0.3245 -0.2001  0.8464
   80TMC2    C4 1244   1.552   3.505  11.925 -0.2439 -0.1784 -0.4491
   80TMC2    C5 1245   1.483   3.430  11.835 -0.0867  0.3581  0.3151
   80TMC2    C6 1246   1.530   3.386  11.715 -0.5238 -0.4111  0.2166
   80TMC2     C 1247   1.753   3.625  11.963  0.4422 -0.0432  0.2527
   80TMC2     O 1248   1.870   3.636  11.927  0.0299  0.2654 -0.4186
   80TMC2     H 1249   1.847   3.484  11.758 -0.6590  0.9328 -0.0385
   80TMC2    H1 1250   1.509   3.540  12.018  2.3346  0.9860  0.3042
   80TMC2    H2 1251   1.474   3.303  11.673  0.1503 -0.6658 -0.1860
   80TMC2    C7 1252   1.333   3.422  11.849  0.4075 -0.1469  0.3900
   80TMC2    C8 1253   1.719   3.317  11.598  0.4693  0.2216  0.4021
   80TMC2    O1 1254   1.265   3.406  11.749  0.2106  0.4541  0.5473
   80TMC2    O2 1255   1.829   3.269  11.616 -0.0582  0.4130  0.2240
   80TMC2    O5 1256   1.647   3.307  11.478 -0.4318  0.2269  0.0612
   80TMC2    H5 1257   1.582   3.380  11.466  1.2853  1.6852 -0.2513
   81MPD2     C 1258   1.829   3.883  12.088  0.2106  0.0553  0.6302
   81MPD2    C1 1259   1.696   3.856  12.059  0.2973  0.4865  0.0899
   81MPD2    C2 1260   1.597   3.942  12.093 -0.2577 -0.5446  0.3993
   81MPD2    C3 1261   1.627   4.057  12.164  0.0359  1.1334 -0.1794
   81MPD2    C4 1262   1.763   4.079  12.202  0.6953 -0.1107  0.0846
   81MPD2    C5 1263   1.862   3.994  12.156  0.0449  0.3565  0.0483
   81MPD2     H 1264   1.496   3.928  12.055  1.0467 -1.4811 -2.7089
   81MPD2    H1 1265   1.797   4.157  12.269  1.1899 -1.3779  1.2835
   81MPD2    H2 1266   1.908   3.811  12.070  0.4477 -0.1448  2.4504
   81MPD2    H3 1267   1.965   4.016  12.179  0.2503 -0.1849 -0.3426
   81MPD2     N 1268   1.535   4.155  12.198 -0.0558 -0.0358 -0.3275
   81MPD2    H5 1269   1.551   4.229  12.265  0.8186 -2.1989  1.8482
   81MPD2    N1 1270   1.666   3.728  12.005 -0.6260 -0.0867 -0.1281
   81MPD2    H7 1271   1.566   3.721  11.987 -1.0218 -1.3314  2.5571
   82TMC2    C1 1272   4.121   3.030  11.144  0.1354 -0.1632  0.2607
   82TMC2    C2 1273   4.193   3.128  11.206  0.2628 -0.4534  0.1283
   82TMC2    C3 1274   4.212   3.115  11.339  0.8374 -0.4527  0.3569
   82TMC2    C4 1275   4.083   2.920  11.211 -0.1370  0.5032  0.1990
   82TMC2    C5 1276   4.100   2.912  11.343  0.1776 -0.0744  0.2953
   82TMC2    C6 1277   4.168   3.010  11.419  1.1661 -0.0219 -0.2879
   82TMC2     C 1278   4.099   3.030  10.998  0.0797  0.4477  0.1558
   82TMC2     O 1279   4.034   2.938  10.945 -0.3328  0.4565  0.1030
   82TMC2     H 1280   4.225   3.220  11.160  0.1253 -0.7472 -0.5478
   82TMC2    H1 1281   4.017   2.849  11.162  0.0537 -0.9661  2.0625
   82TMC2    H2 1282   4.211   3.004  11.519  0.1185  1.1065  0.2456
   82TMC2    C7 1283   4.044   2.801  11.415  0.6002 -0.1862  0.3830
   82TMC2    C8 1284   4.233   3.237  11.411  0.4470 -0.9934  0.1845
   82TMC2    O1 1285   4.043   2.817  11.534 -0.3078  0.3571 -0.3296
   82TMC2    O2 1286   4.320   3.247  11.500 -0.1448 -0.3923  0.3694
   82TMC2    O5 1287   4.104   3.269  11.439 -0.0123  0.1326  0.6122
   82TMC2    H5 1288   4.042   3.280  11.364 -0.6806  0.8577  1.2696
   83MPD2     C 1289   4.016   3.385  10.632  0.2418 -0.0609 -1.0311
   83MPD2    C1 1290   3.938   3.275  10.666 -0.6913  0.4984  0.2918
   83MPD2    C2 1291   3.996   3.191  10.763  0.4259  0.1248  0.2130
   83MPD2    C3 1292   4.118   3.212  10.825 -0.5183  0.1463 -0.2596
   83MPD2    C4 1293   4.194   3.323  10.775 -0.2814  0.6177 -0.4388
   83MPD2    C5 1294   4.140   3.411  10.683 -0.5082  0.6172 -0.1141
   83MPD2     H 1295   3.939   3.101  10.785  0.0735  0.2939  0.0053
   83MPD2    H1 1296   4.283   3.348  10.831 -0.8191 -0.1320  0.7607
   83MPD2    H2 1297   3.990   3.459  10.557  1.7020  0.1604 -1.3223
   83MPD2    H3 1298   4.196   3.494  10.642  1.3541  0.2053  1.6154
   83MPD2     N 1299   4.165   3.140  10.941 -0.1065  0.1476 -0.3441
   83MPD2    H5 1300   4.248   3.179  10.985 -0.8372  1.2323  0.0788
   83MPD2    N1 1301   3.807   3.256  10.618 -0.0808 -0.2317 -0.4962
   83MPD2    H7 1302   3.779   3.333  10.559  2.6342  0.5740 -0.7318
   84TMC2    C1 1303   0.671   1.884  10.740  0.2680  0.6739 -0.3180
   84TMC2    C2 1304   0.605   1.785  10.670  0.4422  0.5330 -0.2388
   84TMC2    C3 1305   0.622   1.781  10.535  0.1500 -0.0271 -0.6011
   84TMC2    C4 1306   0.748   1.974  10.673 -0.1689  0.1373  0.9762
   84TMC2    C5 1307   0.758   1.967  10.537 -0.0069 -0.4422  0.1874
   84TMC2    C6 1308   0.697   1.873  10.469  0.5533  0.9495  0.3239
   84TMC2     C 1309   0.616   1.935  10.863  0.0128 -0.1211 -0.2244
   84TMC2     O 1310   0.692   1.996  10.935  0.2182  0.3126  0.2490
   84TMC2     H 1311   0.533   1.724  10.722 -1.4395  0.3974 -3.0366
   84TMC2    H1 1312   0.771   2.062  10.732  1.0725 -0.7512  1.8508
   84TMC2    H2 1313   0.712   1.869  10.362 -1.5185  0.9647  0.0352
   84TMC2    C7 1314   0.807   2.086  10.468  0.5037 -0.0811  0.4860
   84TMC2    C8 1315   0.577   1.656  10.472  0.4843 -0.1550  0.4033
   84TMC2    O1 1316   0.832   2.175  10.544 -0.4043  0.2884  0.4029
   84TMC2    O2 1317   0.605   1.546  10.521  0.0288 -0.1239  0.7653
   84TMC2    O5 1318   0.544   1.686  10.342 -0.1872 -0.6385 -0.2678
   84TMC2    H5 1319   0.528   1.780  10.316 -1.5962 -0.9304 -0.4727
   85TMC2    C1 1320   1.551   0.761  15.883 -0.8404 -0.1715 -0.1845
   85TMC2    C2 1321   1.433   0.822  15.907  0.1901  0.4490 -0.1679
   85TMC2    C3 1322   1.413   0.930  15.824  0.0011 -0.0272 -0.3976
   85TMC2    C4 1323   1.647   0.813  15.794  0.2631 -0.8251  0.0073
   85TMC2    C5 1324   1.614   0.919  15.710 -0.0197 -1.0049 -0.4402
   85TMC2    C6 1325   1.496   0.978  15.729 -0.4721  0.5674 -0.2799
   85TMC2     C 1326   1.592   0.658  15.982 -0.4706  0.5450 -0.2852
   85TMC2     O 1327   1.713   0.643  16.003  0.3985  0.1626 -0.6682
   85TMC2     H 1328   1.381   0.817  16.002  1.0960 -3.5790  0.1218
   85TMC2    H1 1329   1.741   0.763  15.776  1.2677  0.3212  2.1062
   85TMC2    H2 1330   1.479   1.075  15.683  1.8033  0.8009 -0.6258
   85TMC2    C7 1331   1.683   0.939  15.584 -0.2413  0.2283 -0.2306
   85TMC2    C8 1332   1.282   1.004  15.834  0.1723 -0.3102 -0.0834
   85TMC2    O1 1333   1.793   0.885  15.572 -0.2935 -0.5429  0.5209
   85TMC2    O2 1334   1.275   1.123  15.837 -0.0200  0.5008 -0.2737
   85TMC2    O5 1335   1.180   0.911  15.830 -0.1613  0.1320  0.1082
   85TMC2    H5 1336   1.203   0.821  15.799 -1.2366  0.3707 -1.3810
   86MPD2     C 1337   1.543   0.204  16.206 -0.4287  1.0351 -0.1466
   86MPD2    C1 1338   1.418   0.241  16.150  0.4767  0.0938 -0.2354
   86MPD2    C2 1339   1.400   0.371  16.095  0.3665  0.6929 -0.1985
   86MPD2    C3 1340   1.507   0.464  16.106 -1.0330  1.0047 -0.4552
   86MPD2    C4 1341   1.616   0.433  16.178  0.5782  0.6077  0.3208
   86MPD2    C5 1342   1.639   0.302  16.231 -0.5042  0.4346 -0.1651
   86MPD2     H 1343   1.303   0.395  16.052  0.1474  0.4396  0.1546
   86MPD2    H1 1344   1.691   0.510  16.190  0.7344  0.5429 -0.2258
   86MPD2    H2 1345   1.573   0.111  16.253  1.8856  1.0841 -1.5463
   86MPD2    H3 1346   1.736   0.274  16.270 -0.6267 -2.2429 -1.7092
   86MPD2     N 1347   1.494   0.580  16.029  0.1430  0.2133 -0.0466
   86MPD2    H5 1348   1.398   0.592  15.998  0.7800 -0.8320 -2.4486
   86MPD2    N1 1349   1.313   0.145  16.143  0.1521  0.9443  0.2279
   86MPD2    H7 1350   1.227   0.174  16.097 -0.1856  3.5777  2.5148
   87TMC2    C1 1351   4.450   2.988   1.017  0.3626  0.7878  0.5618
   87TMC2    C2 1352   4.565   3.023   1.088 -0.7490 -0.4495  0.1534
   87TMC2    C3 1353   4.567   3.134   1.163 -0.4451 -0.7311  0.3264
   87TMC2    C4 1354   4.342   3.070   1.035 -0.0012 -0.5088  0.1828
   87TMC2    C5 1355   4.350   3.184   1.116  0.0876  0.1451  0.0075
   87TMC2    C6 1356   4.462   3.214   1.178  0.1768 -0.0502  0.0521
   87TMC2     C 1357   4.443   2.896   0.909 -0.3382  0.7374  0.5370
   87TMC2     O 1358   4.336   2.867   0.864 -0.0556 -0.7862 -0.7231
   87TMC2     H 1359   4.656   2.964   1.085 -1.2079 -1.1417 -0.2028
   87TMC2    H1 1360   4.254   3.040   0.981  0.3044 -0.0026 -0.5930
   87TMC2    H2 1361   4.478   3.298   1.244  0.1175  0.0832 -0.1028
   87TMC2    C7 1362   4.241   3.286   1.127 -0.2236 -0.1975 -0.4121
   87TMC2    C8 1363   4.690   3.172   1.221 -0.5190 -0.5089  0.0051
   87TMC2    O1 1364   4.268   3.387   1.190  0.2168  0.1093  0.5134
   87TMC2    O2 1365   4.693   3.231   1.326  0.0915 -0.2136 -0.0757
   87TMC2    O5 1366   0.019   3.217   1.117 -0.1824  0.1041 -0.7556
   87TMC2    H5 1367   4.720   3.198   1.030 -0.8938  0.8328 -0.5684
   88MPD2     C 1368   3.887   3.272   1.007 -0.3217  0.0550  0.5245
   88MPD2    C1 1369   4.006   3.332   1.046  0.2902 -0.0439  0.2585
   88MPD2    C2 1370   4.013   3.469   1.059  0.0122  0.6044 -0.8339
   88MPD2    C3 1371   3.903   3.549   1.050  0.3361 -0.4427  0.1499
   88MPD2    C4 1372   3.783   3.485   1.027  0.2682  0.0258  0.1260
   88MPD2    C5 1373   3.775   3.352   1.006  0.6945  0.6696  0.3405
   88MPD2     H 1374   4.107   3.514   1.090  1.6201 -1.9511 -2.0199
   88MPD2    H1 1375   3.689   3.540   1.027 -0.1555 -0.6832  1.5764
   88MPD2    H2 1376   3.879   3.164   1.005 -1.1736  0.1283  0.0407
   88MPD2    H3 1377   3.680   3.309   0.975  1.3029 -0.6098  0.2486
   88MPD2     N 1378   3.902   3.690   1.074 -0.6826  0.6443 -0.2941
   88MPD2    H5 1379   3.813   3.737   1.066 -0.4765  1.0120 -0.4299
   88MPD2    N1 1380   4.125   3.253   1.057  0.0166  1.2472 -0.1921
   88MPD2    H7 1381   4.115   3.156   1.027 -1.0063  1.1444  0.4478
   89TMC2    C1 1382   0.123   1.350   0.763 -0.4473 -0.0820 -0.0021
   89TMC2    C2 1383   4.733   1.394   0.790  0.2755 -0.3838 -0.1736
   89TMC2    C3 1384   4.690   1.495   0.719  0.1470  0.0317  0.0556
   89TMC2    C4 1385   0.205   1.407   0.662  0.3656 -0.0823  0.3739
   89TMC2    C5 1386   0.153   1.517   0.599 -0.3816 -0.1379  0.4695
   89TMC2    C6 1387   0.026   1.564   0.628  0.2429  0.3118  0.7774
   89TMC2     C 1388   0.190   1.270   0.864 -0.9419 -0.2469 -1.0415
   89TMC2     O 1389   0.292   1.215   0.826  0.4697 -0.0800 -0.5339
   89TMC2     H 1390   4.673   1.347   0.867  0.3303 -0.0411  0.0722
   89TMC2    H1 1391   0.312   1.394   0.658  0.4257  1.7198 -3.4883
   89TMC2    H2 1392   4.715   1.641   0.574 -2.7090 -0.8761  2.0021
   89TMC2    C7 1393   0.221   1.570   0.486 -0.3158  0.1915  0.1988
   89TMC2    C8 1394   4.548   1.533   0.732 -0.7004  0.3805  0.2851
   89TMC2    O1 1395   0.298   1.500   0.419  0.0617 -0.6218  0.1917
   89TMC2    O2 1396   4.496   1.486   0.832 -0.1090  0.6234 -0.0288
   89TMC2    O5 1397   4.493   1.568   0.608 -0.6442  0.0179 -0.6129
   89TMC2    H5 1398   4.563   1.584   0.542 -0.0865  1.3718  0.3106
   90MPD2     C 1399   0.193   0.942   1.274 -0.3607 -0.7082  0.3031
   90MPD2    C1 1400   0.079   1.026   1.276 -0.1733  0.4544 -0.5542
   90MPD2    C2 1401   0.065   1.129   1.175 -0.3594  0.5889 -0.1365
   90MPD2    C3 1402   0.155   1.146   1.076  0.0094  0.8843 -0.3216
   90MPD2    C4 1403   0.269   1.065   1.084 -0.1227 -0.0084  0.4554
   90MPD2    C5 1404   0.290   0.972   1.184 -0.2406  0.3046 -0.7333
   90MPD2     H 1405   4.718   1.189   1.175 -0.5505  0.2972 -1.7631
   90MPD2    H1 1406   0.345   1.072   1.006 -0.1292  0.2043  0.4687
   90MPD2    H2 1407   0.204   0.856   1.339 -2.9962  0.3656  2.1560
   90MPD2    H3 1408   0.380   0.912   1.192  0.7549  1.9637  0.5915
   90MPD2     N 1409   0.125   1.249   0.983 -0.0366  0.0139  0.0288
   90MPD2    H5 1410   0.036   1.297   0.996  0.2149 -0.0705  2.1312
   90MPD2    N1 1411   4.724   1.018   1.376 -0.3864 -0.3254 -0.3604
   90MPD2    H7 1412   4.652   1.087   1.364 -1.1889 -1.1109 -0.0718
   91TMC2    C1 1413   1.281   1.148  16.178  0.2866 -0.3928 -0.4207
   91TMC2    C2 1414   1.288   1.270  16.114 -0.0860 -0.6198  0.1095
   91TMC2    C3 1415   1.168   1.306  16.058  0.3882 -0.3758  0.4481
   91TMC2    C4 1416   1.171   1.073  16.201  1.1040 -0.5123  0.4257
   91TMC2    C5 1417   1.054   1.124  16.156 -0.3886 -0.5750 -0.2083
   91TMC2    C6 1418   1.045   1.244  16.089  0.1340 -0.4392  0.2633
   91TMC2     C 1419   1.412   1.090  16.198  0.1607 -0.2153 -0.4140
   91TMC2     O 1420   1.422   0.969  16.199  0.2847  0.3531 -0.0697
   91TMC2     H 1421   1.376   1.321  16.077  0.2393 -1.0787  0.2555
   91TMC2    H1 1422   1.179   0.983  16.260  0.6359 -1.6773 -1.2856
   91TMC2    H2 1423   0.953   1.271  16.040  1.0842 -0.6751 -1.6534
   91TMC2    C7 1424   0.931   1.037  16.176 -0.2206 -0.3140 -0.1030
   91TMC2    C8 1425   1.169   1.413  15.968 -0.3495 -0.8493 -0.1947
   91TMC2    O1 1426   0.955   0.938  16.244 -0.0809 -0.3484  0.4039
   91TMC2    O2 1427   1.260   1.492  15.951 -0.0393 -0.1173  0.2364
   91TMC2    O5 1428   1.080   1.379  15.872  0.0948  0.1883  0.3849
   91TMC2    H5 1429   1.035   1.292  15.880 -1.7178  1.1228  0.3702
   92MPD2     C 1430   1.698   1.033  16.158  1.0088  0.1617 -0.2225
   92MPD2    C1 1431   1.646   1.141  16.231  0.9133  0.3716 -0.1837
   92MPD2    C2 1432   1.737   1.217  16.303  0.4504 -0.7595 -0.1155
   92MPD2    C3 1433   1.874   1.194  16.300  0.1150  0.0982 -0.3459
   92MPD2    C4 1434   1.924   1.096  16.222  0.5296 -1.0917  0.0002
   92MPD2    C5 1435   1.837   1.019  16.148 -0.6393 -0.7619 -0.3419
   92MPD2     H 1436   1.701   1.301  16.362  3.0721  0.7517 -0.6494
   92MPD2    H1 1437   2.029   1.077  16.205  1.2122  3.0242 -0.2939
   92MPD2    H2 1438   1.637   0.972  16.092  1.4350  0.5993 -1.0185
   92MPD2    H3 1439   1.883   0.951  16.078 -0.9195 -2.7210  1.3714
   92MPD2     N 1440   1.956   1.282  16.372 -0.1535 -0.1982 -0.0899
   92MPD2    H5 1441   1.908   1.344  16.436 -0.5280  0.2545 -0.8018
   92MPD2    N1 1442   1.511   1.182  16.226 -0.6437 -0.7232 -0.1733
   92MPD2    H7 1443   1.485   1.277  16.248 -0.1230 -0.7085  0.3822
   93TMC2    C1 1444   3.357   1.252  14.007 -0.9237  0.5929  0.3434
   93TMC2    C2 1445   3.310   1.381  13.986  0.0413 -0.2227  0.4331
   93TMC2    C3 1446   3.401   1.476  13.978  0.4201 -0.2353 -0.1788
   93TMC2    C4 1447   3.492   1.224  14.028 -0.7320 -0.3941 -0.0962
   93TMC2    C5 1448   3.575   1.333  14.005  0.7597  0.3652  0.2741
   93TMC2    C6 1449   3.537   1.463  13.985 -0.3528 -0.1670  0.1586
   93TMC2     C 1450   3.256   1.161  14.065 -0.4568 -0.1760  0.4590
   93TMC2     O 1451   3.297   1.055  14.109  0.5426 -0.1314  0.3382
   93TMC2     H 1452   3.206   1.410  13.973 -0.0146  0.1191  1.6671
   93TMC2    H1 1453   3.530   1.127  14.057  0.2294 -0.0599 -0.2232
   93TMC2    H2 1454   3.602   1.541  13.948 -0.3688 -0.8746 -1.3774
   93TMC2    C7 1455   3.718   1.326  14.030 -0.2982 -0.2482  0.6124
   93TMC2    C8 1456   3.352   1.606  13.970  0.4776  0.2658 -0.3279
   93TMC2    O1 1457   3.779   1.224  14.010 -0.0955 -0.7411  0.2638
   93TMC2    O2 1458   3.245   1.637  13.922  0.0325  0.6634  0.7592
   93TMC2    O5 1459   3.415   1.687  14.055  0.7545 -0.2422  0.1219
   93TMC2    H5 1460   3.476   1.640  14.116  1.7359  0.5515 -0.2415
   94MPD2     C 1461   3.022   1.039  14.182  0.4541  0.3992 -0.1654
   94MPD2    C1 1462   3.013   1.130  14.083  0.1575 -0.4042  0.3360
   94MPD2    C2 1463   2.894   1.177  14.037 -0.5278 -0.6027  0.3858
   94MPD2    C3 1464   2.772   1.122  14.086  0.2834  0.1101 -0.4523
   94MPD2    C4 1465   2.784   1.021  14.174  0.1097  0.3740  0.1232
   94MPD2    C5 1466   2.904   0.982  14.222  0.5735  0.3449 -0.6145
   94MPD2     H 1467   2.907   1.248  13.956  1.2708 -2.5105 -1.0111
   94MPD2    H1 1468   2.697   0.959  14.191  1.2750 -2.0092 -2.5165
   94MPD2    H2 1469   3.113   1.001  14.227  1.7973  2.9990 -0.6493
   94MPD2    H3 1470   2.915   0.897  14.289  1.0762 -0.6391 -1.9572
   94MPD2     N 1471   2.642   1.140  14.033  0.4797 -0.1581 -0.1580
   94MPD2    H5 1472   2.570   1.072  14.054  1.9351 -2.3889 -2.4729
   94MPD2    N1 1473   3.125   1.201  14.042 -0.4403  0.2510 -0.1351
   94MPD2    H7 1474   3.106   1.281  13.982  3.4738  1.2623 -0.0345
   95TMC2    C1 1475   3.020   3.909  14.816 -0.1928  0.1606  0.0910
   95TMC2    C2 1476   3.037   4.043  14.851  0.4216 -0.1178  0.4982
   95TMC2    C3 1477   2.925   4.121  14.868  0.6216 -0.1253  0.1843
   95TMC2    C4 1478   2.896   3.854  14.806 -0.3226 -0.0671 -0.3606
   95TMC2    C5 1479   2.792   3.933  14.842  0.9282 -0.3980 -0.8745
   95TMC2    C6 1480   2.800   4.069  14.866  0.5577 -0.2314 -0.4033
   95TMC2     C 1481   3.148   3.843  14.787  0.4131  0.9866 -0.3872
   95TMC2     O 1482   3.250   3.894  14.836  0.0187 -0.1475 -0.4893
   95TMC2     H 1483   3.132   4.093  14.866 -0.7018  2.1202  0.2619
   95TMC2    H1 1484   2.886   3.757  14.758  2.9994 -0.2621 -0.6977
   95TMC2    H2 1485   2.710   4.127  14.880  0.9879  0.6043 -1.0749
   95TMC2    C7 1486   2.658   3.885  14.824  0.2238 -0.2038 -0.3865
   95TMC2    C8 1487   2.949   4.265  14.901  0.4109 -0.4511  0.2512
   95TMC2    O1 1488   2.571   3.973  14.822 -0.1994 -0.3605  0.1689
   95TMC2    O2 1489   3.061   4.314  14.880 -0.3510 -0.6865  0.2786
   95TMC2    O5 1490   2.830   4.334  14.903  0.0021 -0.1421  0.3767
   95TMC2    H5 1491   2.759   4.289  14.953 -0.7739  0.6329 -0.0280
   96MPD2     C 1492   3.404   3.409  14.697 -0.4321  0.0574 -0.5244
   96MPD2    C1 1493   3.449   3.525  14.761 -0.2817 -0.1175  0.1406
   96MPD2    C2 1494   3.357   3.628  14.769  0.0272 -0.3622  0.9574
   96MPD2    C3 1495   3.233   3.617  14.709  0.5055  0.2853  0.6654
   96MPD2    C4 1496   3.191   3.497  14.653 -0.1586  0.1673 -0.8759
   96MPD2    C5 1497   3.276   3.393  14.648 -0.0386  0.2495 -0.6668
   96MPD2     H 1498   3.394   3.721  14.811  0.4152 -0.5892  1.1170
   96MPD2    H1 1499   3.089   3.482  14.618  1.0846 -0.6746 -4.2199
   96MPD2    H2 1500   3.475   3.328  14.684 -1.5927 -1.4731  2.6246
   96MPD2    H3 1501   3.263   3.294  14.606 -2.6081  1.2086 -2.1362
   96MPD2     N 1502   3.131   3.723  14.712 -0.0825  0.1341 -0.0239
   96MPD2    H5 1503   3.041   3.701  14.672  0.4937  1.8360 -2.2873
   96MPD2    N1 1504   3.579   3.530  14.819  0.4397 -0.1182  0.1622
   96MPD2    H7 1505   3.624   3.439  14.823  3.3781  1.2961 -0.5350
   97TMC2    C1 1506   1.201   0.864   0.356 -0.1202 -0.1915 -0.0089
   97TMC2    C2 1507   1.232   0.807   0.235 -0.2013 -0.2059 -0.6822
   97TMC2    C3 1508   1.304   0.880   0.139  0.3276  0.0443  0.8780
   97TMC2    C4 1509   1.226   0.993   0.392  0.1382 -0.1299  0.1689
   97TMC2    C5 1510   1.292   1.061   0.292  0.2871 -0.0397 -0.0152
   97TMC2    C6 1511   1.330   1.011   0.164 -0.2935  0.0505  0.3928
   97TMC2     C 1512   1.117   0.781   0.433 -0.2613 -0.3362  0.8337
   97TMC2     O 1513   1.104   0.664   0.400 -0.5251  0.4556  0.0287
   97TMC2     H 1514   1.219   0.702   0.213  3.5440 -1.4588  3.0804
   97TMC2    H1 1515   1.191   1.037   0.485 -3.5064  3.2958 -2.8682
   97TMC2    H2 1516   1.377   1.085   0.100  1.7784 -1.3491  0.2922
   97TMC2    C7 1517   1.325   1.208   0.316  0.5285  0.1671  0.1334
   97TMC2    C8 1518   1.295   0.837   0.004  0.4553 -0.2162  0.0881
   97TMC2    O1 1519   1.427   1.256   0.272  0.0245  0.2669 -0.1886
   97TMC2    O2 1520   1.392   0.808  17.709 -0.4672  0.0135  0.5203
   97TMC2    O5 1521   1.171   0.787  17.762 -0.3440 -0.2582  0.5196
   97TMC2    H5 1522   1.111   0.821   0.062 -0.6833  1.9267 -0.8441
   98MPD2     C 1523   0.912   0.660   0.892 -0.2288  0.0073  0.6585
   98MPD2    C1 1524   0.901   0.583   0.778 -0.4876 -0.0961  0.1027
   98MPD2    C2 1525   0.966   0.634   0.668  0.1316  0.3214  0.1500
   98MPD2    C3 1526   1.033   0.758   0.670 -1.0462  0.0225  0.3702
   98MPD2    C4 1527   1.016   0.836   0.787 -0.0855  0.7069 -0.5028
   98MPD2    C5 1528   0.975   0.785   0.902 -0.2916 -0.2053  0.3940
   98MPD2     H 1529   0.969   0.579   0.574 -0.7022  0.6938 -0.0932
   98MPD2    H1 1530   1.054   0.938   0.782 -0.3505  0.7220 -2.3431
   98MPD2    H2 1531   0.863   0.619   0.979 -1.8330  0.4987  0.0061
   98MPD2    H3 1532   0.957   0.844   0.991 -0.5723  2.2583 -1.3094
   98MPD2     N 1533   1.098   0.830   0.559 -0.5085  0.0605 -0.1504
   98MPD2    H5 1534   1.136   0.921   0.584 -0.3825  0.1464 -0.6480
   98MPD2    N1 1535   0.816   0.467   0.780  0.1234 -0.6235  0.5408
   98MPD2    H7 1536   0.770   0.454   0.870  0.4831  1.1079  0.9635
   99TMC2    C1 1537   4.725   3.036   1.605  0.2441  0.0205  0.8971
   99TMC2    C2 1538   0.059   3.143   1.640 -0.8578  0.0911  0.0073
   99TMC2    C3 1539   0.005   3.242   1.720  0.0245 -0.8882  0.0884
   99TMC2    C4 1540   4.594   3.025   1.655 -1.0171  0.7174  0.1484
   99TMC2    C5 1541   4.552   3.114   1.755  0.0548 -0.4111  0.0705
   99TMC2    C6 1542   4.629   3.221   1.783  0.0074 -0.6007  0.5748
   99TMC2     C 1543   0.053   2.923   1.544  0.4314  0.3558  0.1414
   99TMC2     O 1544   0.177   2.916   1.548  0.4071 -0.5943 -0.6257
   99TMC2     H 1545   0.159   3.156   1.601 -1.6234  1.1772 -1.5824
   99TMC2    H1 1546   4.546   2.930   1.636 -0.1771  0.6255 -1.4351
   99TMC2    H2 1547   4.600   3.288   1.863  2.0868  0.9238  0.0453
   99TMC2    C7 1548   4.414   3.112   1.809 -0.1008 -0.5903  0.1499
   99TMC2    C8 1549   0.093   3.326   1.797 -0.0618  0.9030 -0.1435
   99TMC2    O1 1550   4.399   3.185   1.902  0.0919  0.1355  0.1179
   99TMC2    O2 1551   0.092   3.334   1.918  0.2172  0.0455  0.4024
   99TMC2    O5 1552   0.162   3.407   1.720 -0.1233  0.4305 -0.5801
   99TMC2    H5 1553   0.160   3.399   1.622  1.5204 -0.9348 -0.5066
  100MPD2     C 1554   0.120   2.676   1.407  0.0398  0.2907 -0.2658
  100MPD2    C1 1555   0.003   2.748   1.390  0.1591 -0.1019  0.0915
  100MPD2    C2 1556   4.652   2.704   1.296  0.1350  0.6291 -0.6412
  100MPD2    C3 1557   4.679   2.597   1.210  0.8031 -0.1230 -0.7154
  100MPD2    C4 1558   0.063   2.545   1.220  0.0850  0.0118 -0.8423
  100MPD2    C5 1559   0.150   2.577   1.319 -0.2528 -0.0155  0.2787
  100MPD2     H 1560   4.558   2.758   1.306  0.2215  1.0882 -2.4384
  100MPD2    H1 1561   0.097   2.464   1.156  0.1919 -1.3699  0.9534
  100MPD2    H2 1562   0.192   2.697   1.485 -0.2677  0.7068 -0.0948
  100MPD2    H3 1563   0.248   2.530   1.325  0.2898  1.0831 -0.0943
  100MPD2     N 1564   4.575   2.550   1.133  0.3499 -0.3214 -0.1329
  100MPD2    H5 1565   4.491   2.606   1.141 -0.5173 -1.7885  0.8606
  100MPD2    N1 1566   4.707   2.859   1.465  0.0348  0.3805 -0.1477
  100MPD2    H7 1567   4.618   2.905   1.444 -0.5895 -0.6119  0.3535
  101TMC2    C1 1568   0.170   3.852  12.626 -0.0282 -0.0556  0.1470
  101TMC2    C2 1569   0.105   3.893  12.511 -0.3178  0.7627 -0.7830
  101TMC2    C3 1570   0.168   3.982  12.430  0.3388  0.2694  0.3877
  101TMC2    C4 1571   0.299   3.893  12.649 -0.4165 -0.1071 -0.0563
  101TMC2    C5 1572   0.362   3.983  12.562 -0.1307 -0.6477  0.0903
  101TMC2    C6 1573   0.291   4.044  12.466 -0.5013 -0.8453 -0.4446
  101TMC2     C 1574   0.102   3.759  12.716  0.2217 -0.8772 -0.2481
  101TMC2     O 1575   4.736   3.717  12.679 -0.0434 -0.5967  0.2666
  101TMC2     H 1576   0.004   3.857  12.495 -0.0639 -0.4860  0.4195
  101TMC2    H1 1577   0.349   3.863  12.740  0.2013 -1.2746 -0.7888
  101TMC2    H2 1578   0.332   4.120  12.401  0.3589 -0.1870  0.8720
  101TMC2    C7 1579   0.494   4.018  12.594  0.2783 -0.2931 -0.1029
  101TMC2    C8 1580   0.085   4.072  12.354 -0.1806  1.1663 -0.4927
  101TMC2    O1 1581   0.551   3.943  12.670 -0.2609 -0.1799 -0.6070
  101TMC2    O2 1582   0.102   4.192  12.348  0.0441 -0.3936 -0.1612
  101TMC2    O5 1583   4.731   4.006  12.297  0.2617  0.2287  0.2277
  101TMC2    H5 1584   4.740   3.909  12.304 -1.0354  0.0317 -0.9213
  102MPD2     C 1585   0.220   3.576  13.005  0.3108  0.1452  0.2802
  102MPD2    C1 1586   0.128   3.616  12.914 -0.2633 -0.0212 -0.2870
  102MPD2    C2 1587   4.739   3.585  12.925  0.3890  0.1691 -0.0874
  102MPD2    C3 1588   4.701   3.512  13.034 -1.0151  0.5219 -0.3422
  102MPD2    C4 1589   0.057   3.461  13.121 -0.2042 -1.1617 -0.1070
  102MPD2    C5 1590   0.187   3.499  13.105 -0.2283 -0.5021  0.2081
  102MPD2     H 1591   4.655   3.622  12.868  0.4981 -0.7797 -0.8676
  102MPD2    H1 1592   0.042   3.393  13.204  0.6283  0.7723  1.6479
  102MPD2    H2 1593   0.322   3.613  13.002  0.9538 -1.6474 -0.1659
  102MPD2    H3 1594   0.264   3.472  13.176  0.2624 -1.7138 -0.7956
  102MPD2     N 1595   4.565   3.486  13.060 -0.2981 -0.5386  0.8525
  102MPD2    H5 1596   4.489   3.525  13.005 -0.8395  1.1378  2.7671
  102MPD2    N1 1597   0.178   3.705  12.816 -1.0830  0.2657 -0.1865
  102MPD2    H7 1598   0.278   3.723  12.815 -1.5471  2.7124 -0.8738
  103TMC2    C1 1599   2.103   3.584  12.915  0.0799  1.1919 -0.7030
  103TMC2    C2 1600   1.970   3.559  12.907 -0.5686 -0.5285 -0.3379
  103TMC2    C3 1601   1.887   3.628  12.995  0.3955 -0.2929  0.2801
  103TMC2    C4 1602   2.154   3.677  13.009 -0.2686  0.3713  0.1045
  103TMC2    C5 1603   2.073   3.731  13.104 -0.2862  0.2909 -0.6849
  103TMC2    C6 1604   1.937   3.703  13.101 -0.0389 -0.0632  0.0040
  103TMC2     C 1605   2.177   3.591  12.789  0.2823  0.1699  0.4011
  103TMC2     O 1606   2.269   3.668  12.794 -0.5125  0.3768 -0.4091
  103TMC2     H 1607   1.929   3.492  12.832 -1.1998 -1.8378  1.1946
  103TMC2    H1 1608   2.258   3.699  13.026  0.1715  0.6200 -2.8099
  103TMC2    H2 1609   1.874   3.754  13.174 -0.7058  0.9268 -1.2390
  103TMC2    C7 1610   2.102   3.859  13.168 -1.1462  0.9265 -0.3220
  103TMC2    C8 1611   1.758   3.558  13.002  0.2041  0.0117  0.2095
  103TMC2    O1 1612   2.020   3.891  13.253  0.1900  0.7081 -0.3816
  103TMC2    O2 1613   1.699   3.512  12.904  0.1115 -0.0114 -0.4087
  103TMC2    O5 1614   1.699   3.597  13.120 -0.1494 -0.0408  0.3418
  103TMC2    H5 1615   1.757   3.588  13.198 -0.6390  2.6047  0.9748
  104MPD2     C 1616   2.126   3.413  12.462 -0.5133 -0.3611  0.3649
  104MPD2    C1 1617   2.184   3.496  12.560  0.4762  0.0131 -0.2157
  104MPD2    C2 1618   2.281   3.580  12.522 -0.0179 -0.2110  0.0517
  104MPD2    C3 1619   2.333   3.577  12.395 -0.1701  0.3413  0.8126
  104MPD2    C4 1620   2.271   3.497  12.296 -0.1833  0.2198 -0.0833
  104MPD2    C5 1621   2.176   3.408  12.338 -0.1696 -0.6389 -0.1547
  104MPD2     H 1622   2.332   3.653  12.583 -0.0874  0.4387 -0.6642
  104MPD2    H1 1623   2.299   3.506  12.192 -0.5506  2.8457  0.0585
  104MPD2    H2 1624   2.035   3.356  12.479  0.2648 -2.3867 -2.1908
  104MPD2    H3 1625   2.114   3.368  12.259  0.2865  1.5134 -1.6064
  104MPD2     N 1626   2.440   3.667  12.365  0.3980  0.1283  0.2523
  104MPD2    H5 1627   2.465   3.741  12.430 -0.8482 -1.1561  2.1949
  104MPD2    N1 1628   2.131   3.507  12.689  0.4317 -0.4455 -0.3128
  104MPD2    H7 1629   2.051   3.445  12.705  0.8759 -0.6428  1.1186
  105TMC2    C1 1630   4.307   2.558   0.040 -0.3826  0.3344  0.0988
  105TMC2    C2 1631   4.179   2.569   0.065  0.3078 -0.2429 -0.5697
  105TMC2    C3 1632   4.148   2.589   0.199  0.2135 -0.2908 -0.6054
  105TMC2    C4 1633   4.406   2.557   0.129 -0.3457 -0.2465  0.2503
  105TMC2    C5 1634   4.372   2.556   0.262 -0.3204  0.0730 -1.1293
  105TMC2    C6 1635   4.242   2.577   0.302 -0.3528  0.0151 -0.4147
  105TMC2     C 1636   4.354   2.536  17.675  0.2376 -0.7671  0.7228
  105TMC2     O 1637   4.290   2.449  17.615  0.0075  0.0874 -0.3105
  105TMC2     H 1638   4.102   2.572  17.758  0.5243  1.6995 -0.7185
  105TMC2    H1 1639   4.506   2.525   0.103 -0.6490 -0.3250 -0.7884
  105TMC2    H2 1640   4.205   2.567   0.403 -0.7445  1.2373 -0.4397
  105TMC2    C7 1641   4.475   2.534   0.367  0.3774  0.0043 -0.0453
  105TMC2    C8 1642   4.015   2.642   0.226  0.0446 -0.4155 -1.0077
  105TMC2    O1 1643   4.581   2.484   0.335 -0.3410  0.0205 -0.4485
  105TMC2    O2 1644   3.929   2.644   0.139 -0.7823 -0.1036  0.2357
  105TMC2    O5 1645   4.041   2.750   0.308 -0.1915  0.2154 -0.1260
  105TMC2    H5 1646   4.129   2.752   0.350 -1.1534 -1.2341  1.9365
  106MPD2     C 1647   4.627   2.680  17.267 -0.0315 -0.3811  0.7881
  106MPD2    C1 1648   4.643   2.779  17.361  0.6578  0.3698  0.0765
  106MPD2    C2 1649   4.582   2.762  17.490  0.2515  0.1268  0.1640
  106MPD2    C3 1650   4.502   2.651  17.512 -0.7949 -0.2096 -0.4212
  106MPD2    C4 1651   4.475   2.553  17.412  0.6648  0.0698 -0.0555
  106MPD2    C5 1652   4.538   2.577  17.289 -0.2550 -0.5408  0.7879
  106MPD2     H 1653   4.594   2.838  17.567  1.2214  0.2112 -0.0653
  106MPD2    H1 1654   4.406   2.470  17.422  0.6816 -0.0293 -0.7403
  106MPD2    H2 1655   4.668   2.686  17.166 -1.3732 -2.8700  0.0763
  106MPD2    H3 1656   4.517   2.502  17.213  1.8213 -0.5247  0.2153
  106MPD2     N 1657   4.444   2.634  17.641  0.3551  0.1705  0.1934
  106MPD2    H5 1658   4.469   2.694  17.718  1.0664 -1.5830  1.3285
  106MPD2    N1 1659   4.712   2.902  17.336 -0.0457 -0.3742 -0.3827
  106MPD2    H7 1660   4.722   2.960  17.419  1.1880  1.3821 -1.7506
  107TMC2    C1 1661   0.407   2.513  11.598 -0.6016  0.6133  0.0921
  107TMC2    C2 1662   0.476   2.594  11.509 -0.1980  0.3530  0.1996
  107TMC2    C3 1663   0.534   2.537  11.408 -0.6933  0.1763 -0.1264
  107TMC2    C4 1664   0.386   2.376  11.578 -0.3057 -0.8697 -0.2054
  107TMC2    C5 1665   0.449   2.320  11.467 -0.2072 -0.0636  0.2420
  107TMC2    C6 1666   0.524   2.396  11.381  0.2386  0.1971  0.5667
  107TMC2     C 1667   0.334   2.572  11.710  0.3827 -0.1895  0.5765
  107TMC2     O 1668   0.243   2.510  11.764  0.0955  0.4915  0.3873
  107TMC2     H 1669   0.496   2.699  11.529  1.0600  0.1432 -0.0041
  107TMC2    H1 1670   0.333   2.313  11.649  0.0632 -1.8631 -0.8076
  107TMC2    H2 1671   0.564   2.359  11.287  0.2103 -0.4359  0.8094
  107TMC2    C7 1672   0.376   2.213  11.407 -0.5883  0.8362  0.6206
  107TMC2    C8 1673   0.579   2.617  11.295  0.2695 -0.0091 -0.1995
  107TMC2    O1 1674   0.266   2.188  11.454 -0.2484  0.6890 -0.4359
  107TMC2    O2 1675   0.576   2.575  11.178 -0.5445  0.1533  1.0618
  107TMC2    O5 1676   0.625   2.737  11.341 -0.1300  0.2690  0.0652
  107TMC2    H5 1677   0.629   2.725  11.438  1.0083  0.8637  0.0907
  108MPD2     C 1678   0.335   2.934  11.818 -0.7799  0.0385 -0.1194
  108MPD2    C1 1679   0.307   2.799  11.828 -0.0280 -1.4066 -0.1207
  108MPD2    C2 1680   0.234   2.749  11.937  0.3205 -1.0480  0.4235
  108MPD2    C3 1681   0.177   2.838  12.029  0.5906 -0.3094  0.3724
  108MPD2    C4 1682   0.200   2.973  12.010 -0.3668  0.1274 -0.1037
  108MPD2    C5 1683   0.274   3.018  11.904  0.1262 -0.0072 -0.1810
  108MPD2     H 1684   0.219   2.642  11.945  2.2201 -1.3068  0.5206
  108MPD2    H1 1685   0.155   3.055  12.065 -1.2695  0.2763 -1.0622
  108MPD2    H2 1686   0.391   2.981  11.738  1.6629 -1.2688  0.8416
  108MPD2    H3 1687   0.306   3.121  11.911  1.5854 -0.5299  0.9004
  108MPD2     N 1688   0.102   2.798  12.143 -0.5522 -0.7397  0.3317
  108MPD2    H5 1689   0.051   2.864  12.201 -1.2537 -1.1510  0.1796
  108MPD2    N1 1690   0.354   2.708  11.720 -0.0086 -0.2143  0.0839
  108MPD2    H7 1691   0.400   2.758  11.644 -2.4615  1.4441 -0.3073
  109TMC2    C1 1692   4.728   4.226   0.188 -0.0880  0.8593  0.2042
  109TMC2    C2 1693   0.019   4.138   0.092  0.0297  0.5221 -0.2269
  109TMC2    C3 1694   0.120   4.183   0.013  0.3586 -0.0307 -0.0604
  109TMC2    C4 1695   0.046   4.346   0.215  0.3019  1.0249 -0.2987
  109TMC2    C5 1696   0.148   4.380   0.129  0.1477 -0.4907 -0.1138
  109TMC2    C6 1697   0.181   4.305   0.024 -0.8476 -0.1960  0.6218
  109TMC2     C 1698   4.623   4.177   0.278  0.0404 -0.3060  0.2067
  109TMC2     O 1699   4.544   4.094   0.230  0.1857 -0.5718 -0.0625
  109TMC2     H 1700   4.716   4.041   0.088 -0.9626  1.0582 -1.7330
  109TMC2    H1 1701   0.012   4.418   0.288  2.1402  0.7433  0.8210
  109TMC2    H2 1702   0.270   4.323  17.734 -0.8833 -1.9822  0.0124
  109TMC2    C7 1703   0.240   4.487   0.176 -1.5702 -0.7995  0.5236
  109TMC2    C8 1704   0.154   4.103  17.670  0.0173  0.3666 -1.0182
  109TMC2    O1 1705   0.210   4.526   0.285  0.0167  0.0708  0.1560
  109TMC2    O2 1706   0.060   4.062  17.598  0.9311  0.0760 -0.3543
  109TMC2    O5 1707   0.260   4.038  17.726 -0.6645  0.1788  0.2007
  109TMC2    H5 1708   0.280   4.077   0.045 -0.5573 -1.1414  0.7590
  110MPD2     C 1709   4.375   4.126   0.737  0.1005 -0.8204 -0.3445
  110MPD2    C1 1710   4.488   4.208   0.752 -0.0056 -0.8721  1.0903
  110MPD2    C2 1711   4.573   4.235   0.646 -0.2713 -0.4892 -0.1662
  110MPD2    C3 1712   4.548   4.190   0.518  0.8303 -0.4844  0.6763
  110MPD2    C4 1713   4.433   4.114   0.504  0.5561 -0.0971 -0.4262
  110MPD2    C5 1714   4.346   4.085   0.608 -0.3190 -0.3702 -0.0411
  110MPD2     H 1715   4.669   4.278   0.671  0.3427 -2.6096  1.1526
  110MPD2    H1 1716   4.395   4.081   0.408 -0.9482  1.8960 -0.5215
  110MPD2    H2 1717   4.312   4.103   0.821 -0.5879 -0.7203 -0.8324
  110MPD2    H3 1718   4.263   4.019   0.586  0.3014 -0.7977 -1.1341
  110MPD2     N 1719   4.630   4.219   0.412  0.2798 -0.1747 -0.5400
  110MPD2    H5 1720   4.710   4.279   0.432 -2.5503  4.0469 -1.8736
  110MPD2    N1 1721   4.508   4.253   0.886 -0.4705 -0.3486  0.8345
  110MPD2    H7 1722   4.450   4.222   0.963  0.0804 -0.5884  1.1575
  111TMC2    C1 1723   4.694   4.363  11.863 -0.3293  0.6422 -0.2302
  111TMC2    C2 1724   4.623   4.343  11.982 -0.3268  0.8629  0.6332
  111TMC2    C3 1725   4.689   4.362  12.102  0.6079 -0.7857 -0.0388
  111TMC2    C4 1726   0.084   4.407  11.862  0.3885  0.3346 -0.0587
  111TMC2    C5 1727   0.143   4.428  11.984  0.2576 -0.3292 -0.2791
  111TMC2    C6 1728   0.067   4.420  12.097  0.7959  0.3543 -0.3637
  111TMC2     C 1729   4.633   4.342  11.729 -0.5776  0.7689 -0.2967
  111TMC2     O 1730   4.706   4.354  11.629  0.2823  0.3163  0.2780
  111TMC2     H 1731   4.525   4.298  11.979 -1.7524  4.1604 -2.0244
  111TMC2    H1 1732   0.126   4.424  11.764 -0.7464 -0.7833 -0.7422
  111TMC2    H2 1733   0.108   4.471  12.183 -0.7380  0.4832  0.2928
  111TMC2    C7 1734   0.266   4.499  11.993 -0.6662  0.2668 -0.2957
  111TMC2    C8 1735   4.612   4.410  12.209 -0.9806 -0.1563 -0.3191
  111TMC2    O1 1736   0.320   4.485  12.100 -0.0627 -0.1933  0.6298
  111TMC2    O2 1737   4.502   4.456  12.200  0.3071  0.7420  0.1675
  111TMC2    O5 1738   4.685   4.406  12.323  0.2435  0.3410  0.5455
  111TMC2    H5 1739   0.012   4.337  12.321  2.2487  2.3813  0.2328
  112MPD2     C 1740   4.234   4.237  11.426  0.1792 -0.0126  0.8083
  112MPD2    C1 1741   4.350   4.309  11.392 -0.0676  0.2436 -0.2996
  112MPD2    C2 1742   4.439   4.342  11.493  0.2860  0.0986 -0.0028
  112MPD2    C3 1743   4.412   4.293  11.624 -0.4157 -0.8971  0.3459
  112MPD2    C4 1744   4.292   4.235  11.652 -0.2613  0.5704  0.9554
  112MPD2    C5 1745   4.202   4.212  11.552 -0.0818 -0.1035  1.0350
  112MPD2     H 1746   4.529   4.395  11.464 -0.0324  1.2126  1.0301
  112MPD2    H1 1747   4.262   4.206  11.752 -0.5304  0.4020  0.8243
  112MPD2    H2 1748   4.167   4.191  11.355 -2.5642  3.0078  1.4121
  112MPD2    H3 1749   4.116   4.150  11.576 -0.7543  0.4409  0.0299
  112MPD2     N 1750   4.501   4.308  11.733  0.3684 -0.5679 -0.7295
  112MPD2    H5 1751   4.461   4.292  11.824 -1.5913 -0.0592 -1.4994
  112MPD2    N1 1752   4.375   4.355  11.261  0.1235 -0.1627  0.2358
  112MPD2    H7 1753   4.464   4.398  11.240  1.0445 -1.0373  2.3879
  113TMC2    C1 1754   3.403   2.960   0.996 -0.3645 -0.1801 -0.1464
  113TMC2    C2 1755   3.297   3.001   1.067 -0.5541  0.6364  0.1578
  113TMC2    C3 1756   3.172   2.960   1.038  0.3180 -0.1514 -0.3317
  113TMC2    C4 1757   3.392   2.878   0.891 -0.8165  0.1428  0.2947
  113TMC2    C5 1758   3.261   2.848   0.851  0.0526  0.2712 -0.2656
  113TMC2    C6 1759   3.150   2.879   0.927 -0.3995 -0.1191 -0.1521
  113TMC2     C 1760   3.538   2.986   1.055 -0.3489 -0.2506 -0.3142
  113TMC2     O 1761   3.541   3.078   1.136 -0.7003 -0.3761  0.2157
  113TMC2     H 1762   3.314   3.070   1.148  0.0171 -2.8949  3.0797
  113TMC2    H1 1763   3.481   2.842   0.841 -0.7152 -0.9926  1.2787
  113TMC2    H2 1764   3.051   2.848   0.894 -1.0944  1.9737 -0.0390
  113TMC2    C7 1765   3.237   2.740   0.760  0.8890 -0.0677 -0.1436
  113TMC2    C8 1766   3.071   2.972   1.130 -0.4321  0.1669 -0.1389
  113TMC2    O1 1767   3.321   2.715   0.679  0.0522 -0.1488 -0.1822
  113TMC2    O2 1768   3.047   3.073   1.191 -0.0948 -0.1386  0.1860
  113TMC2    O5 1769   3.037   2.849   1.165  0.0589 -0.7715 -0.2615
  113TMC2    H5 1770   3.095   2.780   1.126 -1.4724 -1.8290 -0.6666
  114MPD2     C 1771   4.032   2.925   1.140 -0.5368  0.0424  0.7761
  114MPD2    C1 1772   3.939   2.995   1.214  0.3271  0.3589  0.7298
  114MPD2    C2 1773   3.813   2.996   1.164  0.3212 -0.1223 -0.1443
  114MPD2    C3 1774   3.771   2.925   1.049 -0.5134  0.5071  0.8032
  114MPD2    C4 1775   3.868   2.853   0.979 -0.2757  0.5563  0.4363
  114MPD2    C5 1776   4.000   2.866   1.021 -0.0824  0.1098 -0.1976
  114MPD2     H 1777   3.740   3.040   1.231  1.0982  0.7519  0.1223
  114MPD2    H1 1778   3.854   2.801   0.885  2.3202  0.6920 -0.0338
  114MPD2    H2 1779   4.135   2.914   1.173  0.5029 -0.4432 -2.7023
  114MPD2    H3 1780   4.076   2.811   0.967  0.6498  0.8450  0.0799
  114MPD2     N 1781   3.646   2.922   0.995 -0.0490 -0.1061 -0.3428
  114MPD2    H5 1782   3.637   2.860   0.915 -1.2668 -2.3049  1.4818
  114MPD2    N1 1783   3.966   3.069   1.335  0.3045  0.4613 -0.3195
  114MPD2    H7 1784   3.885   3.113   1.378  0.7875  2.1883 -1.1637
  115TMC2    C1 1785   4.339   0.153   0.099  0.0268 -0.4950 -0.2434
  115TMC2    C2 1786   4.474   0.173   0.110 -0.0626  0.2739  0.2477
  115TMC2    C3 1787   4.535   0.300   0.119 -0.0725  0.6310  0.2963
  115TMC2    C4 1788   4.259   0.270   0.088 -0.0249 -0.8168 -0.7411
  115TMC2    C5 1789   4.320   0.392   0.106  0.2203  0.5938 -0.4629
  115TMC2    C6 1790   4.455   0.410   0.124  0.1714  0.1414 -0.0554
  115TMC2     C 1791   4.284   0.037   0.043 -0.0379 -0.3796  0.2077
  115TMC2     O 1792   4.359   4.702  17.762  0.1391  0.5201  0.6206
  115TMC2     H 1793   4.536   0.085   0.107 -1.7825 -0.9756  1.5183
  115TMC2    H1 1794   4.151   0.263   0.093 -0.0021 -1.8235 -1.6976
  115TMC2    H2 1795   4.504   0.502   0.154 -0.7078  1.1147 -1.6040
  115TMC2    C7 1796   4.243   0.508   0.148 -0.4111  0.5983  0.8500
  115TMC2    C8 1797   4.643   0.311   0.210  0.0200 -0.1608 -0.4486
  115TMC2    O1 1798   4.140   0.490   0.211 -0.3006  0.1439  0.0165
  115TMC2    O2 1799   4.688   0.420   0.231 -0.5244  0.0531 -0.6105
  115TMC2    O5 1800   4.605   0.226   0.304  0.2568  0.4273  0.7570
  115TMC2    H5 1801   4.633   0.134   0.283  1.0139  0.4477  1.6674
  116MPD2     C 1802   3.920   4.413   0.092  0.7576  0.4679  0.3745
  116MPD2    C1 1803   4.022   4.425   0.005 -0.2113 -0.1017 -0.4008
  116MPD2    C2 1804   4.110   4.535   0.005 -0.6926 -0.6403  0.1405
  116MPD2    C3 1805   4.087   4.635   0.097  0.7124  0.1434 -0.7516
  116MPD2    C4 1806   3.986   4.620   0.192  0.1322 -0.5171 -0.0761
  116MPD2    C5 1807   3.906   4.514   0.183 -0.1136  0.2313 -0.1301
  116MPD2     H 1808   4.197   4.541  17.710  0.0270  2.5007  1.4004
  116MPD2    H1 1809   3.968   4.703   0.260  2.1350  0.0766 -0.2817
  116MPD2    H2 1810   3.867   4.319   0.100  0.2193  0.5535 -2.0303
  116MPD2    H3 1811   3.829   4.499   0.257  0.7558 -0.7765  0.5781
  116MPD2     N 1812   4.166   0.007   0.107  0.4263  0.1914 -0.5758
  116MPD2    H5 1813   4.134   0.079   0.172  0.8440 -2.3588  2.4300
  116MPD2    N1 1814   4.029   4.332  17.670  0.6651 -0.4209  0.1529
  116MPD2    H7 1815   3.948   4.271  17.674  0.3886 -0.0339  0.4150
  117TMC2    C1 1816   2.508   1.732  13.924 -0.4409 -0.3896  0.7054
  117TMC2    C2 1817   2.614   1.663  13.879 -0.1670 -0.7152 -0.7582
  117TMC2    C3 1818   2.733   1.715  13.868 -0.0571 -0.5479 -0.6705
  117TMC2    C4 1819   2.533   1.853  13.984  0.0612  0.1820  0.0354
  117TMC2    C5 1820   2.658   1.902  13.982  0.0243  0.5111 -0.2921
  117TMC2    C6 1821   2.757   1.837  13.918 -0.1604  0.2618  0.7137
  117TMC2     C 1822   2.376   1.669  13.926 -0.2456 -0.4483  0.0754
  117TMC2     O 1823   2.376   1.549  13.900 -0.1591 -0.6497 -0.0755
  117TMC2     H 1824   2.603   1.561  13.843 -1.1467 -1.3543  1.3821
  117TMC2    H1 1825   2.462   1.912  14.039 -1.5154 -1.9891  0.3120
  117TMC2    H2 1826   2.857   1.879  13.911  0.0389 -0.0587  1.5907
  117TMC2    C7 1827   2.711   2.029  14.048  0.2588  0.3727  0.6160
  117TMC2    C8 1828   2.831   1.658  13.787 -0.2732 -0.4394  0.1569
  117TMC2    O1 1829   2.826   2.047  14.060  0.3488  0.6624  0.4918
  117TMC2    O2 1830   2.919   1.726  13.735  0.2189  0.6367  0.2131
  117TMC2    O5 1831   2.838   1.529  13.808 -0.6027  0.1171 -0.2569
  117TMC2    H5 1832   2.774   1.497  13.875 -1.4875 -0.7131 -1.4978
  118MPD2     C 1833   2.530   2.261  14.248 -0.4734 -0.5056  0.4544
  118MPD2    C1 1834   2.645   2.216  14.182 -0.2040  0.0763 -0.3333
  118MPD2    C2 1835   2.760   2.276  14.208 -0.0046  0.3559 -0.2966
  118MPD2    C3 1836   2.769   2.387  14.295 -0.6320 -0.4804 -0.0619
  118MPD2    C4 1837   2.657   2.427  14.369 -0.5140 -0.2860 -0.1141
  118MPD2    C5 1838   2.532   2.366  14.331 -0.1198 -0.4593 -0.1256
  118MPD2     H 1839   2.852   2.253  14.155  0.9449 -0.0818  1.5347
  118MPD2    H1 1840   2.652   2.511  14.438 -0.6094 -0.1151 -0.3305
  118MPD2    H2 1841   2.434   2.214  14.234 -0.6703  0.3868 -1.2283
  118MPD2    H3 1842   2.442   2.403  14.378  1.6441  1.9693  1.3238
  118MPD2     N 1843   2.887   2.463  14.310 -0.8011  0.2001  0.2273
  118MPD2    H5 1844   2.884   2.538  14.379  1.0842  1.3615 -0.9520
  118MPD2    N1 1845   2.611   2.100  14.113 -0.0608 -0.0322  0.0383
  118MPD2    H7 1846   2.512   2.078  14.102  0.2701 -0.9986 -0.9754
  119TMC2    C1 1847   1.398   3.120  13.503 -0.5814  0.5488 -0.0605
  119TMC2    C2 1848   1.510   3.087  13.434 -0.1356  0.0910  0.1250
  119TMC2    C3 1849   1.528   2.951  13.408 -0.1329  0.6060  0.6833
  119TMC2    C4 1850   1.306   3.027  13.540 -0.2283 -0.1009  0.3870
  119TMC2    C5 1851   1.338   2.890  13.524 -0.0855  0.0653 -0.0708
  119TMC2    C6 1852   1.452   2.847  13.457 -0.3439 -0.1800 -0.5000
  119TMC2     C 1853   1.354   3.254  13.512  0.0104  0.4942  1.1724
  119TMC2     O 1854   1.273   3.282  13.599  0.6256  0.1944  0.4412
  119TMC2     H 1855   1.570   3.164  13.386  0.7825  0.1588  1.3699
  119TMC2    H1 1856   1.206   3.059  13.567  0.3731  2.1238 -0.0259
  119TMC2    H2 1857   1.474   2.743  13.435  1.9035  0.4548 -1.2364
  119TMC2    C7 1858   1.226   2.808  13.489  0.3237 -0.0213  0.2553
  119TMC2    C8 1859   1.594   2.925  13.282 -0.3207  0.7352  0.4782
  119TMC2    O1 1860   1.244   2.732  13.393  0.3312  0.6134  1.0137
  119TMC2    O2 1861   1.583   2.830  13.206 -0.2917 -0.2573  0.4425
  119TMC2    O5 1862   1.691   3.017  13.270  0.0580 -0.0376 -0.3082
  119TMC2    H5 1863   1.704   3.066  13.355  0.0886 -1.7640  0.6781
  120MPD2     C 1864   1.244   3.713  13.329  0.2242 -0.4275 -0.3610
  120MPD2    C1 1865   1.260   3.672  13.458 -0.4619 -0.5589  0.0934
  120MPD2    C2 1866   1.314   3.550  13.480  0.3179 -0.4004 -0.1477
  120MPD2    C3 1867   1.356   3.471  13.379 -0.0062  0.1181 -0.1797
  120MPD2    C4 1868   1.347   3.518  13.253 -0.0096  0.4936  0.3562
  120MPD2    C5 1869   1.300   3.640  13.229 -0.3223 -0.5866  0.4057
  120MPD2     H 1870   1.309   3.521  13.584 -2.0009 -2.5936 -0.8731
  120MPD2    H1 1871   1.385   3.453  13.175 -1.0979  1.0170 -0.6104
  120MPD2    H2 1872   1.199   3.809  13.306  0.7055  0.1940  1.2855
  120MPD2    H3 1873   1.293   3.673  13.126 -1.9763  0.0461  0.7251
  120MPD2     N 1874   1.383   3.330  13.401 -0.0428  0.4125  0.0852
  120MPD2    H5 1875   1.421   3.274  13.325  0.1949 -0.9997  1.2493
  120MPD2    N1 1876   1.200   3.733  13.571  0.7854 -0.6759  1.1430
  120MPD2    H7 1877   1.216   3.692  13.662  0.7615 -3.5439 -0.1579
  121TMC2    C1 1878   2.042   0.149  14.434 -0.2048  0.0983  0.4520
  121TMC2    C2 1879   2.088   0.068  14.534 -0.3814  0.1437  0.4334
  121TMC2    C3 1880   2.069   4.675  14.529  0.1540  0.3224 -0.0045
  121TMC2    C4 1881   1.983   0.083  14.324 -0.3073 -1.0709 -0.4413
  121TMC2    C5 1882   1.977   4.689  14.325  0.1750 -0.2755  0.3022
  121TMC2    C6 1883   2.009   4.615  14.431 -0.6338  0.5270 -0.0205
  121TMC2     C 1884   2.082   0.289  14.436 -0.8439 -0.3358  0.4037
  121TMC2     O 1885   2.127   0.323  14.544  0.1250  0.0552  0.9276
  121TMC2     H 1886   2.123   0.104  14.630 -0.4109 -0.0117  0.5041
  121TMC2    H1 1887   1.967   0.135  14.230  0.9796 -0.3770 -0.2821
  121TMC2    H2 1888   1.988   4.509  14.433 -0.0368  0.4526  2.3780
  121TMC2    C7 1889   1.898   4.618  14.236 -0.8032  0.6170 -0.3176
  121TMC2    C8 1890   2.088   4.587  14.642 -0.1988 -0.3088  0.2361
  121TMC2    O1 1891   1.922   4.497  14.227 -0.0695 -0.2447  0.6706
  121TMC2    O2 1892   1.992   4.518  14.680  0.1404  0.3006  0.3922
  121TMC2    O5 1893   2.221   4.565  14.668  0.3409 -0.3315  0.1646
  121TMC2    H5 1894   2.275   4.638  14.631 -1.9716  1.3725  0.2009
  122MPD2     C 1895   2.240   0.520  14.348  0.1857  0.3300  0.2539
  122MPD2    C1 1896   2.125   0.473  14.280 -0.4095 -0.8558  0.6201
  122MPD2    C2 1897   2.084   0.544  14.170  0.5480 -0.2527  0.2668
  122MPD2    C3 1898   2.157   0.658  14.122  0.4374 -0.0838  0.0049
  122MPD2    C4 1899   2.262   0.705  14.194  0.9272 -0.6974 -0.4201
  122MPD2    C5 1900   2.299   0.638  14.310  0.0065 -0.1912 -0.2930
  122MPD2     H 1901   1.998   0.514  14.111  1.3256 -0.1541 -0.9135
  122MPD2    H1 1902   2.302   0.801  14.164 -1.1997  0.7210  1.2494
  122MPD2    H2 1903   2.269   0.476  14.443 -0.4680  2.2038  1.3234
  122MPD2    H3 1904   2.384   0.675  14.367 -0.7927  2.4690 -0.8369
  122MPD2     N 1905   2.120   0.742  14.012  0.1531  0.8825  0.1549
  122MPD2    H5 1906   2.167   0.832  14.006  0.5608  0.7076  0.7396
  122MPD2    N1 1907   2.065   0.357  14.315  0.1528  0.4375  0.2761
  122MPD2    H7 1908   1.995   0.324  14.249  0.1360  0.5320  0.2466
  123TMC2    C1 1909   1.173   3.264  10.439 -0.1012 -0.1797 -0.4147
  123TMC2    C2 1910   1.226   3.298  10.319 -0.4853  0.0900 -0.4234
  123TMC2    C3 1911   1.266   3.185  10.256 -0.4328 -0.8998  0.4001
  123TMC2    C4 1912   1.148   3.137  10.478  0.3856 -0.2057  0.0808
  123TMC2    C5 1913   1.176   3.029  10.404 -0.2566 -0.5581  0.2105
  123TMC2    C6 1914   1.247   3.054  10.290 -0.1844  0.3527  0.3734
  123TMC2     C 1915   1.107   3.375  10.505  0.2219 -0.1266 -0.2597
  123TMC2     O 1916   1.151   3.490  10.503 -0.0804  0.1546  0.1671
  123TMC2     H 1917   1.240   3.402  10.293 -0.7194  0.6649  1.7768
  123TMC2    H1 1918   1.108   3.117  10.577 -0.9826  1.4528 -0.1233
  123TMC2    H2 1919   1.269   2.978  10.216  0.9448  0.6349  0.4171
  123TMC2    C7 1920   1.124   2.899  10.453 -0.4327  0.3263 -0.4881
  123TMC2    C8 1921   1.355   3.203  10.137 -0.1298 -0.1770  0.0112
  123TMC2    O1 1922   1.029   2.903  10.529  0.3027 -0.7586 -0.5207
  123TMC2    O2 1923   1.336   3.138  10.033 -0.4611  0.5253 -0.6874
  123TMC2    O5 1924   1.477   3.244  10.178  0.3604 -0.6528  0.2114
  123TMC2    H5 1925   1.490   3.279  10.268  1.2526  0.0432 -0.1869
  124MPD2     C 1926   0.835   3.532  10.919  0.0888 -0.3429  0.4776
  124MPD2    C1 1927   0.808   3.399  10.889  0.0933 -0.5235 -0.5957
  124MPD2    C2 1928   0.869   3.337  10.781 -0.5315 -0.3381 -0.1630
  124MPD2    C3 1929   0.941   3.409  10.684 -0.8657  0.1918  0.0029
  124MPD2    C4 1930   0.956   3.545  10.716 -0.6177  0.2929  0.2893
  124MPD2    C5 1931   0.906   3.603  10.825  0.8735 -0.0620 -0.6826
  124MPD2     H 1932   0.849   3.231  10.770 -0.2763 -0.4034 -0.0074
  124MPD2    H1 1933   0.993   3.613  10.640  1.5960  0.5928  1.6453
  124MPD2    H2 1934   0.803   3.580  11.011  1.9125  2.2117 -0.2010
  124MPD2    H3 1935   0.936   3.705  10.846 -0.3710  0.2102 -0.2428
  124MPD2     N 1936   1.005   3.332  10.582 -0.1610  0.1962 -0.0597
  124MPD2    H5 1937   0.972   3.238  10.564  0.7935 -0.2824  0.7631
  124MPD2    N1 1938   0.731   3.327  10.990 -1.1347  0.2303  0.3506
  124MPD2    H7 1939   0.705   3.381  11.072  0.4011 -0.0609  1.0326
  125TMC2    C1 1940   1.473   0.509  10.133  0.4490  0.1632 -0.3815
  125TMC2    C2 1941   1.471   0.591  10.021 -0.2289  0.0693  0.8247
  125TMC2    C3 1942   1.377   0.567   9.924  0.1414 -0.5287 -0.5484
  125TMC2    C4 1943   1.381   0.413  10.149 -0.2140  0.2771  0.3156
  125TMC2    C5 1944   1.292   0.389  10.048  0.6823 -0.3955 -0.4258
  125TMC2    C6 1945   1.278   0.473   9.945  0.6864 -0.0748 -0.1094
  125TMC2     C 1946   1.575   0.534  10.229 -0.3560 -0.5115  0.1082
  125TMC2     O 1947   1.669   0.601  10.197 -0.4741  0.3018  0.0249
  125TMC2     H 1948   1.538   0.676  10.019 -1.7634  1.2981  1.1455
  125TMC2    H1 1949   1.378   0.340  10.229 -1.8682 -0.6806 -0.6376
  125TMC2    H2 1950   1.202   0.458   9.868  0.2507  0.1351  0.2805
  125TMC2    C7 1951   1.232   0.259  10.034 -0.8587  0.2104  0.1757
  125TMC2    C8 1952   1.357   0.645   9.808 -0.6895  0.5357 -0.3321
  125TMC2    O1 1953   1.117   0.248   9.994 -0.6311  0.2905 -0.0804
  125TMC2    O2 1954   1.266   0.628   9.729 -0.1909  0.0582 -0.3749
  125TMC2    O5 1955   1.486   0.679   9.773 -0.2918  0.2359 -0.7709
  125TMC2    H5 1956   1.548   0.661   9.846 -0.3624  2.6777 -0.1301
  126MPD1     C 1957   1.738   0.545  10.719  0.5753  0.7798 -0.4161
  126MPD1    C1 1958   1.625   0.474  10.717 -0.1264 -0.4915  0.6302
  126MPD1    C2 1959   1.553   0.472  10.597  0.0940 -0.8220 -0.0478
  126MPD1    C3 1960   1.606   0.510  10.478 -0.0021 -0.7327  0.5186
  126MPD1    C4 1961   1.729   0.577  10.483  0.6734  0.4888 -0.5153
  126MPD1    C5 1962   1.790   0.592  10.605 -0.2200  0.4280 -0.5705
  126MPD1     H 1963   1.460   0.417  10.601  0.0410 -0.6710  0.9697
  126MPD1    H1 1964   1.779   0.619  10.397  0.5708  0.9450 -0.3510
  126MPD1    H2 1965   1.786   0.562  10.815  0.9435  0.5317 -0.5544
  126MPD1    H3 1966   1.887   0.640  10.615  1.0853 -2.9038  2.8398
  126MPD1     N 1967   1.535   0.494  10.358 -0.5572 -0.0918 -0.1122
  126MPD1    H5 1968   1.441   0.456  10.367 -0.6486  0.3506  0.8030
  126MPD1    N1 1969   1.570   0.435  10.840  0.0802  0.4337 -0.0187
  126MPD1    H6 1970   1.642   0.394  10.899  1.8258  0.9009 -1.8555
  126MPD1    H7 1971   1.493   0.371  10.821 -0.7065  1.1348  0.7764
  127TMC2    C1 1972   2.251   3.573   9.530 -0.7880 -0.8077  0.0853
  127TMC2    C2 1973   2.278   3.550   9.400  0.4747 -0.3813 -0.8223
  127TMC2    C3 1974   2.190   3.472   9.333 -0.1262 -0.0649  0.2425
  127TMC2    C4 1975   2.155   3.504   9.604 -0.7906  0.8100 -0.7732
  127TMC2    C5 1976   2.068   3.422   9.527 -0.2007  0.4346  0.0588
  127TMC2    C6 1977   2.080   3.413   9.394  0.1404 -0.5721  0.5916
  127TMC2     C 1978   2.335   3.654   9.612 -0.2136  0.3014 -1.1076
  127TMC2     O 1979   2.367   3.620   9.724  0.5775  0.1048  0.1654
  127TMC2     H 1980   2.369   3.578   9.348 -0.1099  0.5329 -1.3671
  127TMC2    H1 1981   2.142   3.522   9.710 -0.9730  0.9444 -0.8184
  127TMC2    H2 1982   2.025   3.339   9.336 -1.0739 -0.2849  1.3687
  127TMC2    C7 1983   1.941   3.380   9.571  0.9108 -0.1565 -0.2570
  127TMC2    C8 1984   2.221   3.433   9.199 -0.1039 -0.2090  0.0924
  127TMC2    O1 1985   1.849   3.385   9.491  0.1372  0.1974  0.6027
  127TMC2    O2 1986   2.334   3.410   9.161 -0.2044  0.0529  0.2225
  127TMC2    O5 1987   2.130   3.481   9.118 -0.1803  0.1605  0.1406
  127TMC2    H5 1988   2.045   3.505   9.159 -1.3750 -1.0841 -1.5553
  128MPD2     C 1989   2.494   3.948   9.476 -0.0732  0.2288 -0.2080
  128MPD2    C1 1990   2.462   3.866   9.584  0.3387 -0.2664  0.1092
  128MPD2    C2 1991   2.547   3.862   9.697  0.8740 -0.8215 -0.2821
  128MPD2    C3 1992   2.657   3.951   9.702 -0.1203  0.6655  0.4209
  128MPD2    C4 1993   2.681   4.034   9.597  0.1802 -0.0945  0.8802
  128MPD2    C5 1994   2.606   4.025   9.485 -0.1249 -0.2057 -0.2632
  128MPD2     H 1995   2.520   3.804   9.785  0.3442 -1.4379 -0.8587
  128MPD2    H1 1996   2.758   4.111   9.602 -1.5032  1.6702 -0.8050
  128MPD2    H2 1997   2.426   3.957   9.392 -0.8656 -1.2003  0.2759
  128MPD2    H3 1998   2.634   4.091   9.403 -0.8236  0.6265  0.1648
  128MPD2     N 1999   2.724   3.957   9.822  0.5003  0.5007  0.3357
  128MPD2    H5 2000   2.689   3.909   9.904  1.2344  2.1737  1.6365
  128MPD2    N1 2001   2.357   3.775   9.554 -0.2120  0.4416  0.0068
  128MPD2    H7 2002   2.300   3.790   9.472 -2.9691  0.9101  1.9820
  129TMC2    C1 2003   2.102   4.145   1.279 -0.6200  0.5556  0.0439
  129TMC2    C2 2004   2.068   4.279   1.290  0.1607  0.2424  0.7100
  129TMC2    C3 2005   1.936   4.302   1.249  0.1300  0.5001 -0.3576
  129TMC2    C4 2006   2.014   4.041   1.261  0.6304  0.6644 -0.5179
  129TMC2    C5 2007   1.885   4.075   1.245 -0.5585 -0.9119  0.5129
  129TMC2    C6 2008   1.846   4.203   1.225 -0.2610  0.0859  0.1247
  129TMC2     C 2009   2.242   4.108   1.303 -0.2585  0.3018 -1.2674
  129TMC2     O 2010   2.254   4.009   1.375 -0.1283  0.0375  0.5075
  129TMC2     H 2011   2.138   4.358   1.314 -0.2795  0.7874  0.1850
  129TMC2    H1 2012   2.051   3.939   1.269 -0.7014  0.2549  0.4170
  129TMC2    H2 2013   1.744   4.224   1.198 -0.7469 -2.0420  0.3013
  129TMC2    C7 2014   1.792   3.971   1.207 -0.1869 -0.1692 -0.2127
  129TMC2    C8 2015   1.887   4.435   1.269 -0.1016 -0.5116  0.0960
  129TMC2    O1 2016   1.694   4.015   1.149 -0.1702  0.0713  0.6025
  129TMC2    O2 2017   1.947   4.537   1.235  0.0004 -0.1797 -0.0986
  129TMC2    O5 2018   1.829   4.414   1.390  0.3463  0.0045  0.0271
  129TMC2    H5 2019   1.796   4.324   1.410 -1.0876  0.3246 -0.9415
  130MPD2     C 2020   2.537   4.096   1.372 -0.4270 -0.4082 -0.2872
  130MPD2    C1 2021   2.467   4.213   1.330  0.5222 -0.3748 -1.1084
  130MPD2    C2 2022   2.534   4.336   1.325  0.0053  0.2985  0.6169
  130MPD2    C3 2023   2.664   4.343   1.358  0.0081  0.1487  0.0185
  130MPD2    C4 2024   2.727   4.231   1.418 -0.5311  0.1401  0.8952
  130MPD2    C5 2025   2.665   4.111   1.412  0.0073 -0.1162  0.8602
  130MPD2     H 2026   2.483   4.427   1.296 -1.4943 -0.8497 -0.4005
  130MPD2    H1 2027   2.830   4.236   1.449 -0.9510  1.2731  2.0932
  130MPD2    H2 2028   2.480   4.004   1.373  0.6335 -1.0165  2.8262
  130MPD2    H3 2029   2.713   4.018   1.441 -0.5374 -0.8648 -0.6480
  130MPD2     N 2030   2.722   4.475   1.363  0.9830  0.9587  0.3999
  130MPD2    H5 2031   2.652   4.548   1.349 -2.3300 -1.7342  2.8464
  130MPD2    N1 2032   2.333   4.212   1.285  0.0599 -0.4231  0.1484
  130MPD2    H7 2033   2.294   4.299   1.251  2.9195  0.7870 -0.0790
  131TMC2    C1 2034   0.348   3.085  10.276 -0.2808 -0.3494 -0.5058
  131TMC2    C2 2035   0.272   3.012  10.187  0.4719  0.9813 -0.0493
  131TMC2    C3 2036   0.206   3.079  10.088 -0.7343  0.4699  0.1843
  131TMC2    C4 2037   0.361   3.217  10.241 -0.1438 -0.1168 -0.3270
  131TMC2    C5 2038   0.300   3.278  10.135 -0.5592  0.2131  0.6426
  131TMC2    C6 2039   0.219   3.206  10.054 -0.2070 -0.2937  0.3528
  131TMC2     C 2040   0.377   3.036  10.414  0.4954  0.2045 -0.4766
  131TMC2     O 2041   0.443   3.115  10.481 -0.1406 -0.0853  0.6143
  131TMC2     H 2042   0.261   2.904  10.190  2.0900  0.7871 -0.5681
  131TMC2    H1 2043   0.397   3.279  10.323 -0.7845  0.1350 -0.2397
  131TMC2    H2 2044   0.157   3.252   9.977 -0.0198  2.0035  1.5523
  131TMC2    C7 2045   0.285   3.424  10.144  0.5405  0.1474 -0.1388
  131TMC2    C8 2046   0.149   2.988   9.994 -1.6105 -0.0307 -0.3434
  131TMC2    O1 2047   0.172   3.461  10.123  0.2443 -0.0358  0.1209
  131TMC2    O2 2048   0.109   2.876  10.013  0.2417 -0.0633 -0.1996
  131TMC2    O5 2049   0.182   3.038   9.871  0.0447  0.0030  0.1110
  131TMC2    H5 2050   0.253   3.105   9.885 -1.5442  1.8688 -0.8427
  132MPD2     C 2051   0.248   2.731  10.577 -0.4007 -0.0678 -0.6558
  132MPD2    C1 2052   0.314   2.857  10.571 -0.5296  0.5695  0.4064
  132MPD2    C2 2053   0.363   2.911  10.689 -0.8343  0.1433  0.2563
  132MPD2    C3 2054   0.353   2.840  10.805  0.3943  0.3150  0.0174
  132MPD2    C4 2055   0.293   2.713  10.806 -0.3081 -0.7052  0.1496
  132MPD2    C5 2056   0.231   2.665  10.695 -0.4213  0.3285 -0.1231
  132MPD2     H 2057   0.410   3.009  10.682  0.8889 -0.6532  0.5347
  132MPD2    H1 2058   0.284   2.661  10.901  2.2415 -2.9927 -0.8701
  132MPD2    H2 2059   0.212   2.691  10.483 -0.9757  3.9945 -2.1678
  132MPD2    H3 2060   0.175   2.573  10.709  0.7274 -0.3690 -0.1311
  132MPD2     N 2061   0.408   2.904  10.914  0.4795 -0.4874 -0.2999
  132MPD2    H5 2062   0.470   2.984  10.902 -0.7570  0.8346  2.1802
  132MPD2    N1 2063   0.317   2.916  10.438 -0.3325  0.0467  0.0034
  132MPD2    H7 2064   0.258   2.876  10.366  0.5033 -0.2777 -0.5137
  133TMC2    C1 2065   4.673   4.593   9.286  0.0679 -0.2543 -0.4985
  133TMC2    C2 2066   0.067   4.577   9.308 -0.0628  1.2422 -0.3667
  133TMC2    C3 2067   0.150   4.649   9.236  0.0589 -0.2542  0.2573
  133TMC2    C4 2068   4.624   4.675   9.188  0.0185  0.4661  0.5809
  133TMC2    C5 2069   4.714   4.743   9.117 -0.3052  0.2730  0.2579
  133TMC2    C6 2070   0.104   4.731   9.133  0.1665  0.5869 -1.0664
  133TMC2     C 2071   4.585   4.527   9.381  0.5354 -0.2636  0.3724
  133TMC2     O 2072   4.631   4.441   9.450 -0.1692  0.8049  0.2414
  133TMC2     H 2073   0.099   4.497   9.374 -2.9614 -1.3534 -2.0930
  133TMC2    H1 2074   4.519   4.692   9.168  0.3564 -0.6322 -2.0848
  133TMC2    H2 2075   0.174   0.050   9.078 -0.7565  0.1454 -2.7385
  133TMC2    C7 2076   4.672   0.089   9.010  0.0811  0.4282 -0.4394
  133TMC2    C8 2077   0.294   4.651   9.253  0.2015  0.4011  0.4163
  133TMC2    O1 2078   0.018   0.118   8.934  0.3680  0.5491 -0.2567
  133TMC2    O2 2079   0.365   4.687   9.161 -0.6521 -0.5024  0.0592
  133TMC2    O5 2080   0.328   4.669   9.384  0.0715 -0.2487 -0.6926
  133TMC2    H5 2081   0.259   4.645   9.449  1.6046  1.3946  1.5254
  134MPD2     C 2082   4.233   4.569   9.431  0.2307 -0.1204 -0.5838
  134MPD2    C1 2083   4.350   4.499   9.427 -0.2891  0.4233 -0.0585
  134MPD2    C2 2084   4.358   4.362   9.455  0.0394  0.5358  0.0443
  134MPD2    C3 2085   4.238   4.297   9.492  0.0992 -0.5850 -0.1290
  134MPD2    C4 2086   4.112   4.373   9.499 -0.0201 -0.0666  0.0566
  134MPD2    C5 2087   4.117   4.506   9.463  0.1314 -0.4731  0.3547
  134MPD2     H 2088   4.448   4.302   9.454 -0.0395  0.4348 -0.7719
  134MPD2    H1 2089   4.020   4.331   9.537  0.2029 -3.2988 -2.9478
  134MPD2    H2 2090   4.218   4.674   9.410 -0.0921 -0.5157 -2.3437
  134MPD2    H3 2091   4.026   4.565   9.468 -0.2945 -0.9796 -1.4584
  134MPD2     N 2092   4.231   4.163   9.535  0.3690 -0.4476  0.2450
  134MPD2    H5 2093   4.135   4.140   9.554  0.7845 -3.0568 -0.7119
  134MPD2    N1 2094   4.458   4.576   9.379  0.6987  0.3970 -0.3672
  134MPD2    H7 2095   4.440   4.663   9.330  2.5445  1.1330  0.2868
  135TMC2    C1 2096   1.814   0.934  10.333 -0.1819 -0.0296  0.5083
  135TMC2    C2 2097   1.845   0.981  10.458  0.0428  0.4274  0.1008
  135TMC2    C3 2098   1.752   0.974  10.555 -0.2706  0.7157 -0.0357
  135TMC2    C4 2099   1.694   0.883  10.302 -0.5854 -0.2916  0.6823
  135TMC2    C5 2100   1.612   0.867  10.406 -0.3380 -0.6922  0.4268
  135TMC2    C6 2101   1.639   0.907  10.534  0.2425  0.5039 -0.1372
  135TMC2     C 2102   1.929   0.896  10.253  0.8930  0.1269  0.2621
  135TMC2     O 2103   2.026   0.972  10.255 -0.8676 -0.0759 -0.1929
  135TMC2     H 2104   1.932   1.045  10.469 -0.1545  0.7122  0.0124
  135TMC2    H1 2105   1.682   0.837  10.205  0.1823  2.1233 -0.5694
  135TMC2    H2 2106   1.576   0.891  10.620 -0.5446 -2.0617 -1.1869
  135TMC2    C7 2107   1.472   0.849  10.375 -0.2266 -0.4459  0.6308
  135TMC2    C8 2108   1.794   0.997  10.690 -0.1143 -0.1749 -0.2289
  135TMC2    O1 2109   1.396   0.825  10.467  0.3757 -0.5076  0.1226
  135TMC2    O2 2110   1.906   0.968  10.724  0.4257 -0.2350 -0.0311
  135TMC2    O5 2111   1.693   1.055  10.762 -0.0040 -0.2812 -0.3671
  135TMC2    H5 2112   1.606   1.058  10.716 -0.0109  1.0174 -0.2739
  136MPD2     C 2113   2.159   0.721  10.173 -0.0305 -0.3079  0.2170
  136MPD2    C1 2114   2.031   0.678  10.175 -0.2166  0.7550  0.3062
  136MPD2    C2 2115   2.009   0.543  10.135  1.0350  0.1563 -0.0544
  136MPD2    C3 2116   2.115   0.457  10.095  0.3913 -0.3675 -0.0765
  136MPD2    C4 2117   2.241   0.508  10.102 -0.1939  0.4176 -0.3587
  136MPD2    C5 2118   2.255   0.636  10.136 -0.3148  0.2522 -1.0726
  136MPD2     H 2119   1.910   0.506  10.159  0.6753  0.5767 -0.8992
  136MPD2    H1 2120   2.322   0.442  10.074  0.9817  0.3189  3.2399
  136MPD2    H2 2121   2.191   0.820  10.201  1.8287  0.0558 -3.1266
  136MPD2    H3 2122   2.354   0.676  10.152  0.5572 -1.7378 -1.5778
  136MPD2     N 2123   2.097   0.333  10.029 -0.4556 -0.1940  0.4495
  136MPD2    H5 2124   2.181   0.279  10.010  1.2364  2.4703  0.3902
  136MPD2    N1 2125   1.926   0.760  10.219  0.4025 -0.1988  0.4193
  136MPD2    H7 2126   1.839   0.707  10.219 -0.9136  1.9405 -0.5033
  137TMC2    C1 2127   1.855   3.893  10.158  0.1479 -0.0345  0.5864
  137TMC2    C2 2128   1.991   3.909  10.144  0.5121 -0.2027 -0.1475
  137TMC2    C3 2129   2.058   3.852  10.045 -0.3362 -0.4266  0.0746
  137TMC2    C4 2130   1.786   3.817  10.064 -1.0898 -0.0421 -0.2199
  137TMC2    C5 2131   1.855   3.775   9.954 -0.4108  0.0406 -0.3214
  137TMC2    C6 2132   1.992   3.779   9.948  0.3031 -0.3841  0.2700
  137TMC2     C 2133   1.789   3.956  10.272  0.5893  0.1728 -0.0310
  137TMC2     O 2134   1.855   3.974  10.373  0.1592  0.3914 -0.0722
  137TMC2     H 2135   2.047   3.960  10.221 -1.1356 -0.3737  1.1711
  137TMC2    H1 2136   1.680   3.809  10.085 -1.0555 -2.1825 -0.8264
  137TMC2    H2 2137   2.041   3.763   9.853  0.3565 -2.2313  0.6158
  137TMC2    C7 2138   1.782   3.731   9.838  0.3990  0.8018 -0.4977
  137TMC2    C8 2139   2.193   3.897  10.025 -0.5888 -0.1771 -0.3085
  137TMC2    O1 2140   1.837   3.655   9.755 -0.0549 -0.0616 -0.3452
  137TMC2    O2 2141   2.238   4.000  10.077 -0.3011  0.0159 -0.1073
  137TMC2    O5 2142   2.264   3.813   9.943 -0.4783 -0.1702  0.2412
  137TMC2    H5 2143   2.230   3.721   9.944  1.1941 -0.7257  3.2153
  138MPD2     C 2144   1.440   4.070  10.269  0.1142 -0.3054  0.8159
  138MPD2    C1 2145   1.572   4.074  10.314  0.5596 -0.3989  0.0175
  138MPD2    C2 2146   1.597   4.148  10.426  0.7950  0.1217 -0.8084
  138MPD2    C3 2147   1.499   4.219  10.488  0.3496 -0.4112  0.2794
  138MPD2    C4 2148   1.366   4.215  10.444 -0.1931 -0.1107 -0.6385
  138MPD2    C5 2149   1.343   4.139  10.333 -0.2309  0.1450 -0.1202
  138MPD2     H 2150   1.697   4.163  10.464  0.8632  0.7776 -1.2369
  138MPD2    H1 2151   1.284   4.271  10.487  0.3109 -0.3901  0.7001
  138MPD2    H2 2152   1.408   4.002  10.190 -1.7038 -0.6011  1.8026
  138MPD2    H3 2153   1.240   4.133  10.299  0.2416  0.7760 -1.6665
  138MPD2     N 2154   1.547   4.304  10.589 -0.4024 -0.4051  0.2200
  138MPD2    H5 2155   1.641   4.287  10.622 -0.6516 -0.3188  0.9952
  138MPD2    N1 2156   1.667   4.000  10.237  0.4091  0.0256 -0.2091
  138MPD2    H7 2157   1.643   3.978  10.141  0.6218  1.1173 -0.5190
  139TMC2    C1 2158   2.479   2.820  13.541  0.4901  0.3278  0.4818
  139TMC2    C2 2159   2.526   2.914  13.451 -0.5519 -0.4318 -0.5247
  139TMC2    C3 2160   2.492   3.046  13.468 -1.0424  0.2055  0.4565
  139TMC2    C4 2161   2.377   2.843  13.634 -0.8153  0.3300 -0.4727
  139TMC2    C5 2162   2.330   2.976  13.631 -0.2809  0.5429 -1.0032
  139TMC2    C6 2163   2.385   3.080  13.557  0.1085  0.6051  0.2438
  139TMC2     C 2164   2.535   2.687  13.531 -0.1970 -0.4487 -0.1717
  139TMC2     O 2165   2.590   2.653  13.428 -0.3090 -0.6417  0.6793
  139TMC2     H 2166   2.615   2.890  13.395  0.5099  1.8727  0.1573
  139TMC2    H1 2167   2.321   2.763  13.680  1.3896 -0.3539  1.0479
  139TMC2    H2 2168   2.339   3.177  13.567  0.9703  0.9872  0.5264
  139TMC2    C7 2169   2.229   3.019  13.728  0.7954  0.4017  0.1133
  139TMC2    C8 2170   2.591   3.142  13.429 -0.5890  0.1576  0.5473
  139TMC2    O1 2171   2.171   3.124  13.709  0.1695  0.2917 -0.1037
  139TMC2    O2 2172   2.650   3.129  13.320 -0.2076 -0.0432  0.1568
  139TMC2    O5 2173   2.611   3.223  13.536 -0.1816  0.0872 -0.2229
  139TMC2    H5 2174   2.561   3.199  13.616  3.0777  0.4430  1.9014
  140MPD2     C 2175   2.601   2.458  13.815  0.3420 -0.1609 -0.0681
  140MPD2    C1 2176   2.607   2.508  13.684 -0.0533 -0.0761 -0.1206
  140MPD2    C2 2177   2.694   2.447  13.596 -0.2237  0.0995 -0.6666
  140MPD2    C3 2178   2.763   2.328  13.626 -0.3219  0.3521 -0.4514
  140MPD2    C4 2179   2.758   2.283  13.758  0.0978 -0.1939  0.0826
  140MPD2    C5 2180   2.675   2.342  13.844  0.1507  0.5972  0.4072
  140MPD2     H 2181   2.720   2.483  13.498 -0.7458 -0.3036 -0.9501
  140MPD2    H1 2182   2.822   2.204  13.795  1.8782  1.6071  0.8361
  140MPD2    H2 2183   2.548   2.509  13.894  1.2012  1.4862 -0.5493
  140MPD2    H3 2184   2.688   2.308  13.946 -0.5967 -0.7825  0.0393
  140MPD2     N 2185   2.840   2.258  13.525  0.2016  0.0255  0.5704
  140MPD2    H5 2186   2.855   2.304  13.435 -0.4457  0.4556  0.6863
  140MPD2    N1 2187   2.538   2.631  13.659  0.0468 -0.7370  0.4153
  140MPD2    H7 2188   2.498   2.696  13.726  0.0416 -0.0263 -0.2838
  141TMC2    C1 2189   2.450   4.149  14.377 -0.1016  0.5063  0.8661
  141TMC2    C2 2190   2.408   4.021  14.387 -0.0266 -0.0463  0.3343
  141TMC2    C3 2191   2.486   3.932  14.452  0.3568  0.2146 -0.3864
  141TMC2    C4 2192   2.581   4.180  14.402 -0.2406  0.1711 -0.6402
  141TMC2    C5 2193   2.660   4.079  14.448  0.0352  0.5090  0.2793
  141TMC2    C6 2194   2.609   3.963  14.485 -0.3827 -0.4172 -0.0028
  141TMC2     C 2195   2.366   4.248  14.309 -0.4800  0.0248  0.3987
  141TMC2     O 2196   2.273   4.196  14.253 -0.2899  0.0593 -0.4865
  141TMC2     H 2197   2.304   4.001  14.367  0.2383  0.4024 -1.5202
  141TMC2    H1 2198   2.621   4.281  14.401 -2.7760  1.1880  2.2956
  141TMC2    H2 2199   2.678   3.893  14.532 -2.9255 -1.7700  1.7602
  141TMC2    C7 2200   2.786   4.122  14.495 -0.4369  0.1252  0.0740
  141TMC2    C8 2201   2.438   3.794  14.475 -0.2062 -0.4121 -0.0834
  141TMC2    O1 2202   2.795   4.237  14.531 -0.4426 -0.3425 -0.2847
  141TMC2    O2 2203   2.527   3.713  14.461 -1.0529 -0.3903  0.5066
  141TMC2    O5 2204   2.310   3.785  14.440  0.4557 -0.3515 -0.0347
  141TMC2    H5 2205   2.250   3.852  14.479 -0.3883 -1.0697 -0.1157
  142TMC2    C1 2206   0.633   2.318  10.839  0.6006 -0.5095  0.8733
  142TMC2    C2 2207   0.637   2.324  10.978  0.2172 -0.2140 -0.0951
  142TMC2    C3 2208   0.747   2.387  11.032 -0.7584  0.7311  0.1308
  142TMC2    C4 2209   0.720   2.378  10.754  0.6108 -0.2217  0.3381
  142TMC2    C5 2210   0.820   2.439  10.817  0.1312 -0.0585  0.5154
  142TMC2    C6 2211   0.837   2.453  10.953 -0.0459  0.8422  0.2488
  142TMC2     C 2212   0.522   2.250  10.775 -0.8165 -0.7910  0.9178
  142TMC2     O 2213   0.555   2.194  10.670 -0.4518 -0.3665  0.5754
  142TMC2     H 2214   0.564   2.286  11.048  0.6069 -0.6356  0.0836
  142TMC2    H1 2215   0.702   2.381  10.647  0.7164  0.8361  0.3466
  142TMC2    H2 2216   0.924   2.504  10.994  1.1388  1.2762 -2.8504
  142TMC2    C7 2217   0.930   2.490  10.738 -0.5423 -0.5452  0.6157
  142TMC2    C8 2218   0.794   2.329  11.157 -0.2663 -0.1846 -0.3815
  142TMC2    O1 2219   1.011   2.567  10.777 -0.3463  0.1765 -0.3452
  142TMC2    O2 2220   0.766   2.216  11.188  0.3651  0.1362 -0.1079
  142TMC2    O5 2221   0.820   2.434  11.238  0.1516  0.4514 -0.2402
  142TMC2    H5 2222   0.845   2.517  11.192 -0.5206  0.4251 -0.6613
  143MPD2     C 2223   0.040   2.165  10.655 -0.2032 -0.0896 -0.5108
  143MPD2    C1 2224   0.150   2.082  10.649  0.3768  1.4657 -0.7183
  143MPD2    C2 2225   0.271   2.122  10.707 -0.0958 -0.8794  0.1114
  143MPD2    C3 2226   0.281   2.236  10.785  0.0980 -0.1953 -0.3314
  143MPD2    C4 2227   0.167   2.311  10.803 -0.9636 -0.2427 -0.4963
  143MPD2    C5 2228   0.050   2.272  10.740  0.3874 -0.4886 -0.3010
  143MPD2     H 2229   0.358   2.060  10.689 -0.0297 -1.3147  1.8680
  143MPD2    H1 2230   0.177   2.401  10.863 -0.3312 -1.2401  0.8956
  143MPD2    H2 2231   4.683   2.144  10.619 -0.8729  2.1145  0.1038
  143MPD2    H3 2232   4.706   2.336  10.752  1.7123  1.2097  0.2596
  143MPD2     N 2233   0.401   2.287  10.829 -0.2861 -0.0991 -0.3594
  143MPD2    H5 2234   0.402   2.356  10.904 -1.6021 -0.6560  0.1652
  143MPD2    N1 2235   0.126   1.955  10.583 -0.4713 -0.5258  0.1524
  143MPD2    H7 2236   0.037   1.950  10.535  0.6324  1.4941 -2.1084
  144TMC2    C1 2237   3.701   1.778   0.644 -0.4209 -0.1680  0.0399
  144TMC2    C2 2238   3.766   1.668   0.593 -0.0542  0.0386  0.4270
  144TMC2    C3 2239   3.874   1.618   0.662 -0.6979 -0.3840 -0.0391
  144TMC2    C4 2240   3.738   1.839   0.760 -0.2002 -0.3380  0.6835
  144TMC2    C5 2241   3.832   1.775   0.832 -0.0304  1.0741  0.0130
  144TMC2    C6 2242   3.909   1.674   0.782 -0.4404  0.1555  0.1954
  144TMC2     C 2243   3.597   1.831   0.561 -0.3228 -0.0768  0.4053
  144TMC2     O 2244   3.556   1.767   0.465  0.7833 -0.2800  0.1571
  144TMC2     H 2245   3.721   1.605   0.517  0.1173  0.3637  0.0564
  144TMC2    H1 2246   3.673   1.911   0.808  0.6528 -0.0415  1.3938
  144TMC2    H2 2247   3.975   1.627   0.854  2.5254 -0.2580 -2.8128
  144TMC2    C7 2248   3.863   1.820   0.972  0.6507  0.1764  1.1761
  144TMC2    C8 2249   3.921   1.475   0.644  0.1903  0.2041  0.4273
  144TMC2    O1 2250   3.916   1.742   1.052  0.6353 -0.4157  0.6849
  144TMC2    O2 2251   3.943   1.401   0.741  0.2414 -0.3790 -0.2642
  144TMC2    O5 2252   3.874   1.432   0.519  0.0256  0.2254  0.2888
  144TMC2    H5 2253   3.881   1.503   0.452 -2.8870  0.8868  0.6686
  145MPD2     C 2254   3.297   2.198   0.380  0.1376 -0.6690  0.4332
  145MPD2    C1 2255   3.285   2.058   0.377  0.4557  0.9511  0.6244
  145MPD2    C2 2256   3.374   1.973   0.438 -1.0357  0.3990 -0.0056
  145MPD2    C3 2257   3.472   2.040   0.512  0.6540 -0.5176 -0.0588
  145MPD2    C4 2258   3.476   2.173   0.530 -0.0409  0.4508 -0.5500
  145MPD2    C5 2259   3.396   2.255   0.459  0.1612 -0.4660 -0.1199
  145MPD2     H 2260   3.358   1.866   0.428 -0.6872  0.4522 -1.2380
  145MPD2    H1 2261   3.559   2.212   0.588 -0.6205 -1.4022  1.5248
  145MPD2    H2 2262   3.232   2.262   0.322  0.6947 -1.8297 -1.4815
  145MPD2    H3 2263   3.417   2.361   0.461  0.7206 -0.5483 -1.6797
  145MPD2     N 2264   3.574   1.969   0.582  0.0536 -0.2334 -0.6865
  145MPD2    H5 2265   3.630   2.017   0.653 -1.8752  1.3861 -0.2794
  145MPD2    N1 2266   3.181   1.997   0.304  0.0710  0.1653 -0.3213
  145MPD2    H7 2267   3.165   1.897   0.316 -1.0722  0.3069 -0.6940
  146TMC2    C1 2268   4.270   0.081  12.080  0.3515 -0.1978 -0.9226
  146TMC2    C2 2269   4.214   0.023  11.968  0.2490 -0.2512 -0.0794
  146TMC2    C3 2270   4.296   4.703  11.879 -0.1717 -0.0153 -0.7895
  146TMC2    C4 2271   4.409   0.090  12.093 -0.3471  0.2008 -0.0975
  146TMC2    C5 2272   4.489   0.030  11.998  0.1567  0.2367 -0.1291
  146TMC2    C6 2273   4.432   4.704  11.894  1.3204 -0.2551  0.3717
  146TMC2     C 2274   4.186   0.147  12.183 -0.5383  0.1301  0.5382
  146TMC2     O 2275   4.073   0.185  12.167 -0.1641 -0.2928 -0.2698
  146TMC2     H 2276   4.109   0.035  11.947 -0.4679  0.3451  3.9705
  146TMC2    H1 2277   4.460   0.156  12.163 -1.7620  2.5809 -1.3195
  146TMC2    H2 2278   4.497   4.648  11.828  0.4722  1.1911 -1.7014
  146TMC2    C7 2279   4.628   0.012  12.035  0.1350  0.4166  0.5265
  146TMC2    C8 2280   4.249   4.634  11.764  0.5506 -0.2973 -0.4162
  146TMC2    O1 2281   4.706   4.742  11.943 -0.1044 -0.3556 -0.5226
  146TMC2    O2 2282   4.329   4.596  11.677  0.0561 -0.0088  0.6720
  146TMC2    O5 2283   4.128   4.588  11.785 -0.2641 -0.0187  0.6557
  146TMC2    H5 2284   4.096   4.613  11.874  0.5455  1.0024  0.6652
  147MPD2     C 2285   0.266   4.715  12.381 -0.3081  0.2369  0.4217
  147MPD2    C1 2286   0.145   4.714  12.445 -0.2027 -0.1956  0.3138
  147MPD2    C2 2287   0.030   4.734  12.374 -0.5045  0.4708  0.1584
  147MPD2    C3 2288   0.031   0.015  12.243 -0.6818 -0.6838 -0.2125
  147MPD2    C4 2289   0.151   0.021  12.177 -0.8318 -0.1365  0.5089
  147MPD2    C5 2290   0.269   4.737  12.244 -0.5106  0.3253  0.2168
  147MPD2     H 2291   4.682   4.738  12.433 -1.2828  1.1383 -1.1055
  147MPD2    H1 2292   0.153   0.030  12.069 -0.5182 -1.5648  0.4063
  147MPD2    H2 2293   0.359   4.697  12.433  1.4786  0.6370 -2.6513
  147MPD2    H3 2294   0.363   4.737  12.191 -1.5265  5.2570 -1.5162
  147MPD2     N 2295   4.648   0.017  12.174 -0.2458  1.1652 -0.3502
  147MPD2    H5 2296   4.567   0.026  12.234  0.3698 -0.0870  0.6936
  147MPD2    N1 2297   0.151   4.692  12.580 -0.3273  0.4289 -0.3307
  147MPD2    H7 2298   0.240   4.682  12.628 -0.5106 -1.2621 -0.3483
  148TMC2    C1 2299   0.232   4.217  10.434  0.0745 -0.3150  0.1624
  148TMC2    C2 2300   0.356   4.237  10.379  0.1716  0.3106 -0.0225
  148TMC2    C3 2301   0.461   4.214  10.460  0.6591  0.4216  0.5342
  148TMC2    C4 2302   0.210   4.146  10.550  0.2210  0.1093  0.7604
  148TMC2    C5 2303   0.320   4.128  10.634  0.3149  0.4585 -0.5722
  148TMC2    C6 2304   0.447   4.161  10.589 -0.2860  0.2776  0.6538
  148TMC2     C 2305   0.127   4.259  10.344  0.2369 -0.5321  0.2865
  148TMC2     O 2306   0.152   4.340  10.254 -0.4421 -0.1347 -0.3092
  148TMC2     H 2307   0.371   4.311  10.300 -0.8026 -0.1197 -0.6157
  148TMC2    H1 2308   0.112   4.138  10.596 -0.3854  2.3293 -0.1540
  148TMC2    H2 2309   0.535   4.125  10.642 -0.6579 -1.4967  0.0745
  148TMC2    C7 2310   0.319   3.993  10.690 -0.0779  0.1794  0.4288
  148TMC2    C8 2311   0.595   4.257  10.416  0.4797  0.5607  0.4492
  148TMC2    O1 2312   0.217   3.935  10.655 -0.2285  0.3946 -0.1892
  148TMC2    O2 2313   0.685   4.274  10.495 -0.1030 -0.3998  0.0957
  148TMC2    O5 2314   0.615   4.191  10.303 -0.2453 -0.0488 -0.5479
  148TMC2    H5 2315   0.538   4.207  10.245 -0.6449  0.2164  0.0486
  149MPD2     C 2316   4.591   4.263  10.216  0.6261  0.3512 -0.0448
  149MPD2    C1 2317   4.645   4.163  10.292  0.1311  0.3550  0.8775
  149MPD2    C2 2318   4.572   4.048  10.319  0.2648 -0.1469 -0.1476
  149MPD2    C3 2319   4.446   4.037  10.267  0.0236  0.3923 -0.3138
  149MPD2    C4 2320   4.391   4.136  10.189 -0.5945 -0.0902 -0.2918
  149MPD2    C5 2321   4.467   4.249  10.162 -0.2059 -0.3023  0.1915
  149MPD2     H 2322   4.614   3.975  10.388 -0.7302  0.3458  0.9980
  149MPD2    H1 2323   4.291   4.129  10.147 -1.1735  1.4211  0.8156
  149MPD2    H2 2324   4.647   4.351  10.188 -0.9360  1.0969 -0.8121
  149MPD2    H3 2325   4.426   4.320  10.091 -2.4843 -1.2033  0.5994
  149MPD2     N 2326   4.370   3.927  10.292  0.4722  0.0386  0.0463
  149MPD2    H5 2327   4.273   3.924  10.263  0.5431  0.2775 -0.2165
  149MPD2    N1 2328   0.026   4.168  10.365  0.2207  0.1014  0.3005
  149MPD2    H7 2329   0.029   4.104  10.444 -0.0113 -0.5715 -0.2315
  150TMC2    C1 2330   1.171   2.611  12.766  0.1383 -0.6027  0.3630
  150TMC2    C2 2331   1.152   2.579  12.893 -0.0549  0.1836 -0.2790
  150TMC2    C3 2332   1.269   2.556  12.955  0.0084 -0.0086 -0.5772
  150TMC2    C4 2333   1.285   2.607  12.692 -0.7640 -0.0513 -0.2587
  150TMC2    C5 2334   1.397   2.560  12.759 -0.0994 -0.1372  0.9092
  150TMC2    C6 2335   1.384   2.523  12.893 -0.3111 -0.4491  0.1828
  150TMC2     C 2336   1.058   2.678  12.708  1.0742  0.6061 -0.0778
  150TMC2     O 2337   0.949   2.650  12.753  0.2786  0.5792  0.2866
  150TMC2     H 2338   1.060   2.592  12.948  1.4902  1.1339  2.0822
  150TMC2    H1 2339   1.289   2.641  12.590  0.8449 -0.8000 -0.4461
  150TMC2    H2 2340   1.460   2.499  12.966 -1.8403 -0.0993  1.8956
  150TMC2    C7 2341   1.532   2.608  12.719 -0.1686  1.0982 -0.0870
  150TMC2    C8 2342   1.261   2.547  13.101  0.6984 -0.0373 -0.6034
  150TMC2    O1 2343   1.542   2.699  12.635 -0.2656 -0.0633 -0.1251
  150TMC2    O2 2344   1.360   2.569  13.166 -0.0690  0.4446 -0.3163
  150TMC2    O5 2345   1.179   2.447  13.137  0.1184  0.8532 -0.2632
  150TMC2    H5 2346   1.109   2.428  13.071 -1.0926  1.6385  0.8043
  151MPD2     C 2347   0.850   2.968  12.346 -0.1108 -0.3222 -0.4005
  151MPD2    C1 2348   0.984   2.974  12.317  0.1700 -0.2258  0.3736
  151MPD2    C2 2349   1.066   2.912  12.414  0.5277 -0.7340 -1.0557
  151MPD2    C3 2350   1.015   2.848  12.528 -0.2478  0.5711 -0.8243
  151MPD2    C4 2351   0.878   2.848  12.552  0.0049  0.1387 -0.4825
  151MPD2    C5 2352   0.805   2.908  12.460  0.0442 -0.6675  0.5074
  151MPD2     H 2353   1.171   2.902  12.386  0.9458  0.0772  0.2061
  151MPD2    H1 2354   0.829   2.806  12.639 -1.7145  1.1282 -0.9736
  151MPD2    H2 2355   0.771   3.012  12.286 -0.4071 -0.9521 -0.4763
  151MPD2    H3 2356   0.697   2.915  12.466  0.0029 -0.6232 -0.2180
  151MPD2     N 2357   1.099   2.777  12.622 -0.4713 -0.1856  0.4705
  151MPD2    H5 2358   1.197   2.797  12.608 -1.4011  2.0282 -2.8247
  151MPD2    N1 2359   1.028   3.029  12.196 -1.0125  0.3388 -0.1986
  151MPD2    H7 2360   0.950   3.041  12.132 -0.1299 -0.9907 -1.5128
  152TMC2    C1 2361   1.674   2.939  12.916 -0.2032 -0.3422  0.3115
  152TMC2    C2 2362   1.733   2.827  12.958  0.1785 -0.3521  0.0046
  152TMC2    C3 2363   1.868   2.839  12.993  0.3291 -0.2292 -0.2378
  152TMC2    C4 2364   1.733   3.067  12.924  0.0960 -0.2518 -0.1406
  152TMC2    C5 2365   1.864   3.078  12.959 -0.0480 -0.1934 -0.8962
  152TMC2    C6 2366   1.929   2.961  12.997  0.2013  0.1777  0.2323
  152TMC2     C 2367   1.536   2.944  12.869  0.4151  0.7871 -0.3012
  152TMC2     O 2368   1.508   3.015  12.777 -0.2908 -0.0617 -0.2502
  152TMC2     H 2369   1.685   2.731  12.959  1.5271 -0.9586  7.6650
  152TMC2    H1 2370   1.675   3.152  12.889  2.4506  0.8854 -1.2851
  152TMC2    H2 2371   2.028   2.973  13.041  1.0301  0.2436 -1.6442
  152TMC2    C7 2372   1.888   3.196  13.041 -0.3185 -0.5189 -0.0117
  152TMC2    C8 2373   1.934   2.727  13.053 -0.0531  0.3957 -0.6678
  152TMC2    O1 2374   1.795   3.261  13.089  0.0495 -0.0831  0.0461
  152TMC2    O2 2375   1.871   2.641  13.107  0.5041 -0.0833 -0.4337
  152TMC2    O5 2376   2.048   2.708  12.984  0.2131  0.2517  0.1356
  152TMC2    H5 2377   2.073   2.794  12.944  1.8552 -0.9167 -1.3201
  153MPD2     C 2378   1.251   2.848  13.083  0.7381 -0.1567  0.6400
  153MPD2    C1 2379   1.309   2.886  12.965 -0.2971  0.0446 -0.7450
  153MPD2    C2 2380   1.232   2.950  12.878  0.1722 -0.7102  0.3390
  153MPD2    C3 2381   1.102   2.986  12.897  0.2397  0.2906 -0.5140
  153MPD2    C4 2382   1.039   2.927  13.004  0.3327 -0.4455 -0.4400
  153MPD2    C5 2383   1.117   2.867  13.093  0.5165 -0.9726  0.1702
  153MPD2     H 2384   1.273   2.992  12.787 -0.6360 -1.7485 -0.4947
  153MPD2    H1 2385   0.934   2.930  13.029  0.2851  1.1156 -0.8620
  153MPD2    H2 2386   1.309   2.808  13.165  0.1643 -0.4564  0.9039
  153MPD2    H3 2387   1.064   2.837  13.183  0.1650  1.2347  0.6917
  153MPD2     N 2388   1.040   3.073  12.812  0.3174  0.0037  0.2012
  153MPD2    H5 2389   1.094   3.098  12.730  1.6164 -1.2020  0.7006
  153MPD2    N1 2390   1.456   2.882  12.960  0.3324  0.6072  0.1503
  153MPD2    H7 2391   1.498   2.838  13.042 -0.1647  0.8953  0.5567
  154TMC2    C1 2392   3.631   3.089   0.605  0.2752  0.5844 -0.5634
  154TMC2    C2 2393   3.605   2.978   0.545 -0.3576 -0.0486 -0.7307
  154TMC2    C3 2394   3.703   2.917   0.480  0.5530 -0.9064  0.4477
  154TMC2    C4 2395   3.761   3.124   0.631 -0.2873  0.3347 -0.5072
  154TMC2    C5 2396   3.861   3.048   0.578 -0.4535 -0.3062  0.0193
  154TMC2    C6 2397   3.832   2.949   0.496 -0.5665 -0.3776 -0.0120
  154TMC2     C 2398   3.530   3.155   0.698 -0.0570 -0.1301 -0.6688
  154TMC2     O 2399   3.568   3.234   0.783  0.6690 -0.3302 -0.1222
  154TMC2     H 2400   3.505   2.943   0.521  0.1531 -1.4401 -0.8431
  154TMC2    H1 2401   3.777   3.199   0.708 -0.2306  0.4764 -0.6557
  154TMC2    H2 2402   3.910   2.894   0.445 -0.7837 -1.1382  0.4719
  154TMC2    C7 2403   4.007   3.080   0.587 -0.1081 -0.4489 -0.4781
  154TMC2    C8 2404   3.659   2.887   0.349  0.1931 -0.7400 -0.5408
  154TMC2    O1 2405   4.085   2.996   0.546  0.0283  0.1101  0.6617
  154TMC2    O2 2406   3.549   2.840   0.327 -0.4970 -0.1940 -0.1156
  154TMC2    O5 2407   3.722   2.977   0.266  0.0500 -0.4367 -0.6794
  154TMC2    H5 2408   3.801   3.031   0.288 -1.2154  1.4511 -0.6975
  155MPD2     C 2409   3.164   3.135   0.659 -0.5003 -1.0103  0.2789
  155MPD2    C1 2410   3.282   3.175   0.714 -0.1126 -0.0311  0.2621
  155MPD2    C2 2411   3.285   3.241   0.839 -0.2367  1.4466  0.2582
  155MPD2    C3 2412   3.162   3.275   0.895 -0.1133 -0.0837  0.0955
  155MPD2    C4 2413   3.044   3.243   0.828  0.2606 -0.4143  0.2725
  155MPD2    C5 2414   3.041   3.167   0.714  0.1516 -0.4107  0.1411
  155MPD2     H 2415   3.374   3.274   0.891 -0.8688  2.2431  0.8254
  155MPD2    H1 2416   2.950   3.247   0.881 -0.2829 -1.4377 -0.6260
  155MPD2    H2 2417   3.165   3.069   0.573  0.1124 -2.9574  1.7865
  155MPD2    H3 2418   2.949   3.123   0.676  2.0305 -0.8340 -3.9305
  155MPD2     N 2419   3.158   3.334   1.019 -0.6311 -0.3496  0.2458
  155MPD2    H5 2420   3.242   3.340   1.076 -0.1344  0.2449 -0.5272
  155MPD2    N1 2421   3.397   3.129   0.654 -0.6717 -0.1944 -0.8959
  155MPD2    H7 2422   3.385   3.072   0.571  1.0739 -1.0747 -0.5486
  156TMC2    C1 2423   2.234   0.261  11.826  1.0587 -0.9297  0.6754
  156TMC2    C2 2424   2.286   0.158  11.754 -0.2829 -0.4753  0.2125
  156TMC2    C3 2425   2.244   0.142  11.624  0.3043  0.1471  0.0198
  156TMC2    C4 2426   2.143   0.344  11.782  0.4576  0.7254 -0.5923
  156TMC2    C5 2427   2.099   0.320  11.658 -0.5251 -0.0558 -0.2558
  156TMC2    C6 2428   2.149   0.220  11.574  0.3055 -0.7724 -0.3029
  156TMC2     C 2429   2.306   0.304  11.942  0.0637  0.4231 -0.7485
  156TMC2     O 2430   2.252   0.380  12.022 -0.7204 -0.4920  0.0417
  156TMC2     H 2431   2.350   0.083  11.800 -1.3789 -1.9747 -0.7116
  156TMC2    H1 2432   2.109   0.423  11.848 -2.6329 -0.9896 -0.1202
  156TMC2    H2 2433   2.120   0.217  11.470  2.1812 -0.8173 -0.8253
  156TMC2    C7 2434   1.987   0.400  11.619  0.3636  0.3720 -0.8156
  156TMC2    C8 2435   2.264   0.025  11.555 -0.2510 -0.0615  0.2719
  156TMC2    O1 2436   1.979   0.509  11.667 -0.2341  0.3587 -0.2217
  156TMC2    O2 2437   2.175   4.711  11.491  0.1850  0.4808 -0.4362
  156TMC2    O5 2438   2.390   4.731  11.580  0.2401  0.4533  0.5813
  156TMC2    H5 2439   2.447   0.052  11.627  0.2259 -0.7434  2.2315
  157MPD2     C 2440   2.659   0.248  12.014  0.0740  0.5175  0.4491
  157MPD2    C1 2441   2.536   0.307  12.032 -0.1536  0.1278  0.8751
  157MPD2    C2 2442   2.520   0.406  12.126  0.5995 -0.3188 -0.0003
  157MPD2    C3 2443   2.629   0.451  12.208  0.2090  0.0900 -0.3899
  157MPD2    C4 2444   2.748   0.389  12.185 -0.8654  0.5693  0.4450
  157MPD2    C5 2445   2.760   0.291  12.090  0.1651 -0.4406 -0.5189
  157MPD2     H 2446   2.425   0.458  12.136  1.5057  1.0171  1.6560
  157MPD2    H1 2447   2.836   0.403  12.247 -3.3559  1.1823  3.8652
  157MPD2    H2 2448   2.665   0.167  11.943  2.3895  1.6123 -0.6218
  157MPD2    H3 2449   2.858   0.244  12.083  0.5206  0.4740 -1.7730
  157MPD2     N 2450   2.623   0.546  12.316  0.2972 -0.2251 -0.0551
  157MPD2    H5 2451   2.710   0.583  12.353  1.0510 -1.2807 -0.7688
  157MPD2    N1 2452   2.438   0.266  11.935  0.2448 -0.0294  0.2930
  157MPD2    H7 2453   2.459   0.203  11.858 -0.2647  0.9238 -0.6388
  158TMC2    C1 2454   2.583   4.131  14.031  0.8214 -0.2891 -0.2433
  158TMC2    C2 2455   2.655   4.239  13.982 -0.1558  0.8673  0.7524
  158TMC2    C3 2456   2.588   4.331  13.902 -0.0460 -0.9002  0.3740
  158TMC2    C4 2457   2.453   4.106  14.001  0.0064  0.4448 -0.0102
  158TMC2    C5 2458   2.392   4.207  13.923 -0.2520  0.4744 -0.1609
  158TMC2    C6 2459   2.450   4.321  13.873  0.1790  0.4494 -0.6754
  158TMC2     C 2460   2.665   4.041  14.113  0.2407  0.5550  0.6167
  158TMC2     O 2461   2.774   4.076  14.147 -0.0996  0.3229 -0.3698
  158TMC2     H 2462   2.762   4.241  13.996 -0.1890 -0.2710  1.2000
  158TMC2    H1 2463   2.390   4.053  14.072  0.1406 -0.0330 -0.2506
  158TMC2    H2 2464   2.397   4.396  13.817 -0.6822  1.5994  1.6940
  158TMC2    C7 2465   2.242   4.205  13.912  0.5577 -0.4176  0.2765
  158TMC2    C8 2466   2.642   4.465  13.878 -0.0329  0.8446 -0.1522
  158TMC2    O1 2467   2.187   4.312  13.887 -0.4002 -0.2090  0.0840
  158TMC2    O2 2468   2.609   4.530  13.783  0.6864 -0.4325  0.4366
  158TMC2    O5 2469   2.671   4.509  14.000  0.0059  0.1882  0.3280
  158TMC2    H5 2470   2.683   4.437  14.065  1.2385  0.4459  0.3802
  159MPD2     C 2471   2.804   3.547  14.216 -0.0479 -0.1376 -0.4573
  159MPD2    C1 2472   2.665   3.558  14.193 -0.6375 -0.2124 -0.1407
  159MPD2    C2 2473   2.604   3.679  14.169 -0.5693  0.7315 -0.2253
  159MPD2    C3 2474   2.679   3.795  14.164 -0.7362 -0.2934  0.6179
  159MPD2    C4 2475   2.812   3.790  14.206  0.4951 -0.2855 -0.2220
  159MPD2    C5 2476   2.871   3.669  14.229  0.8370  0.3113 -0.2805
  159MPD2     H 2477   2.501   3.696  14.142 -0.1676 -0.0358 -2.1914
  159MPD2    H1 2478   2.874   3.879  14.209  2.1263 -1.4580  0.6594
  159MPD2    H2 2479   2.844   3.448  14.236 -0.1212 -0.4966 -2.0752
  159MPD2    H3 2480   2.977   3.666  14.251  0.6235  0.0926  0.7124
  159MPD2     N 2481   2.616   3.914  14.117 -0.0619 -0.5884 -0.2024
  159MPD2    H5 2482   2.524   3.902  14.077 -0.5457  1.5547  0.2639
  159MPD2    N1 2483   2.584   3.442  14.210 -0.0116  0.1523  0.6473
  159MPD2    H7 2484   2.640   3.357  14.217  0.3441  0.3830  0.5982
  160TMC2    C1 2485   2.428   2.208   1.377 -0.0042  0.0585 -1.0388
  160TMC2    C2 2486   2.514   2.146   1.458 -0.6790 -0.2863  0.4844
  160TMC2    C3 2487   2.640   2.131   1.406  0.1383 -0.0436  0.1273
  160TMC2    C4 2488   2.452   2.260   1.252  1.5440 -0.7895 -0.3268
  160TMC2    C5 2489   2.576   2.221   1.201 -0.4449  0.2071  0.5798
  160TMC2    C6 2490   2.670   2.159   1.277 -0.0575  0.2259  0.0131
  160TMC2     C 2491   2.290   2.216   1.421 -1.1040 -0.2722  0.4539
  160TMC2     O 2492   2.250   2.127   1.492  0.2801 -0.5973  0.4405
  160TMC2     H 2493   2.487   2.115   1.558  0.9172 -0.6612  0.8083
  160TMC2    H1 2494   2.371   2.288   1.186  1.1663 -2.5879 -0.6224
  160TMC2    H2 2495   2.772   2.156   1.241  0.2925  1.3286  0.9224
  160TMC2    C7 2496   2.631   2.307   1.099 -0.6726  0.1432  0.3682
  160TMC2    C8 2497   2.730   2.036   1.468  0.0517 -0.2825 -0.5593
  160TMC2    O1 2498   2.712   2.268   1.018  0.1301  0.0705 -0.1754
  160TMC2    O2 2499   2.788   1.946   1.413  0.3642 -0.6127 -0.3847
  160TMC2    O5 2500   2.726   2.060   1.597 -0.4043  0.3949 -0.3923
  160TMC2    H5 2501   2.684   2.144   1.627  1.1367  0.3237  1.9955
  161MPD2     C 2502   2.001   2.239   1.396 -0.0654  0.0626 -0.1962
  161MPD2    C1 2503   2.083   2.343   1.350  0.6171  0.5031  0.3602
  161MPD2    C2 2504   2.030   2.456   1.291 -0.4577 -0.1301  0.0263
  161MPD2    C3 2505   1.891   2.476   1.293  0.2335 -0.3950  0.6004
  161MPD2    C4 2506   1.812   2.374   1.338  0.2619 -0.1896 -0.1087
  161MPD2    C5 2507   1.864   2.257   1.382  0.1864 -0.1655  0.4431
  161MPD2     H 2508   2.096   2.527   1.242 -0.1805 -0.7205 -0.4673
  161MPD2    H1 2509   1.704   2.383   1.326  0.0132 -2.2869  0.5517
  161MPD2    H2 2510   2.031   2.140   1.430 -0.7821 -0.7965 -2.0512
  161MPD2    H3 2511   1.800   2.178   1.419 -2.5064  2.4741  1.3514
  161MPD2     N 2512   1.832   2.593   1.241 -0.0865 -0.1434 -0.3707
  161MPD2    H5 2513   1.730   2.589   1.235 -0.0039 -2.9890 -0.2364
  161MPD2    N1 2514   2.226   2.327   1.360 -0.0895  0.5228 -0.3650
  161MPD2    H7 2515   2.275   2.393   1.301  1.4339 -0.0105  0.3048
  162TMC2    C1 2516   0.433   4.187   1.385 -0.0534 -0.4122  0.7472
  162TMC2    C2 2517   0.385   4.231   1.505 -0.2379  0.7749  0.3002
  162TMC2    C3 2518   0.473   4.274   1.599  0.8256 -0.6654 -0.5083
  162TMC2    C4 2519   0.567   4.176   1.367  0.1764  0.4559  0.1647
  162TMC2    C5 2520   0.655   4.207   1.470  0.3254 -0.0833  0.5001
  162TMC2    C6 2521   0.609   4.261   1.589  0.9037 -0.1748  0.4009
  162TMC2     C 2522   0.341   4.176   1.272 -0.4899 -0.2531 -0.0826
  162TMC2     O 2523   0.387   4.200   1.163 -0.7575 -0.2602  0.3182
  162TMC2     H 2524   0.280   4.256   1.516 -0.1812  1.5763 -0.9757
  162TMC2    H1 2525   0.599   4.136   1.271 -0.2886 -0.6806  0.4861
  162TMC2    H2 2526   0.681   4.271   1.668  0.6747  2.9828  0.2024
  162TMC2    C7 2527   0.803   4.218   1.457  0.1802 -0.5050 -0.2010
  162TMC2    C8 2528   0.410   4.348   1.711  0.0637 -0.6765  0.6419
  162TMC2    O1 2529   0.869   4.290   1.532  0.3852 -0.1676  0.0928
  162TMC2    O2 2530   0.297   4.341   1.754  0.2220  0.1181 -0.7231
  162TMC2    O5 2531   0.490   4.455   1.737  0.2111 -0.7220 -0.4717
  162TMC2    H5 2532   0.573   4.448   1.684  0.5697 -0.0958  0.0128
  163MPD2     C 2533   4.676   3.978   1.032  0.2772 -0.2154  0.2391
  163MPD2    C1 2534   0.035   4.052   0.982  0.0662  0.0139  0.2285
  163MPD2    C2 2535   0.129   4.110   1.072  0.9525  0.0512  0.1238
  163MPD2    C3 2536   0.118   4.094   1.212  0.5291 -0.1948  0.5930
  163MPD2    C4 2537   0.004   4.031   1.260 -0.2777  0.7381 -0.1783
  163MPD2    C5 2538   4.659   3.973   1.172  0.3598  0.0113  0.8175
  163MPD2     H 2539   0.212   4.163   1.027  0.8417  0.2304  0.1352
  163MPD2    H1 2540   4.732   4.010   1.365  2.7382 -1.9495 -0.2573
  163MPD2    H2 2541   4.599   3.926   0.976 -0.3144 -0.2353  1.0745
  163MPD2    H3 2542   4.572   3.919   1.208 -0.1911  2.1389  2.6297
  163MPD2     N 2543   0.217   4.131   1.308 -0.6347  0.2221  0.0129
  163MPD2    H5 2544   0.201   4.094   1.401 -0.3122 -1.0420 -0.4435
  163MPD2    N1 2545   0.053   4.042   0.838  0.6056  0.1175  0.1601
  163MPD2    H7 2546   4.727   3.989   0.785 -0.3861 -1.3115  2.9030
  164TMC2    C1 2547   0.645   3.836  11.754  0.0874  0.1159 -0.5166
  164TMC2    C2 2548   0.745   3.885  11.665  0.0251 -0.0693  0.8457
  164TMC2    C3 2549   0.717   3.997  11.587 -0.0092  0.5527 -0.4464
  164TMC2    C4 2550   0.535   3.913  11.782 -0.1577 -0.4587  0.3562
  164TMC2    C5 2551   0.509   4.024  11.699 -0.3248  0.5764  0.1943
  164TMC2    C6 2552   0.599   4.060  11.603 -0.2385  0.0057 -0.5596
  164TMC2     C 2553   0.630   3.693  11.778  0.2675  0.0890 -0.3245
  164TMC2     O 2554   0.623   3.656  11.893 -0.1627  0.3684 -0.3515
  164TMC2     H 2555   0.832   3.826  11.637  0.0529 -0.3361  1.5069
  164TMC2    H1 2556   0.456   3.856  11.828 -0.0156 -0.3503  0.7298
  164TMC2    H2 2557   0.561   4.135  11.535 -0.5903 -1.0628 -1.5501
  164TMC2    C7 2558   0.370   4.066  11.687 -0.3271 -0.5313  0.5658
  164TMC2    C8 2559   0.820   4.047  11.504  0.1700  0.1181 -0.0265
  164TMC2    O1 2560   0.330   4.123  11.584 -0.4379  0.3795  0.3550
  164TMC2    O2 2561   0.937   4.041  11.528 -0.0271 -0.3287 -0.3905
  164TMC2    O5 2562   0.759   4.107  11.398  0.4855 -0.4004  0.1763
  164TMC2    H5 2563   0.669   4.070  11.387  0.4067 -0.7313  1.9686
  165TMC2    C1 2564   2.433   1.630   1.969  0.3238 -0.3371 -0.1006
  165TMC2    C2 2565   2.309   1.564   1.971  0.2370 -0.5013  0.0761
  165TMC2    C3 2566   2.222   1.597   1.871  0.0395  0.6809  0.4840
  165TMC2    C4 2567   2.464   1.720   1.869  0.2177 -0.1429 -0.0031
  165TMC2    C5 2568   2.368   1.752   1.774  0.4294 -0.0349 -0.1549
  165TMC2    C6 2569   2.241   1.696   1.777 -0.8970 -1.1728  0.0667
  165TMC2     C 2570   2.525   1.521   1.971  0.0486  0.2579 -0.2478
  165TMC2     O 2571   2.503   1.427   2.045  0.2252 -0.2670  0.2246
  165TMC2     H 2572   2.283   1.495   2.050 -1.5601 -0.8239 -0.8119
  165TMC2    H1 2573   2.563   1.765   1.867 -0.2688  0.9121 -0.0634
  165TMC2    H2 2574   2.162   1.730   1.711  0.5901  1.5087 -0.3173
  165TMC2    C7 2575   2.436   1.776   1.647 -0.0562 -0.3716 -0.2128
  165TMC2    C8 2576   2.085   1.574   1.910  0.2715 -0.2243 -0.0179
  165TMC2    O1 2577   2.545   1.721   1.644  0.4714 -0.1074  0.6250
  165TMC2    O2 2578   1.995   1.655   1.897 -0.1885 -0.0793  0.3571
  165TMC2    O5 2579   2.080   1.453   1.940  0.9684 -0.1951  0.5207
  165TMC2    H5 2580   2.162   1.405   1.915 -0.1051 -1.8894  0.2916
  166MPD2     C 2581   2.899   1.262   1.716 -0.3009 -0.4008 -0.1073
  166MPD2    C1 2582   2.842   1.230   1.840  0.4957  0.0786  0.1825
  166MPD2    C2 2583   2.748   1.318   1.888 -0.2297  0.3040 -0.1483
  166MPD2    C3 2584   2.707   1.435   1.819 -0.0590  0.0001 -0.4801
  166MPD2    C4 2585   2.764   1.462   1.688  0.3133  0.2052  0.7438
  166MPD2    C5 2586   2.866   1.374   1.651 -0.6450 -1.0896 -0.4899
  166MPD2     H 2587   2.704   1.301   1.985  0.0954 -3.1205 -0.6227
  166MPD2    H1 2588   2.728   1.545   1.629  0.0967 -1.2830 -1.2082
  166MPD2    H2 2589   2.982   1.204   1.678  0.6939  0.9909 -0.0636
  166MPD2    H3 2590   2.898   1.391   1.549 -0.8670 -1.2444 -0.5856
  166MPD2     N 2591   2.602   1.523   1.858 -0.7362 -0.9754  0.1288
  166MPD2    H5 2592   2.586   1.604   1.798  0.0845 -0.4422  0.6245
  166MPD2    N1 2593   2.876   1.113   1.907  0.5131  0.4587  0.0296
  166MPD2    H7 2594   2.958   1.063   1.875 -0.5027 -1.1616 -0.0190
  167TMC2    C1 2595   0.721   3.281  13.216 -0.3106  0.2323 -1.2139
  167TMC2    C2 2596   0.786   3.289  13.337 -0.1043  0.7193 -0.3171
  167TMC2    C3 2597   0.799   3.174  13.412 -0.5349 -0.8342  0.2192
  167TMC2    C4 2598   0.673   3.157  13.172  0.4941 -0.0921 -0.0726
  167TMC2    C5 2599   0.710   3.046  13.245  0.8061  0.1990 -0.3742
  167TMC2    C6 2600   0.758   3.050  13.372 -0.6930 -0.3352  0.4574
  167TMC2     C 2601   0.714   3.394  13.131 -0.3240  0.0470 -0.4899
  167TMC2     O 2602   0.803   3.479  13.142 -0.6329 -0.0364  0.3294
  167TMC2     H 2603   0.801   3.390  13.375 -1.4197  0.8244 -0.0441
  167TMC2    H1 2604   0.638   3.141  13.071  1.5997 -3.3955  0.0600
  167TMC2    H2 2605   0.764   2.963  13.437  0.5665  0.1856  1.0403
  167TMC2    C7 2606   0.657   2.916  13.206  0.3018  0.1137  0.3600
  167TMC2    C8 2607   0.837   3.207  13.551 -0.4874  0.2899  0.8929
  167TMC2    O1 2608   0.598   2.847  13.291  0.2962 -0.0055 -0.1042
  167TMC2    O2 2609   0.766   3.187  13.648 -0.7675  0.3977 -0.4175
  167TMC2    O5 2610   0.953   3.145  13.538 -0.7464  0.1918  0.0218
  167TMC2    H5 2611   0.998   3.160  13.452  1.2616 -1.1698  0.8333
  168MPD2     C 2612   0.667   3.594  12.906  0.1606 -0.0472  0.3672
  168MPD2    C1 2613   0.595   3.479  12.925 -0.3102 -0.3226 -0.2349
  168MPD2    C2 2614   0.508   3.433  12.834 -0.1160 -0.1272 -0.0325
  168MPD2    C3 2615   0.497   3.508  12.712 -0.3498 -0.8480  0.5693
  168MPD2    C4 2616   0.561   3.629  12.697  0.1273 -0.2427  0.0178
  168MPD2    C5 2617   0.646   3.668  12.793 -0.3472  0.6136 -0.2627
  168MPD2     H 2618   0.437   3.358  12.868  2.6544 -1.8695  1.9437
  168MPD2    H1 2619   0.555   3.692  12.609  1.1640  1.3848  1.1189
  168MPD2    H2 2620   0.725   3.651  12.977 -0.8496  1.1606  0.2071
  168MPD2    H3 2621   0.692   3.766  12.785  1.7399 -0.3819 -0.3201
  168MPD2     N 2622   0.390   3.463  12.625  0.9082 -0.1355  0.3956
  168MPD2    H5 2623   0.342   3.375  12.642  1.7440 -0.0599  3.2207
  168MPD2    N1 2624   0.609   3.391  13.040  0.4680 -0.3609 -0.2975
  168MPD2    H7 2625   0.540   3.319  13.058  1.3020 -0.7019  1.5441
  169MPD1     C 2626   1.393   3.523   9.199  0.5952  0.1133 -0.2351
  169MPD1    C1 2627   1.529   3.547   9.206  0.2507  0.5197 -0.1646
  169MPD1    C2 2628   1.600   3.451   9.275  0.2149 -0.5219 -0.3425
  169MPD1    C3 2629   1.546   3.331   9.313  0.1319  0.0013  0.4601
  169MPD1    C4 2630   1.410   3.295   9.286  0.6022  0.3321 -0.2587
  169MPD1    C5 2631   1.339   3.402   9.248 -0.3786  0.7421  0.5814
  169MPD1     H 2632   1.705   3.467   9.297  0.4084 -1.1885 -0.7751
  169MPD1    H1 2633   1.356   3.207   9.319 -0.8105  1.1569 -0.3713
  169MPD1    H2 2634   1.321   3.592   9.156 -1.0225  0.7094  3.4450
  169MPD1    H3 2635   1.233   3.382   9.247 -0.6197  1.9810  1.3836
  169MPD1     N 2636   1.633   3.237   9.378 -0.5196  0.3085 -0.3463
  169MPD1    H5 2637   1.726   3.269   9.404 -0.7563  1.5300 -1.0396
  169MPD1    N1 2638   1.582   3.669   9.184  0.5026  0.1462  0.0084
  169MPD1    H6 2639   1.681   3.665   9.161  0.3238 -0.3530 -0.6853
  169MPD1    H7 2640   1.526   3.719   9.115 -0.5562 -1.8045 -0.5391
  170MPD1     C 2641   1.250   0.816  13.100 -0.5830  0.6224  0.1481
  170MPD1    C1 2642   1.292   0.832  13.227  0.6046 -0.7118 -0.0680
  170MPD1    C2 2643   1.239   0.937  13.302  0.2190 -0.2692 -0.4090
  170MPD1    C3 2644   1.140   1.021  13.251  0.3335  0.3309 -0.0780
  170MPD1    C4 2645   1.108   1.011  13.117  0.4455  0.2258 -0.1447
  170MPD1    C5 2646   1.154   0.897  13.046  0.1587  0.2184  0.1332
  170MPD1     H 2647   1.294   0.970  13.389 -1.1277  0.9734 -0.0259
  170MPD1    H1 2648   1.042   1.083  13.068 -0.1193  0.4628  0.9762
  170MPD1    H2 2649   1.301   0.750  13.031  0.6561  1.3514  0.3646
  170MPD1    H3 2650   1.111   0.883  12.948  0.2395  0.8144  0.0134
  170MPD1     N 2651   1.086   1.121  13.336 -0.0800  0.7761 -0.6177
  170MPD1    H5 2652   1.108   1.120  13.435 -1.0483  0.8548 -0.4031
  170MPD1    N1 2653   1.397   0.753  13.267 -0.1130 -0.1695  0.4758
  170MPD1    H6 2654   1.405   0.750  13.369 -0.1451  1.4482  0.5220
  170MPD1    H7 2655   1.387   0.659  13.228 -0.1251  1.3086 -3.0936
  171MPD1     C 2656   3.848   2.134  15.991  0.4911 -0.1413 -0.3086
  171MPD1    C1 2657   3.845   1.996  15.989  0.6726 -0.7078  0.0843
  171MPD1    C2 2658   3.965   1.933  15.993 -0.2571  0.7072  1.3888
  171MPD1    C3 2659   4.086   1.992  16.020  0.1081 -0.3067 -0.3004
  171MPD1    C4 2660   4.088   2.127  16.025  0.2817 -0.3020  0.2300
  171MPD1    C5 2661   3.969   2.196  16.009 -0.7211  0.6913  0.2933
  171MPD1     H 2662   3.958   1.825  15.987 -1.3947  0.9110 -0.6723
  171MPD1    H1 2663   4.175   2.185  16.052  0.2675 -0.2075  0.0700
  171MPD1    H2 2664   3.758   2.196  15.990  0.3662 -0.3408 -1.1957
  171MPD1    H3 2665   3.978   2.304  16.011 -2.1158  0.7876  1.9042
  171MPD1     N 2666   4.210   1.925  16.025 -0.3462 -0.3359  1.0495
  171MPD1    H5 2667   4.294   1.977  16.049  0.6231 -1.6636  0.5688
  171MPD1    N1 2668   3.726   1.926  15.947  0.3758  0.1082 -0.1334
  171MPD1    H6 2669   3.640   1.968  15.980  0.0263  1.5491 -2.8912
  171MPD1    H7 2670   3.728   1.827  15.969  2.1089 -0.9707 -5.0174
  172MPD1     C 2671   3.532   1.414   0.013 -0.8774  0.4539 -0.1798
  172MPD1    C1 2672   3.513   1.518  17.697 -0.4434 -0.9061 -0.9061
  172MPD1    C2 2673   3.526   1.647  17.743  0.3280  0.4391  0.6242
  172MPD1    C3 2674   3.556   1.669   0.106 -0.1850 -0.5505  0.6049
  172MPD1    C4 2675   3.582   1.563   0.189  0.0857 -0.2646  0.4688
  172MPD1    C5 2676   3.574   1.441   0.138  0.5596  0.5583  0.1503
  172MPD1     H 2677   3.515   1.734  17.679  3.0979  0.3810  0.0719
  172MPD1    H1 2678   3.607   1.581   0.293 -0.8476  1.1426  0.4562
  172MPD1    H2 2679   3.542   1.312  17.746  0.1489 -0.0660  1.5460
  172MPD1    H3 2680   3.590   1.360   0.208 -1.9202 -0.5233 -0.5244
  172MPD1     N 2681   3.586   1.794   0.170 -0.0262  0.9605  0.6161
  172MPD1    H5 2682   3.589   1.792   0.272  0.4638 -0.2681  0.5751
  172MPD1    N1 2683   3.467   1.499  17.565  0.5745  0.0179  0.3558
  172MPD1    H6 2684   3.530   1.435  17.516 -0.0183 -0.7398  0.5885
  172MPD1    H7 2685   3.458   1.588  17.517  0.0581 -1.3524 -2.0673
  173MPD1     C 2686   0.027   1.769  13.788  0.5137 -0.6167 -0.8340
  173MPD1    C1 2687   4.675   1.790  13.892  0.4996 -0.0044  0.7766
  173MPD1    C2 2688   4.668   1.701  14.001 -0.2824  0.1966 -0.7333
  173MPD1    C3 2689   0.013   1.597  14.011  0.0235  0.1262 -0.3645
  173MPD1    C4 2690   0.095   1.572  13.911 -0.4050  0.4987 -0.1604
  173MPD1    C5 2691   0.115   1.663  13.808  0.4141  0.1449 -0.0916
  173MPD1     H 2692   4.610   1.736  14.085 -0.3765 -1.5654 -0.0655
  173MPD1    H1 2693   0.164   1.490  13.924 -1.0637 -0.0623 -0.1886
  173MPD1    H2 2694   0.046   1.843  13.711 -0.5450 -0.0685 -0.5778
  173MPD1    H3 2695   0.191   1.648  13.732  0.4085  0.5770 -0.1819
  173MPD1     N 2696   0.001   1.517  14.127  0.5987  0.3029 -0.3641
  173MPD1    H5 2697   4.670   1.546  14.190  0.7444  0.0579 -0.0822
  173MPD1    N1 2698   4.605   1.912  13.899  0.2213  0.6010 -0.0811
  173MPD1    H6 2699   4.603   1.957  13.808  0.6203 -0.8509 -0.8185
  173MPD1    H7 2700   4.512   1.894  13.937  0.7376  0.0911  0.9202
  174MPD1     C 2701   0.698   1.010  14.678 -0.2273 -0.5334  0.4428
  174MPD1    C1 2702   0.583   1.009  14.753 -0.1013  0.1975  0.7869
  174MPD1    C2 2703   0.467   1.062  14.698  0.6768 -0.7425 -0.3159
  174MPD1    C3 2704   0.463   1.088  14.561  0.2368  0.0591 -0.8019
  174MPD1    C4 2705   0.577   1.085  14.489 -0.4706 -0.4501  0.3212
  174MPD1    C5 2706   0.694   1.045  14.547 -0.2030  0.0692  0.3991
  174MPD1     H 2707   0.380   1.076  14.761  0.4593  0.4614 -0.8818
  174MPD1    H1 2708   0.572   1.094  14.381 -1.4838  0.4535  0.4451
  174MPD1    H2 2709   0.793   0.971  14.713  0.9672 -0.5020 -2.7957
  174MPD1    H3 2710   0.782   1.027  14.486 -1.0641 -0.9290 -0.5430
  174MPD1     N 2711   0.346   1.114  14.491 -0.9607  0.1899  0.2798
  174MPD1    H5 2712   0.355   1.126  14.391  0.1898 -1.8942  0.1344
  174MPD1    N1 2713   0.584   0.973  14.887  0.4101  0.0672 -0.0336
  174MPD1    H6 2714   0.494   0.948  14.927  0.5127 -0.6187 -0.2287
  174MPD1    H7 2715   0.643   0.893  14.909  0.1544  0.2660  1.3812
  175MPD1     C 2716   3.613   2.021  15.170  0.1050  0.5207 -0.5990
  175MPD1    C1 2717   3.496   2.098  15.161 -0.0337 -0.2514  0.4370
  175MPD1    C2 2718   3.435   2.124  15.280  0.7310  0.4123 -0.3434
  175MPD1    C3 2719   3.478   2.064  15.397 -0.7725  0.9978 -0.1807
  175MPD1    C4 2720   3.594   1.988  15.409  0.9268  0.4155  0.1856
  175MPD1    C5 2721   3.659   1.971  15.293 -0.0170  0.1790  0.1024
  175MPD1     H 2722   3.338   2.172  15.278  1.6921  2.3383 -1.1147
  175MPD1    H1 2723   3.620   1.946  15.505 -2.1880  1.1794  1.3941
  175MPD1    H2 2724   3.665   2.003  15.077  1.5715  1.2697  0.0759
  175MPD1    H3 2725   3.745   1.906  15.289 -2.2788 -2.6895 -2.3318
  175MPD1     N 2726   3.414   2.083  15.521  0.2867  0.8773  0.2033
  175MPD1    H5 2727   3.461   2.041  15.601 -1.8085  0.1950  1.0877
  175MPD1    N1 2728   3.457   2.157  15.040 -0.0310  0.0215  0.5621
  175MPD1    H6 2729   3.355   2.160  15.033 -0.1196 -1.5605  1.0637
  175MPD1    H7 2730   3.486   2.102  14.959 -2.0012  3.1961 -2.2827
  176MPD1     C 2731   0.399   4.038  17.114 -1.3648 -0.1242 -0.5613
  176MPD1    C1 2732   0.418   4.150  17.036  0.0082  0.2104  0.4217
  176MPD1    C2 2733   0.394   4.274  17.089 -0.0998 -0.0176  0.4768
  176MPD1    C3 2734   0.379   4.286  17.228 -0.2781  0.1433 -0.9479
  176MPD1    C4 2735   0.358   4.175  17.304 -0.5313 -0.0908  0.1568
  176MPD1    C5 2736   0.373   4.051  17.247 -0.6620  0.3781  0.1770
  176MPD1     H 2737   0.401   4.368  17.035  1.5136 -1.3033 -1.5354
  176MPD1    H1 2738   0.324   4.170  17.407 -0.4900 -0.6002  0.1452
  176MPD1    H2 2739   0.418   3.936  17.082  2.2380  0.1756  0.5936
  176MPD1    H3 2740   0.368   3.964  17.312 -1.1323  0.1734 -0.1361
  176MPD1     N 2741   0.380   4.421  17.281 -0.4182  0.5415  0.4755
  176MPD1    H5 2742   0.368   4.499  17.217 -1.4793 -0.8390 -1.0134
  176MPD1    N1 2743   0.440   4.137  16.899  0.6337 -0.0712  0.0002
  176MPD1    H6 2744   0.371   4.190  16.846  0.1551 -0.3767  0.3219
  176MPD1    H7 2745   0.432   4.037  16.880 -0.2693 -0.0764  0.4194
  177MPD1     C 2746   3.588   4.340  10.415 -0.6298  0.1250 -0.7782
  177MPD1    C1 2747   3.497   4.288  10.504  0.6887 -0.5852  0.3837
  177MPD1    C2 2748   3.379   4.215  10.458 -1.0446  0.5922  0.5208
  177MPD1    C3 2749   3.353   4.200  10.320 -0.0791 -0.7777 -0.8174
  177MPD1    C4 2750   3.443   4.265  10.236 -0.3458 -0.2634 -0.1211
  177MPD1    C5 2751   3.560   4.322  10.280 -0.1067 -0.4493  0.0730
  177MPD1     H 2752   3.317   4.163  10.529  2.4127 -2.5143  1.2975
  177MPD1    H1 2753   3.429   4.282  10.130  0.2490 -0.0686 -0.1708
  177MPD1    H2 2754   3.682   4.389  10.438 -0.8542  1.2644 -2.3486
  177MPD1    H3 2755   3.640   4.348  10.211  0.1325 -1.7361 -0.1349
  177MPD1     N 2756   3.233   4.140  10.273 -0.2791 -0.3257 -0.3752
  177MPD1    H5 2757   3.168   4.100  10.339 -0.0982  1.9886  1.1977
  177MPD1    N1 2758   3.527   4.302  10.643 -0.0995  0.2449  0.1624
  177MPD1    H6 2759   3.446   4.331  10.697 -0.5344 -1.3169  0.3347
  177MPD1    H7 2760   3.608   4.362  10.661 -0.4323  1.2729 -1.7285
  178MPD1     C 2761   1.515   0.435   0.467  0.0907  0.0515  0.1350
  178MPD1    C1 2762   1.386   0.469   0.434 -0.1177 -0.4301  0.0580
  178MPD1    C2 2763   1.350   0.470   0.305  0.0804 -0.2803  0.4701
  178MPD1    C3 2764   1.440   0.457   0.198 -0.2020  0.1832  0.2103
  178MPD1    C4 2765   1.568   0.424   0.228  0.1844 -0.0991  0.1125
  178MPD1    C5 2766   1.602   0.415   0.362  0.0227 -0.2395 -0.0846
  178MPD1     H 2767   1.244   0.477   0.284 -0.1146 -2.3216  0.6958
  178MPD1    H1 2768   1.651   0.401   0.164 -1.5813  1.6947 -2.8339
  178MPD1    H2 2769   1.545   0.426   0.571 -3.2958 -0.4348  1.0762
  178MPD1    H3 2770   1.701   0.380   0.388 -0.3216 -0.0319  1.5381
  178MPD1     N 2771   1.399   0.453   0.059  0.4300 -0.2800  0.7449
  178MPD1    H5 2772   1.475   0.446  17.762  1.5429 -0.8421  2.0794
  178MPD1    N1 2773   1.280   0.467   0.535  0.9500  0.1949 -0.6920
  178MPD1    H6 2774   1.317   0.474   0.630  1.6745  1.5534 -1.0770
  178MPD1    H7 2775   1.213   0.541   0.517  0.7940  0.0797 -0.5883
  179MPD1     C 2776   0.716   3.844  15.786  0.3508 -0.8153  0.0609
  179MPD1    C1 2777   0.686   3.775  15.901 -0.4013 -0.6701 -0.9090
  179MPD1    C2 2778   0.671   3.637  15.880 -0.8983 -0.1497  0.9631
  179MPD1    C3 2779   0.669   3.577  15.756 -0.0626 -0.1048 -0.0888
  179MPD1    C4 2780   0.676   3.660  15.646  0.0587  0.0359  0.2079
  179MPD1    C5 2781   0.708   3.790  15.660 -0.1363 -0.6739 -0.4370
  179MPD1     H 2782   0.648   3.578  15.968 -0.0632 -0.9797  0.6299
  179MPD1    H1 2783   0.675   3.617  15.547 -0.0997  1.6919 -0.5043
  179MPD1    H2 2784   0.741   3.949  15.792  2.5790 -1.2890 -0.5397
  179MPD1    H3 2785   0.728   3.847  15.571  0.8186  1.2627  1.0177
  179MPD1     N 2786   0.657   3.433  15.751 -0.2358  0.2844  0.0215
  179MPD1    H5 2787   0.642   3.390  15.842 -1.2177  0.3573 -0.0991
  179MPD1    N1 2788   0.711   3.828  16.022 -0.4186 -0.0223 -0.1870
  179MPD1    H6 2789   0.710   3.930  16.019 -1.1524 -0.0165  0.2523
  179MPD1    H7 2790   0.640   3.802  16.089  1.2359 -0.1586  1.5322
  180MPD1     C 2791   0.623   0.048  14.926  0.5888 -0.9608  0.1046
  180MPD1    C1 2792   0.657   0.109  14.809 -0.0301 -0.2599 -0.3402
  180MPD1    C2 2793   0.572   0.097  14.702  0.5070 -0.4279  0.5256
  180MPD1    C3 2794   0.452   0.024  14.710 -0.6044 -1.1155  0.6583
  180MPD1    C4 2795   0.426   4.698  14.828 -0.8574 -0.2031 -0.1432
  180MPD1    C5 2796   0.510   4.713  14.932 -0.6366  0.0531 -0.1940
  180MPD1     H 2797   0.606   0.144  14.611 -0.4240 -0.3457  0.2233
  180MPD1    H1 2798   0.331   4.647  14.840 -1.0238  0.0176 -0.5194
  180MPD1    H2 2799   0.691   0.055  15.010 -1.8019  0.6187  1.9218
  180MPD1    H3 2800   0.491   4.656  15.022  1.6041  1.2943  1.0651
  180MPD1     N 2801   0.359   0.027  14.602 -0.0374  0.0037 -0.3227
  180MPD1    H5 2802   0.387   0.077  14.518  0.1641 -1.4511 -1.1315
  180MPD1    N1 2803   0.768   0.197  14.812  0.8201 -0.2760 -0.0902
  180MPD1    H6 2804   0.732   0.292  14.802 -0.8264 -1.1133 -2.1609
  180MPD1    H7 2805   0.813   0.197  14.903 -1.6789 -0.1959  1.1533
  181MPD1     C 2806   1.525   1.324  10.417  0.1950  0.6822  0.0530
  181MPD1    C1 2807   1.575   1.405  10.513  0.1342 -0.6356  0.1452
  181MPD1    C2 2808   1.705   1.435  10.503  0.5081 -0.1451  0.4130
  181MPD1    C3 2809   1.780   1.393  10.401  0.3967 -0.0610  0.3714
  181MPD1    C4 2810   1.728   1.312  10.310  0.1276  0.6390 -0.2340
  181MPD1    C5 2811   1.601   1.286  10.311 -0.2197  0.2981  0.3675
  181MPD1     H 2812   1.755   1.484  10.586 -0.3867  0.8697  0.3400
  181MPD1    H1 2813   1.784   1.281  10.222  0.4676 -0.2471  0.2902
  181MPD1    H2 2814   1.424   1.284  10.421 -0.1183  1.3482 -1.2161
  181MPD1    H3 2815   1.566   1.227  10.227  2.7992  1.5583 -1.7625
  181MPD1     N 2816   1.906   1.440  10.376  0.5159  0.3104 -0.3730
  181MPD1    H5 2817   1.957   1.407  10.295 -1.8226  0.2399 -1.8179
  181MPD1    N1 2818   1.487   1.437  10.619  0.1757 -0.0010  0.0118
  181MPD1    H6 2819   1.392   1.412  10.592  0.1977 -1.0522  0.9063
  181MPD1    H7 2820   1.492   1.534  10.650  2.3780 -0.4107  0.9977
  182MPD1     C 2821   3.501   0.937   1.495 -0.2571 -0.7415 -0.3522
  182MPD1    C1 2822   3.516   0.846   1.391 -0.2396 -0.3031 -1.0333
  182MPD1    C2 2823   3.409   0.848   1.308  0.0917  0.1124 -0.2991
  182MPD1    C3 2824   3.299   0.933   1.317  0.5531  0.2100 -0.0575
  182MPD1    C4 2825   3.296   1.023   1.417 -0.3307  0.1149  0.3446
  182MPD1    C5 2826   3.399   1.021   1.512  0.5775  0.1514  0.6851
  182MPD1     H 2827   3.406   0.771   1.232 -0.5486  1.2825 -1.4613
  182MPD1    H1 2828   3.214   1.093   1.431 -2.8945 -2.8125 -0.0594
  182MPD1    H2 2829   3.582   0.942   1.567 -1.4508 -1.9786  1.0696
  182MPD1    H3 2830   3.395   1.096   1.590  0.6201 -0.5245  1.3279
  182MPD1     N 2831   3.190   0.936   1.233  0.3223 -0.4656  0.5445
  182MPD1    H5 2832   3.125   1.013   1.246  1.8448  0.2350  4.0115
  182MPD1    N1 2833   3.627   0.762   1.378 -0.5050 -0.8115 -0.6754
  182MPD1    H6 2834   3.668   0.767   1.285  1.0598 -1.6538 -0.0311
  182MPD1    H7 2835   3.698   0.801   1.440 -0.2309 -1.9702 -0.2618
  183MPD1     C 2836   2.339   0.486   9.325 -0.1019 -0.4196 -0.4936
  183MPD1    C1 2837   2.280   0.612   9.325  0.3041  0.2695 -0.1632
  183MPD1    C2 2838   2.363   0.709   9.378  0.5037  0.9889  0.4575
  183MPD1    C3 2839   2.490   0.682   9.439 -0.9020  0.2181  0.3678
  183MPD1    C4 2840   2.546   0.554   9.431  0.0506 -0.4545 -0.6332
  183MPD1    C5 2841   2.461   0.459   9.380  0.1732 -0.1919  0.5909
  183MPD1     H 2842   2.326   0.811   9.389 -1.4651  0.3986 -0.6397
  183MPD1    H1 2843   2.638   0.522   9.477  0.3171 -0.3494 -1.0917
  183MPD1    H2 2844   2.299   0.403   9.268 -0.7449 -0.1179 -0.4812
  183MPD1    H3 2845   2.499   0.358   9.369  0.3973 -0.0541  0.0933
  183MPD1     N 2846   2.554   0.798   9.497  0.2985  0.3031 -0.1034
  183MPD1    H5 2847   2.513   0.889   9.480  0.9850  0.4067 -1.2202
  183MPD1    N1 2848   2.165   0.645   9.249 -0.7256  0.0365 -0.2196
  183MPD1    H6 2849   2.094   0.572   9.239 -0.9851  0.3832 -0.9434
  183MPD1    H7 2850   2.120   0.724   9.294 -0.7285  0.5743 -1.1552
  184MPD1     C 2851   1.702   3.998  11.133 -0.0013  0.0420 -0.5644
  184MPD1    C1 2852   1.604   3.923  11.079 -0.4133 -0.2043  0.0038
  184MPD1    C2 2853   1.633   3.851  10.962  0.6858  0.0134  0.1430
  184MPD1    C3 2854   1.759   3.846  10.910 -0.9558 -0.4867 -0.3599
  184MPD1    C4 2855   1.860   3.902  10.978  0.2274 -0.1828  0.6393
  184MPD1    C5 2856   1.824   3.988  11.079 -0.1057  0.3794  0.1991
  184MPD1     H 2857   1.551   3.812  10.903  0.8719 -1.6768  0.9900
  184MPD1    H1 2858   1.966   3.892  10.956  0.4612 -1.6705  2.4152
  184MPD1    H2 2859   1.678   4.075  11.206 -1.2873 -0.1493 -0.7837
  184MPD1    H3 2860   1.902   4.054  11.113 -0.2811  1.1740 -0.9600
  184MPD1     N 2861   1.791   3.793  10.785 -0.3991 -0.2515 -0.2390
  184MPD1    H5 2862   1.885   3.815  10.752  0.0695  0.2357  1.4460
  184MPD1    N1 2863   1.468   3.938  11.111  0.5542 -0.6846  0.3513
  184MPD1    H6 2864   1.419   3.851  11.091 -0.5164  0.1636 -0.7210
  184MPD1    H7 2865   1.447   3.969  11.206  1.3436  1.3329 -0.1478
  185MPD1     C 2866   1.169   3.617  10.086  0.0391  0.4965  0.6441
  185MPD1    C1 2867   1.282   3.567  10.019  0.2022  0.2419 -0.7116
  185MPD1    C2 2868   1.408   3.581  10.080  0.6334  0.1749 -0.0601
  185MPD1    C3 2869   1.416   3.644  10.203 -0.3268 -0.4929 -0.1550
  185MPD1    C4 2870   1.304   3.698  10.253  0.1821 -0.5283 -0.4760
  185MPD1    C5 2871   1.182   3.684  10.204 -0.2514  0.5203  0.1408
  185MPD1     H 2872   1.493   3.529  10.038 -0.4891  0.1676 -2.3111
  185MPD1    H1 2873   1.309   3.768  10.336  2.1108  0.8271 -1.7253
  185MPD1    H2 2874   1.067   3.599  10.054 -0.0640 -2.3342  2.6695
  185MPD1    H3 2875   1.099   3.738  10.249 -0.4529 -0.7189  1.2583
  185MPD1     N 2876   1.541   3.664  10.271  0.4729 -0.2892 -0.1458
  185MPD1    H5 2877   1.532   3.720  10.355 -2.6525 -1.8135  0.5767
  185MPD1    N1 2878   1.256   3.479   9.914 -0.1439 -0.4575 -0.8524
  185MPD1    H6 2879   1.178   3.509   9.857  0.4953  0.5312 -1.2107
  185MPD1    H7 2880   1.347   3.467   9.869  0.4947 -2.6190  1.0033
  186MPD1     C 2881   1.174   3.204  15.900 -0.3754 -0.0419 -0.1033
  186MPD1    C1 2882   1.070   3.180  15.988 -0.0220 -0.0242  0.2090
  186MPD1    C2 2883   1.023   3.286  16.064 -0.2111 -0.3675  0.3205
  186MPD1    C3 2884   1.060   3.416  16.025 -0.4045  0.2231 -0.4637
  186MPD1    C4 2885   1.150   3.436  15.923  0.2266 -0.4688  0.5093
  186MPD1    C5 2886   1.210   3.334  15.862  0.6073 -0.3907 -0.5880
  186MPD1     H 2887   0.948   3.269  16.140  0.2260  3.9372  1.7057
  186MPD1    H1 2888   1.168   3.540  15.900 -0.0558 -1.2133 -3.0488
  186MPD1    H2 2889   1.223   3.121  15.850 -0.0884 -0.1558  0.3584
  186MPD1    H3 2890   1.283   3.347  15.783 -0.1520  0.5259 -1.1399
  186MPD1     N 2891   1.007   3.532  16.079 -0.2064  0.3131 -0.2019
  186MPD1    H5 2892   1.050   3.618  16.046  2.1971 -0.9353 -0.3870
  186MPD1    N1 2893   1.050   3.041  16.022  0.0329  0.4778  0.5294
  186MPD1    H6 2894   1.087   2.971  15.958  0.0481  1.8460 -0.9773
  186MPD1    H7 2895   0.950   3.024  16.014  0.5547 -2.2242 -0.2258
  187MPD1     C 2896   0.845   0.689  17.695  0.4985  0.1636 -0.1883
  187MPD1    C1 2897   0.726   0.637  17.740  0.3739  0.8945  0.3425
  187MPD1    C2 2898   0.612   0.672  17.673 -0.6984 -0.4569 -0.1418
  187MPD1    C3 2899   0.611   0.767  17.574 -0.5023  0.0706 -0.7876
  187MPD1    C4 2900   0.730   0.831  17.540  0.6502  0.2520 -0.2685
  187MPD1    C5 2901   0.841   0.780  17.585  0.8520 -0.4918  0.1034
  187MPD1     H 2902   0.521   0.619  17.699  0.5116 -2.6567 -0.3568
  187MPD1    H1 2903   0.737   0.900  17.456  1.0955 -1.4036 -1.5848
  187MPD1    H2 2904   0.942   0.661  17.733  1.1717  1.4202 -0.9955
  187MPD1    H3 2905   0.936   0.828  17.564  0.5540  0.1224  0.1713
  187MPD1     N 2906   0.489   0.799  17.505 -0.1288 -0.0874 -0.2591
  187MPD1    H5 2907   0.498   0.871  17.434 -1.4850 -1.3940 -1.7434
  187MPD1    N1 2908   0.721   0.537   0.073 -0.0912 -0.1391 -0.1511
  187MPD1    H6 2909   0.803   0.550   0.131 -0.5400 -1.9017  0.8639
  187MPD1    H7 2910   0.630   0.539   0.119 -1.4860 -0.5408 -2.8423
  188MPD1     C 2911   0.203   0.538   9.199  0.0728  0.0853 -0.9055
  188MPD1    C1 2912   0.089   0.475   9.173 -0.1602 -0.2844  0.2695
  188MPD1    C2 2913   0.036   0.390   9.270 -0.0790  0.2930 -0.4673
  188MPD1    C3 2914   0.110   0.365   9.385  0.0965  0.4885  0.8906
  188MPD1    C4 2915   0.243   0.413   9.397 -0.2885 -0.0807  0.1800
  188MPD1    C5 2916   0.279   0.507   9.306  0.4658 -0.2720  0.2655
  188MPD1     H 2917   4.688   0.337   9.247  0.4624  0.0913 -2.1901
  188MPD1    H1 2918   0.296   0.388   9.488 -0.6464 -0.5192  0.2684
  188MPD1    H2 2919   0.247   0.599   9.121 -0.2341  0.6288 -0.6458
  188MPD1    H3 2920   0.376   0.553   9.322  0.5486 -0.4884  0.3912
  188MPD1     N 2921   0.066   0.272   9.482 -0.4794  0.1970 -0.4969
  188MPD1    H5 2922   0.135   0.241   9.550 -1.8060  0.4118  0.9536
  188MPD1    N1 2923   0.029   0.502   9.046  0.4673 -0.2036  0.0480
  188MPD1    H6 2924   4.675   0.473   9.032  0.9257 -1.8513  0.3169
  188MPD1    H7 2925   0.037   0.601   9.021 -2.0925 -0.0552 -0.2044
  189MPD1     C 2926   2.355   1.975   0.551  0.2341  0.5126 -0.0496
  189MPD1    C1 2927   2.282   1.865   0.586 -0.6127  0.2721 -0.0428
  189MPD1    C2 2928   2.149   1.862   0.550  0.2234 -0.5711 -0.4653
  189MPD1    C3 2929   2.087   1.964   0.496  0.6080  0.6291 -0.5331
  189MPD1    C4 2930   2.161   2.070   0.459  0.4815 -0.0920 -0.0187
  189MPD1    C5 2931   2.296   2.072   0.484  0.2787 -0.3419 -0.5298
  189MPD1     H 2932   2.096   1.768   0.564 -0.7365 -0.0133 -0.3665
  189MPD1    H1 2933   2.121   2.155   0.405  0.1867 -0.3804 -0.2578
  189MPD1    H2 2934   2.461   1.983   0.573  0.5490  1.4295 -1.8669
  189MPD1    H3 2935   2.356   2.155   0.450  0.7969 -1.1082 -1.4857
  189MPD1     N 2936   1.947   1.963   0.485  0.5816  0.0414  0.2564
  189MPD1    H5 2937   1.895   1.885   0.523 -0.5015 -0.2250 -1.7678
  189MPD1    N1 2938   2.332   1.746   0.637 -0.5248  0.2510  0.1771
  189MPD1    H6 2939   2.409   1.759   0.703  0.9568 -0.2653 -1.4637
  189MPD1    H7 2940   2.252   1.695   0.673 -1.3873 -0.4478 -2.7204
  190MPD1     C 2941   0.399   4.276  15.512  0.2050 -0.5324  0.5104
  190MPD1    C1 2942   0.530   4.277  15.474  0.2217 -0.3535 -0.2776
  190MPD1    C2 2943   0.606   4.393  15.499  0.5637 -0.7079  0.5963
  190MPD1    C3 2944   0.566   4.477  15.606  0.2489  0.3244 -0.5764
  190MPD1    C4 2945   0.436   4.472  15.655  0.0763 -0.1592 -0.4624
  190MPD1    C5 2946   0.352   4.367  15.606 -0.7244 -0.2809  0.5740
  190MPD1     H 2947   0.704   4.416  15.459 -0.0067 -0.7501 -0.8312
  190MPD1    H1 2948   0.388   4.543  15.721 -1.1578 -0.6247 -0.8548
  190MPD1    H2 2949   0.339   4.188  15.492 -1.9057  1.3400 -1.4389
  190MPD1    H3 2950   0.247   4.360  15.630 -1.1365 -0.8990 -1.4577
  190MPD1     N 2951   0.662   4.586  15.633  0.1155  0.4131 -0.1124
  190MPD1    H5 2952   0.751   4.584  15.583  0.1522 -0.2117 -0.0224
  190MPD1    N1 2953   0.571   4.183  15.376 -0.8309 -0.6651 -0.3401
  190MPD1    H6 2954   0.673   4.177  15.370 -0.8927 -1.6707 -0.3330
  190MPD1    H7 2955   0.520   4.096  15.384  2.0586 -2.4747 -1.3275
  191MPD1     C 2956   4.004   2.255  12.779  0.1520 -0.6683 -0.1964
  191MPD1    C1 2957   4.036   2.373  12.719 -0.3969 -0.2298  0.6099
  191MPD1    C2 2958   4.159   2.375  12.661  0.3794 -0.1135  0.0245
  191MPD1    C3 2959   4.237   2.260  12.649  0.5148 -0.8015 -0.2228
  191MPD1    C4 2960   4.205   2.143  12.713 -0.2633 -0.0351  0.5913
  191MPD1    C5 2961   4.085   2.145  12.773 -0.1800  0.1249  0.6084
  191MPD1     H 2962   4.194   2.468  12.619 -0.2322  0.2069  0.2237
  191MPD1    H1 2963   4.268   2.056  12.703 -0.3789 -0.1070  0.4984
  191MPD1    H2 2964   3.904   2.244  12.819  0.8023  0.4231  1.7180
  191MPD1    H3 2965   4.051   2.056  12.825 -4.0166  1.1523 -0.1342
  191MPD1     N 2966   4.341   2.271  12.562 -0.0054  0.1305  0.1468
  191MPD1    H5 2967   4.352   2.365  12.526 -1.8208 -0.1046 -1.0260
  191MPD1    N1 2968   3.965   2.495  12.732  0.4007  0.4192  0.2932
  191MPD1    H6 2969   3.865   2.477  12.739  0.3732  0.8699  1.0216
  191MPD1    H7 2970   3.971   2.540  12.641  1.6673 -1.6466 -0.6445
  192MPD1     C 2971   4.640   2.785  11.761  0.7394  0.2857  0.4432
  192MPD1    C1 2972   4.586   2.820  11.888 -0.0422 -0.5922 -1.2098
  192MPD1    C2 2973   4.539   2.710  11.962 -0.3642 -0.1551  0.2962
  192MPD1    C3 2974   4.580   2.582  11.930  0.0913  0.7192 -0.5850
  192MPD1    C4 2975   4.637   2.551  11.809  0.6889  0.5323  0.0274
  192MPD1    C5 2976   4.670   2.656  11.725  0.1381  0.4530  0.0509
  192MPD1     H 2977   4.484   2.742  12.049  2.5356 -0.0268  2.0682
  192MPD1    H1 2978   4.669   2.453  11.775 -2.7570 -0.4495 -0.4769
  192MPD1    H2 2979   4.652   2.862  11.685 -0.1495 -0.1266 -0.1122
  192MPD1    H3 2980   4.717   2.645  11.629  0.3048 -0.0962  0.1954
  192MPD1     N 2981   4.563   2.478  12.019 -0.5038  0.1406  0.1105
  192MPD1    H5 2982   4.606   2.391  11.988  0.4132  1.0614 -1.1666
  192MPD1    N1 2983   4.542   2.956  11.917 -0.1800  0.2527  0.0892
  192MPD1    H6 2984   4.609   3.029  11.893  1.7943 -1.1728  1.2161
  192MPD1    H7 2985   4.513   2.968  12.014  2.0835 -2.4299  1.0986
  193MPD1     C 2986   4.160   1.926  16.408 -0.0397  0.2964 -0.4369
  193MPD1    C1 2987   4.273   1.849  16.428  0.0834  0.2603 -0.5844
  193MPD1    C2 2988   4.392   1.913  16.449 -0.1720 -0.3696  0.4849
  193MPD1    C3 2989   4.393   2.049  16.472 -1.1945  0.0572 -0.7416
  193MPD1    C4 2990   4.270   2.119  16.457  0.0620  0.2729 -0.2494
  193MPD1    C5 2991   4.154   2.056  16.425  0.0119  0.1515  0.5387
  193MPD1     H 2992   4.479   1.849  16.441  1.3754  1.5411  1.8180
  193MPD1    H1 2993   4.269   2.224  16.485  0.0740 -0.3862  2.2185
  193MPD1    H2 2994   4.066   1.882  16.376 -1.0517  0.0755  2.8681
  193MPD1    H3 2995   4.065   2.115  16.405 -0.5572 -0.5463  1.0294
  193MPD1     N 2996   4.508   2.127  16.500  0.3169 -0.0806 -0.4604
  193MPD1    H5 2997   4.483   2.222  16.528  0.0374 -0.2359 -0.1766
  193MPD1    N1 2998   4.266   1.713  16.394 -0.3174 -0.6609 -0.7215
  193MPD1    H6 2999   4.328   1.654  16.450 -1.5226 -1.4563 -0.2158
  193MPD1    H7 3000   4.171   1.681  16.412 -0.4233 -0.5907 -1.1531
  194MPD1     C 3001   1.924   4.204  16.952 -0.6866  0.1235 -0.0773
  194MPD1    C1 3002   1.887   4.125  17.060  0.1815 -0.0286 -0.7495
  194MPD1    C2 3003   1.944   4.005  17.077  0.0645  0.2013 -0.6848
  194MPD1    C3 3004   2.035   3.953  16.983  0.2584  0.1565  0.0411
  194MPD1    C4 3005   2.066   4.026  16.871 -0.7259 -0.0129 -0.1620
  194MPD1    C5 3006   2.007   4.154  16.858 -0.0633 -0.3146  0.1258
  194MPD1     H 3007   1.908   3.942  17.157 -0.3385  0.1638 -0.8972
  194MPD1    H1 3008   2.123   3.983  16.790 -1.7614  1.2178 -1.5329
  194MPD1    H2 3009   1.886   4.303  16.930  1.2363  0.3110 -2.6923
  194MPD1    H3 3010   2.028   4.215  16.770 -1.2149 -0.4112 -0.2104
  194MPD1     N 3011   2.089   3.825  16.983 -0.7075 -0.3824 -0.1681
  194MPD1    H5 3012   2.145   3.804  16.901  0.5433  1.4576  0.2170
  194MPD1    N1 3013   1.798   4.187  17.157  0.6236  0.2124  0.3101
  194MPD1    H6 3014   1.753   4.273  17.124  0.3989  0.6047  1.6391
  194MPD1    H7 3015   1.733   4.125  17.204  0.3364 -0.1072 -0.5049
  195MPD1     C 3016   4.492   1.609  17.554  0.4862  0.9929  0.2427
  195MPD1    C1 3017   4.400   1.563  17.645 -0.1728  0.1055  0.0158
  195MPD1    C2 3018   4.433   1.461  17.730 -0.1891  0.6310 -0.0546
  195MPD1    C3 3019   4.550   1.390  17.703  0.0598 -0.5897  0.3965
  195MPD1    C4 3020   4.639   1.434  17.612  0.1060 -0.1789  1.1471
  195MPD1    C5 3021   4.612   1.544  17.537 -0.6906  0.9648  0.4896
  195MPD1     H 3022   4.369   1.434   0.044  0.7375  1.8170  1.0360
  195MPD1    H1 3023   4.733   1.381  17.602  0.4789  1.0324 -1.6388
  195MPD1    H2 3024   4.472   1.694  17.490 -3.3423 -1.0946 -1.2926
  195MPD1    H3 3025   4.688   1.593  17.478 -0.4681  1.6026  1.3051
  195MPD1     N 3026   4.579   1.268   0.003  0.3660 -0.1469 -0.3691
  195MPD1    H5 3027   4.664   1.219  17.748  0.5680 -0.4958  1.0273
  195MPD1    N1 3028   4.289   1.634  17.668 -0.3557  0.3666  0.0577
  195MPD1    H6 3029   4.210   1.572  17.686 -0.7814  1.6769  2.7429
  195MPD1    H7 3030   4.261   1.680  17.582 -0.1752  0.5349  0.0913
  196MPD1     C 3031   3.224   4.583   0.384  1.2212  0.4939  0.0354
  196MPD1    C1 3032   3.212   4.689   0.298  0.3366 -0.7539 -0.8826
  196MPD1    C2 3033   3.259   0.070   0.334  0.4056  0.0317 -0.9379
  196MPD1    C3 3034   3.330   0.086   0.454 -0.0211  0.0769 -0.2917
  196MPD1    C4 3035   3.330   4.721   0.539 -0.1007  0.2018 -0.1588
  196MPD1    C5 3036   3.272   4.603   0.512 -0.4989 -0.7071 -0.0751
  196MPD1     H 3037   3.247   0.162   0.277 -1.8114  0.3813  0.0887
  196MPD1    H1 3038   3.374   4.724   0.638  0.9854 -0.6673 -0.6205
  196MPD1    H2 3039   3.195   4.484   0.352  0.3590  0.9859 -0.7008
  196MPD1    H3 3040   3.281   4.522   0.584 -0.5227  0.7991  1.6109
  196MPD1     N 3041   3.400   0.198   0.500  0.0777  0.5455  0.9582
  196MPD1    H5 3042   3.442   0.195   0.592  0.2968  0.7257  0.8620
  196MPD1    N1 3043   3.175   4.664   0.165 -0.1644 -0.0993 -0.5207
  196MPD1    H6 3044   3.092   4.605   0.174  1.0049 -1.5273  0.9627
  196MPD1    H7 3045   3.148   0.006   0.117 -1.6764  0.7803  1.9004
  197MPD1     C 3046   3.177   2.038  17.453  0.0313 -0.0297 -0.5530
  197MPD1    C1 3047   3.292   2.053  17.521  0.9926 -0.1146  1.0114
  197MPD1    C2 3048   3.388   2.139  17.468 -0.3317  0.0486 -0.6898
  197MPD1    C3 3049   3.366   2.213  17.349 -0.2646  0.5200 -0.0292
  197MPD1    C4 3050   3.247   2.184  17.282 -0.2508  0.1580  0.2797
  197MPD1    C5 3051   3.157   2.096  17.336  0.3701 -0.3789  0.2967
  197MPD1     H 3052   3.473   2.150  17.534 -0.3486 -0.4576 -0.5833
  197MPD1    H1 3053   3.224   2.236  17.190  0.8598 -0.2301 -0.2171
  197MPD1    H2 3054   3.097   1.974  17.488 -0.5791  2.8150  3.2803
  197MPD1    H3 3055   3.062   2.072  17.289  1.7964 -1.2409 -2.1562
  197MPD1     N 3056   3.451   2.309  17.285  0.4203  0.0114 -0.0693
  197MPD1    H5 3057   3.433   2.352  17.195 -1.2789 -0.2613  0.1261
  197MPD1    N1 3058   3.314   1.988  17.645  0.4468  0.2666  0.0622
  197MPD1    H6 3059   3.274   1.896  17.655 -2.0932  1.6723  2.8575
  197MPD1    H7 3060   3.412   1.975  17.670  1.2086  0.8480 -2.5247
  198MPD1     C 3061   4.669   0.451  15.198  0.0246 -0.6462  0.1949
  198MPD1    C1 3062   4.666   0.424  15.332 -0.7911 -1.0484 -0.1033
  198MPD1    C2 3063   4.694   0.534  15.417  0.0171  0.2332  0.3178
  198MPD1    C3 3064   4.728   0.655  15.362  0.2415  0.0786  0.9010
  198MPD1    C4 3065   4.736   0.675  15.223  0.6301  0.1772 -1.0435
  198MPD1    C5 3066   4.694   0.568  15.147  0.2590 -0.1158  0.2319
  198MPD1     H 3067   4.691   0.522  15.524 -0.3135  1.7784  0.4775
  198MPD1    H1 3068   0.018   0.768  15.173 -0.1856  0.8218 -0.2492
  198MPD1    H2 3069   4.644   0.374  15.125  0.3971  2.2368 -2.9829
  198MPD1    H3 3070   4.675   0.586  15.042 -0.0723 -1.3837  0.0855
  198MPD1     N 3071   0.032   0.754  15.454  0.4289 -0.3188  0.2189
  198MPD1    H5 3072   0.047   0.727  15.550 -0.1559 -2.2946 -0.2390
  198MPD1    N1 3073   4.637   0.299  15.392 -0.2568  0.2001  0.2428
  198MPD1    H6 3074   4.584   0.304  15.478 -1.2954 -1.6824 -0.2857
  198MPD1    H7 3075   4.579   0.248  15.325  1.8484 -1.1113 -0.6029
  199MPD1     C 3076   3.154   2.237   9.818  0.7480 -0.4905  0.2600
  199MPD1    C1 3077   3.098   2.338   9.905  0.6421 -0.7025  0.0431
  199MPD1    C2 3078   2.968   2.319   9.943 -0.6669 -0.0203 -1.0212
  199MPD1    C3 3079   2.897   2.206   9.919 -0.1290  0.3241  0.3122
  199MPD1    C4 3080   2.961   2.097   9.861 -0.2284  0.2699 -0.2067
  199MPD1    C5 3081   3.085   2.118   9.804 -0.1659  0.2280 -0.0119
  199MPD1     H 3082   2.918   2.404   9.989  0.8680  1.5366 -2.2417
  199MPD1    H1 3083   2.904   2.009   9.834 -1.2679  0.7723  0.3594
  199MPD1    H2 3084   3.248   2.234   9.765  0.0074  0.6026 -1.1222
  199MPD1    H3 3085   3.125   2.033   9.749  0.0544  0.8415 -0.8085
  199MPD1     N 3086   2.758   2.196   9.929  0.6175 -0.6225  0.3916
  199MPD1    H5 3087   2.721   2.107   9.897  2.1629  0.0708 -3.3158
  199MPD1    N1 3088   3.152   2.461   9.906  0.2176  0.2675  0.3479
  199MPD1    H6 3089   3.253   2.470   9.896  0.5225 -1.8328  1.5956
  199MPD1    H7 3090   3.131   2.508   9.994  2.2200  1.4434  0.2057
  200MPD1     C 3091   1.313   2.263  15.299  0.2250 -1.0660 -0.2562
  200MPD1    C1 3092   1.318   2.245  15.164  0.6289  0.5550 -0.5026
  200MPD1    C2 3093   1.403   2.319  15.091 -0.8033 -0.7097  0.1536
  200MPD1    C3 3094   1.505   2.397  15.145  0.1328 -0.2926  0.1019
  200MPD1    C4 3095   1.525   2.384  15.277  0.9220  0.4043 -0.6226
  200MPD1    C5 3096   1.421   2.329  15.352  0.5499 -0.5985  0.3842
  200MPD1     H 3097   1.387   2.318  14.984  0.1193 -2.1971  0.0277
  200MPD1    H1 3098   1.609   2.435  15.324  0.2009 -0.7274  1.8703
  200MPD1    H2 3099   1.243   2.211  15.364  1.8484 -2.7210  0.1930
  200MPD1    H3 3100   1.424   2.331  15.460  3.1669  2.1386  0.2280
  200MPD1     N 3101   1.591   2.460  15.054 -0.2307 -0.6863 -0.5726
  200MPD1    H5 3102   1.559   2.458  14.958  2.3717 -0.7807 -1.4572
  200MPD1    N1 3103   1.221   2.160  15.105 -0.1160  0.0257 -0.1703
  200MPD1    H6 3104   1.192   2.076  15.156 -0.1504  0.7480  0.9940
  200MPD1    H7 3105   1.249   2.123  15.014  0.6091 -0.3300  0.1946
  201MPD1     C 3106   3.318   1.424  13.623 -0.2864 -0.5470  0.7345
  201MPD1    C1 3107   3.234   1.312  13.644 -0.6372  0.8476  0.2692
  201MPD1    C2 3108   3.292   1.186  13.639  0.1050  0.0165  0.5162
  201MPD1    C3 3109   3.425   1.168  13.623 -0.2739  0.7178 -0.4459
  201MPD1    C4 3110   3.506   1.283  13.611 -0.1618  0.1126  0.4823
  201MPD1    C5 3111   3.455   1.410  13.616  0.2150  0.4577  0.0896
  201MPD1     H 3112   3.229   1.099  13.652 -3.6117  2.6378  0.4151
  201MPD1    H1 3113   3.614   1.270  13.609 -0.4837 -2.9183  2.6331
  201MPD1    H2 3114   3.283   1.526  13.613 -0.0814 -0.5566 -0.0594
  201MPD1    H3 3115   3.511   1.502  13.604 -0.1787  0.9184  1.7944
  201MPD1     N 3116   3.477   1.037  13.613 -0.2135  0.0739  0.1228
  201MPD1    H5 3117   3.407   0.964  13.617  0.3558 -0.5582 -1.3584
  201MPD1    N1 3118   3.105   1.336  13.697 -0.2613  0.0346  0.0015
  201MPD1    H6 3119   3.064   1.423  13.666  0.9092  1.4256  2.3322
  201MPD1    H7 3120   3.045   1.260  13.666 -1.4195  1.5429 -1.3716
  202MPD1     C 3121   3.154   4.541   9.375 -0.0386 -0.5336  0.7087
  202MPD1    C1 3122   3.088   4.616   9.469 -0.0426 -0.3774  0.0375
  202MPD1    C2 3123   3.160   4.725   9.519 -0.1013  0.8878 -0.4578
  202MPD1    C3 3124   3.295   4.736   9.513  0.4537 -0.1318  0.0968
  202MPD1    C4 3125   3.354   4.657   9.422 -1.0343 -0.0865  0.4352
  202MPD1    C5 3126   3.284   4.560   9.350  0.1736  0.1700  0.0614
  202MPD1     H 3127   3.102   0.043   9.587  0.4651 -0.3195  1.1036
  202MPD1    H1 3128   3.460   4.676   9.409 -1.3057 -0.7129 -2.6183
  202MPD1    H2 3129   3.098   4.469   9.317 -0.3662 -0.9651  1.5507
  202MPD1    H3 3130   3.329   4.500   9.272  1.5132  0.2825  0.7393
  202MPD1     N 3131   3.385   0.068   9.592 -0.1593  0.4143  0.2659
  202MPD1    H5 3132   3.479   0.031   9.602  0.6774  2.8997  1.5524
  202MPD1    N1 3133   2.950   4.614   9.450  0.6380  0.5236 -0.1927
  202MPD1    H6 3134   2.903   4.634   9.538 -0.6300  0.8091 -0.9395
  202MPD1    H7 3135   2.924   4.521   9.416  1.0814  0.1046  0.6073
  203MPD1     C 3136   2.532   1.896  12.706  0.6683 -0.6638  0.5060
  203MPD1    C1 3137   2.427   1.814  12.669  0.2284  0.0254 -0.1732
  203MPD1    C2 3138   2.447   1.677  12.697  0.1371  0.7715  0.5835
  203MPD1    C3 3139   2.569   1.618  12.723 -0.3740  0.1096 -0.2955
  203MPD1    C4 3140   2.674   1.700  12.750  0.9755  0.0192 -0.2242
  203MPD1    C5 3141   2.651   1.840  12.739  0.0501 -0.3153  0.1415
  203MPD1     H 3142   2.365   1.611  12.672  0.3236  0.7153  0.1120
  203MPD1    H1 3143   2.775   1.671  12.777 -0.4770 -3.9213  1.0445
  203MPD1    H2 3144   2.527   2.003  12.692 -1.2190 -1.1996 -2.7091
  203MPD1    H3 3145   2.734   1.906  12.758 -0.0281 -0.4959  1.0920
  203MPD1     N 3146   2.577   1.478  12.751 -0.1305 -0.0360  0.9941
  203MPD1    H5 3147   2.491   1.426  12.766 -0.5971  0.4301 -0.1157
  203MPD1    N1 3148   2.300   1.875  12.649  1.4157 -0.8808  0.3252
  203MPD1    H6 3149   2.232   1.810  12.608  0.8345  0.0931 -0.2445
  203MPD1    H7 3150   2.301   1.962  12.598  0.7813 -0.0947  1.6667
  204MPD1     C 3151   1.734   2.920  17.651  0.0121  0.0714  0.4016
  204MPD1    C1 3152   1.742   2.810  17.734 -0.1431  0.1097  0.1157
  204MPD1    C2 3153   1.866   2.737  17.735  0.7440 -0.2203 -0.3275
  204MPD1    C3 3154   1.975   2.782  17.660  0.7002 -0.2615  0.1689
  204MPD1    C4 3155   1.958   2.883  17.575  0.1013 -0.2093 -0.1323
  204MPD1    C5 3156   1.837   2.950  17.571 -0.2085 -0.4833  0.4078
  204MPD1     H 3157   1.876   2.649   0.028 -0.5970 -0.2944 -0.2323
  204MPD1    H1 3158   2.036   2.933  17.519  1.4038 -1.2650  0.7447
  204MPD1    H2 3159   1.640   2.974  17.648  0.6585  1.0701 -1.6313
  204MPD1    H3 3160   1.823   3.021  17.491  4.0564  1.8424  1.7357
  204MPD1     N 3161   2.101   2.718  17.653  0.0620  0.5200  0.0136
  204MPD1    H5 3162   2.165   2.740  17.577 -0.8822 -0.5611 -1.0910
  204MPD1    N1 3163   1.634   2.751   0.035  0.3545 -0.1321 -0.7003
  204MPD1    H6 3164   1.558   2.810   0.066  2.0845  1.7151  0.0694
  204MPD1    H7 3165   1.655   2.683   0.108 -2.3159 -1.8988 -1.5545
  205MPD1     C 3166   3.117   1.026   0.072  0.5015  0.8209  0.1561
  205MPD1    C1 3167   3.109   1.140  17.763 -0.3449 -0.2255 -0.3828
  205MPD1    C2 3168   2.985   1.202  17.761 -0.3147  0.8106 -0.5936
  205MPD1    C3 3169   2.873   1.152   0.052 -0.0249 -0.7420  0.3942
  205MPD1    C4 3170   2.883   1.036   0.121 -0.6800  0.1162 -0.0940
  205MPD1    C5 3171   3.004   0.971   0.130  0.5321 -0.0196 -0.4491
  205MPD1     H 3172   2.964   1.287  17.697  0.3376 -0.0977 -2.0201
  205MPD1    H1 3173   2.798   0.985   0.165 -0.0200  0.4342  1.5191
  205MPD1    H2 3174   3.199   0.957   0.081  1.2131  1.2800 -2.9595
  205MPD1    H3 3175   3.013   0.873   0.176  1.1536  0.5498  0.6348
  205MPD1     N 3176   2.747   1.222   0.044  0.6655 -0.2158  0.4687
  205MPD1    H5 3177   2.660   1.184   0.080  0.6822 -0.0443  0.6889
  205MPD1    N1 3178   3.225   1.201  17.709 -0.1213  0.4900 -0.2894
  205MPD1    H6 3179   3.296   1.128  17.698  0.3536  0.5905  2.1231
  205MPD1    H7 3180   3.197   1.243  17.622 -2.6808  1.1332  0.8516
  206MPD1     C 3181   2.485   3.836  16.927 -0.2560 -0.3082 -0.1793
  206MPD1    C1 3182   2.437   3.964  16.932 -0.0509  0.3190  0.2113
  206MPD1    C2 3183   2.405   4.034  16.819  0.7355  0.3790  0.5500
  206MPD1    C3 3184   2.411   3.981  16.693  0.2311  0.0229 -0.1895
  206MPD1    C4 3185   2.455   3.850  16.684  0.3490 -0.4478  0.4145
  206MPD1    C5 3186   2.484   3.780  16.803 -0.2234 -0.3559  0.0729
  206MPD1     H 3187   2.365   4.134  16.835 -1.5479 -0.4180 -0.1683
  206MPD1    H1 3188   2.442   3.781  16.602 -1.1615 -3.4476  3.1830
  206MPD1    H2 3189   2.513   3.778  17.014 -3.2651 -0.3967  0.7247
  206MPD1    H3 3190   2.515   3.676  16.805 -2.0968 -0.9207  0.1191
  206MPD1     N 3191   2.360   4.049  16.578 -0.5090  0.2694 -0.2652
  206MPD1    H5 3192   2.379   4.016  16.484 -0.6525 -0.6717  0.0374
  206MPD1    N1 3193   2.453   4.033  17.054 -0.7169  0.0181  0.3152
  206MPD1    H6 3194   2.449   3.975  17.137  0.0107 -0.0516  0.3030
  206MPD1    H7 3195   2.378   4.102  17.063 -0.9979  0.1030 -2.9294
  207MPD1     C 3196   4.495   1.936   9.818  0.6137 -0.1105 -0.9065
  207MPD1    C1 3197   4.484   1.802   9.853 -0.2858  0.2964  0.6505
  207MPD1    C2 3198   4.540   1.756   9.970  0.7775 -0.0569  0.2887
  207MPD1    C3 3199   4.625   1.839  10.044 -0.0140  0.1888  0.1400
  207MPD1    C4 3200   4.653   1.965   9.994 -0.6864 -0.0638 -0.6065
  207MPD1    C5 3201   4.587   2.012   9.882 -0.4087  0.5217  0.5607
  207MPD1     H 3202   4.520   1.656  10.004  0.9583 -0.4201 -0.6588
  207MPD1    H1 3203   4.725   2.031  10.043  0.2274 -0.6578 -1.1456
  207MPD1    H2 3204   4.439   1.986   9.740 -0.5563  0.4308  0.2736
  207MPD1    H3 3205   4.600   2.117   9.858  3.1273 -0.3228 -1.3523
  207MPD1     N 3206   4.683   1.795  10.165 -0.6226  0.5029 -0.1703
  207MPD1    H5 3207   4.741   1.865  10.210  0.8402 -0.9694  0.2129
  207MPD1    N1 3208   4.401   1.719   9.774  0.7973 -0.2464 -0.8811
  207MPD1    H6 3209   4.432   1.623   9.780  3.8033  0.7050 -1.3214
  207MPD1    H7 3210   4.396   1.751   9.677  1.1515  0.1495 -0.7677
  208MPD1     C 3211   2.555   4.333   0.092 -0.0506  0.8601  0.3290
  208MPD1    C1 3212   2.593   4.380   0.218  0.3937 -0.1502 -0.3618
  208MPD1    C2 3213   2.566   4.515   0.244 -0.1456 -0.0120  0.1847
  208MPD1    C3 3214   2.491   4.595   0.161 -0.7051 -0.0603  1.5022
  208MPD1    C4 3215   2.433   4.535   0.047 -0.2594  0.0790 -0.1081
  208MPD1    C5 3216   2.473   4.413   0.009 -0.3842  0.8790  0.2796
  208MPD1     H 3217   2.612   4.553   0.335  2.5763 -1.6219 -0.5128
  208MPD1    H1 3218   2.365   4.583  17.746  0.5148  1.1068 -0.1626
  208MPD1    H2 3219   2.575   4.232   0.059 -1.9652  0.0749  1.5962
  208MPD1    H3 3220   2.432   4.370  17.687 -0.8421 -1.8746  1.7987
  208MPD1     N 3221   2.474   4.731   0.190  0.2894 -0.0147  0.6925
  208MPD1    H5 3222   2.513   0.024   0.276  2.2365 -2.6531  0.9117
  208MPD1    N1 3223   2.681   4.307   0.301 -0.0457  0.2587  0.1807
  208MPD1    H6 3224   2.667   4.206   0.294 -2.9129  0.6961 -0.2986
  208MPD1    H7 3225   2.673   4.321   0.401  0.3121  1.0390  0.1030
  209MPD1     C 3226   0.214   4.728  10.961  0.7653  0.1685 -0.1500
  209MPD1    C1 3227   0.154   0.046  11.064 -0.2838 -0.2785  0.1614
  209MPD1    C2 3228   0.175   0.188  11.078  0.1930 -0.1365 -0.3815
  209MPD1    C3 3229   0.256   0.252  10.992  0.3048  0.0946  0.4778
  209MPD1    C4 3230   0.323   0.176  10.891  0.3201 -0.0863  0.0387
  209MPD1    C5 3231   0.309   0.042  10.884 -0.1121  0.2505  0.4587
  209MPD1     H 3232   0.123   0.245  11.153  0.1468  0.1292 -0.6161
  209MPD1    H1 3233   0.404   0.223  10.837  0.9040  0.0035  0.9806
  209MPD1    H2 3234   0.191   4.623  10.948 -0.1891  0.5385 -1.4723
  209MPD1    H3 3235   0.379   4.732  10.820 -1.6099 -0.8680 -0.2725
  209MPD1     N 3236   0.274   0.390  11.007 -0.3396 -0.0780 -0.0951
  209MPD1    H5 3237   0.223   0.434  11.083 -0.3004 -0.1871 -0.0056
  209MPD1    N1 3238   0.065   4.716  11.142 -0.4763 -0.5922  0.2876
  209MPD1    H6 3239   0.118   4.631  11.164  1.3757  0.2121 -1.0116
  209MPD1    H7 3240   0.049   0.016  11.233 -2.5630 -1.2197  0.2034
  210MPD1     C 3241   0.499   1.104  11.643 -0.0430  0.6279  0.0780
  210MPD1    C1 3242   0.418   0.993  11.647 -0.0878 -0.0571  0.4374
  210MPD1    C2 3243   0.397   0.919  11.526 -1.0832  0.0745  0.2150
  210MPD1    C3 3244   0.435   0.976  11.405 -0.0431  1.1528 -0.5826
  210MPD1    C4 3245   0.488   1.096  11.412 -0.1253  0.0434 -0.4503
  210MPD1    C5 3246   0.539   1.153  11.527 -0.2714 -0.1813  0.3789
  210MPD1     H 3247   0.345   0.824  11.528  2.7039 -2.0045 -0.1475
  210MPD1    H1 3248   0.498   1.144  11.315  1.8459 -1.2912 -0.9122
  210MPD1    H2 3249   0.532   1.158  11.731  0.2118 -0.1886  0.4815
  210MPD1    H3 3250   0.602   1.242  11.528  1.6908 -1.5808  0.6214
  210MPD1     N 3251   0.408   0.922  11.275 -0.3800  0.2746 -0.1905
  210MPD1    H5 3252   0.432   0.973  11.191  0.7753  0.3143  0.1585
  210MPD1    N1 3253   0.382   0.943  11.777  0.2125  0.2805  0.4507
  210MPD1    H6 3254   0.390   1.018  11.845  0.5925 -1.3655  2.2217
  210MPD1    H7 3255   0.286   0.911  11.770 -0.1973  1.8429 -0.9734
  211MPD1     C 3256   2.146   1.531  17.348 -0.1243 -0.3435 -0.7190
  211MPD1    C1 3257   2.258   1.487  17.282 -0.3399 -0.3522  0.1125
  211MPD1    C2 3258   2.254   1.471  17.147  0.2181 -0.0802 -0.0250
  211MPD1    C3 3259   2.137   1.495  17.071 -0.2674 -0.6483  0.4479
  211MPD1    C4 3260   2.024   1.537  17.139 -0.2785 -0.3853 -0.1823
  211MPD1    C5 3261   2.025   1.557  17.277  0.3970  0.5462  0.1052
  211MPD1     H 3262   2.339   1.438  17.089  0.3164 -0.6281  0.4367
  211MPD1    H1 3263   1.934   1.565  17.085 -1.3639 -0.9207  1.3582
  211MPD1    H2 3264   2.152   1.556  17.453  0.7810  0.0750 -0.8715
  211MPD1    H3 3265   1.942   1.606  17.327  0.6981  1.5242 -0.3571
  211MPD1     N 3266   2.148   1.472  16.931  0.4436 -0.2389 -0.0521
  211MPD1    H5 3267   2.242   1.453  16.898  0.4195 -1.7716  0.7552
  211MPD1    N1 3268   2.378   1.474  17.355 -0.1070  0.4141 -0.3090
  211MPD1    H6 3269   2.396   1.544  17.426  2.6444  0.3929 -0.9868
  211MPD1    H7 3270   2.456   1.469  17.290 -0.9991 -1.9727 -1.2216
  212MPD1     C 3271   1.857   4.419  16.136  0.3575 -0.5991  0.3294
  212MPD1    C1 3272   1.791   4.479  16.241  0.1435  0.2991  0.4604
  212MPD1    C2 3273   1.766   4.391  16.345 -0.0202 -0.4828 -0.0031
  212MPD1    C3 3274   1.827   4.262  16.352  1.1385 -0.0304  0.5996
  212MPD1    C4 3275   1.896   4.210  16.244  0.5455  0.4287  0.3596
  212MPD1    C5 3276   1.902   4.292  16.135  0.1915  0.5335 -0.1259
  212MPD1     H 3277   1.697   4.424  16.421  1.6675  0.2549  1.2120
  212MPD1    H1 3278   1.949   4.116  16.247  1.7698  1.0851 -0.4341
  212MPD1    H2 3279   1.873   4.476  16.046  1.9872 -2.0173 -0.2769
  212MPD1    H3 3280   1.965   4.267  16.051 -2.7246 -1.8474 -1.6131
  212MPD1     N 3281   1.805   4.170  16.461  0.1226  0.1262  0.1818
  212MPD1    H5 3282   1.833   4.077  16.431  2.3061  0.5604  0.8237
  212MPD1    N1 3283   1.726   4.605  16.213  0.5923 -0.9392 -0.1018
  212MPD1    H6 3284   1.786   4.681  16.184 -1.8448  1.6022  1.5111
  212MPD1    H7 3285   1.686   4.646  16.297  1.3965 -1.2545  0.4350
  213MPD1     C 3286   4.506   0.090  16.040 -0.3569  0.7230  0.2616
  213MPD1    C1 3287   4.417   4.740  15.991 -0.8064 -0.3620  0.6569
  213MPD1    C2 3288   4.364   0.031  15.869 -0.0822 -0.1524  1.0071
  213MPD1    C3 3289   4.375   0.158  15.819 -0.4110  0.8677  0.0604
  213MPD1    C4 3290   4.444   0.259  15.883  0.3519 -0.2628 -0.1406
  213MPD1    C5 3291   4.501   0.222  16.003 -0.7898  0.1309 -0.0300
  213MPD1     H 3292   4.302   4.700  15.819  0.9735  1.8865 -3.3692
  213MPD1    H1 3293   4.444   0.362  15.848  1.0505  0.5035  2.1217
  213MPD1    H2 3294   4.565   0.058  16.125  1.4995  1.9794 -0.5620
  213MPD1    H3 3295   4.538   0.296  16.072  2.1934  1.3440 -2.9453
  213MPD1     N 3296   4.293   0.197  15.707  0.0308  0.5530 -0.2309
  213MPD1    H5 3297   4.233   0.131  15.659 -0.9836  0.1139  1.6699
  213MPD1    N1 3298   4.447   4.606  16.029 -0.5795 -0.0455 -0.1983
  213MPD1    H6 3299   4.478   4.593  16.126 -2.5258 -1.9900  0.1605
  213MPD1    H7 3300   4.381   4.531  16.007 -1.1182  0.4261 -0.1972
  214MPD1     C 3301   3.638   4.527  15.131 -0.3520  0.6541  0.1100
  214MPD1    C1 3302   3.628   4.579  15.258  1.0253 -0.1179  0.2836
  214MPD1    C2 3303   3.725   4.672  15.297 -1.0560 -1.2203 -0.2570
  214MPD1    C3 3304   3.830   4.715  15.220  0.1610 -0.2821 -0.5643
  214MPD1    C4 3305   3.840   4.658  15.098  0.1526 -0.0051  0.2348
  214MPD1    C5 3306   3.746   4.567  15.051  0.1142  0.2704 -0.1262
  214MPD1     H 3307   3.707   4.719  15.393  1.2591 -0.9746  0.0725
  214MPD1    H1 3308   3.921   4.691  15.034 -1.7022  0.8481 -1.6819
  214MPD1    H2 3309   3.569   4.451  15.097  0.0123  0.5725 -0.4491
  214MPD1    H3 3310   3.747   4.534  14.948  2.8071 -2.1065  0.6408
  214MPD1     N 3311   3.922   0.065  15.256 -0.1811 -0.4733  0.2993
  214MPD1    H5 3312   3.987   0.106  15.189 -0.7504  1.1986  0.7865
  214MPD1    N1 3313   3.526   4.545  15.352  0.5066 -0.0111  0.1155
  214MPD1    H6 3314   3.447   4.497  15.307 -0.2936  2.3859 -1.0396
  214MPD1    H7 3315   3.505   4.616  15.422  0.1079 -0.3842  0.3777
  215MPD1     C 3316   0.051   0.578  10.606  0.5025 -0.1186 -0.2540
  215MPD1    C1 3317   0.041   0.557  10.741  0.0600  0.5726 -0.3472
  215MPD1    C2 3318   0.020   0.672  10.814 -0.6398 -0.0514  0.0664
  215MPD1    C3 3319   0.014   0.798  10.759 -0.2098  0.2125 -1.0511
  215MPD1    C4 3320   0.033   0.816  10.626  0.1984 -0.0685  0.6067
  215MPD1    C5 3321   0.052   0.702  10.550 -0.1741  0.3876 -0.1330
  215MPD1     H 3322   0.016   0.672  10.922  0.7492 -2.1691  0.1136
  215MPD1    H1 3323   0.047   0.905  10.565 -0.6740  0.5431  1.2964
  215MPD1    H2 3324   0.076   0.493  10.543  0.7535  0.9875 -1.6635
  215MPD1    H3 3325   0.065   0.711  10.443  0.7028 -0.2172 -0.0746
  215MPD1     N 3326   0.001   0.915  10.856  0.0172  0.4858 -0.4767
  215MPD1    H5 3327   4.728   0.895  10.954 -2.2612  1.9806 -0.5587
  215MPD1    N1 3328   0.019   0.431  10.793 -0.6309 -0.5407  0.1417
  215MPD1    H6 3329   0.037   0.425  10.893  0.5561 -0.1811 -0.0453
  215MPD1    H7 3330   0.068   0.356  10.745 -0.0610  0.1172 -0.2904
  216MPD1     C 3331   1.049   4.675   0.057  0.3064 -0.3548 -0.2676
  216MPD1    C1 3332   1.137   4.693  17.718  0.0888 -1.0040  0.4805
  216MPD1    C2 3333   1.223   4.588  17.678  0.2659  0.3812 -0.2713
  216MPD1    C3 3334   1.219   4.468  17.753 -0.0440 -0.2066  0.3800
  216MPD1    C4 3335   1.139   4.455   0.089 -0.2975  0.4980 -0.2140
  216MPD1    C5 3336   1.053   4.559   0.125 -0.2592 -0.4779 -0.3154
  216MPD1     H 3337   1.299   4.600  17.601  0.7273 -0.5794  0.0393
  216MPD1    H1 3338   1.150   4.373   0.159  1.6946  0.1826 -0.9052
  216MPD1    H2 3339   0.984   0.014   0.082 -1.0270 -0.8922 -2.0156
  216MPD1    H3 3340   0.998   4.549   0.218 -0.5568  1.4646 -0.2862
  216MPD1     N 3341   1.317   4.362  17.742 -0.2204  0.4784  0.0026
  216MPD1    H5 3342   1.302   4.278   0.028  0.3604 -0.0567 -0.6726
  216MPD1    N1 3343   1.116   0.062  17.636  0.4187 -0.4470  0.4164
  216MPD1    H6 3344   1.188   0.081  17.568  0.7883  1.1808  1.2573
  216MPD1    H7 3345   1.093   0.138  17.700  0.3067 -0.8775  0.8902
  217MPD1     C 3346   1.254   4.586   9.760 -0.4735  0.1732 -0.3031
  217MPD1    C1 3347   1.356   4.499   9.732 -0.3696 -0.2439  0.0730
  217MPD1    C2 3348   1.480   4.539   9.763 -0.3704 -0.3779 -0.1914
  217MPD1    C3 3349   1.516   4.669   9.789 -0.5070 -0.2161 -0.0241
  217MPD1    C4 3350   1.415   0.018   9.789  0.7903 -0.4121 -0.3263
  217MPD1    C5 3351   1.279   4.717   9.792  0.0555 -0.3595 -0.2943
  217MPD1     H 3352   1.554   4.460   9.765  0.9194  0.8149 -0.6058
  217MPD1    H1 3353   1.430   0.122   9.817 -1.5393 -0.6963  1.9220
  217MPD1    H2 3354   1.150   4.554   9.751 -0.5941  0.0555  1.5499
  217MPD1    H3 3355   1.208   0.048   9.826  0.2816 -0.7755  1.0761
  217MPD1     N 3356   1.652   4.716   9.811 -0.7392 -0.0154 -0.7295
  217MPD1    H5 3357   1.667   0.073   9.819  1.1351 -0.3929  0.4583
  217MPD1    N1 3358   1.333   4.360   9.716  0.0120 -0.3795  0.6336
  217MPD1    H6 3359   1.418   4.308   9.694  0.7786  2.0348 -2.1514
  217MPD1    H7 3360   1.253   4.331   9.660 -0.8510  1.1883  1.0666
  218MPD1     C 3361   4.168   1.674  13.207  0.8448 -0.1729  0.5471
  218MPD1    C1 3362   4.286   1.615  13.148  0.4188 -0.1303 -0.1890
  218MPD1    C2 3363   4.306   1.611  13.017  1.0227  0.5034 -0.4202
  218MPD1    C3 3364   4.223   1.683  12.929 -0.1405 -0.6058  0.0447
  218MPD1    C4 3365   4.121   1.751  12.981 -0.2659 -0.1649  1.5349
  218MPD1    C5 3366   4.086   1.733  13.117 -0.0649  0.1920 -0.1081
  218MPD1     H 3367   4.400   1.571  12.980  1.1979 -0.3782  0.9603
  218MPD1    H1 3368   4.056   1.813  12.920  1.3830  0.6303  0.5798
  218MPD1    H2 3369   4.136   1.669  13.311  0.1060  1.2906  0.3940
  218MPD1    H3 3370   3.990   1.772  13.149 -0.1149 -0.1383  0.1348
  218MPD1     N 3371   4.268   1.694  12.796  0.5487  0.4889 -0.1490
  218MPD1    H5 3372   4.354   1.645  12.775  1.0603  1.2225  0.2567
  218MPD1    N1 3373   4.364   1.531  13.229  0.0583  1.0758  0.1412
  218MPD1    H6 3374   4.451   1.493  13.194 -1.0086 -1.7783  0.5579
  218MPD1    H7 3375   4.360   1.543  13.330  2.1679  1.8050  0.1213
  219MPD1     C 3376   4.681   2.070  11.865  0.5006  0.3901 -1.0398
  219MPD1    C1 3377   4.560   2.119  11.901  0.1539  0.0789  0.7118
  219MPD1    C2 3378   4.496   2.063  12.011 -0.0253  0.2237  0.7469
  219MPD1    C3 3379   4.541   1.940  12.066  0.2859 -0.3072  0.5323
  219MPD1    C4 3380   4.654   1.888  12.014 -0.2354  0.1756  0.0855
  219MPD1    C5 3381   4.722   1.954  11.920  0.3057 -0.0548  0.4221
  219MPD1     H 3382   4.399   2.096  12.046 -0.3360  1.7896 -1.6013
  219MPD1    H1 3383   4.706   1.797  12.042  0.9560  0.4902 -1.0717
  219MPD1    H2 3384   0.001   2.108  11.785  1.3345 -0.1034 -0.6201
  219MPD1    H3 3385   0.074   1.908  11.895  0.9985  1.4719  0.2064
  219MPD1     N 3386   4.484   1.875  12.180 -0.3769 -0.5149  0.1624
  219MPD1    H5 3387   4.539   1.796  12.212 -1.4640 -1.3359  0.0031
  219MPD1    N1 3388   4.515   2.242  11.845 -0.0679 -0.4588 -0.1114
  219MPD1    H6 3389   4.530   2.231  11.744  0.1161  0.0552 -0.1387
  219MPD1    H7 3390   4.415   2.251  11.855 -0.2498 -1.7201 -0.7802
  220MPD1     C 3391   4.231   2.230   9.606  0.2365  0.2368  0.5099
  220MPD1    C1 3392   4.170   2.109   9.617 -0.6431 -0.3167  0.3181
  220MPD1    C2 3393   4.172   2.046   9.743 -0.0751  0.3614  0.4775
  220MPD1    C3 3394   4.233   2.099   9.856  0.4664 -0.2689  0.3083
  220MPD1    C4 3395   4.281   2.228   9.840  0.6974  0.0735  0.3144
  220MPD1    C5 3396   4.283   2.287   9.715 -0.6941 -0.2731 -0.6008
  220MPD1     H 3397   4.126   1.948   9.754 -0.0485  0.5116  2.0243
  220MPD1    H1 3398   4.322   2.284   9.923  0.0861 -0.2108  0.8063
  220MPD1    H2 3399   4.231   2.277   9.509 -0.4808  0.6259  0.7066
  220MPD1    H3 3400   4.323   2.386   9.699 -1.3907 -0.0079 -0.7212
  220MPD1     N 3401   4.215   2.037   9.980  0.0353  0.4302  0.4616
  220MPD1    H5 3402   4.205   1.937   9.976  1.3055  0.4020 -2.3228
  220MPD1    N1 3403   4.128   2.037   9.503 -0.0962 -0.0074  0.6225
  220MPD1    H6 3404   4.080   1.949   9.521 -0.3547  0.1840  0.8733
  220MPD1    H7 3405   4.098   2.097   9.427  1.0618 -1.8139 -1.2810
  221MPD1     C 3406   2.574   1.138  16.035 -0.1633 -0.0904  0.0784
  221MPD1    C1 3407   2.466   1.141  16.120  0.6475  0.7767  0.0198
  221MPD1    C2 3408   2.404   1.022  16.149 -0.1247  0.3439 -0.6196
  221MPD1    C3 3409   2.437   0.909  16.082  0.9494 -0.5201  0.6136
  221MPD1    C4 3410   2.545   0.905  15.994 -0.1746 -0.0854  0.3265
  221MPD1    C5 3411   2.607   1.021  15.978 -0.1055  0.2638 -0.2676
  221MPD1     H 3412   2.316   1.017  16.212  1.0366  2.3852  1.1439
  221MPD1    H1 3413   2.563   0.819  15.932 -1.6592 -1.1365  1.3595
  221MPD1    H2 3414   2.644   1.219  16.017 -1.5840  0.6526 -2.0589
  221MPD1    H3 3415   2.692   1.027  15.910 -0.9769 -0.1575 -1.3955
  221MPD1     N 3416   2.371   0.785  16.100  0.1070  0.0648 -0.3300
  221MPD1    H5 3417   2.375   0.715  16.026  1.7277 -2.1501  1.8674
  221MPD1    N1 3418   2.433   1.260  16.189 -0.0691 -0.2742  0.2149
  221MPD1    H6 3419   2.338   1.250  16.223 -0.2819  0.1589 -0.2575
  221MPD1    H7 3420   2.449   1.347  16.139 -2.2687  1.5924  2.7879
  222MPD1     C 3421   1.968   3.938  17.479 -0.5061  0.4210  0.1051
  222MPD1    C1 3422   2.018   4.068  17.469 -0.5161 -0.1437 -0.7033
  222MPD1    C2 3423   2.064   4.135  17.586  0.0633 -0.3977 -0.4753
  222MPD1    C3 3424   2.050   4.082  17.713  0.1334 -0.0182  0.5548
  222MPD1    C4 3425   2.001   3.955  17.715  0.4768 -0.2703 -0.3152
  222MPD1    C5 3426   1.966   3.885  17.607  0.3606 -0.1936  0.4887
  222MPD1     H 3427   2.108   4.232  17.568 -0.7973 -0.2830 -1.9978
  222MPD1    H1 3428   2.010   3.904   0.041  1.6707  2.9611  1.3015
  222MPD1    H2 3429   1.953   3.872  17.394  0.9332  0.5164 -0.2247
  222MPD1    H3 3430   1.933   3.783  17.626  0.5742 -0.6509 -1.6153
  222MPD1     N 3431   2.081   4.153   0.062 -0.0583  0.1148 -0.1518
  222MPD1    H5 3432   2.039   4.108   0.142 -1.2561  0.1621 -0.7491
  222MPD1    N1 3433   2.032   4.130  17.343  0.1619  0.2465 -0.4131
  222MPD1    H6 3434   1.946   4.113  17.290 -1.4596  0.1807  2.2455
  222MPD1    H7 3435   2.067   4.225  17.346  0.5441  0.0685  0.8725
  223MPD1     C 3436   2.686   3.808   0.608 -0.1723  0.0397  0.1647
  223MPD1    C1 3437   2.662   3.795   0.469  0.4693 -0.8688  0.3313
  223MPD1    C2 3438   2.586   3.890   0.408 -0.6814 -0.1774 -0.5331
  223MPD1    C3 3439   2.523   3.996   0.478 -0.2734 -0.2105  0.0512
  223MPD1    C4 3440   2.547   3.995   0.617  0.2041  0.0293 -0.0674
  223MPD1    C5 3441   2.616   3.900   0.675  0.2062  0.0330 -0.1320
  223MPD1     H 3442   2.564   3.886   0.302  0.5639 -0.4223 -0.7741
  223MPD1    H1 3443   2.519   4.078   0.681  2.1174 -1.5583  2.8078
  223MPD1    H2 3444   2.756   3.742   0.657  1.2021  2.3732  1.3721
  223MPD1    H3 3445   2.638   3.906   0.781  2.7635 -1.9468 -0.5454
  223MPD1     N 3446   2.445   4.089   0.411 -0.6922 -0.1877  0.5943
  223MPD1    H5 3447   2.429   4.071   0.312  0.6047  2.4048 -0.0918
  223MPD1    N1 3448   2.738   3.692   0.405  0.1850  0.1393  0.2080
  223MPD1    H6 3449   2.684   3.651   0.329 -1.1876  0.4047  1.0399
  223MPD1    H7 3450   2.764   3.613   0.463 -4.0541 -0.8630  0.7938
  224MPD1     C 3451   1.901   0.257   9.580 -0.0017 -0.7783  0.0014
  224MPD1    C1 3452   1.899   0.397   9.580 -0.0990 -0.3422 -0.0365
  224MPD1    C2 3453   2.022   0.457   9.594 -0.3936  0.1163  0.0659
  224MPD1    C3 3454   2.134   0.385   9.638 -0.6135 -0.9686  0.0653
  224MPD1    C4 3455   2.130   0.248   9.637 -0.0859  0.1673  1.1525
  224MPD1    C5 3456   2.012   0.182   9.604 -0.0322  0.4067  0.4490
  224MPD1     H 3457   2.031   0.558   9.556 -3.2772  0.9326  1.5436
  224MPD1    H1 3458   2.214   0.186   9.664 -0.2210  0.2033  1.6439
  224MPD1    H2 3459   1.813   0.194   9.568 -0.8665  0.5600 -0.6645
  224MPD1    H3 3460   2.007   0.074   9.607  0.9709  0.3820  1.2734
  224MPD1     N 3461   2.257   0.438   9.686 -0.2947 -0.3478 -0.2562
  224MPD1    H5 3462   2.323   0.371   9.722  0.6191  0.3839 -0.5482
  224MPD1    N1 3463   1.786   0.458   9.519 -0.4221 -0.1916  0.2185
  224MPD1    H6 3464   1.698   0.407   9.517 -0.2628 -0.4846  0.5157
  224MPD1    H7 3465   1.771   0.551   9.559  0.0934 -0.4777  1.0891
  225MPD1     C 3466   3.807   2.939  13.017 -0.0294  0.9747  0.8254
  225MPD1    C1 3467   3.869   2.851  12.933  0.6858 -0.3662 -0.1290
  225MPD1    C2 3468   3.792   2.747  12.886  0.3190 -0.7024  0.5852
  225MPD1    C3 3469   3.664   2.720  12.935 -0.5031 -0.1016 -0.2686
  225MPD1    C4 3470   3.603   2.810  13.027  0.0996  0.2240  0.1906
  225MPD1    C5 3471   3.678   2.918  13.054  0.3018 -0.0524  0.3167
  225MPD1     H 3472   3.821   2.685  12.802 -0.0189  0.9471 -0.7486
  225MPD1    H1 3473   3.503   2.797  13.065  0.9740 -0.7256  2.1587
  225MPD1    H2 3474   3.858   3.029  13.048 -0.7167  0.9943  1.9140
  225MPD1    H3 3475   3.627   2.995  13.111 -0.7037 -0.2850 -0.2682
  225MPD1     N 3476   3.580   2.619  12.896 -1.0555 -0.2298  0.2102
  225MPD1    H5 3477   3.486   2.620  12.934  0.0204 -1.3789  2.9148
  225MPD1    N1 3478   3.991   2.882  12.876  0.4132  0.3209 -0.2595
  225MPD1    H6 3479   4.049   2.931  12.943 -0.4258  2.0875 -0.8390
  225MPD1    H7 3480   4.040   2.793  12.866 -1.9021 -0.9108 -0.7757
  226MPD1     C 3481   1.391   1.297   9.552 -0.1646 -0.0605  0.3375
  226MPD1    C1 3482   1.369   1.389   9.651 -0.1191  0.5710  0.2792
  226MPD1    C2 3483   1.474   1.468   9.689  0.3413  0.0895 -0.4777
  226MPD1    C3 3484   1.596   1.473   9.623 -0.4665 -0.0534 -0.3539
  226MPD1    C4 3485   1.611   1.393   9.508 -0.4868 -0.0416 -0.5544
  226MPD1    C5 3486   1.506   1.310   9.482 -0.5787  0.1844  0.4999
  226MPD1     H 3487   1.462   1.535   9.774  0.1267  0.8418 -1.0939
  226MPD1    H1 3488   1.704   1.381   9.452 -0.9609 -0.2592 -1.2984
  226MPD1    H2 3489   1.316   1.223   9.527 -0.0834  0.4266 -1.3606
  226MPD1    H3 3490   1.516   1.226   9.414  0.7127 -0.6408  1.7224
  226MPD1     N 3491   1.696   1.557   9.667  0.0864 -0.4843 -0.0874
  226MPD1    H5 3492   1.684   1.595   9.760 -2.1492 -1.2861 -0.0689
  226MPD1    N1 3493   1.253   1.395   9.727 -0.1062  0.3100  0.0888
  226MPD1    H6 3494   1.172   1.361   9.676 -0.1583  0.0548  0.3417
  226MPD1    H7 3495   1.232   1.483   9.773  1.0680  0.9438 -0.5966
  227MPD1     C 3496   1.516   2.111  10.271 -0.0402  0.4716 -0.2216
  227MPD1    C1 3497   1.439   2.059  10.167 -0.1115 -0.0696 -0.1061
  227MPD1    C2 3498   1.505   2.008  10.062 -0.0313  0.1022 -0.0354
  227MPD1    C3 3499   1.642   1.997  10.059  0.5869  0.4222 -0.0851
  227MPD1    C4 3500   1.718   2.046  10.160 -0.3764 -0.6387 -1.0511
  227MPD1    C5 3501   1.653   2.100  10.267 -0.0540  0.3656 -0.1909
  227MPD1     H 3502   1.439   1.983   9.980  0.6251 -0.8717 -0.2656
  227MPD1    H1 3503   1.826   2.049  10.161 -0.4102  0.5126 -1.3871
  227MPD1    H2 3504   1.474   2.171  10.350  2.6999 -1.6506  2.8643
  227MPD1    H3 3505   1.710   2.141  10.350 -1.0913  1.2268  0.0980
  227MPD1     N 3506   1.701   1.946   9.941 -0.3601 -0.0255 -0.2129
  227MPD1    H5 3507   1.646   1.886   9.880 -0.9143 -0.4061  0.6587
  227MPD1    N1 3508   1.304   2.084  10.167  0.2938  0.1178  0.3740
  227MPD1    H6 3509   1.242   2.045  10.096  1.4671 -0.2963 -0.4269
  227MPD1    H7 3510   1.256   2.100  10.256  1.0168  0.8446  0.6361
  228MPD1     C 3511   0.730   0.282  13.002 -0.3096  0.3376 -0.1151
  228MPD1    C1 3512   0.622   0.319  12.917 -0.3160 -0.5444  0.5805
  228MPD1    C2 3513   0.498   0.264  12.940 -0.4982 -0.2846 -0.5672
  228MPD1    C3 3514   0.484   0.147  13.015  0.2614  0.4709  0.0360
  228MPD1    C4 3515   0.594   0.105  13.084 -0.0634 -0.2160  0.6058
  228MPD1    C5 3516   0.714   0.175  13.081 -0.9237  0.1289  0.5800
  228MPD1     H 3517   0.411   0.303  12.888 -1.2877 -0.6812  0.4673
  228MPD1    H1 3518   0.586   0.021  13.151 -0.2827 -1.5174 -1.0428
  228MPD1    H2 3519   0.827   0.329  13.010 -0.0379 -0.5259  1.7137
  228MPD1    H3 3520   0.787   0.146  13.155  1.1891 -0.3164 -1.6774
  228MPD1     N 3521   0.360   0.082  13.010 -0.7749  0.1128 -0.4976
  228MPD1    H5 3522   0.289   0.128  12.955 -0.0609  2.7169  0.7327
  228MPD1    N1 3523   0.635   0.428  12.840  0.0613 -0.0794  0.4672
  228MPD1    H6 3524   0.730   0.440  12.805 -0.5935  0.8282 -1.0228
  228MPD1    H7 3525   0.571   0.433  12.761 -0.0960 -0.2450  0.5845
  229MPD1     C 3526   0.090   3.674  15.684 -0.1306 -1.0413 -0.0829
  229MPD1    C1 3527   0.026   3.635  15.574 -0.0685  0.0190  0.1268
  229MPD1    C2 3528   0.090   3.553  15.491  0.0576  0.7507 -0.2503
  229MPD1    C3 3529   0.227   3.536  15.503  0.1097 -0.0938  0.4763
  229MPD1    C4 3530   0.294   3.604  15.598 -0.0915 -0.4406 -0.0912
  229MPD1    C5 3531   0.227   3.670  15.701 -0.0928  0.0186 -0.1046
  229MPD1     H 3532   0.043   3.517  15.401  0.4678 -0.7903  0.1534
  229MPD1    H1 3533   0.402   3.597  15.596 -0.0892 -0.4451  0.0425
  229MPD1    H2 3534   0.040   3.716  15.770 -0.1895  1.8428 -1.5025
  229MPD1    H3 3535   0.281   3.712  15.785 -1.6240  0.9420  0.4191
  229MPD1     N 3536   0.308   3.483  15.401 -0.3285 -0.7131  0.1610
  229MPD1    H5 3537   0.407   3.483  15.423  0.4301 -0.1154 -3.1978
  229MPD1    N1 3538   4.636   3.663  15.557  0.4655 -0.1307 -0.4173
  229MPD1    H6 3539   4.601   3.656  15.462 -0.8638  1.6590 -0.0570
  229MPD1    H7 3540   4.617   3.752  15.602 -1.7054 -0.6502 -0.2835
  230MPD1     C 3541   1.069   3.816  15.494  0.1457  0.2895  0.5346
  230MPD1    C1 3542   1.069   3.681  15.518 -0.4026  0.8246  0.2216
  230MPD1    C2 3543   0.964   3.616  15.461 -0.4027 -0.3232  0.1504
  230MPD1    C3 3544   0.882   3.670  15.369 -0.4722 -0.3857  0.5246
  230MPD1    C4 3545   0.894   3.804  15.338  0.6470 -0.1618 -1.1276
  230MPD1    C5 3546   0.989   3.870  15.398 -0.4758 -0.5211 -0.3614
  230MPD1     H 3547   0.950   3.510  15.477  0.1821 -0.3394  0.5443
  230MPD1    H1 3548   0.827   3.852  15.268  0.1331  0.3633 -0.2844
  230MPD1    H2 3549   1.152   3.876  15.532  0.6397  0.2541 -0.4809
  230MPD1    H3 3550   1.002   3.977  15.389 -0.2678 -0.5773 -0.7396
  230MPD1     N 3551   0.791   3.587  15.300 -0.4865  0.3107  1.0868
  230MPD1    H5 3552   0.802   3.487  15.307 -0.3872  0.2505 -0.0504
  230MPD1    N1 3553   1.143   3.620  15.625  0.2838 -0.2328 -0.1191
  230MPD1    H6 3554   1.237   3.658  15.633 -0.4388  1.6064 -0.3492
  230MPD1    H7 3555   1.157   3.521  15.605  2.8747  0.7053 -2.9499
  231MPD1     C 3556   3.583   0.374  15.553 -0.2316 -0.0771  0.1057
  231MPD1    C1 3557   3.531   0.367  15.421 -0.0978  0.1497 -1.1284
  231MPD1    C2 3558   3.610   0.418  15.319 -0.7315 -0.4304  0.2178
  231MPD1    C3 3559   3.734   0.464  15.348  0.6840  0.2661  0.0048
  231MPD1    C4 3560   3.785   0.466  15.479  0.0445  0.0208 -0.5908
  231MPD1    C5 3561   3.707   0.418  15.584 -0.6406  0.2872 -0.0600
  231MPD1     H 3562   3.575   0.421  15.217 -1.0189 -1.1668  0.2897
  231MPD1    H1 3563   3.879   0.509  15.510 -0.8981  1.1363  0.7201
  231MPD1    H2 3564   3.514   0.353  15.634 -1.1530  1.8450 -0.1878
  231MPD1    H3 3565   3.746   0.424  15.685 -2.2366  0.0953  0.5600
  231MPD1     N 3566   3.813   0.510  15.242 -0.1885  0.2664  0.1490
  231MPD1    H5 3567   3.779   0.505  15.146  0.2004  0.6341 -0.0056
  231MPD1    N1 3568   3.400   0.332  15.393 -0.4240 -0.3363 -0.0319
  231MPD1    H6 3569   3.401   0.288  15.301 -0.2823  1.3706 -0.8371
  231MPD1    H7 3570   3.363   0.262  15.457 -2.2959  1.0843  0.4292
  232MPD1     C 3571   1.411   3.863   0.223 -0.1376 -0.0450  0.8295
  232MPD1    C1 3572   1.283   3.900   0.183 -0.3109 -0.5531  0.0024
  232MPD1    C2 3573   1.190   3.804   0.145 -0.6359 -0.0676  0.5768
  232MPD1    C3 3574   1.221   3.671   0.146  0.1753  1.1977  0.0481
  232MPD1    C4 3575   1.348   3.633   0.189  0.2021 -0.7314  0.3121
  232MPD1    C5 3576   1.443   3.727   0.218  0.9004 -0.0543  0.1301
  232MPD1     H 3577   1.092   3.827   0.106 -1.8090 -3.3250  1.6886
  232MPD1    H1 3578   1.387   3.532   0.192 -2.6894 -1.7832  2.6092
  232MPD1    H2 3579   1.482   3.933   0.267 -0.9326  0.8189  0.7454
  232MPD1    H3 3580   1.532   3.686   0.265  0.8872 -1.3282 -0.9625
  232MPD1     N 3581   1.129   3.578   0.104 -0.1122 -0.1641  0.6531
  232MPD1    H5 3582   1.039   3.615   0.075 -0.6639 -2.2181 -0.2059
  232MPD1    N1 3583   1.262   4.041   0.169 -0.2446  0.0227  0.9583
  232MPD1    H6 3584   1.164   4.066   0.179 -0.5071  0.4267 -2.5066
  232MPD1    H7 3585   1.305   4.101   0.238  3.0817  1.2955 -2.2313
  233MPD1     C 3586   1.846   1.869   1.269 -0.4545 -0.5198  0.1653
  233MPD1    C1 3587   1.868   1.825   1.394 -0.1331  0.4087 -0.1526
  233MPD1    C2 3588   1.954   1.726   1.422 -1.2306 -0.8826  0.0246
  233MPD1    C3 3589   2.009   1.657   1.315 -0.2916  0.6928  1.6200
  233MPD1    C4 3590   1.983   1.695   1.190  1.1475  0.3397  0.1102
  233MPD1    C5 3591   1.895   1.797   1.165  0.7330 -0.1601 -0.8677
  233MPD1     H 3592   1.976   1.707   1.526  1.1530 -1.3049 -0.5573
  233MPD1    H1 3593   2.017   1.637   1.105  2.8116  0.4151  0.7107
  233MPD1    H2 3594   1.773   1.947   1.250 -1.2299 -0.8105  1.9635
  233MPD1    H3 3595   1.864   1.805   1.062 -2.0099 -0.8605 -0.0820
  233MPD1     N 3596   2.119   1.562   1.333 -0.9831 -0.0507 -0.7629
  233MPD1    H5 3597   2.169   1.533   1.250 -0.0435 -1.3528  0.2637
  233MPD1    N1 3598   1.828   1.911   1.503 -0.7352  0.0688  0.7099
  233MPD1    H6 3599   1.824   1.860   1.591 -1.2777  0.1456  0.7286
  233MPD1    H7 3600   1.738   1.957   1.489 -0.0145  1.5948  1.1862
  234MPD1     C 3601   3.392   3.851   9.671  0.6389  0.4267 -0.4957
  234MPD1    C1 3602   3.251   3.843   9.664 -0.1091  0.0933  0.6011
  234MPD1    C2 3603   3.183   3.962   9.663 -0.4434 -0.1954 -0.1899
  234MPD1    C3 3604   3.250   4.086   9.675  0.1843 -0.2303 -0.0728
  234MPD1    C4 3605   3.390   4.091   9.668  0.0571 -0.2734 -0.1026
  234MPD1    C5 3606   3.458   3.972   9.661 -0.6245 -0.6615  0.7678
  234MPD1     H 3607   3.076   3.966   9.651 -0.3240 -0.4089 -1.3163
  234MPD1    H1 3608   3.443   4.185   9.680  0.1208 -0.6037  2.0958
  234MPD1    H2 3609   3.454   3.762   9.667  2.3366  1.6391 -1.2692
  234MPD1    H3 3610   3.566   3.965   9.661 -0.3865  2.6846  0.7879
  234MPD1     N 3611   3.173   4.200   9.711 -0.0825  0.5158 -0.2116
  234MPD1    H5 3612   3.073   4.183   9.719  0.4716 -0.6494  4.4535
  234MPD1    N1 3613   3.182   3.723   9.637 -0.1198  0.2819  0.9571
  234MPD1    H6 3614   3.224   3.641   9.680 -0.0550  0.5540  1.4066
  234MPD1    H7 3615   3.088   3.729   9.676 -1.2272 -0.6360 -1.5613
  235MPD1     C 3616   0.274   3.721  11.539  0.1799 -0.0645  0.4007
  235MPD1    C1 3617   0.291   3.732  11.405  0.7207  0.2288  0.2837
  235MPD1    C2 3618   0.341   3.623  11.329  0.0974  0.3383 -0.1844
  235MPD1    C3 3619   0.353   3.494  11.391 -0.2417 -0.3644 -0.4872
  235MPD1    C4 3620   0.347   3.489  11.529 -0.2468 -0.6625  1.0206
  235MPD1    C5 3621   0.291   3.596  11.595  0.3403 -0.4058 -0.0083
  235MPD1     H 3622   0.349   3.632  11.222 -1.6478  0.2019 -0.3418
  235MPD1    H1 3623   0.356   3.393  11.580  0.5865 -2.0936 -1.8480
  235MPD1    H2 3624   0.259   3.808  11.601 -0.6783 -0.2203  0.4075
  235MPD1    H3 3625   0.287   3.588  11.703 -0.3123  0.4181  0.0246
  235MPD1     N 3626   0.401   3.385  11.314  0.0531  0.0275 -0.9857
  235MPD1    H5 3627   0.439   3.394  11.220 -0.6196  1.1064 -1.1514
  235MPD1    N1 3628   0.282   3.862  11.344  0.9756  0.3523 -0.6829
  235MPD1    H6 3629   0.252   3.858  11.247  3.3183 -1.5469 -1.3266
  235MPD1    H7 3630   0.222   3.923  11.399 -0.2016 -0.5120 -1.0117
  236MPD1     C 3631   3.740   3.287   9.845  0.6205 -0.0803 -0.9211
  236MPD1    C1 3632   3.786   3.414   9.816  0.0057 -0.0963  0.1402
  236MPD1    C2 3633   3.892   3.467   9.895 -0.2813  0.0965 -0.0808
  236MPD1    C3 3634   3.951   3.383   9.990 -0.3967 -0.0022  0.5801
  236MPD1    C4 3635   3.907   3.259  10.004 -0.0611 -0.2225  0.6467
  236MPD1    C5 3636   3.796   3.207   9.939 -0.2612 -0.3220 -0.4946
  236MPD1     H 3637   3.905   3.574   9.888  0.9629 -0.1464 -1.5122
  236MPD1    H1 3638   3.958   3.195  10.076  2.9220  1.4740  0.0382
  236MPD1    H2 3639   3.658   3.250   9.784 -0.4338  0.3167  0.2697
  236MPD1    H3 3640   3.758   3.109   9.966  0.2104 -0.6651 -1.0926
  236MPD1     N 3641   4.054   3.427  10.080  1.3461 -0.4044  0.1757
  236MPD1    H5 3642   4.063   3.370  10.164 -1.2246 -0.6644  0.2742
  236MPD1    N1 3643   3.711   3.504   9.731 -0.4967  0.7076 -0.2486
  236MPD1    H6 3644   3.631   3.469   9.679 -1.4378  0.3637  1.4357
  236MPD1    H7 3645   3.768   3.571   9.681 -0.9629  3.0520  2.3716
  237MPD1     C 3646   4.535   1.581  15.385  0.1843 -0.2337 -0.7367
  237MPD1    C1 3647   4.468   1.619  15.503 -0.4122  0.6570 -0.3941
  237MPD1    C2 3648   4.343   1.575  15.524 -0.1906  1.3648 -0.4154
  237MPD1    C3 3649   4.275   1.504  15.421 -0.1470  0.1482 -0.8498
  237MPD1    C4 3650   4.340   1.475  15.301  0.4704  0.3324  0.3898
  237MPD1    C5 3651   4.472   1.507  15.290 -0.5848  0.2825 -0.1700
  237MPD1     H 3652   4.294   1.597  15.618  0.9073 -2.5123  1.0404
  237MPD1    H1 3653   4.304   1.417  15.217 -1.2065  1.8790  0.0495
  237MPD1    H2 3654   4.640   1.601  15.366  0.4053  0.2809  1.0233
  237MPD1    H3 3655   4.528   1.468  15.205 -0.3690  1.8914 -0.7824
  237MPD1     N 3656   4.144   1.464  15.431  0.3821 -0.0243  0.1235
  237MPD1    H5 3657   4.103   1.425  15.347  0.0906 -3.2149  1.7242
  237MPD1    N1 3658   4.543   1.674  15.605  0.0580 -0.3581 -0.1904
  237MPD1    H6 3659   4.499   1.729  15.678 -0.9199 -0.8767 -0.3950
  237MPD1    H7 3660   4.621   1.726  15.566 -1.5539  1.8218 -0.5103
  238MPD1     C 3661   1.031   0.818  14.558  0.8874  0.1104 -0.0057
  238MPD1    C1 3662   0.972   0.767  14.674  0.4431  0.0482  0.0747
  238MPD1    C2 3663   0.854   0.690  14.655  0.6715  0.6037 -0.0011
  238MPD1    C3 3664   0.777   0.696  14.540  0.7870 -0.3726 -0.4454
  238MPD1    C4 3665   0.833   0.763  14.436 -0.5508 -0.3618  0.9723
  238MPD1    C5 3666   0.954   0.817  14.445 -0.1684  0.0803 -0.0286
  238MPD1     H 3667   0.811   0.651  14.747  1.8074  0.7991  0.6091
  238MPD1    H1 3668   0.783   0.779  14.340 -1.7218 -1.4598  1.4069
  238MPD1    H2 3669   1.129   0.864  14.559  1.8068 -1.8672  1.0334
  238MPD1    H3 3670   0.998   0.873  14.362  3.0788 -2.9606 -0.3751
  238MPD1     N 3671   0.649   0.638  14.527  0.3317  0.3728 -0.3010
  238MPD1    H5 3672   0.600   0.658  14.441  1.7201 -0.4693 -1.2904
  238MPD1    N1 3673   1.034   0.765  14.798 -0.6211  0.5956 -0.1717
  238MPD1    H6 3674   0.981   0.735  14.880  0.3593  0.3558  0.3793
  238MPD1    H7 3675   1.084   0.851  14.820  0.6213 -0.6725  2.0069
  239MPD1     C 3676   1.186   0.965  14.990  0.6795 -0.5324  0.1161
  239MPD1    C1 3677   1.072   1.039  15.012 -0.0302  0.7604  0.0124
  239MPD1    C2 3678   1.023   1.118  14.910 -0.4517  0.2348 -0.3607
  239MPD1    C3 3679   1.081   1.122  14.787 -0.1539 -0.6325  0.4374
  239MPD1    C4 3680   1.193   1.039  14.765 -0.3735 -0.2646 -1.0924
  239MPD1    C5 3681   1.243   0.965  14.871 -0.7968  0.0848 -0.1571
  239MPD1     H 3682   0.945   1.187  14.940 -2.2642 -2.0577  0.1354
  239MPD1    H1 3683   1.249   1.029  14.673 -1.0492 -1.3195 -1.3825
  239MPD1    H2 3684   1.219   0.892  15.063  0.5037 -2.0455 -1.3192
  239MPD1    H3 3685   1.330   0.904  14.850 -0.7241 -0.3201  1.3418
  239MPD1     N 3686   1.024   1.192  14.684  0.0201 -0.4952  0.0647
  239MPD1    H5 3687   1.063   1.167  14.593 -1.2536  1.2276 -0.9611
  239MPD1    N1 3688   1.018   1.046  15.140 -0.2964  0.0990  1.1420
  239MPD1    H6 3689   1.035   0.960  15.191  0.0235 -0.9051 -0.6494
  239MPD1    H7 3690   0.920   1.071  15.130  0.1727  1.2484 -0.6075
  240MPD1     C 3691   0.499   1.100  13.941  0.6403 -0.5315  0.3674
  240MPD1    C1 3692   0.369   1.127  13.967 -0.0030 -0.3539 -0.0109
  240MPD1    C2 3693   0.293   1.044  14.047  0.4405  0.5078  0.8606
  240MPD1    C3 3694   0.352   0.946  14.121  1.5110 -0.6301 -0.4443
  240MPD1    C4 3695   0.487   0.915  14.093  0.2349  0.6321  0.4492
  240MPD1    C5 3696   0.559   0.982  13.996  0.4806  0.8728  0.0707
  240MPD1     H 3697   0.189   1.072  14.061  0.8420  0.6572  3.5702
  240MPD1    H1 3698   0.538   0.839  14.152 -1.7118  0.9702  2.5685
  240MPD1    H2 3699   0.556   1.173  13.885  0.4873 -0.5853  0.1447
  240MPD1    H3 3700   0.658   0.951  13.964  0.6284 -0.9667  2.2734
  240MPD1     N 3701   0.274   0.887  14.229  0.3064 -0.4432 -0.2901
  240MPD1    H5 3702   0.176   0.914  14.233  0.3603 -0.3453  0.4745
  240MPD1    N1 3703   0.300   1.232  13.898  0.0072  0.2272  0.3738
  240MPD1    H6 3704   0.241   1.281  13.965 -0.4762  0.4918 -0.2490
  240MPD1    H7 3705   0.371   1.291  13.854 -1.7842  1.2730 -1.0708
  241MPD1     C 3706   0.363   0.975  15.193  0.6608  0.1131  0.2098
  241MPD1    C1 3707   0.358   0.847  15.159 -0.4394 -0.2427 -0.6032
  241MPD1    C2 3708   0.310   0.811  15.039  0.0007  0.3312 -0.6580
  241MPD1    C3 3709   0.263   0.905  14.954  0.4282  0.0179  0.2047
  241MPD1    C4 3710   0.265   1.036  14.995  0.5886 -1.3935 -0.1077
  241MPD1    C5 3711   0.313   1.080  15.117 -0.2020 -0.4665 -0.5825
  241MPD1     H 3712   0.293   0.705  15.024 -0.1491  0.4759 -1.5159
  241MPD1    H1 3713   0.220   1.113  14.933  1.6599 -0.2558  0.5183
  241MPD1    H2 3714   0.396   1.003  15.293  2.3902  0.2091 -0.3891
  241MPD1    H3 3715   0.324   1.182  15.150 -0.8884 -0.2921 -0.8961
  241MPD1     N 3716   0.213   0.869  14.829 -0.8513  0.2991  0.5906
  241MPD1    H5 3717   0.199   0.946  14.765 -2.9126  0.3648  1.1461
  241MPD1    N1 3718   0.424   0.746  15.234  0.0793  0.0999 -0.2967
  241MPD1    H6 3719   0.375   0.659  15.214 -0.2784  0.3118 -0.3312
  241MPD1    H7 3720   0.423   0.776  15.331  0.0972  1.7068 -0.7910
  242MPD1     C 3721   0.180   0.050  15.694 -0.5031 -0.1125  0.6115
  242MPD1    C1 3722   0.075   0.000  15.623  0.1195 -0.5387 -0.2474
  242MPD1    C2 3723   0.110   4.666  15.512 -0.0231  0.5207 -0.4845
  242MPD1    C3 3724   0.236   4.669  15.461  0.7375 -1.2332 -0.2043
  242MPD1    C4 3725   0.335   4.730  15.530  0.7889  0.3664  0.1472
  242MPD1    C5 3726   0.310   0.045  15.646 -1.2344 -0.1924  0.1786
  242MPD1     H 3727   0.040   4.603  15.459 -1.0809  0.5369  0.8659
  242MPD1    H1 3728   0.437   4.719  15.496  1.4520  1.2556  1.8531
  242MPD1    H2 3729   0.168   0.088  15.794 -2.8806 -1.6200  0.8900
  242MPD1    H3 3730   0.395   0.078  15.704 -0.4793 -1.7704 -0.0259
  242MPD1     N 3731   0.290   4.603  15.346  0.1843 -0.1034  0.2414
  242MPD1    H5 3732   0.390   4.618  15.341  0.3504 -1.6623 -1.0380
  242MPD1    N1 3733   4.694   0.003  15.680  0.1860 -0.7035  0.1614
  242MPD1    H6 3734   4.679   0.090  15.731 -1.5061  0.1666 -1.8198
  242MPD1    H7 3735   4.627   0.019  15.605 -1.2106 -0.2199  1.5165
  243MPD1     C 3736   1.076   2.666  17.274  0.4535  0.3643 -0.9696
  243MPD1    C1 3737   1.156   2.672  17.389 -0.3880 -0.1058  0.4244
  243MPD1    C2 3738   1.292   2.691  17.367 -0.1400 -0.1114  0.3314
  243MPD1    C3 3739   1.339   2.689  17.236  0.0704 -0.0058 -0.4204
  243MPD1    C4 3740   1.255   2.694  17.124 -0.2744 -0.4516  0.0785
  243MPD1    C5 3741   1.125   2.675  17.150 -0.1012 -0.7913  0.1641
  243MPD1     H 3742   1.348   2.710  17.458  0.8252 -0.8025 -0.1113
  243MPD1    H1 3743   1.279   2.708  17.020 -0.8234  1.1637  0.1746
  243MPD1    H2 3744   0.970   2.647  17.288  0.6390  1.4311  1.8734
  243MPD1    H3 3745   1.056   2.670  17.066  0.8829 -1.1390 -0.6284
  243MPD1     N 3746   1.483   2.685  17.235 -0.1825  0.0413 -0.1960
  243MPD1    H5 3747   1.529   2.695  17.325  0.9025 -0.7400 -0.6626
  243MPD1    N1 3748   1.099   2.643  17.518  0.7283  0.2354 -0.1487
  243MPD1    H6 3749   1.143   2.697  17.592 -0.3440  1.3807 -0.3501
  243MPD1    H7 3750   0.998   2.647  17.512  0.6126 -0.9311  1.0452
  244MPD1     C 3751   2.031   2.172  17.592 -0.0311  0.5832  0.6910
  244MPD1    C1 3752   1.934   2.254  17.639  0.4960 -0.1793  0.1625
  244MPD1    C2 3753   1.908   2.363  17.557  0.0855  0.4943 -0.5863
  244MPD1    C3 3754   1.982   2.401  17.449 -0.2190  0.3705  0.2659
  244MPD1    C4 3755   2.088   2.324  17.413 -0.8324 -0.2216 -0.1244
  244MPD1    C5 3756   2.110   2.206  17.485 -0.3578  0.2049 -0.1852
  244MPD1     H 3757   1.835   2.431  17.601 -1.6301 -2.3851  1.0083
  244MPD1    H1 3758   2.157   2.348  17.333 -1.0577  4.3087  1.0277
  244MPD1    H2 3759   2.053   2.079  17.643 -0.5976 -0.4514 -0.9492
  244MPD1    H3 3760   2.195   2.143  17.461 -0.0375  1.0003 -1.1453
  244MPD1     N 3761   1.931   2.515  17.379 -0.0679  0.2517  0.3708
  244MPD1    H5 3762   1.847   2.553  17.421  0.2274  1.0062  0.2779
  244MPD1    N1 3763   1.837   2.204  17.739  0.6420  0.4588 -0.6658
  244MPD1    H6 3764   1.886   2.138   0.028 -1.5984 -0.7364 -0.1502
  244MPD1    H7 3765   1.787   2.275   0.022  0.9967  1.4817 -1.7045
  245MPD1     C 3766   3.307   2.694  13.359  0.8237 -0.0396  0.3880
  245MPD1    C1 3767   3.443   2.725  13.373 -0.7845 -0.0929  0.0712
  245MPD1    C2 3768   3.477   2.853  13.351  0.0023  0.2468 -0.3330
  245MPD1    C3 3769   3.381   2.952  13.317  0.7168  0.1113 -0.2844
  245MPD1    C4 3770   3.248   2.920  13.316  0.0488 -0.9177 -0.2594
  245MPD1    C5 3771   3.210   2.787  13.332 -0.3360 -0.4954  0.2688
  245MPD1     H 3772   3.581   2.881  13.346 -0.2588  1.3472  0.5074
  245MPD1    H1 3773   3.176   3.001  13.314  0.6728 -0.4294 -1.9459
  245MPD1    H2 3774   3.268   2.593  13.356  0.7271 -0.0521  2.1260
  245MPD1    H3 3775   3.106   2.756  13.326 -0.7312  0.7955  0.3188
  245MPD1     N 3776   3.436   3.084  13.305  0.2525 -0.2255  0.2761
  245MPD1    H5 3777   3.536   3.094  13.324  0.3708 -1.5891  0.3995
  245MPD1    N1 3778   3.532   2.624  13.346  0.0724  0.2337 -1.0635
  245MPD1    H6 3779   3.515   2.538  13.398  2.3606  0.0181 -0.6455
  245MPD1    H7 3780   3.628   2.647  13.371  0.8363 -1.7680 -2.1923
  246MPD1     C 3781   4.375   0.477   8.819  0.1281 -0.2192  0.0394
  246MPD1    C1 3782   4.323   0.432   8.942 -0.9144  0.1781  0.9187
  246MPD1    C2 3783   4.385   0.336   9.021  0.3870 -0.5130 -0.3224
  246MPD1    C3 3784   4.489   0.261   8.966  0.3312  0.5809  0.4688
  246MPD1    C4 3785   4.541   0.305   8.846  0.4898 -0.0995  0.2213
  246MPD1    C5 3786   4.494   0.420   8.777 -0.4959 -0.2036 -0.3038
  246MPD1     H 3787   4.341   0.309   9.116  1.1864  1.6012  0.6567
  246MPD1    H1 3788   4.634   0.257   8.816  0.5883  0.7840 -0.8740
  246MPD1    H2 3789   4.327   0.546   8.751  0.2306  1.2065  1.4004
  246MPD1    H3 3790   4.541   0.452   8.685 -1.7320 -0.7148 -1.1015
  246MPD1     N 3791   4.551   0.151   9.042  0.0751 -0.1645  0.2456
  246MPD1    H5 3792   4.499   0.117   9.122 -1.3194  0.8590 -0.2266
  246MPD1    N1 3793   4.218   0.510   8.993 -0.0544 -0.1859  0.1121
  246MPD1    H6 3794   4.165   0.461   9.065 -1.2084 -0.4743 -0.9460
  246MPD1    H7 3795   4.158   0.555   8.925  2.0060  0.5249 -1.2297
  247MPD1     C 3796   2.284   3.538  14.849  0.6854  0.5362  0.4798
  247MPD1    C1 3797   2.281   3.671  14.811  0.1544 -0.5423  0.4729
  247MPD1    C2 3798   2.399   3.737  14.813  0.4774 -0.8145  0.0613
  247MPD1    C3 3799   2.521   3.679  14.819  0.1800  0.2649 -0.3357
  247MPD1    C4 3800   2.524   3.545  14.841  0.2619 -0.0000  0.3368
  247MPD1    C5 3801   2.407   3.479  14.859  0.1289  0.2009  0.0513
  247MPD1     H 3802   2.388   3.845  14.814 -1.6286 -1.0353  1.2552
  247MPD1    H1 3803   2.613   3.484  14.843  0.5641  0.4715  1.0527
  247MPD1    H2 3804   2.198   3.474  14.866  0.1048  1.4402  0.8896
  247MPD1    H3 3805   2.410   3.375  14.889 -1.1401  0.0451 -0.3697
  247MPD1     N 3806   2.643   3.749  14.812 -0.2241 -0.3186 -0.2772
  247MPD1    H5 3807   2.727   3.696  14.831 -0.7324 -1.0649 -0.1303
  247MPD1    N1 3808   2.158   3.740  14.809 -0.8234  0.5118  0.7730
  247MPD1    H6 3809   2.081   3.684  14.774  1.9893 -3.1668  0.4117
  247MPD1    H7 3810   2.174   3.819  14.747  0.8517 -0.7054 -0.3480
  248MPD1     C 3811   4.394   3.337   0.799  0.1226  0.0255  0.6646
  248MPD1    C1 3812   4.285   3.423   0.793 -0.4248  0.1144 -0.6921
  248MPD1    C2 3813   4.166   3.377   0.743  0.2645  0.1463  0.3458
  248MPD1    C3 3814   4.155   3.246   0.700 -0.0613 -0.7039  0.1444
  248MPD1    C4 3815   4.273   3.171   0.686  0.1144 -0.0353 -0.1204
  248MPD1    C5 3816   4.394   3.213   0.736 -0.3241 -0.2167  0.7775
  248MPD1     H 3817   4.073   3.433   0.745  0.8960  1.1696  0.9387
  248MPD1    H1 3818   4.273   3.066   0.662  2.4129 -0.0561 -0.0567
  248MPD1    H2 3819   4.490   3.381   0.824 -1.4093  2.2650  2.5704
  248MPD1    H3 3820   4.487   3.158   0.735  0.8492  1.7918  0.2701
  248MPD1     N 3821   4.033   3.196   0.653  0.9775  0.4309 -0.0345
  248MPD1    H5 3822   3.956   3.260   0.666  1.0983  0.3984  0.8524
  248MPD1    N1 3823   4.303   3.552   0.851  0.1480  0.4134 -0.1755
  248MPD1    H6 3824   4.221   3.582   0.902 -0.0517 -0.3973 -0.0276
  248MPD1    H7 3825   4.382   3.558   0.915  1.6000  1.3341 -2.0350
  249MPD1     C 3826   0.737   3.628  10.406  0.2100  0.7233 -0.4322
  249MPD1    C1 3827   0.626   3.578  10.466  0.1898 -0.6549  0.0978
  249MPD1    C2 3828   0.613   3.437  10.466  0.0915 -0.0189 -0.1521
  249MPD1    C3 3829   0.702   3.362  10.394  0.3391 -0.4763  0.0424
  249MPD1    C4 3830   0.811   3.416  10.335 -0.2359 -0.3503  1.0812
  249MPD1    C5 3831   0.832   3.547  10.349 -0.5836  0.3691  0.7702
  249MPD1     H 3832   0.527   3.384  10.504 -0.3086  1.5691  1.1779
  249MPD1    H1 3833   0.886   3.353  10.290 -0.5269 -0.0430  0.1562
  249MPD1    H2 3834   0.772   3.731  10.407  1.4275  0.3199 -1.0975
  249MPD1    H3 3835   0.922   3.588  10.304 -0.3319 -2.7266 -1.5646
  249MPD1     N 3836   0.686   3.221  10.405  0.2670  0.7056 -0.1719
  249MPD1    H5 3837   0.610   3.178  10.457  0.8597  0.6731  0.6700
  249MPD1    N1 3838   0.535   3.656  10.546 -0.3838 -0.0756  0.2983
  249MPD1    H6 3839   0.515   3.748  10.509  1.3061  0.3161  0.3269
  249MPD1    H7 3840   0.449   3.606  10.566 -1.9620  2.5974  0.1832
  250MPD2     C 3841   2.304   1.763  13.533 -1.0629  0.2439 -0.1592
  250MPD2    C1 3842   2.241   1.821  13.426 -0.1666 -0.1696  0.7166
  250MPD2    C2 3843   2.133   1.754  13.370  0.1047 -0.4524  0.1208
  250MPD2    C3 3844   2.106   1.622  13.409 -0.9857  0.0752  0.3774
  250MPD2    C4 3845   2.179   1.559  13.503  0.2385 -0.3071 -0.1559
  250MPD2    C5 3846   2.280   1.631  13.568 -0.3700  0.0202 -0.3627
  250MPD2     H 3847   2.090   1.801  13.283 -0.3936  1.3635  1.3327
  250MPD2    H1 3848   2.145   1.458  13.523  1.7064 -1.6934 -4.6103
  250MPD2    H2 3849   2.383   1.815  13.586 -1.9521  0.2530  1.1592
  250MPD2    H3 3850   2.358   1.588  13.630  0.0785  0.9823 -0.2517
  250MPD2     N 3851   2.012   1.560  13.325  0.1472 -0.3728  0.2738
  250MPD2    H5 3852   1.961   1.622  13.263 -1.0461 -1.7466 -0.1272
  250MPD2    N1 3853   2.287   1.946  13.378 -0.0824  0.3735 -0.0722
  250MPD2    H7 3854   2.375   1.974  13.420  0.6314 -1.0553 -0.6208
  251TMC3    C1 3855   2.261   2.165  13.290  0.1824  0.2965  0.1139
  251TMC3    C2 3856   2.172   2.275  13.288  0.2337  0.2658 -0.2164
  251TMC3    C3 3857   2.234   2.394  13.285 -0.0466 -0.0193 -0.5873
  251TMC3    C4 3858   2.396   2.173  13.275 -0.2156 -0.5848  0.2540
  251TMC3    C5 3859   2.452   2.294  13.286 -1.2817 -0.0773  0.1473
  251TMC3    C6 3860   2.374   2.406  13.300  0.7039  0.6818  0.9724
  251TMC3     C 3861   2.203   2.043  13.330  0.8670 -0.2800 -0.3491
  251TMC3     O 3862   2.080   2.038  13.323 -0.1625  0.2816 -0.3045
  251TMC3     H 3863   2.065   2.258  13.280  0.4698 -1.0841 -0.4937
  251TMC3    H1 3864   2.449   2.078  13.270 -0.0826 -0.4905 -0.1846
  251TMC3    H2 3865   2.421   2.499  13.329 -0.5130  1.9410 -1.0976
  251TMC3    C7 3866   2.591   2.308  13.271  0.2806  0.2020 -0.4720
  251TMC3    C8 3867   2.149   2.504  13.327 -0.3514 -0.5045 -0.2013
  251TMC3    O1 3868   2.660   2.207  13.294  0.0692  0.0665 -0.5000
  251TMC3    O2 3869   2.059   2.475  13.404  0.2590 -0.1080  0.3238
  252TMC3    C1 3870   1.705   3.035   9.475 -0.1335  1.0367  0.2356
  252TMC3    C2 3871   1.834   3.068   9.452 -0.6133  0.5825  0.6926
  252TMC3    C3 3872   1.926   2.979   9.495 -0.5227  0.2296 -0.2078
  252TMC3    C4 3873   1.669   2.919   9.544  0.1019 -0.7827  0.0481
  252TMC3    C5 3874   1.767   2.846   9.598 -0.2322 -0.2348  0.2242
  252TMC3    C6 3875   1.896   2.865   9.570  0.1849  0.6563  0.7473
  252TMC3     C 3876   1.593   3.110   9.418  0.1485 -0.5006 -0.0052
  252TMC3     O 3877   1.485   3.054   9.423 -0.6076  1.0713 -0.2934
  252TMC3     H 3878   1.855   3.150   9.384  1.1279  0.6446  1.3010
  252TMC3    H1 3879   1.569   2.917   9.587  0.0498 -1.3860 -0.0953
  252TMC3    H2 3880   1.979   2.799   9.589  1.5553  1.0877 -3.8298
  252TMC3    C7 3881   1.722   2.724   9.677  0.6978  0.7567 -0.1132
  252TMC3    C8 3882   2.067   3.031   9.493  0.3138  0.6185 -0.3181
  252TMC3    O1 3883   1.609   2.681   9.653 -0.3363 -0.1091 -0.5661
  252TMC3    O2 3884   2.094   3.122   9.415  0.4695  0.1172  0.1948
  253MPD2     C 3885   3.262   1.706  15.285  0.2247  0.0074  0.0744
  253MPD2    C1 3886   3.138   1.722  15.337 -0.2772  0.3283 -0.2675
  253MPD2    C2 3887   3.136   1.772  15.466 -0.7038 -0.5474  0.2815
  253MPD2    C3 3888   3.244   1.788  15.547  0.4868 -0.0579 -0.4236
  253MPD2    C4 3889   3.366   1.768  15.487  0.6985 -0.0044 -0.0482
  253MPD2    C5 3890   3.373   1.737  15.355  0.3992 -0.5044  0.0926
  253MPD2     H 3891   3.036   1.774  15.508 -0.4879  0.6471  0.7187
  253MPD2    H1 3892   3.458   1.796  15.538  1.4563  0.8730 -1.8654
  253MPD2    H2 3893   3.276   1.678  15.181  0.7671  0.0465  0.1373
  253MPD2    H3 3894   3.470   1.739  15.306 -0.5450  0.7468 -1.7090
  253MPD2     N 3895   3.240   1.811  15.686 -0.4873 -0.0777 -0.2859
  253MPD2    H5 3896   3.327   1.797  15.736 -0.4042  0.6518 -0.2299
  253MPD2    N1 3897   3.021   1.726  15.263 -0.6635  0.1251  0.2609
  253MPD2    H7 3898   2.932   1.736  15.312  0.1595 -0.1455  1.7940
  254TMC3    C1 3899   3.145   1.897  15.888 -0.4164  0.8712 -0.7020
  254TMC3    C2 3900   3.046   1.977  15.939 -0.1702  0.2080  0.5141
  254TMC3    C3 3901   3.031   1.983  16.077 -0.3024 -0.1200 -0.8486
  254TMC3    C4 3902   3.229   1.827  15.973 -0.0962  0.4092  0.6517
  254TMC3    C5 3903   3.192   1.822  16.106  0.2843 -0.0471 -0.0664
  254TMC3    C6 3904   3.100   1.900  16.162  0.0748  0.4462 -1.0433
  254TMC3     C 3905   3.130   1.876  15.743 -0.3419 -0.0124 -0.3567
  254TMC3     O 3906   3.040   1.928  15.680  0.1425  0.2771  0.7438
  254TMC3     H 3907   2.980   2.036  15.876 -0.4032 -0.2670  0.3154
  254TMC3    H1 3908   3.290   1.749  15.929 -0.3582  1.4481 -1.5554
  254TMC3    H2 3909   3.079   1.901  16.268  1.2287 -0.1495 -0.8095
  254TMC3    C7 3910   3.265   1.739  16.196  0.1043 -0.3414  0.3419
  254TMC3    C8 3911   2.931   2.075  16.134  0.0604  0.6292  0.2615
  254TMC3    O1 3912   3.195   1.675  16.272 -0.5670  0.2269  0.6723
  254TMC3    O2 3913   2.955   2.105  16.249 -0.1295  0.2145 -0.0621
  255MPD2     C 3914   1.072   0.364  10.820  0.5115  0.8562  0.4574
  255MPD2    C1 3915   1.085   0.283  10.707 -0.0658  0.4478  0.6751
  255MPD2    C2 3916   1.177   0.184  10.717  0.7331 -0.0337  0.3265
  255MPD2    C3 3917   1.268   0.174  10.820 -0.9885  0.0236 -0.0915
  255MPD2    C4 3918   1.265   0.262  10.926  0.8184  0.5085 -0.4468
  255MPD2    C5 3919   1.159   0.351  10.929 -0.6594 -0.3409  0.0591
  255MPD2     H 3920   1.193   0.121  10.630  0.1389 -2.1928  1.8010
  255MPD2    H1 3921   1.330   0.259  11.012 -0.0370 -0.3462  0.1645
  255MPD2    H2 3922   0.986   0.428  10.837  0.2799  0.4721  0.7000
  255MPD2    H3 3923   1.136   0.406  11.019  1.3773 -0.4419  0.6590
  255MPD2     N 3924   1.364   0.073  10.817  0.4872 -0.5935 -0.1345
  255MPD2    H5 3925   1.366   0.016  10.733  0.2764 -0.1571 -0.4325
  255MPD2    N1 3926   1.004   0.309  10.596  0.4153  0.8331 -0.7225
  255MPD2    H7 3927   0.946   0.390  10.582 -0.1786  0.1970 -1.9067
  256TMC3    C1 3928   0.911   0.247  10.385  0.8544 -0.3963  0.7121
  256TMC3    C2 3929   0.930   0.377  10.332  0.2208  0.1553 -0.2843
  256TMC3    C3 3930   0.899   0.404  10.205 -0.4572  0.1609 -0.0947
  256TMC3    C4 3931   0.865   0.149  10.307 -0.2064  0.0689 -0.2723
  256TMC3    C5 3932   0.838   0.180  10.173 -0.1121 -0.8479 -0.0975
  256TMC3    C6 3933   0.859   0.304  10.121  0.1256 -0.4723 -0.3179
  256TMC3     C 3934   0.982   0.207  10.505 -0.9055  0.6963 -0.4089
  256TMC3     O 3935   1.019   0.095  10.497  0.1513  0.4782 -0.3165
  256TMC3     H 3936   0.956   0.462  10.394 -0.5720  0.9981 -1.1223
  256TMC3    H1 3937   0.825   0.053  10.334 -0.7468  0.1941 -0.6189
  256TMC3    H2 3938   0.823   0.323  10.021 -1.3439 -1.3451  0.0440
  256TMC3    C7 3939   0.807   0.063  10.091  0.0403 -0.4472  0.4116
  256TMC3    C8 3940   0.940   0.531  10.150  0.1406 -0.0344  0.2334
  256TMC3    O1 3941   0.755   4.705  10.135 -0.7671 -0.3549  0.0735
  256TMC3    O2 3942   0.892   0.558  10.038 -0.1835 -0.4891 -0.1664
  257MPD2     C 3943   0.754   2.074  13.216 -0.3117 -0.2985 -0.0614
  257MPD2    C1 3944   0.752   1.969  13.125 -0.4834 -0.3864  0.3619
  257MPD2    C2 3945   0.767   1.839  13.172  1.0307  0.2850  0.0735
  257MPD2    C3 3946   0.795   1.816  13.306 -0.7573  0.6299 -0.3533
  257MPD2    C4 3947   0.792   1.924  13.396  0.9832  0.3133  0.7221
  257MPD2    C5 3948   0.763   2.047  13.346 -0.3576 -0.0314 -0.3900
  257MPD2     H 3949   0.766   1.753  13.107 -0.3235  0.1081  0.3192
  257MPD2    H1 3950   0.797   1.912  13.504 -0.7366 -1.1522  0.6411
  257MPD2    H2 3951   0.729   2.173  13.178 -3.7658 -1.0258  0.2536
  257MPD2    H3 3952   0.743   2.122  13.421  1.3268  0.5605 -0.5432
  257MPD2     N 3953   0.820   1.681  13.348  0.1309  0.2817 -0.1246
  257MPD2    H5 3954   0.816   1.608  13.278 -2.7803 -0.2579  0.6058
  257MPD2    N1 3955   0.736   1.998  12.985  0.2500  0.1590 -0.4488
  257MPD2    H7 3956   0.727   2.096  12.960 -0.6396 -0.1890 -1.5136
  258TMC3    C1 3957   0.868   1.503  13.492 -0.1241  0.3772  0.5648
  258TMC3    C2 3958   0.910   1.422  13.387  0.1163  0.1738  0.9815
  258TMC3    C3 3959   0.942   1.291  13.410 -0.1849  0.0005  0.6633
  258TMC3    C4 3960   0.862   1.451  13.623  0.2934 -0.4898 -0.2126
  258TMC3    C5 3961   0.908   1.319  13.644  0.0923 -1.1907 -1.2815
  258TMC3    C6 3962   0.938   1.233  13.537  0.4950 -0.3286 -0.1582
  258TMC3     C 3963   0.826   1.645  13.481 -0.2416  0.0954 -0.3028
  258TMC3     O 3964   0.808   1.713  13.584 -0.9715 -0.5410  0.8961
  258TMC3     H 3965   0.921   1.467  13.289 -2.4487 -2.3682 -0.4709
  258TMC3    H1 3966   0.841   1.510  13.711  0.5936  1.8782 -1.7328
  258TMC3    H2 3967   0.968   1.131  13.561  2.6299  0.1565 -0.7596
  258TMC3    C7 3968   0.878   1.269  13.776 -0.5098  0.0328 -0.9987
  258TMC3    C8 3969   0.995   1.217  13.299  0.0562  0.0627 -0.1029
  258TMC3    O1 3970   0.767   1.304  13.826 -0.3152  0.3349  0.3625
  258TMC3    O2 3971   0.983   1.277  13.192  0.6197  0.0148 -0.0948
  259MPD2     C 3972   4.464   3.779   0.416  0.8181  0.6412  0.7579
  259MPD2    C1 3973   4.536   3.666   0.423  0.0647 -0.0516 -0.4089
  259MPD2    C2 3974   4.544   3.589   0.314 -0.5980 -0.6469 -0.6485
  259MPD2    C3 3975   4.497   3.628   0.189 -0.0490 -0.9929 -0.3484
  259MPD2    C4 3976   4.427   3.742   0.185  0.1995 -0.0803 -0.6450
  259MPD2    C5 3977   4.414   3.819   0.298 -0.1035 -0.1511  0.6580
  259MPD2     H 3978   4.592   3.492   0.320 -0.3086 -0.4919 -0.4357
  259MPD2    H1 3979   4.394   3.789   0.093 -0.5987 -1.1341 -0.8929
  259MPD2    H2 3980   4.440   3.836   0.505 -2.0010 -0.2373  0.5727
  259MPD2    H3 3981   4.351   3.907   0.303 -1.9378 -1.2434 -3.1267
  259MPD2     N 3982   4.526   3.542   0.075  0.0457  0.4254 -0.4041
  259MPD2    H5 3983   4.570   3.453   0.096  0.2256  0.5658 -0.1804
  259MPD2    N1 3984   4.588   3.630   0.552 -0.2290  0.4902 -0.0704
  259MPD2    H7 3985   4.573   3.702   0.622  0.6222  2.0983 -1.5240
  260TMC3    C1 3986   4.575   3.492  17.620 -0.0102 -0.6255 -0.1109
  260TMC3    C2 3987   4.643   3.553  17.526  0.7474  0.1695  0.3477
  260TMC3    C3 3988   0.005   3.484  17.485  0.0110  0.3266 -0.1511
  260TMC3    C4 3989   4.592   3.367  17.670 -0.4144  0.1549  0.2307
  260TMC3    C5 3990   4.692   3.296  17.612  0.0887 -0.1349  0.4118
  260TMC3    C6 3991   0.033   3.355  17.523  0.3082  0.2512  0.4164
  260TMC3     C 3992   4.509   3.584  17.712  0.1687 -0.2060 -0.0085
  260TMC3     O 3993   4.466   3.689  17.669  0.2349 -0.3441 -0.4145
  260TMC3     H 3994   4.635   3.660  17.509  1.3567  0.4737  1.9273
  260TMC3    H1 3995   4.530   3.328  17.751  0.9907 -1.4670  0.5162
  260TMC3    H2 3996   0.119   3.296  17.492 -0.2507 -0.5413  0.3847
  260TMC3    C7 3997   4.705   3.153  17.630 -1.0384  0.3261 -0.6577
  260TMC3    C8 3998   0.117   3.560  17.449 -0.0609  0.0855  0.1204
  260TMC3    O1 3999   0.013   3.093  17.537  0.1430  0.3668  0.2119
  260TMC3    O2 4000   0.091   3.661  17.391  0.3099  0.6981 -0.4627
  261MPD2     C 4001   1.398   1.602  12.818  0.1640  0.0065  0.2568
  261MPD2    C1 4002   1.531   1.585  12.787 -0.1545 -0.0426  0.0828
  261MPD2    C2 4003   1.580   1.633  12.664  0.2292 -0.6269  0.1784
  261MPD2    C3 4004   1.492   1.688  12.574  0.0124 -0.1142 -0.1841
  261MPD2    C4 4005   1.359   1.697  12.611 -0.1471 -0.8230 -0.5842
  261MPD2    C5 4006   1.314   1.660  12.728  0.4901 -0.5390 -0.5549
  261MPD2     H 4007   1.685   1.634  12.637 -0.1670  0.8329 -1.3232
  261MPD2    H1 4008   1.288   1.728  12.536  0.9511  2.4823 -0.2523
  261MPD2    H2 4009   1.357   1.584  12.917 -0.6191 -1.2243 -0.2911
  261MPD2    H3 4010   1.209   1.667  12.751  0.5834  0.5379 -0.4679
  261MPD2     N 4011   1.547   1.753  12.462  0.2143  0.3858 -0.1678
  261MPD2    H5 4012   1.647   1.741  12.445 -0.3356 -0.2717 -3.0383
  261MPD2    N1 4013   1.627   1.533  12.880 -0.4604  0.8133  0.4944
  261MPD2    H7 4014   1.721   1.508  12.850 -0.9997 -0.6559 -0.0170
  262TMC3    C1 4015   1.552   1.932  12.305 -0.0647  0.8777  0.3242
  262TMC3    C2 4016   1.497   2.053  12.265 -0.2258 -0.3270 -0.2608
  262TMC3    C3 4017   1.544   2.106  12.145 -0.2042  0.8206 -0.5513
  262TMC3    C4 4018   1.625   1.852  12.218 -0.2300  0.2008 -0.0785
  262TMC3    C5 4019   1.652   1.907  12.096  0.3835  0.1613 -0.7271
  262TMC3    C6 4020   1.616   2.033  12.057  0.2732  0.6460 -0.1439
  262TMC3     C 4021   1.474   1.856  12.406 -0.5359 -0.6419 -0.1433
  262TMC3     O 4022   1.369   1.910  12.443 -0.2145 -0.0033  0.0319
  262TMC3     H 4023   1.438   2.118  12.329  0.3638  0.8986 -0.9716
  262TMC3    H1 4024   1.652   1.750  12.243 -1.1173 -0.0663 -0.1988
  262TMC3    H2 4025   1.624   2.074  11.957 -1.1751  2.3138  0.4242
  262TMC3    C7 4026   1.734   1.828  12.002 -0.8636  0.0728  0.0257
  262TMC3    C8 4027   1.463   2.213  12.087  0.7502 -0.4507  0.4506
  262TMC3    O1 4028   1.738   1.707  12.013  0.2663 -0.1915 -0.1209
  262TMC3    O2 4029   1.522   2.308  12.037  0.2609 -0.0947  0.1790
  263MPD2     C 4030   2.572   0.889  11.574  0.1031  0.7977 -0.3428
  263MPD2    C1 4031   2.642   1.004  11.549 -0.1709 -0.4067 -0.3401
  263MPD2    C2 4032   2.601   1.076  11.439  0.4508 -0.1553 -0.1178
  263MPD2    C3 4033   2.506   1.029  11.354  0.9846  0.3153  0.1982
  263MPD2    C4 4034   2.439   0.912  11.380  0.0884 -0.3863  0.6162
  263MPD2    C5 4035   2.473   0.841  11.490 -0.4593  0.2610 -0.4790
  263MPD2     H 4036   2.660   1.163  11.410  0.2984 -0.5046 -1.5119
  263MPD2    H1 4037   2.355   0.878  11.321  1.4239 -2.8439  0.1354
  263MPD2    H2 4038   2.589   0.835  11.667 -0.6078  0.5368 -0.3686
  263MPD2    H3 4039   2.423   0.746  11.507  0.3428  0.3377  2.3152
  263MPD2     N 4040   2.463   1.111  11.245 -0.2488 -0.5741 -0.5818
  263MPD2    H5 4041   2.491   1.207  11.233 -1.5276  0.2344  2.7143
  263MPD2    N1 4042   2.745   1.026  11.632 -0.3997 -0.3767 -0.2334
  263MPD2    H7 4043   2.766   0.957  11.704 -1.2361 -0.9431 -0.5324
  264TMC3    C1 4044   2.357   1.183  11.046  0.1066  0.4897  0.1608
  264TMC3    C2 4045   2.312   1.296  11.107  0.8663 -0.0812 -0.2068
  264TMC3    C3 4046   2.340   1.419  11.054  0.1720  0.1744  0.1858
  264TMC3    C4 4047   2.428   1.188  10.927 -0.4238  0.5170  0.2514
  264TMC3    C5 4048   2.460   1.310  10.885  0.3078  0.5034 -0.2398
  264TMC3    C6 4049   2.416   1.428  10.938  0.5944 -0.0420  0.0999
  264TMC3     C 4050   2.402   1.073  11.130  0.2392 -0.4978  0.4072
  264TMC3     O 4051   2.392   0.957  11.088 -0.5661 -0.2214 -0.0033
  264TMC3     H 4052   2.269   1.270  11.202  0.9734 -1.1093 -0.4444
  264TMC3    H1 4053   2.479   1.103  10.883  0.6378  1.2906 -0.0086
  264TMC3    H2 4054   2.446   1.522  10.893 -0.4945  0.2714  0.0291
  264TMC3    C7 4055   2.593   1.320  10.831 -0.5349  0.0736  0.1932
  264TMC3    C8 4056   2.359   1.533  11.137  0.1965 -1.2889 -0.1216
  264TMC3    O1 4057   2.631   1.256  10.729 -0.8700  0.1418 -0.0393
  264TMC3    O2 4058   2.385   1.637  11.076  0.3063 -0.2055  0.5596
  265MPD2     C 4059   4.546   1.204  15.765 -0.4736  0.1989  0.3782
  265MPD2    C1 4060   4.574   1.323  15.709 -0.7119  0.0369 -0.0836
  265MPD2    C2 4061   4.633   1.321  15.584  0.1085  0.3166 -0.4319
  265MPD2    C3 4062   4.631   1.206  15.508  0.4174  0.8651 -0.0790
  265MPD2    C4 4063   4.593   1.089  15.572 -0.5269 -0.1529 -0.1290
  265MPD2    C5 4064   4.552   1.081  15.698 -0.3888 -0.2018  0.5163
  265MPD2     H 4065   4.661   1.410  15.529  1.0085  1.1807  1.4310
  265MPD2    H1 4066   4.595   0.996  15.516 -0.9870  1.7414 -3.3385
  265MPD2    H2 4067   4.516   1.197  15.868 -0.3162 -3.2513  0.2014
  265MPD2    H3 4068   4.521   0.986  15.741 -0.5722 -0.5588 -0.3882
  265MPD2     N 4069   4.646   1.200  15.364  0.0724  0.1508 -0.3075
  265MPD2    H5 4070   4.612   1.119  15.313 -0.7805  0.1527  0.2636
  265MPD2    N1 4071   4.558   1.443  15.781  0.6600 -0.1761 -0.1159
  265MPD2    H7 4072   4.550   1.526  15.723 -1.0743 -0.9902 -1.0196
  266TMC3    C1 4073   4.526   1.581  15.961  0.0271 -0.4542  0.8597
  266TMC3    C2 4074   4.618   1.640  16.051  0.1701  0.2842 -0.3868
  266TMC3    C3 4075   4.582   1.764  16.095  0.2726 -0.6359  0.3472
  266TMC3    C4 4076   4.404   1.637  15.938 -0.0777  0.5147  0.6484
  266TMC3    C5 4077   4.371   1.755  16.000 -0.4952  0.9558 -0.5087
  266TMC3    C6 4078   4.459   1.821  16.079  0.0341  0.2250  0.2327
  266TMC3     C 4079   4.554   1.450  15.919 -1.0377  0.1697 -0.2214
  266TMC3     O 4080   4.567   1.368  16.009 -0.4803 -0.2994 -0.2725
  266TMC3     H 4081   4.716   1.596  16.067  0.5718  0.8735 -1.2501
  266TMC3    H1 4082   4.323   1.584  15.891  0.0962 -2.6073  3.8824
  266TMC3    H2 4083   4.430   1.905  16.142  0.6761  0.5561  0.0839
  266TMC3    C7 4084   4.233   1.794  15.992  0.0953 -0.6060  0.1511
  266TMC3    C8 4085   4.690   1.842  16.158 -0.3599  0.0784  0.1232
  266TMC3    O1 4086   4.150   1.716  15.942 -0.8128 -0.2095  0.1228
  266TMC3    O2 4087   0.040   1.771  16.208 -0.0738  0.0541  0.2511
  267MPD2     C 4088   2.012   4.189   0.539  0.2508 -0.3824 -0.3967
  267MPD2    C1 4089   2.017   4.079   0.452 -0.3953 -0.4613  0.2229
  267MPD2    C2 4090   1.915   4.068   0.353 -0.4677 -0.7686  0.1210
  267MPD2    C3 4091   1.817   4.163   0.340  0.4125 -0.5512  0.0882
  267MPD2    C4 4092   1.825   4.280   0.421  0.7649  0.0167 -0.3774
  267MPD2    C5 4093   1.920   4.295   0.520  0.1963  1.0459 -0.1258
  267MPD2     H 4094   1.929   3.991   0.278 -2.1025  0.2033 -1.1885
  267MPD2    H1 4095   1.749   4.356   0.405 -0.1034 -0.5914  0.8356
  267MPD2    H2 4096   2.089   4.194   0.615  0.4363 -2.6864 -0.4418
  267MPD2    H3 4097   1.925   4.392   0.566  3.0755  1.1062 -0.5323
  267MPD2     N 4098   1.718   4.159   0.234 -0.1774 -0.3223 -0.1559
  267MPD2    H5 4099   1.664   4.243   0.219 -0.6570 -0.9127 -1.7514
  267MPD2    N1 4100   2.115   3.976   0.476 -0.2882 -0.7117  0.3025
  267MPD2    H7 4101   2.165   3.975   0.564 -2.3706  0.8693  1.4973
  268TMC3    C1 4102   2.235   3.772   0.404  0.2214 -0.0833  0.2073
  268TMC3    C2 4103   2.271   3.693   0.299  0.6932  0.1326  0.1370
  268TMC3    C3 4104   2.335   3.576   0.336  0.3042 -0.4903  0.4348
  268TMC3    C4 4105   2.239   3.734   0.535 -0.2528  0.0133  0.6193
  268TMC3    C5 4106   2.292   3.615   0.565  0.2881 -0.1544  0.0906
  268TMC3    C6 4107   2.350   3.541   0.465  0.5165  0.3222  0.2256
  268TMC3     C 4108   2.152   3.884   0.373  0.0166  0.2156  0.2287
  268TMC3     O 4109   2.138   3.900   0.255  0.3642 -0.0805 -0.4083
  268TMC3     H 4110   2.252   3.720   0.196 -2.2347 -2.1692  0.0490
  268TMC3    H1 4111   2.193   3.791   0.614 -0.3839  2.1256 -0.9776
  268TMC3    H2 4112   2.414   3.458   0.493 -0.1099 -0.6282 -1.1884
  268TMC3    C7 4113   2.343   3.579   0.699 -0.6125 -0.6828  0.2711
  268TMC3    C8 4114   2.416   3.499   0.240  0.6652  0.3442  0.3504
  268TMC3    O1 4115   2.388   3.470   0.721  0.2945 -0.2170 -0.9432
  268TMC3    O2 4116   2.506   3.433   0.289  0.3457  0.1962 -0.8770
  269MPD2     C 4117   2.510   2.099  15.685  0.2135  0.5038 -0.2506
  269MPD2    C1 4118   2.396   2.150  15.746  0.1051  0.0270 -0.7069
  269MPD2    C2 4119   2.353   2.276  15.703 -0.2664  1.6037  0.0681
  269MPD2    C3 4120   2.410   2.342  15.593  0.5331 -0.1163 -0.0997
  269MPD2    C4 4121   2.522   2.287  15.535  0.6438  0.4262  0.6001
  269MPD2    C5 4122   2.570   2.166  15.584  0.6814 -0.7924 -1.0522
  269MPD2     H 4123   2.265   2.323  15.745 -2.2125 -0.8651 -1.2342
  269MPD2    H1 4124   2.571   2.341  15.455  3.2734 -1.1362  1.1262
  269MPD2    H2 4125   2.546   2.002  15.718  0.7925  0.4821 -0.9483
  269MPD2    H3 4126   2.661   2.133  15.537  0.9540 -0.3770 -0.8179
  269MPD2     N 4127   2.354   2.472  15.573  0.0834  0.2807 -0.0359
  269MPD2    H5 4128   2.293   2.506  15.646  0.1245 -1.9567  1.0434
  269MPD2    N1 4129   2.327   2.078  15.841  0.2208  0.2073  0.4313
  269MPD2    H7 4130   2.376   1.994  15.871 -0.7790  0.2638  2.2416
  270TMC3    C1 4131   2.141   2.016  15.976 -0.1389 -0.4671 -0.5798
  270TMC3    C2 4132   2.006   2.000  15.986 -0.7901  0.8058  0.9661
  270TMC3    C3 4133   1.958   1.915  16.089 -0.0684 -0.5023 -0.5032
  270TMC3    C4 4134   2.231   1.959  16.063 -0.4136  0.5521 -0.8466
  270TMC3    C5 4135   2.182   1.870  16.152  0.3363  0.4267  0.1608
  270TMC3    C6 4136   2.048   1.853  16.176 -0.1821 -0.1152 -0.3700
  270TMC3     C 4137   2.196   2.099  15.873  0.7683  0.5557 -0.8050
  270TMC3     O 4138   2.117   2.188  15.840  0.3264 -0.1590 -0.5348
  270TMC3     H 4139   1.936   2.044  15.916 -1.8239  1.7435  2.5925
  270TMC3    H1 4140   2.338   1.974  16.061 -0.3239  0.0428  0.2896
  270TMC3    H2 4141   2.006   1.804  16.263 -2.1279 -2.1873 -2.4897
  270TMC3    C7 4142   2.260   1.751  16.143  0.5932 -0.0514  0.3333
  270TMC3    C8 4143   1.849   1.834  16.055  0.1761  0.1340 -0.4669
  270TMC3    O1 4144   2.376   1.756  16.106  0.3964  0.5266  0.1396
  270TMC3    O2 4145   1.799   1.777  16.148  0.0525 -0.6206 -0.6160
  271MPD2     C 4146   1.422   1.863  14.105 -0.7168 -0.0842  0.0174
  271MPD2    C1 4147   1.355   1.835  14.229  0.5900 -0.4448 -0.3932
  271MPD2    C2 4148   1.215   1.841  14.229 -0.4682 -0.0550 -0.0206
  271MPD2    C3 4149   1.148   1.863  14.111 -0.2891 -0.0360  0.3527
  271MPD2    C4 4150   1.215   1.879  13.994  0.2337 -0.2303  0.2277
  271MPD2    C5 4151   1.351   1.881  13.992 -0.4744 -0.4482 -0.7862
  271MPD2     H 4152   1.175   1.806  14.324 -1.0295  0.3146 -0.1247
  271MPD2    H1 4153   1.166   1.888  13.898  1.4874  2.5748 -0.1507
  271MPD2    H2 4154   1.530   1.875  14.109 -0.4681 -1.4075 -2.6539
  271MPD2    H3 4155   1.404   1.887  13.898  0.4723 -0.7203 -0.2715
  271MPD2     N 4156   1.009   1.861  14.117 -0.2297 -0.5062  0.3279
  271MPD2    H5 4157   0.960   1.853  14.029 -0.2529  2.3918  0.0694
  271MPD2    N1 4158   1.418   1.801  14.357  0.7693 -0.8215  0.3606
  271MPD2    H7 4159   1.362   1.771  14.437  0.1273  3.0221  1.3672
  272TMC3    C1 4160   1.589   1.733  14.500 -0.0311  0.2609  0.4456
  272TMC3    C2 4161   1.712   1.673  14.507 -0.0223 -0.0362  0.2898
  272TMC3    C3 4162   1.749   1.613  14.626 -0.3833  0.4209 -0.3572
  272TMC3    C4 4163   1.506   1.744  14.613 -0.2983 -0.1918 -0.2456
  272TMC3    C5 4164   1.545   1.680  14.729  0.0193  0.3205 -0.3349
  272TMC3    C6 4165   1.671   1.618  14.739 -0.5254  0.4748 -0.3440
  272TMC3     C 4166   1.553   1.788  14.376  0.3718 -0.7811 -0.7659
  272TMC3     O 4167   1.642   1.815  14.296 -0.7130 -0.1342  0.4185
  272TMC3     H 4168   1.783   1.684  14.426 -0.1395 -1.2883  0.0201
  272TMC3    H1 4169   1.414   1.799  14.605  0.1590  0.5488 -0.3936
  272TMC3    H2 4170   1.703   1.574  14.833  0.6166  1.3561 -0.3200
  272TMC3    C7 4171   1.471   1.726  14.847 -0.0275 -0.2098 -0.1627
  272TMC3    C8 4172   1.891   1.575  14.645  0.5912 -0.2174 -0.7121
  272TMC3    O1 4173   1.354   1.767  14.830  0.0520  0.0362  0.0695
  272TMC3    O2 4174   1.952   1.591  14.540  0.0452  0.1284 -0.2705
  273MPD2     C 4175   3.160   4.545  11.913  0.1540  0.1737 -0.2123
  273MPD2    C1 4176   3.242   4.650  11.921  0.0317  0.3350 -0.0053
  273MPD2    C2 4177   3.262   4.729  11.813 -0.2499  0.1032  0.4245
  273MPD2    C3 4178   3.189   4.708  11.695 -0.7799 -0.7725 -0.0471
  273MPD2    C4 4179   3.091   4.613  11.688  0.1779 -0.1672  0.3418
  273MPD2    C5 4180   3.081   4.538  11.799  0.9157 -0.5450  0.0398
  273MPD2     H 4181   3.345   0.056  11.807 -1.9773  2.3084  2.2059
  273MPD2    H1 4182   3.030   4.590  11.601 -0.1144  1.4429  0.1161
  273MPD2    H2 4183   3.150   4.474  11.995 -0.9360 -1.4494 -1.7289
  273MPD2    H3 4184   3.016   4.452  11.795  1.3555 -0.9781  2.1957
  273MPD2     N 4185   3.197   0.050  11.581  0.5199 -0.3320 -0.4731
  273MPD2    H5 4186   3.121   0.040  11.514 -0.5248 -2.1190  0.9918
  273MPD2    N1 4187   3.314   4.662  12.041 -0.1661 -0.2069 -0.2262
  273MPD2    H7 4188   3.297   4.593  12.114  0.3281 -1.9069 -1.7292
  274TMC3    C1 4189   3.272   0.198  11.423 -0.0102  0.0404  0.3039
  274TMC3    C2 4190   3.180   0.142  11.331  0.2867  0.0250  0.0438
  274TMC3    C3 4191   3.159   0.209  11.218  0.1101  0.2021  0.1035
  274TMC3    C4 4192   3.337   0.312  11.389 -0.2468 -0.1572  0.3193
  274TMC3    C5 4193   3.323   0.365  11.263  0.3583 -0.1433  0.1869
  274TMC3    C6 4194   3.238   0.311  11.170  0.2462 -0.2034  0.2762
  274TMC3     C 4195   3.297   0.142  11.555  0.0449  0.0077 -0.1429
  274TMC3     O 4196   3.404   0.159  11.610 -0.0546 -0.2956  0.2866
  274TMC3     H 4197   3.114   0.058  11.350 -2.0113  1.7115 -0.4268
  274TMC3    H1 4198   3.424   0.342  11.447  0.2250  1.4136 -1.1955
  274TMC3    H2 4199   3.220   0.371  11.082  0.5231 -0.2078  0.2162
  274TMC3    C7 4200   3.382   0.489  11.222 -0.0165 -0.1198 -0.7554
  274TMC3    C8 4201   3.031   0.197  11.158 -0.3422 -0.6011  0.1558
  274TMC3    O1 4202   3.391   0.516  11.104  0.2008 -0.2861  0.2574
  274TMC3    O2 4203   2.930   0.167  11.220  0.0449  0.4121 -0.4903
  275MPD2     C 4204   3.243   2.288  14.480 -0.1230  0.2761  0.6507
  275MPD2    C1 4205   3.195   2.353  14.591 -0.0207 -0.5729  0.8498
  275MPD2    C2 4206   3.066   2.342  14.636 -0.0591 -0.0782 -0.2357
  275MPD2    C3 4207   2.981   2.257  14.572 -0.2809 -1.4790 -0.0890
  275MPD2    C4 4208   3.025   2.183  14.465  0.1148  0.2461 -0.5681
  275MPD2    C5 4209   3.152   2.204  14.419 -0.1147  0.3956 -0.0902
  275MPD2     H 4210   3.032   2.394  14.725 -2.1977  0.0082 -1.1025
  275MPD2    H1 4211   2.952   2.123  14.412  0.0319 -0.2546  0.1182
  275MPD2    H2 4212   3.348   2.290  14.452 -0.1770 -1.3518  0.2991
  275MPD2    H3 4213   3.195   2.146  14.338 -1.4225 -2.9954  1.6096
  275MPD2     N 4214   2.845   2.240  14.610  0.2938  0.7735  0.5404
  275MPD2    H5 4215   2.796   2.170  14.556  1.3221 -0.2941  0.9914
  275MPD2    N1 4216   3.278   2.422  14.682  0.5534 -0.5040  0.7118
  275MPD2    H7 4217   3.231   2.463  14.762  1.0448 -0.0703  0.7789
  276TMC3    C1 4218   3.457   2.503  14.798 -0.4340  0.5595 -0.0301
  276TMC3    C2 4219   3.384   2.476  14.912 -0.4736 -0.8799  0.2002
  276TMC3    C3 4220   3.387   2.566  15.015  0.5407  0.5064  0.4234
  276TMC3    C4 4221   3.552   2.607  14.799 -0.5042 -0.1872  0.5771
  276TMC3    C5 4222   3.547   2.691  14.910  0.4156  0.0409  0.4132
  276TMC3    C6 4223   3.464   2.676  15.020  0.1458  0.0158 -0.4735
  276TMC3     C 4224   3.417   2.437  14.680 -0.1819  0.2907 -0.0836
  276TMC3     O 4225   3.498   2.410  14.588  0.1176 -0.7984  0.5132
  276TMC3     H 4226   3.307   2.400  14.908 -0.0943 -1.2596  0.1614
  276TMC3    H1 4227   3.619   2.615  14.715  1.2976 -0.1714  2.0282
  276TMC3    H2 4228   3.467   2.746  15.102  0.7074  1.1855 -1.4946
  276TMC3    C7 4229   3.649   2.791  14.914 -0.0032  0.3816 -0.4354
  276TMC3    C8 4230   3.298   2.548  15.136 -0.3473 -0.0163  1.3842
  276TMC3    O1 4231   3.617   2.894  14.974  0.0775  0.4349  0.4318
  276TMC3    O2 4232   3.339   2.595  15.241  0.7123 -0.0170 -0.4145
  277MPD2     C 4233   0.056   1.608  13.278 -0.1480  0.2369 -0.1477
  277MPD2    C1 4234   4.695   1.669  13.343  0.8531 -0.5094 -0.0556
  277MPD2    C2 4235   4.657   1.616  13.466  0.1787  0.0194 -0.1993
  277MPD2    C3 4236   4.731   1.513  13.520  0.3301 -0.1346  0.3218
  277MPD2    C4 4237   0.103   1.473  13.469  0.3018 -0.2554  0.2855
  277MPD2    C5 4238   0.140   1.522  13.344  0.0094  0.4391  0.3355
  277MPD2     H 4239   4.577   1.661  13.524  0.6099  1.2999 -0.5927
  277MPD2    H1 4240   0.170   1.397  13.507 -0.1811 -0.5834  0.4830
  277MPD2    H2 4241   0.077   1.650  13.180  1.3820 -1.2518 -0.4600
  277MPD2    H3 4242   0.231   1.498  13.289 -0.5522 -0.8792 -0.0194
  277MPD2     N 4243   4.678   1.452  13.636 -0.2634  0.5373 -0.2386
  277MPD2    H5 4244   4.602   1.499  13.684 -2.9079 -1.3620 -2.5611
  277MPD2    N1 4245   4.615   1.766  13.279  0.1496 -0.0610 -0.7291
  277MPD2    H7 4246   4.643   1.778  13.182  0.7430  0.8492 -0.4384
  278TMC3    C1 4247   4.630   1.282  13.792 -0.5206 -0.0974 -0.9218
  278TMC3    C2 4248   4.609   1.146  13.795 -0.6057 -0.4433 -0.1441
  278TMC3    C3 4249   4.506   1.101  13.879 -0.2239 -0.7522 -0.4723
  278TMC3    C4 4250   4.553   1.374  13.865  0.2282 -0.6936 -0.1688
  278TMC3    C5 4251   4.452   1.322  13.939 -0.1883 -0.4310  0.4184
  278TMC3    C6 4252   4.423   1.186  13.950  0.0263  0.3452 -0.1964
  278TMC3     C 4253   4.725   1.335  13.691  0.5202 -0.4480  0.4427
  278TMC3     O 4254   0.061   1.258  13.638  0.1343  0.0460  0.7396
  278TMC3     H 4255   4.680   1.078  13.750 -1.3826 -0.7059 -0.9659
  278TMC3    H1 4256   4.575   1.479  13.856  0.3255 -0.9059 -2.2565
  278TMC3    H2 4257   4.350   1.142  14.016  1.7804 -1.4540  0.5221
  278TMC3    C7 4258   4.371   1.416  14.016 -0.3754 -0.8571  0.4086
  278TMC3    C8 4259   4.476   0.962  13.878  0.2187 -0.3018 -0.7372
  278TMC3    O1 4260   4.427   1.516  14.055  0.6142 -0.1322  0.3161
  278TMC3    O2 4261   4.566   0.880  13.857  0.1187  0.4676 -0.3344
  279MPD2     C 4262   4.130   1.786   0.480  0.4066  0.4145  0.0831
  279MPD2    C1 4263   4.051   1.882   0.418  0.1857 -0.0596  0.1052
  279MPD2    C2 4264   4.051   1.879   0.278 -0.5195  0.1732  0.2150
  279MPD2    C3 4265   4.125   1.787   0.205  0.3206 -0.2554 -0.6442
  279MPD2    C4 4266   4.197   1.692   0.270  0.6672 -1.1045  0.4028
  279MPD2    C5 4267   4.197   1.691   0.407  0.0560 -0.9447  0.2537
  279MPD2     H 4268   4.001   1.968   0.239 -0.6716  0.1580  0.3739
  279MPD2    H1 4269   4.255   1.618   0.217 -1.4372 -3.6968  1.6782
  279MPD2    H2 4270   4.145   1.781   0.588  1.3849  1.0617 -0.0250
  279MPD2    H3 4271   4.250   1.607   0.449  3.7114  0.2474 -1.9650
  279MPD2     N 4272   4.134   1.801   0.063 -0.0129 -0.0838 -0.3367
  279MPD2    H5 4273   4.214   1.759   0.016 -0.9859 -1.6612 -0.6042
  279MPD2    N1 4274   3.976   1.968   0.509 -0.3756 -0.7862  0.0789
  279MPD2    H7 4275   4.011   1.973   0.604  1.5072  0.0250 -0.6612
  280TMC3    C1 4276   3.823   2.084   0.357 -0.4227  0.0676 -0.4391
  280TMC3    C2 4277   3.747   1.989   0.298 -0.4421 -0.0342  0.0406
  280TMC3    C3 4278   3.662   2.023   0.194 -0.5182  0.0889 -0.4164
  280TMC3    C4 4279   3.797   2.218   0.326 -0.1122 -0.1438  1.0993
  280TMC3    C5 4280   3.716   2.246   0.226  0.6823  0.3136  0.3695
  280TMC3    C6 4281   3.658   2.150   0.145  0.2910 -0.4337 -0.3568
  280TMC3     C 4282   3.893   2.075   0.486 -0.5255  0.1881 -0.5566
  280TMC3     O 4283   3.860   2.160   0.564 -0.0991  0.1868 -0.7965
  280TMC3     H 4284   3.750   1.894   0.350 -0.9567  0.5646  1.1820
  280TMC3    H1 4285   3.840   2.299   0.385 -1.1891  0.2270  1.3722
  280TMC3    H2 4286   3.592   2.165   0.061  2.6294 -0.0205 -2.1286
  280TMC3    C7 4287   3.699   2.386   0.196 -0.0492  0.5280 -0.1489
  280TMC3    C8 4288   3.613   1.916   0.103 -0.6431 -0.9514  0.0844
  280TMC3    O1 4289   3.754   2.465   0.274  0.3431 -0.5721 -0.2199
  280TMC3    O2 4290   3.583   1.941  17.754  0.3452 -0.4431  0.3275
  281TMC3    C1 4291   2.970   2.087  13.437  0.3539 -0.0336 -0.7397
  281TMC3    C2 4292   3.014   2.174  13.336 -0.2539  0.1747 -0.6251
  281TMC3    C3 4293   3.037   2.122  13.211  0.4638  0.2494 -0.1928
  281TMC3    C4 4294   2.967   1.951  13.418 -0.0287 -0.2595  0.5236
  281TMC3    C5 4295   3.003   1.906  13.294  0.5840  0.2312  0.3145
  281TMC3    C6 4296   3.039   1.985  13.188  0.7093  0.2505  0.3950
  281TMC3     C 4297   2.892   2.132  13.542 -0.2991 -0.1395 -0.0816
  281TMC3     O 4298   2.875   2.047  13.636  0.4181 -0.0776 -0.3434
  281TMC3     H 4299   3.027   2.281  13.350  0.7877 -0.3972  2.6377
  281TMC3    H1 4300   2.925   1.884  13.492  1.4390  0.4593  2.0128
  281TMC3    H2 4301   3.067   1.934  13.097  0.5076 -1.8427  1.4988
  281TMC3    C7 4302   3.027   1.764  13.281 -1.0890  0.1220  0.8415
  281TMC3    C8 4303   3.115   2.200  13.110 -0.0308  0.4749  0.4443
  281TMC3    O1 4304   3.104   1.722  13.194 -0.2537 -0.9386  0.3526
  281TMC3    O2 4305   3.186   2.128  13.040  0.6041 -0.7617 -0.1582
  282MPD2     C 4306   4.640   3.667  15.037  0.4414 -0.1871  0.1886
  282MPD2    C1 4307   4.506   3.696  15.033 -0.0061  0.3589  0.2783
  282MPD2    C2 4308   4.451   3.713  14.910 -0.4048  0.3782 -0.1559
  282MPD2    C3 4309   4.522   3.707  14.792 -0.0765  0.5139 -0.4531
  282MPD2    C4 4310   4.655   3.666  14.803  0.0656  0.3389 -0.0360
  282MPD2    C5 4311   4.717   3.658  14.924  0.4877  0.0457  0.1713
  282MPD2     H 4312   4.344   3.732  14.908 -0.6163 -0.7049  0.7017
  282MPD2    H1 4313   4.713   3.640  14.716  0.5543  2.8547 -0.4569
  282MPD2    H2 4314   4.701   3.650  15.126 -1.4855  1.6287  1.8549
  282MPD2    H3 4315   0.077   3.627  14.937  1.0490  2.2884  0.9619
  282MPD2     N 4316   4.455   3.710  14.669  0.3326  0.3536 -0.0536
  282MPD2    H5 4317   4.359   3.744  14.667 -0.1214 -0.9165  0.8011
  282MPD2    N1 4318   4.420   3.682  15.145 -0.3968  0.0912  0.1656
  282MPD2    H7 4319   4.325   3.707  15.120 -0.6304 -0.3483  0.6072
  283TMC3    C1 4320   4.352   3.614  15.357 -0.3318  0.2925 -0.4400
  283TMC3    C2 4321   4.257   3.718  15.368  0.1931  0.8491 -0.2003
  283TMC3    C3 4322   4.181   3.734  15.485 -0.3666  0.1151 -0.5334
  283TMC3    C4 4323   4.378   3.530  15.464  0.5480 -0.3652 -0.2227
  283TMC3    C5 4324   4.310   3.557  15.582  0.3693 -0.3399 -0.0079
  283TMC3    C6 4325   4.214   3.659  15.597  0.6671 -0.2189 -0.1080
  283TMC3     C 4326   4.459   3.626  15.265 -0.1045  0.2349 -0.1605
  283TMC3     O 4327   4.564   3.566  15.296 -0.7964 -0.8054 -0.2013
  283TMC3     H 4328   4.247   3.797  15.295  0.0926  0.7839 -0.2567
  283TMC3    H1 4329   4.447   3.447  15.454 -0.5641 -1.1392 -1.4549
  283TMC3    H2 4330   4.158   3.676  15.688  3.0442 -0.1207  1.3128
  283TMC3    C7 4331   4.329   3.476  15.701  0.0722  0.1926  0.0512
  283TMC3    C8 4332   4.109   3.861  15.522  0.2570 -0.5566  0.0727
  283TMC3    O1 4333   4.233   3.473  15.779 -0.2907  0.2143 -0.2199
  283TMC3    O2 4334   4.045   3.865  15.628 -0.1612  0.3696 -0.0384
  284MPD2     C 4335   2.274   2.634  12.158 -0.1763 -0.1005  0.0195
  284MPD2    C1 4336   2.396   2.659  12.102  0.6696 -0.5153  0.0984
  284MPD2    C2 4337   2.506   2.609  12.163 -0.0509 -0.9433 -0.0981
  284MPD2    C3 4338   2.498   2.515  12.265 -0.0900  0.0643  0.8972
  284MPD2    C4 4339   2.375   2.482  12.305 -0.3666  0.4213 -0.0123
  284MPD2    C5 4340   2.260   2.546  12.262 -0.3294 -0.0119  0.5037
  284MPD2     H 4341   2.605   2.646  12.138  0.4154  0.2907  3.5495
  284MPD2    H1 4342   2.361   2.411  12.386  2.1871  0.9520  0.8662
  284MPD2    H2 4343   2.186   2.676  12.111  0.3382  0.2273 -0.6522
  284MPD2    H3 4344   2.158   2.525  12.291 -0.9849 -0.7562 -2.3305
  284MPD2     N 4345   2.612   2.460  12.321 -0.3739 -0.0356  0.5124
  284MPD2    H5 4346   2.702   2.485  12.281 -0.4517 -0.5892  0.0005
  284MPD2    N1 4347   2.416   2.739  11.986  0.0315 -1.0926 -0.7061
  284MPD2    H7 4348   2.510   2.758  11.952 -0.6333  0.6135 -1.5761
  285TMC3    C1 4349   2.345   2.850  11.795  0.2290  0.3943  0.0524
  285TMC3    C2 4350   2.433   2.759  11.734  0.5186  0.1770  0.0858
  285TMC3    C3 4351   2.497   2.803  11.619  0.0230  0.6784 -0.4002
  285TMC3    C4 4352   2.329   2.975  11.758  0.1577 -0.0365 -0.2598
  285TMC3    C5 4353   2.414   3.016  11.650  0.5041  0.4060  0.2725
  285TMC3    C6 4354   2.497   2.933  11.581  0.1175  0.3530 -0.4275
  285TMC3     C 4355   2.318   2.819  11.936  0.2146  0.1658  0.0519
  285TMC3     O 4356   2.209   2.856  11.983  0.0718  0.2827 -0.1382
  285TMC3     H 4357   2.440   2.656  11.767 -0.7392 -0.3066 -1.1406
  285TMC3    H1 4358   2.278   3.042  11.826  0.2862 -0.4319  0.2167
  285TMC3    H2 4359   2.560   2.963  11.498  2.1774  0.5790  1.1923
  285TMC3    C7 4360   2.441   3.151  11.604 -0.2131  1.1102  0.3486
  285TMC3    C8 4361   2.602   2.716  11.566 -0.7407  0.3357  0.5873
  285TMC3    O1 4362   2.538   3.177  11.531  0.5223  0.0173 -0.0098
  285TMC3    O2 4363   2.598   2.597  11.602 -0.3505  0.4639  0.0801
  286MPD2     C 4364   3.348   1.689   1.426  0.1656  0.0286 -0.7282
  286MPD2    C1 4365   3.279   1.646   1.317 -0.1187  0.2054  0.0552
  286MPD2    C2 4366   3.304   1.522   1.266 -0.5730  0.3985  0.2813
  286MPD2    C3 4367   3.399   1.438   1.319 -0.4594  0.0040 -0.7323
  286MPD2    C4 4368   3.477   1.481   1.423  0.2328 -0.2483  0.5198
  286MPD2    C5 4369   3.447   1.607   1.474 -0.5270 -0.4359  0.1931
  286MPD2     H 4370   3.231   1.494   1.192 -0.1107  2.6567 -1.0329
  286MPD2    H1 4371   3.567   1.438   1.465  1.7560  3.2558  0.8516
  286MPD2    H2 4372   3.324   1.775   1.487 -0.2238 -1.7324  1.5974
  286MPD2    H3 4373   3.506   1.641   1.558  2.1171 -0.2820 -1.7042
  286MPD2     N 4374   3.428   1.313   1.267 -0.1998 -0.1507  0.2130
  286MPD2    H5 4375   3.497   1.258   1.318 -0.9586 -0.4405  0.9350
  286MPD2    N1 4376   3.158   1.712   1.277  0.0261  0.3781 -0.7248
  286MPD2    H7 4377   3.107   1.665   1.202  0.0260  0.6390 -0.8842
  287TMC3    C1 4378   3.456   1.155   1.097  0.4237 -0.3393 -0.8853
  287TMC3    C2 4379   3.409   1.091   0.985 -0.0684  0.1375  0.0221
  287TMC3    C3 4380   3.478   0.985   0.940 -0.2182  0.5070 -0.6135
  287TMC3    C4 4381   3.583   1.134   1.144  0.3790 -0.4021 -0.0240
  287TMC3    C5 4382   3.655   1.033   1.088 -0.5885 -0.5226  0.4086
  287TMC3    C6 4383   3.603   0.952   0.990 -0.0706 -0.7204 -0.1811
  287TMC3     C 4384   3.384   1.268   1.146  0.4165 -0.4440 -0.7957
  287TMC3     O 4385   3.304   1.316   1.069 -0.0997  0.4154  0.0739
  287TMC3     H 4386   3.307   1.121   0.963 -0.4905  0.9332  3.0392
  287TMC3    H1 4387   3.637   1.205   1.207 -2.7193  0.7360  1.3413
  287TMC3    H2 4388   3.644   0.853   0.979 -1.7200 -1.2806 -1.3135
  287TMC3    C7 4389   3.787   1.007   1.141  0.3471  0.9285 -0.1350
  287TMC3    C8 4390   3.423   0.899   0.840  0.3537 -0.0272  0.6275
  287TMC3    O1 4391   3.813   1.046   1.255 -0.1653  0.2896  0.1667
  287TMC3    O2 4392   3.480   0.793   0.838  0.2947  0.0296  0.0047
  288TMC3    C1 4393   0.122   1.177  14.439 -0.4519 -0.2362 -0.2036
  288TMC3    C2 4394   4.733   1.157  14.476  0.1314  0.1091 -0.0396
  288TMC3    C3 4395   4.630   1.226  14.414  0.2796  0.3022  0.0081
  288TMC3    C4 4396   0.162   1.256  14.336  0.3176  0.4812  0.3214
  288TMC3    C5 4397   0.060   1.332  14.276  0.0526  0.4557 -0.1743
  288TMC3    C6 4398   4.671   1.317  14.316  0.1571 -0.5106 -0.2998
  288TMC3     C 4399   0.217   1.118  14.538  1.5327 -0.0765  0.2029
  288TMC3     O 4400   0.174   1.066  14.644  0.3645 -0.7006 -0.3298
  288TMC3     H 4401   4.715   1.080  14.550  1.1151 -1.6982 -1.6668
  288TMC3    H1 4402   0.265   1.274  14.304  0.1227  1.1835  0.0834
  288TMC3    H2 4403   4.595   1.385  14.279  0.4019 -0.3653 -0.5353
  288TMC3    C7 4404   0.084   1.415  14.160  0.5658 -0.6032  0.6997
  288TMC3    C8 4405   4.543   1.280  14.511  0.8607 -0.7298 -0.1850
  288TMC3    O1 4406   0.199   1.388  14.123 -0.1919  0.3634  0.2279
  288TMC3    O2 4407   4.545   1.401  14.534  0.0307 -0.1769 -0.0809
  289MPD2     C 4408   4.627   0.393  14.122  0.1439  0.3790  0.0177
  289MPD2    C1 4409   4.573   0.463  14.230 -0.3792  0.2119  0.2924
  289MPD2    C2 4410   4.433   0.470  14.246 -0.1561 -0.4919  0.2374
  289MPD2    C3 4411   4.348   0.390  14.164 -0.0562 -0.2573 -0.1800
  289MPD2    C4 4412   4.405   0.309  14.071 -0.0410 -0.3669 -0.5428
  289MPD2    C5 4413   4.541   0.310  14.055  0.2147  0.4456  0.2886
  289MPD2     H 4414   4.394   0.539  14.320  1.3941  1.3833 -0.6851
  289MPD2    H1 4415   4.347   0.248  14.004 -0.0298 -1.1546  0.1563
  289MPD2    H2 4416   4.731   0.406  14.093  0.5327 -0.9793  0.7884
  289MPD2    H3 4417   4.577   0.250  13.973  1.7216  1.3322  0.3059
  289MPD2     N 4418   4.208   0.414  14.163  0.3873 -0.8606 -0.5738
  289MPD2    H5 4419   4.149   0.364  14.097  0.7705 -0.4713 -1.2123
  289MPD2    N1 4420   4.664   0.537  14.303  0.2678  0.4755 -0.2942
  289MPD2    H7 4421   0.017   0.537  14.269  0.9659 -1.9028  1.6761
  290TMC3    C1 4422   4.010   0.539  14.188 -0.1647 -0.0516 -0.2525
  290TMC3    C2 4423   3.942   0.654  14.177 -0.2341 -0.4847  0.4004
  290TMC3    C3 4424   3.806   0.643  14.179 -0.1005 -0.7143  0.6307
  290TMC3    C4 4425   3.939   0.416  14.199 -0.6846 -0.7572  0.2457
  290TMC3    C5 4426   3.799   0.416  14.190  0.2258  0.4525 -0.0669
  290TMC3    C6 4427   3.734   0.533  14.179  0.1488  0.7774 -0.4009
  290TMC3     C 4428   4.152   0.533  14.206  0.8951 -0.5650 -0.4328
  290TMC3     O 4429   4.207   0.635  14.237 -1.1016 -0.0089 -0.2145
  290TMC3     H 4430   3.989   0.752  14.172  1.5090 -1.2946  0.9779
  290TMC3    H1 4431   3.981   0.324  14.237 -0.3964 -1.5556 -2.0652
  290TMC3    H2 4432   3.627   0.541  14.195  0.3062  1.5403  0.2768
  290TMC3    C7 4433   3.712   0.313  14.254 -0.8407  0.5563  0.4077
  290TMC3    C8 4434   3.727   0.758  14.205 -0.3887 -0.4237  0.2005
  290TMC3    O1 4435   3.641   0.355  14.346  0.2743  0.2747  0.1346
  290TMC3    O2 4436   3.611   0.744  14.162 -0.2052 -0.1741 -0.2204
  291MPD2     C 4437   4.197   0.496   0.551 -0.5278 -0.8895  0.2278
  291MPD2    C1 4438   4.322   0.469   0.508  0.7011  0.3770  0.1916
  291MPD2    C2 4439   4.399   0.574   0.469  0.4203 -0.7158 -0.2525
  291MPD2    C3 4440   4.352   0.707   0.460  0.0664 -0.0007 -0.1457
  291MPD2    C4 4441   4.226   0.726   0.514 -0.2826 -0.0865  0.1159
  291MPD2    C5 4442   4.154   0.625   0.566  0.3512  0.0940  0.1381
  291MPD2     H 4443   4.496   0.552   0.427 -0.3649 -3.3214 -0.6887
  291MPD2    H1 4444   4.174   0.821   0.507 -0.1619  0.1298  2.0569
  291MPD2    H2 4445   4.129   0.426   0.598 -0.3921 -1.8170 -0.9727
  291MPD2    H3 4446   4.055   0.643   0.606 -0.3633 -1.8044 -0.8274
  291MPD2     N 4447   4.431   0.817   0.422  0.1120 -0.4730  0.4230
  291MPD2    H5 4448   4.377   0.903   0.412 -0.8405 -1.1368 -0.1137
  291MPD2    N1 4449   4.377   0.334   0.500  0.0285  0.3334 -0.0053
  291MPD2    H7 4450   4.477   0.330   0.484  0.3917 -0.6283  2.4952
  292TMC3    C1 4451   4.386   0.105   0.504  0.8232 -0.2739  0.3846
  292TMC3    C2 4452   4.460   0.106   0.620 -0.3885  0.0463  0.4062
  292TMC3    C3 4453   4.482   4.725   0.681  0.2775 -0.6510 -0.5293
  292TMC3    C4 4454   4.359   4.733   0.436 -0.3855 -0.2621  0.3135
  292TMC3    C5 4455   4.397   4.609   0.490  0.3133 -0.1967 -0.1702
  292TMC3    C6 4456   4.457   4.607   0.613 -0.5720  0.9170 -0.3736
  292TMC3     C 4457   4.303   0.221   0.483 -0.3541 -0.1552  0.1874
  292TMC3     O 4458   4.192   0.211   0.437 -0.1953  0.0737  0.1056
  292TMC3     H 4459   4.482   0.196   0.675 -1.8479  1.0871 -0.6856
  292TMC3    H1 4460   4.298   4.732   0.346  0.9075 -1.0947 -0.5594
  292TMC3    H2 4461   4.484   4.514   0.662  1.2262  0.6407 -1.8699
  292TMC3    C7 4462   4.292   4.504   0.485 -0.3680  0.2033 -0.4812
  292TMC3    C8 4463   4.475   4.717   0.825  0.5840  0.3559 -0.0273
  292TMC3    O1 4464   4.227   4.502   0.589 -0.1508  0.6313  0.3028
  292TMC3    O2 4465   4.500   0.084   0.875 -0.0680  0.8365  0.4560
  293MPD2     C 4466   1.209   2.077  12.714  0.1448  0.2124  0.0583
  293MPD2    C1 4467   1.136   1.968  12.736  0.2162 -0.0166  0.1347
  293MPD2    C2 4468   1.127   1.923  12.869  0.3031 -0.1562 -0.4833
  293MPD2    C3 4469   1.179   1.992  12.976 -0.2617 -0.7355  0.2089
  293MPD2    C4 4470   1.245   2.113  12.948 -0.1391  0.8201 -0.2121
  293MPD2    C5 4471   1.257   2.149  12.820  0.6497 -0.2755  0.6582
  293MPD2     H 4472   1.078   1.830  12.892 -1.5679  0.8012 -0.5810
  293MPD2    H1 4473   1.292   2.178  13.021  0.0978  0.5548 -0.1249
  293MPD2    H2 4474   1.241   2.111  12.616 -1.8305  3.9592  0.7288
  293MPD2    H3 4475   1.308   2.242  12.796 -0.4420  0.0047 -0.5751
  293MPD2     N 4476   1.159   1.958  13.115  0.8785  0.2307 -0.4854
  293MPD2    H5 4477   1.115   1.867  13.124  0.7184  0.4090  0.5136
  293MPD2    N1 4478   1.083   1.895  12.633 -0.0208  0.1666  0.0572
  293MPD2    H7 4479   1.082   1.936  12.540 -1.7741  3.7922  1.6576
  294TMC3    C1 4480   0.957   1.739  12.517  0.2915 -0.4037 -0.5459
  294TMC3    C2 4481   0.885   1.622  12.508 -0.5761  0.2547 -0.1029
  294TMC3    C3 4482   0.843   1.583  12.385  0.3032 -0.0119 -0.0284
  294TMC3    C4 4483   0.958   1.819  12.408  0.0223 -0.1926  0.5010
  294TMC3    C5 4484   0.907   1.769  12.290  0.0518 -0.8610  0.2230
  294TMC3    C6 4485   0.858   1.648  12.266  0.5518 -0.1558 -0.3329
  294TMC3     C 4486   1.010   1.779  12.646 -0.2461  0.3792  0.1806
  294TMC3     O 4487   0.983   1.708  12.742  0.3950 -0.0977 -0.3452
  294TMC3     H 4488   0.863   1.553  12.589  5.2576 -1.4282 -0.0005
  294TMC3    H1 4489   1.004   1.917  12.413 -1.9326  0.7238  0.8080
  294TMC3    H2 4490   0.807   1.623  12.173 -1.6801  1.5658  0.4212
  294TMC3    C7 4491   0.896   1.861  12.180  0.4935 -0.0064  0.3724
  294TMC3    C8 4492   0.767   1.456  12.391 -0.2939 -0.7575  0.4837
  294TMC3    O1 4493   0.877   1.980  12.204 -0.1486 -0.2553 -0.0412
  294TMC3    O2 4494   0.699   1.437  12.490  0.2620  0.0267 -0.0047
  295MPD2     C 4495   2.614   0.716   1.152  0.2152 -0.2737  0.6128
  295MPD2    C1 4496   2.608   0.600   1.078  0.1834 -0.2049  0.0739
  295MPD2    C2 4497   2.661   0.482   1.133 -0.0997 -0.4556  0.4322
  295MPD2    C3 4498   2.714   0.476   1.261 -0.3957  0.4423  0.3158
  295MPD2    C4 4499   2.704   0.588   1.340  0.6328  0.8003 -0.3370
  295MPD2    C5 4500   2.656   0.707   1.284 -0.2450 -0.2004 -0.6844
  295MPD2     H 4501   2.643   0.393   1.073  0.5265 -0.9456  0.9725
  295MPD2    H1 4502   2.724   0.585   1.446 -1.3056 -0.9164 -0.0212
  295MPD2    H2 4503   2.587   0.811   1.106 -1.2414 -1.1578 -0.3637
  295MPD2    H3 4504   2.654   0.789   1.355  0.9309  0.2507 -1.1772
  295MPD2     N 4505   2.765   0.358   1.317 -0.4240 -0.0824 -0.0265
  295MPD2    H5 4506   2.813   0.376   1.404  0.6190  0.2009 -0.6698
  295MPD2    N1 4507   2.546   0.587   0.952 -0.1667 -0.2564  0.0623
  295MPD2    H7 4508   2.531   0.492   0.920 -3.0487  0.4332 -0.5834
  296TMC3    C1 4509   2.825   0.133   1.347  0.6392  0.1087  0.2780
  296TMC3    C2 4510   2.918   0.169   1.438 -0.1707 -0.2649 -0.0029
  296TMC3    C3 4511   2.991   0.076   1.505  0.3479  0.1010 -0.9665
  296TMC3    C4 4512   2.801   0.003   1.320 -0.7216 -0.0555 -0.1328
  296TMC3    C5 4513   2.878   4.655   1.384 -0.5753 -0.0458 -0.0708
  296TMC3    C6 4514   2.971   4.691   1.479  0.1205 -0.2153  0.3708
  296TMC3     C 4515   2.751   0.231   1.266 -0.2748  0.1841  0.4687
  296TMC3     O 4516   2.681   0.185   1.171 -0.3012 -0.1353 -0.0539
  296TMC3     H 4517   2.939   0.271   1.468 -0.1339 -0.3831  0.3751
  296TMC3    H1 4518   2.730   4.711   1.247 -0.3490 -0.2867 -0.3839
  296TMC3    H2 4519   3.019   4.611   1.533  0.7825 -0.7404 -0.9843
  296TMC3    C7 4520   2.853   4.509   1.383  0.1726  0.0919 -0.0360
  296TMC3    C8 4521   3.081   0.104   1.615  0.1174 -0.1332 -0.2338
  296TMC3    O1 4522   2.957   4.439   1.381 -0.0526 -0.6688 -0.3443
  296TMC3    O2 4523   3.154   0.019   1.649 -0.0280 -0.4573  0.4178
  297MPD2     C 4524   3.585   2.086  16.298 -0.3862 -0.2960  0.2498
  297MPD2    C1 4525   3.590   2.200  16.216 -0.1721  0.2947  0.2302
  297MPD2    C2 4526   3.696   2.287  16.234  0.8940 -0.5291 -0.5793
  297MPD2    C3 4527   3.786   2.274  16.332  0.0157  0.7759 -0.6361
  297MPD2    C4 4528   3.768   2.174  16.422  0.0462  0.1140 -0.8156
  297MPD2    C5 4529   3.672   2.078  16.402 -0.1964 -0.6747  0.7445
  297MPD2     H 4530   3.706   2.357  16.153 -0.8149  1.5472  1.0116
  297MPD2    H1 4531   3.842   2.155  16.499 -0.9334 -2.1895 -0.4532
  297MPD2    H2 4532   3.519   2.001  16.288 -1.4975  0.4459  1.2598
  297MPD2    H3 4533   3.664   2.000  16.477  1.1808 -1.1826  0.3669
  297MPD2     N 4534   3.889   2.373  16.350  0.7396 -0.1252 -0.1273
  297MPD2    H5 4535   3.911   2.430  16.269  0.7942  4.0584  2.8497
  297MPD2    N1 4536   3.512   2.229  16.101 -0.2234  0.4354  0.7694
  297MPD2    H7 4537   3.503   2.326  16.073  1.4740 -0.5507 -3.1671
  298TMC3    C1 4538   3.352   2.180  15.920 -0.3669  0.7060 -0.1962
  298TMC3    C2 4539   3.360   2.131  15.786 -0.0534  0.3192 -0.0581
  298TMC3    C3 4540   3.286   2.190  15.690 -0.3088 -0.1713  0.4671
  298TMC3    C4 4541   3.270   2.284  15.955  0.0617 -1.1452 -0.4216
  298TMC3    C5 4542   3.201   2.334  15.852  0.3510  0.1565 -0.6056
  298TMC3    C6 4543   3.209   2.298  15.723 -0.4495  0.1106  0.6364
  298TMC3     C 4544   3.447   2.130  16.028  1.0303  0.2949 -0.3021
  298TMC3     O 4545   3.477   2.010  16.027 -0.4352 -0.2136 -0.1466
  298TMC3     H 4546   3.432   2.050  15.772 -1.8118 -1.6609  2.2982
  298TMC3    H1 4547   3.255   2.315  16.057 -1.1742 -3.3010  0.0597
  298TMC3    H2 4548   3.172   2.355  15.639 -0.5845 -3.9234 -2.0112
  298TMC3    C7 4549   3.100   2.428  15.898 -0.0162  0.4314  0.1989
  298TMC3    C8 4550   3.305   2.158  15.546  0.5519 -0.3279 -0.2441
  298TMC3    O1 4551   3.130   2.494  15.995 -0.0469 -0.4180  0.3380
  298TMC3    O2 4552   3.244   2.228  15.471  0.0542 -0.5286 -0.0430
  299MPD2     C 4553   4.374   2.339  10.793  0.1541 -0.6242 -0.0199
  299MPD2    C1 4554   4.305   2.285  10.893 -0.3009 -0.1776  0.6527
  299MPD2    C2 4555   4.214   2.183  10.866 -0.0705 -0.0881 -0.2682
  299MPD2    C3 4556   4.185   2.143  10.738  0.1756  0.5228 -0.7164
  299MPD2    C4 4557   4.269   2.183  10.638 -0.0865  0.4015 -0.2366
  299MPD2    C5 4558   4.359   2.287  10.665 -0.6192  0.2479  0.1175
  299MPD2     H 4559   4.160   2.141  10.950  0.8629 -0.1912  0.2799
  299MPD2    H1 4560   4.263   2.155  10.533  1.5120 -0.4219 -0.1075
  299MPD2    H2 4561   4.449   2.415  10.809  0.5081 -0.5143 -2.2412
  299MPD2    H3 4562   4.409   2.344  10.588 -2.0310  0.4323 -0.6774
  299MPD2     N 4563   4.080   2.046  10.719  0.3102  0.2690  0.1391
  299MPD2    H5 4564   4.023   2.021  10.800  0.4437  1.1621  0.5141
  299MPD2    N1 4565   4.309   2.346  11.019  0.1814  0.1715  0.6613
  299MPD2    H7 4566   4.389   2.408  11.032  0.9983 -1.0096  1.2925
  300TMC3    C1 4567   3.940   1.887  10.613 -0.1735  0.0874  0.0323
  300TMC3    C2 4568   3.835   1.897  10.518  0.2550  0.4942 -0.2136
  300TMC3    C3 4569   3.709   1.871  10.567  0.4934  0.8087 -0.0939
  300TMC3    C4 4570   3.924   1.828  10.739  0.8719  0.3943  0.4208
  300TMC3    C5 4571   3.796   1.791  10.769  0.3145 -0.3659 -0.2567
  300TMC3    C6 4572   3.687   1.807  10.686 -0.1685  0.0634 -0.5817
  300TMC3     C 4573   4.037   1.995  10.599  0.3439 -0.3131  0.5013
  300TMC3     O 4574   4.061   2.037  10.489  0.3454  0.3010 -0.6428
  300TMC3     H 4575   3.853   1.943  10.422 -0.6775  2.1590  0.4054
  300TMC3    H1 4576   4.000   1.820  10.816  1.5111 -0.4926 -0.2930
  300TMC3    H2 4577   3.586   1.775  10.705  0.0451 -0.2085  0.0780
  300TMC3    C7 4578   3.773   1.770  10.914 -0.5576  0.3557 -0.0002
  300TMC3    C8 4579   3.617   1.986  10.537  0.0361 -0.1305  0.2407
  300TMC3    O1 4580   3.856   1.702  10.966 -0.2953  0.2555 -0.0966
  300TMC3    O2 4581   3.557   2.049  10.623  0.1794 -0.0400  0.3558
  301MPD2     C 4582   2.108   3.582   1.092 -0.2249 -0.4011  0.0728
  301MPD2    C1 4583   2.009   3.549   1.003  0.1704  0.0177  0.1762
  301MPD2    C2 4584   1.953   3.418   1.008 -0.2836 -0.1628 -0.1971
  301MPD2    C3 4585   2.002   3.326   1.098  0.4659 -0.4602 -0.2197
  301MPD2    C4 4586   2.098   3.360   1.193 -0.2108  0.5489 -0.8001
  301MPD2    C5 4587   2.140   3.491   1.193 -0.0069  0.4866 -0.6863
  301MPD2     H 4588   1.881   3.392   0.931  0.5579  0.9878 -1.3803
  301MPD2    H1 4589   2.119   3.300   1.281  0.7534  2.2232  0.1148
  301MPD2    H2 4590   2.138   3.687   1.094  0.7064 -0.6796  0.4548
  301MPD2    H3 4591   2.208   3.510   1.276 -1.6053 -0.5489  0.8474
  301MPD2     N 4592   1.946   3.197   1.109  0.1246  0.4936  0.0256
  301MPD2    H5 4593   1.985   3.141   1.184 -0.0765 -0.1695 -0.3697
  301MPD2    N1 4594   1.953   3.635   0.911  0.0349 -0.1563 -0.1025
  301MPD2    H7 4595   1.879   3.598   0.853  0.7389 -0.6971 -0.6497
  302TMC3    C1 4596   1.793   3.016   1.061  0.3520  0.0725 -0.1973
  302TMC3    C2 4597   1.854   2.941   1.159  0.9864  0.4675  0.5485
  302TMC3    C3 4598   1.811   2.806   1.155  0.9304 -0.7615  0.3772
  302TMC3    C4 4599   1.694   2.971   0.971  0.7849 -0.0857  0.4690
  302TMC3    C5 4600   1.658   2.842   0.986 -0.1983 -0.0632  0.0776
  302TMC3    C6 4601   1.710   2.756   1.073 -0.0741  0.8841  0.2933
  302TMC3     C 4602   1.823   3.155   1.053 -0.7356  0.5118 -0.3640
  302TMC3     O 4603   1.749   3.220   0.982  0.1445 -0.6623 -0.6767
  302TMC3     H 4604   1.923   2.976   1.234  0.0706  0.9088  1.1738
  302TMC3    H1 4605   1.676   3.026   0.879  2.1967  0.7621  0.7131
  302TMC3    H2 4606   1.667   2.657   1.075  1.8478 -0.0263 -3.1271
  302TMC3    C7 4607   1.568   2.775   0.890 -0.2743  0.0778 -0.1367
  302TMC3    C8 4608   1.899   2.712   1.210  0.3117  0.4700 -0.0615
  302TMC3    O1 4609   1.583   2.657   0.862  0.1028  0.8117  0.1252
  302TMC3    O2 4610   2.018   2.738   1.230 -0.6588 -0.3256 -0.4831
  303MPD2     C 4611   1.564   1.745  10.946  0.7591  0.2812 -0.1504
  303MPD2    C1 4612   1.440   1.764  10.891  0.6703  0.1460 -0.5210
  303MPD2    C2 4613   1.422   1.784  10.752  0.0429 -0.4263 -1.0447
  303MPD2    C3 4614   1.540   1.772  10.674 -0.2447  0.2430  0.2314
  303MPD2    C4 4615   1.665   1.758  10.732 -0.1244  0.8158 -0.0216
  303MPD2    C5 4616   1.675   1.745  10.869 -0.0079  0.0699  0.4362
  303MPD2     H 4617   1.323   1.798  10.710  0.8128 -0.6436 -2.8957
  303MPD2    H1 4618   1.751   1.759  10.667 -0.5172  1.1346 -0.5385
  303MPD2    H2 4619   1.580   1.734  11.052 -0.8268 -0.6918 -0.0186
  303MPD2    H3 4620   1.765   1.732  10.927  0.9288 -1.4143 -1.3300
  303MPD2     N 4621   1.536   1.761  10.531 -0.2403 -0.1833  0.5400
  303MPD2    H5 4622   1.618   1.727  10.482  1.0436  2.0462  1.1099
  303MPD2    N1 4623   1.339   1.741  10.990  0.3962 -0.1033  1.3229
  303MPD2    H7 4624   1.364   1.732  11.088  0.8575 -0.6992  1.1522
  304TMC3    C1 4625   1.131   1.694  11.083 -0.3433  0.0856  0.6091
  304TMC3    C2 4626   1.000   1.735  11.090  0.8368 -0.4827 -0.5995
  304TMC3    C3 4627   0.907   1.672  11.162  0.8977 -0.3422 -0.2127
  304TMC3    C4 4628   1.168   1.573  11.141  0.1336  0.7008 -0.2758
  304TMC3    C5 4629   1.072   1.502  11.201  0.1014 -0.0445  0.4523
  304TMC3    C6 4630   0.946   1.554  11.222 -0.0684  0.6324  0.3186
  304TMC3     C 4631   1.206   1.732  10.964  0.0095  0.0522  0.0861
  304TMC3     O 4632   1.143   1.754  10.863  0.2153  0.5876 -0.8609
  304TMC3     H 4633   0.971   1.810  11.017 -1.0237 -0.5142  0.1165
  304TMC3    H1 4634   1.271   1.540  11.135  0.5467  1.7056  1.5913
  304TMC3    H2 4635   0.872   1.506  11.286 -0.2946  0.8968  0.2566
  304TMC3    C7 4636   1.044   1.376  11.136 -0.3569 -0.5195 -0.0536
  304TMC3    C8 4637   0.801   1.632  11.067 -0.1718  0.3468 -0.4619
  304TMC3    O1 4638   0.926   1.344  11.134  0.1514 -0.5954 -0.3271
  304TMC3    O2 4639   0.837   1.586  10.960  0.3971  0.9487 -0.7826
  305MPD2     C 4640   4.192   4.061  13.782 -0.1730 -0.3958  0.3492
  305MPD2    C1 4641   4.255   3.943  13.818  0.3752  0.6768 -0.4181
  305MPD2    C2 4642   4.246   3.836  13.723  0.1498 -0.5563  0.1780
  305MPD2    C3 4643   4.183   3.850  13.603  0.4190  0.8625  0.7501
  305MPD2    C4 4644   4.126   3.975  13.578  0.2148  0.4894  0.0562
  305MPD2    C5 4645   4.120   4.079  13.671  0.7018  0.4544 -0.9361
  305MPD2     H 4646   4.291   3.739  13.745 -1.2166 -1.3749 -0.6171
  305MPD2    H1 4647   4.073   3.991  13.485  3.8765  1.5785 -1.8538
  305MPD2    H2 4648   4.195   4.151  13.843  3.3392 -1.7593  2.2249
  305MPD2    H3 4649   4.077   4.176  13.648 -1.9142 -0.8445 -1.5068
  305MPD2     N 4650   4.185   3.757  13.494  0.3403  0.4542 -0.2659
  305MPD2    H5 4651   4.139   3.780  13.407 -0.6159 -2.9312 -0.6193
  305MPD2    N1 4652   4.338   3.940  13.937  0.1068  0.1528 -0.3551
  305MPD2    H7 4653   4.349   4.025  13.990  2.2642 -0.1174 -0.3878
  306TMC3    C1 4654   4.491   3.842  14.088  0.1775 -0.2502 -0.1205
  306TMC3    C2 4655   4.590   3.747  14.086 -0.0142  0.8332 -0.5089
  306TMC3    C3 4656   4.670   3.742  14.197  0.2433  0.1610  0.1298
  306TMC3    C4 4657   4.463   3.935  14.186  0.1950 -0.5380 -0.1650
  306TMC3    C5 4658   4.568   3.947  14.273  0.0779  0.0093 -0.5540
  306TMC3    C6 4659   4.665   3.851  14.284  0.2138 -0.1257 -0.4604
  306TMC3     C 4660   4.389   3.820  13.983 -0.2352  0.0643 -0.1334
  306TMC3     O 4661   4.359   3.707  13.952  0.3054 -0.3161 -0.0339
  306TMC3     H 4662   4.607   3.680  14.003 -1.4675  0.0989 -0.2172
  306TMC3    H1 4663   4.384   4.010  14.183  0.4501 -0.2562  0.2353
  306TMC3    H2 4664   4.734   3.850  14.368  0.2257 -0.0665 -0.4695
  306TMC3    C7 4665   4.533   4.018  14.404 -0.3835  0.2830 -1.0390
  306TMC3    C8 4666   0.042   3.656  14.192 -0.7714 -0.0651  0.2607
  306TMC3    O1 4667   4.413   4.021  14.424  0.0751  0.1475  0.6712
  306TMC3    O2 4668   0.085   3.635  14.078  0.2671 -0.2437  0.2839
  307MPD2     C 4669   2.748   2.282   0.354  0.1561  0.8415  0.1050
  307MPD2    C1 4670   2.670   2.396   0.373 -0.5759 -0.1383 -0.4112
  307MPD2    C2 4671   2.596   2.414   0.493 -0.3664  0.5464  0.5225
  307MPD2    C3 4672   2.597   2.310   0.585  0.3479 -0.4005  1.0895
  307MPD2    C4 4673   2.686   2.203   0.570  0.2785  0.4724  0.0734
  307MPD2    C5 4674   2.760   2.192   0.459 -0.1709  0.6101  0.1315
  307MPD2     H 4675   2.535   2.503   0.501  1.4434  1.7225  1.2546
  307MPD2    H1 4676   2.701   2.120   0.637 -1.4484  1.4395  1.6642
  307MPD2    H2 4677   2.802   2.255   0.264 -0.9015  3.2889 -1.2473
  307MPD2    H3 4678   2.833   2.112   0.450 -2.0468 -0.6299 -4.3166
  307MPD2     N 4679   2.511   2.314   0.703 -0.7608 -0.3551  0.2668
  307MPD2    H5 4680   2.454   2.395   0.724 -1.5269 -1.0878  0.9870
  307MPD2    N1 4681   2.666   2.502   0.283 -0.1292  0.1097 -0.1233
  307MPD2    H7 4682   2.621   2.588   0.314 -1.2549 -0.8829  0.9838
  308TMC3    C1 4683   2.148   2.184   0.859 -0.0404  0.5482 -0.7700
  308TMC3    C2 4684   2.112   2.315   0.845 -0.3485 -0.6478  0.1345
  308TMC3    C3 4685   2.208   2.410   0.873 -0.0121  0.1500  0.6131
  308TMC3    C4 4686   2.276   2.146   0.875 -0.8772 -0.2586  0.4726
  308TMC3    C5 4687   2.367   2.242   0.877 -0.5098  0.1327  0.1137
  308TMC3    C6 4688   2.335   2.372   0.876  1.3206  0.3701  0.5736
  308TMC3     C 4689   2.056   2.075   0.830  0.2554  0.5857 -0.5759
  308TMC3     O 4690   2.088   1.967   0.877 -0.4207 -0.3021 -0.3845
  308TMC3     H 4691   2.009   2.349   0.843 -0.8853 -2.2452  1.1216
  308TMC3    H1 4692   2.305   2.043   0.856 -0.5065 -0.0785  0.0634
  308TMC3    H2 4693   2.408   2.452   0.873  0.8372  0.8714  2.1618
  308TMC3    C7 4694   2.478   2.211   0.790  0.8949 -0.2657  0.0518
  308TMC3    C8 4695   2.172   2.549   0.905 -0.2621  0.0475  0.4256
  308TMC3    O1 4696   2.517   2.098   0.792  0.4758 -0.3260  0.4060
  308TMC3    O2 4697   2.254   2.602   0.978  0.2992  0.4181  0.1136
  309MPD2     C 4698   1.849   2.274  17.125  0.1756  0.1729  0.0834
  309MPD2    C1 4699   1.787   2.326  17.022  0.0601  0.0246  0.0399
  309MPD2    C2 4700   1.648   2.318  17.019  0.2292 -0.2427 -0.2680
  309MPD2    C3 4701   1.577   2.283  17.126  0.1021  0.3701  0.5919
  309MPD2    C4 4702   1.645   2.227  17.233 -0.3779  0.1761 -0.3183
  309MPD2    C5 4703   1.782   2.208  17.220  1.1708  0.0455 -0.1374
  309MPD2     H 4704   1.594   2.358  16.934  2.5750 -0.8237 -2.0195
  309MPD2    H1 4705   1.590   2.190  17.319  0.9448 -0.6640  0.1566
  309MPD2    H2 4706   1.957   2.272  17.122  0.1961 -0.1372  1.1803
  309MPD2    H3 4707   1.841   2.163  17.299  0.3037  2.1408  1.7034
  309MPD2     N 4708   1.431   2.300  17.118 -0.1576 -0.1920 -0.2622
  309MPD2    H5 4709   1.388   2.311  17.026 -1.3015  1.7280  0.4905
  309MPD2    N1 4710   1.856   2.398  16.918  0.4738  0.2982 -0.3189
  309MPD2    H7 4711   1.814   2.444  16.838  1.0150  0.4642 -0.5067
  310TMC3    C1 4712   2.051   2.458  16.782  1.0710 -0.0958 -0.4627
  310TMC3    C2 4713   1.991   2.563  16.720  0.1933 -0.1323  0.3792
  310TMC3    C3 4714   2.034   2.620  16.604  0.5276 -0.2427 -0.1518
  310TMC3    C4 4715   2.161   2.391  16.726  0.2727 -0.2266 -0.5949
  310TMC3    C5 4716   2.206   2.451  16.615  0.2291  0.2305 -0.0551
  310TMC3    C6 4717   2.148   2.563  16.551 -0.2645 -0.6999 -0.3824
  310TMC3     C 4718   1.988   2.386  16.894 -0.0558  0.3987  0.4542
  310TMC3     O 4719   2.072   2.311  16.945 -0.1071  0.0045  0.1511
  310TMC3     H 4720   1.903   2.604  16.767 -1.1144 -1.6178 -0.7886
  310TMC3    H1 4721   2.223   2.315  16.773  1.1855  0.2571 -1.0296
  310TMC3    H2 4722   2.194   2.586  16.455  3.5804  1.5123  1.9724
  310TMC3    C7 4723   2.273   2.359  16.521 -0.7415  0.9521 -0.1997
  310TMC3    C8 4724   1.929   2.650  16.509 -0.0261  0.2235  0.0486
  310TMC3    O1 4725   2.310   2.400  16.413  0.1987  0.2483  0.4621
  310TMC3    O2 4726   1.815   2.622  16.541  0.1998  0.7550 -0.2432
  311MPD2     C 4727   3.320   3.242  12.604 -0.7304 -0.5624 -0.8117
  311MPD2    C1 4728   3.323   3.376  12.656  0.1052  0.8450  0.5802
  311MPD2    C2 4729   3.214   3.426  12.729  0.2223  0.0237  0.2656
  311MPD2    C3 4730   3.111   3.341  12.761 -0.0539  0.3777  0.6729
  311MPD2    C4 4731   3.089   3.231  12.680 -0.2430  0.2838  0.8827
  311MPD2    C5 4732   3.197   3.180  12.614  0.5165 -1.1651  0.3937
  311MPD2     H 4733   3.220   3.524  12.775  1.2269  0.4038 -0.6563
  311MPD2    H1 4734   3.002   3.166  12.686 -0.0536  0.0787  1.4338
  311MPD2    H2 4735   3.400   3.199  12.545  0.9840  1.7315 -0.1632
  311MPD2    H3 4736   3.192   3.078  12.577 -2.0555 -1.3115  1.1237
  311MPD2     N 4737   3.015   3.394  12.846  0.1607 -0.3205  0.7834
  311MPD2    H5 4738   3.031   3.484  12.890 -1.0077 -0.3886  1.3587
  311MPD2    N1 4739   3.437   3.463  12.639 -0.1136 -0.4434 -0.6707
  311MPD2    H7 4740   3.432   3.560  12.669 -0.6404 -0.4445 -0.7526
  312TMC3    C1 4741   2.848   3.401  12.999  0.0189  0.2768  0.0498
  312TMC3    C2 4742   2.715   3.389  12.998  0.3581 -0.0339  0.0848
  312TMC3    C3 4743   2.642   3.433  13.102  0.2458 -0.5848 -0.3039
  312TMC3    C4 4744   2.915   3.440  13.119 -0.6554  0.0548 -0.5186
  312TMC3    C5 4745   2.839   3.486  13.218  0.0003  0.1374 -0.1735
  312TMC3    C6 4746   2.706   3.498  13.208 -0.3015  0.5219 -0.3677
  312TMC3     C 4747   2.909   3.333  12.890  0.4071  0.3722  0.0281
  312TMC3     O 4748   2.849   3.231  12.860  0.5821 -0.2064  0.2980
  312TMC3     H 4749   2.668   3.340  12.913  1.5275  0.5553 -0.9157
  312TMC3    H1 4750   3.023   3.438  13.128 -0.7827 -1.9346  0.5194
  312TMC3    H2 4751   2.660   3.522  13.303 -1.2095  2.0950 -1.2037
  312TMC3    C7 4752   2.897   3.524  13.345  0.3298 -0.6959  0.5442
  312TMC3    C8 4753   2.502   3.404  13.098  0.1832  0.2207  0.3204
  312TMC3    O1 4754   2.843   3.617  13.408 -0.2975  0.5303  0.4395
  312TMC3    O2 4755   2.464   3.346  13.003 -0.3903  0.3286 -0.3725
  313MPD2     C 4756   2.916   1.987  10.922  0.3503 -0.3976  0.2145
  313MPD2    C1 4757   2.937   2.116  10.872  0.7228 -0.2711  0.0152
  313MPD2    C2 4758   3.028   2.133  10.766 -0.1121 -0.2896 -0.1084
  313MPD2    C3 4759   3.082   2.022  10.701 -0.7052 -0.3748 -0.4458
  313MPD2    C4 4760   3.077   1.893  10.760 -0.8766  0.0319 -0.0004
  313MPD2    C5 4761   2.998   1.881  10.873 -0.6105 -0.0421  0.2225
  313MPD2     H 4762   3.043   2.227  10.715 -0.2764 -0.2770 -0.1320
  313MPD2    H1 4763   3.119   1.805  10.712 -0.5386  0.9029 -1.3140
  313MPD2    H2 4764   2.864   1.955  11.012 -2.0655  0.3341 -0.9449
  313MPD2    H3 4765   2.993   1.778  10.907  2.1382  0.1839  1.2974
  313MPD2     N 4766   3.151   2.052  10.581  0.0693  0.0885  0.1857
  313MPD2    H5 4767   3.131   2.146  10.547  0.8573 -0.4057 -1.6675
  313MPD2    N1 4768   2.870   2.226  10.923  0.2364  0.9030 -0.4570
  313MPD2    H7 4769   2.892   2.319  10.888 -1.7300  1.2847 -0.6367
  314TMC3    C1 4770   2.726   2.353  11.072  0.1392 -0.2113  0.3893
  314TMC3    C2 4771   2.811   2.461  11.075 -0.6711  0.9407 -0.1876
  314TMC3    C3 4772   2.760   2.585  11.075  0.4270  0.0245 -0.1566
  314TMC3    C4 4773   2.590   2.363  11.067 -0.2972 -0.2773 -0.8499
  314TMC3    C5 4774   2.540   2.490  11.058 -0.8084 -0.1864  0.4047
  314TMC3    C6 4775   2.624   2.601  11.073 -0.0396 -0.3671  0.4804
  314TMC3     C 4776   2.772   2.224  11.018  0.7746 -0.4023  0.1786
  314TMC3     O 4777   2.698   2.133  11.047 -0.3598 -0.3154 -0.0601
  314TMC3     H 4778   2.919   2.450  11.067 -0.9853 -1.8359 -0.4264
  314TMC3    H1 4779   2.520   2.280  11.061 -0.3446 -0.2678 -0.4309
  314TMC3    H2 4780   2.586   2.699  11.095 -1.0224  0.0353 -2.9704
  314TMC3    C7 4781   2.419   2.502  10.985  0.0540  0.1780  0.2889
  314TMC3    C8 4782   2.844   2.704  11.064 -0.2484 -0.5902 -0.3443
  314TMC3    O1 4783   2.326   2.425  11.008  0.4633  0.3826 -0.9233
  314TMC3    O2 4784   2.803   2.814  11.095 -0.3989  0.1704 -0.8398
  315MPD2     C 4785   2.752   2.081  17.401  0.5594  0.2565 -0.2579
  315MPD2    C1 4786   2.814   2.138  17.508 -0.5187 -0.5058  0.0320
  315MPD2    C2 4787   2.887   2.250  17.484 -0.1195  0.5782 -0.1743
  315MPD2    C3 4788   2.878   2.323  17.363 -0.0709 -0.5470 -0.0996
  315MPD2    C4 4789   2.807   2.269  17.262  0.5979  0.1504 -0.4645
  315MPD2    C5 4790   2.744   2.152  17.281 -0.4144  0.5913  0.0173
  315MPD2     H 4791   2.938   2.296  17.568 -2.7372  0.0648  1.7068
  315MPD2    H1 4792   2.796   2.312  17.163  0.2868  1.0149 -0.0575
  315MPD2    H2 4793   2.696   1.987  17.403  1.0403 -0.0377 -0.6167
  315MPD2    H3 4794   2.692   2.103  17.199 -2.0945  0.5020  1.1213
  315MPD2     N 4795   2.951   2.438  17.345 -0.2313 -0.4916  0.5016
  315MPD2    H5 4796   3.010   2.463  17.424  0.3055  0.5292 -0.2202
  315MPD2    N1 4797   2.832   2.082  17.637  0.5240 -0.9283 -0.5496
  315MPD2    H7 4798   2.903   2.117  17.701 -0.0402 -1.0615  0.1453
  316TMC3    C1 4799   3.083   2.596  17.226  0.2868 -0.4789  0.4218
  316TMC3    C2 4800   3.156   2.612  17.343 -0.3626  0.1450 -0.1182
  316TMC3    C3 4801   3.274   2.681  17.330 -0.2194  0.1574 -0.0709
  316TMC3    C4 4802   3.123   2.642  17.102 -0.1841  0.4199  0.3221
  316TMC3    C5 4803   3.247   2.703  17.101 -0.8443 -0.4607 -0.0611
  316TMC3    C6 4804   3.323   2.727  17.210  0.1924 -0.7687  0.6866
  316TMC3     C 4805   2.964   2.509  17.229  0.7683 -0.4430 -0.0845
  316TMC3     O 4806   2.901   2.508  17.124  0.2762 -0.6258  0.4598
  316TMC3     H 4807   3.114   2.596  17.442  0.5155 -0.9949  0.0702
  316TMC3    H1 4808   3.069   2.612  17.013 -1.6096  0.6107  1.1335
  316TMC3    H2 4809   3.416   2.782  17.213 -1.7225  2.4766  0.9570
  316TMC3    C7 4810   3.299   2.741  16.975 -0.2627  0.3567  0.0069
  316TMC3    C8 4811   3.334   2.730  17.451  0.4279  0.1114  0.0082
  316TMC3    O1 4812   3.420   2.754  16.962  0.3209 -1.0841 -0.1241
  316TMC3    O2 4813   3.385   2.841  17.441  0.3651  1.0377 -0.1670
  317MPD2     C 4814   4.154   0.370  12.390  0.2640 -0.3944  0.2300
  317MPD2    C1 4815   4.231   0.254  12.408 -0.8544  0.4968 -0.6325
  317MPD2    C2 4816   4.301   0.236  12.523  0.5788 -0.0853 -0.6214
  317MPD2    C3 4817   4.290   0.321  12.627 -0.4778  0.0337  0.8449
  317MPD2    C4 4818   4.201   0.429  12.612  0.1692 -0.3790 -0.0163
  317MPD2    C5 4819   4.134   0.453  12.496  0.2215 -0.9431  0.3607
  317MPD2     H 4820   4.356   0.143  12.525  1.8111  0.6359 -1.1634
  317MPD2    H1 4821   4.203   0.500  12.695  1.2297 -0.2901 -0.1116
  317MPD2    H2 4822   4.089   0.377  12.304  0.1144 -0.9812  0.3010
  317MPD2    H3 4823   4.067   0.539  12.498 -0.1797 -1.2302 -0.7365
  317MPD2     N 4824   4.370   0.290  12.740 -0.6312  0.2328  0.0788
  317MPD2    H5 4825   4.412   0.198  12.754 -1.0683  0.0161 -0.0430
  317MPD2    N1 4826   4.254   0.161  12.298 -0.1999 -0.1540  0.1298
  317MPD2    H7 4827   4.336   0.102  12.309  1.6281  2.4181  0.4217
  318TMC3    C1 4828   4.449   0.310  12.964 -0.7319 -0.3084  0.6697
  318TMC3    C2 4829   4.415   0.182  12.985  0.2058 -0.2321 -0.0726
  318TMC3    C3 4830   4.479   0.113  13.082 -0.2808  0.4849 -0.1773
  318TMC3    C4 4831   4.540   0.369  13.042 -0.0638 -0.3475  0.0045
  318TMC3    C5 4832   4.609   0.294  13.134  0.1089  0.3444  0.0763
  318TMC3    C6 4833   4.570   0.166  13.166  0.6283 -1.1768  0.0193
  318TMC3     C 4834   4.387   0.377  12.848  0.2556 -0.0154  0.2423
  318TMC3     O 4835   4.358   0.495  12.865 -0.0102  0.1765 -0.2607
  318TMC3     H 4836   4.333   0.145  12.925 -0.5659  3.0542 -1.0331
  318TMC3    H1 4837   4.571   0.470  13.017 -0.1327 -0.3040  0.0936
  318TMC3    H2 4838   4.598   0.103  13.250 -1.6359 -1.3915  0.6028
  318TMC3    C7 4839   4.721   0.347  13.196  1.4125 -0.0988 -0.1216
  318TMC3    C8 4840   4.410   4.739  13.132  0.0015 -0.3542 -0.6396
  318TMC3    O1 4841   4.742   0.466  13.175 -0.2617 -0.2626  0.0369
  318TMC3    O2 4842   4.477   4.665  13.200 -0.0602  0.1717 -0.1132
  319MPD2     C 4843   1.052   1.579  16.859 -0.3236  0.3884  0.2062
  319MPD2    C1 4844   0.932   1.547  16.928  0.1060  0.3906  0.2299
  319MPD2    C2 4845   0.824   1.490  16.860 -0.0803  0.4017 -0.4656
  319MPD2    C3 4846   0.836   1.460  16.730 -0.1751  1.3928  0.3516
  319MPD2    C4 4847   0.941   1.517  16.663 -0.4471 -0.0137  0.0332
  319MPD2    C5 4848   1.044   1.573  16.727  0.1270 -0.4690  0.2105
  319MPD2     H 4849   0.743   1.456  16.923 -1.2614 -1.5357 -3.0755
  319MPD2    H1 4850   0.946   1.501  16.556  0.0990  1.3392 -0.1447
  319MPD2    H2 4851   1.140   1.616  16.910  0.5227  1.1655 -1.8579
  319MPD2    H3 4852   1.126   1.613  16.670 -0.1533  0.6127  0.5604
  319MPD2     N 4853   0.744   1.395  16.651  0.0140 -0.0937  0.2645
  319MPD2    H5 4854   0.745   1.408  16.550 -0.7897 -0.6897  0.1823
  319MPD2    N1 4855   0.917   1.559  17.070 -0.0139  0.1523  0.2817
  319MPD2    H7 4856   0.837   1.515  17.113  1.3372 -0.7161  1.9140
  320TMC3    C1 4857   0.558   1.272  16.577  0.1749 -0.0718  0.6239
  320TMC3    C2 4858   0.537   1.363  16.472  0.6356  0.3015 -0.1352
  320TMC3    C3 4859   0.480   1.310  16.357 -0.3546 -0.4841  0.2478
  320TMC3    C4 4860   0.530   1.141  16.566  0.2774 -0.0787 -0.0189
  320TMC3    C5 4861   0.480   1.091  16.446  0.1233  0.2178 -0.3438
  320TMC3    C6 4862   0.460   1.173  16.340  0.1274  0.1237  0.2341
  320TMC3     C 4863   0.641   1.312  16.695  0.4284 -0.3933 -0.1328
  320TMC3     O 4864   0.625   1.256  16.802 -0.2637  0.7985 -0.1285
  320TMC3     H 4865   0.549   1.469  16.492 -1.8495  0.4996  0.3536
  320TMC3    H1 4866   0.555   1.079  16.651 -1.2220 -0.7818 -0.0911
  320TMC3    H2 4867   0.445   1.132  16.240  1.0649  1.1795 -0.3450
  320TMC3    C7 4868   0.476   0.953  16.422 -0.7736 -0.0425 -0.0532
  320TMC3    C8 4869   0.434   1.407  16.256 -1.0265  0.1664  0.3436
  320TMC3    O1 4870   0.396   0.922  16.336 -0.1107 -0.0657 -0.5903
  320TMC3    O2 4871   0.482   1.519  16.242 -0.2285  0.4314 -0.2497
  321TMC3    C1 4872   0.919   1.666  17.281 -0.0071 -0.0169 -0.1863
  321TMC3    C2 4873   0.908   1.558  17.359  0.5879 -0.2302 -0.3251
  321TMC3    C3 4874   0.914   1.572  17.495 -0.0912  0.4212 -0.4912
  321TMC3    C4 4875   0.942   1.787  17.334  0.1011 -0.2770 -0.0930
  321TMC3    C5 4876   0.932   1.810  17.465 -0.4588 -0.4574 -0.6790
  321TMC3    C6 4877   0.909   1.705  17.547  0.8647  0.0464  1.0046
  321TMC3     C 4878   0.992   1.645  17.150 -0.4328  0.5351  0.4352
  321TMC3     O 4879   1.075   1.730  17.114  0.4702 -0.0887  0.4344
  321TMC3     H 4880   0.933   1.460  17.318  0.8104 -0.1802 -0.3105
  321TMC3    H1 4881   0.976   1.866  17.269 -0.3426  0.1312  0.1713
  321TMC3    H2 4882   0.905   1.716  17.655 -2.7517 -0.6074  0.9449
  321TMC3    C7 4883   1.034   1.895  17.520  0.2755  0.3176 -0.5222
  321TMC3    C8 4884   1.007   1.491  17.575 -0.0239 -0.2876 -0.7870
  321TMC3    O1 4885   1.064   1.993  17.454  0.6466  0.4190  0.2280
  321TMC3    O2 4886   1.073   1.556  17.654  0.4146  0.3083  0.3508
  322MPD2     C 4887   0.208   2.872  13.199  0.2157  0.1144 -0.6570
  322MPD2    C1 4888   0.128   2.839  13.308  0.6524 -0.0054  0.0427
  322MPD2    C2 4889   0.047   2.731  13.299  0.1976  0.0213  1.2728
  322MPD2    C3 4890   0.059   2.641  13.187  0.8588 -0.5381 -0.1338
  322MPD2    C4 4891   0.139   2.677  13.083 -0.0016  0.3711  0.1340
  322MPD2    C5 4892   0.216   2.792  13.090 -0.1166 -0.4020 -0.7472
  322MPD2     H 4893   4.735   2.697  13.386  0.0509 -0.9044  0.8190
  322MPD2    H1 4894   0.158   2.613  12.998 -0.7404 -0.7812  0.8392
  322MPD2    H2 4895   0.274   2.957  13.190  0.6893 -0.2102 -0.2377
  322MPD2    H3 4896   0.286   2.818  13.012 -0.8741  2.5974 -0.4459
  322MPD2     N 4897   0.002   2.517  13.204 -0.1625 -0.1831  0.6446
  322MPD2    H5 4898   4.695   2.505  13.292  0.8282 -0.4405  1.1683
  322MPD2    N1 4899   0.143   2.921  13.422 -0.2384 -0.4085  0.2087
  322MPD2    H7 4900   0.227   2.978  13.414 -1.3144  1.0540 -0.6641
  323TMC3    C1 4901   0.083   3.022  13.633 -0.1041 -0.0346 -0.3503
  323TMC3    C2 4902   0.185   3.115  13.634 -0.1808 -0.9936 -0.9922
  323TMC3    C3 4903   0.206   3.181  13.748  0.1911  0.0121 -0.1107
  323TMC3    C4 4904   4.739   3.013  13.731  0.4526 -0.0617  0.0811
  323TMC3    C5 4905   0.019   3.082  13.850 -0.1169 -0.2726  1.2156
  323TMC3    C6 4906   0.123   3.172  13.856 -0.0780  0.5144 -0.2360
  323TMC3     C 4907   0.048   2.936  13.518 -0.3380 -0.0028  0.1086
  323TMC3     O 4908   4.673   2.908  13.503  0.1881 -0.2139 -0.0411
  323TMC3     H 4909   0.273   3.106  13.571  0.2699  1.5200 -0.7295
  323TMC3    H1 4910   4.668   2.931  13.725 -0.2572  0.5366  0.3294
  323TMC3    H2 4911   0.149   3.225  13.947  2.1345 -0.9063 -0.0385
  323TMC3    C7 4912   4.696   3.026  13.973  0.0768 -0.4214 -0.1028
  323TMC3    C8 4913   0.281   3.304  13.731 -0.4721 -0.2648 -0.8334
  323TMC3    O1 4914   4.626   2.926  13.960 -0.0212  0.1702  0.5935
  323TMC3    O2 4915   0.323   3.354  13.837  0.0464  0.4125  0.1075
  324MPD2     C 4916   1.118   3.677  14.392  0.1956 -0.8109 -0.6950
  324MPD2    C1 4917   1.155   3.794  14.319 -0.5224  0.5638  0.5981
  324MPD2    C2 4918   1.066   3.854  14.229  0.1125  0.3170 -0.5000
  324MPD2    C3 4919   0.928   3.805  14.224 -0.4367  0.2628 -0.6654
  324MPD2    C4 4920   0.898   3.691  14.299  0.2386 -0.3000  0.7031
  324MPD2    C5 4921   0.989   3.629  14.377  0.4977  0.2298  0.0055
  324MPD2     H 4922   1.090   3.944  14.174  3.0784  0.2564  0.6803
  324MPD2    H1 4923   0.797   3.655  14.287 -0.6132  1.6971  1.9595
  324MPD2    H2 4924   1.191   3.628  14.456  0.7216 -1.1264 -1.5221
  324MPD2    H3 4925   0.953   3.541  14.430 -3.0321  0.5715 -1.8041
  324MPD2     N 4926   0.827   3.860  14.144  0.1982 -0.1450  0.1793
  324MPD2    H5 4927   0.733   3.824  14.160  1.5456 -2.4488  2.9731
  324MPD2    N1 4928   1.285   3.853  14.323 -0.1852 -0.3520 -0.5618
  324MPD2    H7 4929   1.298   3.943  14.278  0.9880  0.2701  1.0310
  325TMC3    C1 4930   0.722   3.998  13.986  0.5217  0.3840 -0.2010
  325TMC3    C2 4931   0.604   3.927  14.007 -0.3174  0.4139  0.0894
  325TMC3    C3 4932   0.485   3.984  13.967  0.2684 -0.0327 -0.2200
  325TMC3    C4 4933   0.720   4.129  13.934 -0.2368 -0.1832  0.2219
  325TMC3    C5 4934   0.600   4.189  13.904 -0.1114 -0.0783  0.4447
  325TMC3    C6 4935   0.481   4.116  13.926 -0.1400  0.2400  0.5671
  325TMC3     C 4936   0.844   3.963  14.053  0.0156 -0.3243 -0.2358
  325TMC3     O 4937   0.944   4.034  14.028 -0.1741 -0.1516  0.5530
  325TMC3     H 4938   0.597   3.821  14.030 -0.3903  0.2335 -0.7463
  325TMC3    H1 4939   0.812   4.185  13.923 -1.3319  1.9876  2.1838
  325TMC3    H2 4940   0.392   4.164  13.885 -1.5366 -1.4471  1.6278
  325TMC3    C7 4941   0.592   4.326  13.872 -0.6734  0.2381 -0.2242
  325TMC3    C8 4942   0.365   3.911  13.956  0.6489 -0.1161 -0.1608
  325TMC3    O1 4943   0.686   4.367  13.805  0.1645 -0.4256 -0.1721
  325TMC3    O2 4944   0.366   3.792  13.927 -0.6202 -0.2824 -0.1448
  326MPD2     C 4945   2.199   0.420  11.217 -0.8511 -0.3592  0.1658
  326MPD2    C1 4946   2.279   0.376  11.120  0.4404 -0.2249 -0.9049
  326MPD2    C2 4947   2.368   0.467  11.059 -0.2006  0.2284 -0.2164
  326MPD2    C3 4948   2.360   0.601  11.084  0.3726  0.3546  0.0841
  326MPD2    C4 4949   2.265   0.649  11.172  0.0149  0.3668  0.8014
  326MPD2    C5 4950   2.182   0.555  11.231 -0.2170 -0.2321 -0.2813
  326MPD2     H 4951   2.439   0.428  10.988 -0.0390  0.4175 -0.1572
  326MPD2    H1 4952   2.261   0.755  11.196 -1.5899  0.1610  1.5106
  326MPD2    H2 4953   2.140   0.356  11.281  0.8106 -1.7045  0.3457
  326MPD2    H3 4954   2.111   0.600  11.300  0.9114 -0.5609  1.0808
  326MPD2     N 4955   2.453   0.692  11.029  0.0986  0.6018  0.7068
  326MPD2    H5 4956   2.437   0.787  11.060 -1.5832  1.2381 -2.1295
  326MPD2    N1 4957   2.289   0.237  11.084 -0.7164  0.2567  0.7911
  326MPD2    H7 4958   2.358   0.224  11.011 -0.6480 -0.7279  1.0326
  327TMC3    C1 4959   2.237   0.023  11.050  0.4576 -0.1157 -0.2969
  327TMC3    C2 4960   2.130   0.016  10.965  0.5519 -0.1882  0.1582
  327TMC3    C3 4961   2.146   0.033  10.831  0.1561  0.0849  0.0495
  327TMC3    C4 4962   2.359   0.014  10.996 -0.0862  0.2395  0.0928
  327TMC3    C5 4963   2.374   0.010  10.863  0.5723  0.5078 -0.4179
  327TMC3    C6 4964   2.272   0.030  10.778 -0.3657 -0.0697  0.3160
  327TMC3     C 4965   2.218   0.133  11.140 -1.2590  0.0985  0.6694
  327TMC3     O 4966   2.114   0.142  11.203 -0.0756  0.4805  0.7046
  327TMC3     H 4967   2.030   0.015  11.008 -0.3211  0.4603 -1.8616
  327TMC3    H1 4968   2.448   0.005  11.057 -0.9856 -0.4311  1.3007
  327TMC3    H2 4969   2.287   0.049  10.673 -1.9718 -0.6698 -0.0210
  327TMC3    C7 4970   2.496   0.068  10.804 -0.8550 -0.5878  0.2544
  327TMC3    C8 4971   2.078   0.154  10.785 -0.5519 -0.1687 -0.0265
  327TMC3    O1 4972   2.517   0.050  10.685  0.4466 -0.4237 -0.3293
  327TMC3    O2 4973   2.115   0.203  10.682 -0.3341 -0.1347 -0.3746
  328MPD2     C 4974   0.487   0.510  17.269  0.0879 -0.4907 -0.0909
  328MPD2    C1 4975   0.446   0.389  17.215 -0.1011 -0.0521 -0.2421
  328MPD2    C2 4976   0.364   0.399  17.103  0.1182  0.3492 -0.2487
  328MPD2    C3 4977   0.335   0.519  17.039 -0.5709  0.0464 -0.1154
  328MPD2    C4 4978   0.402   0.624  17.072  0.1230  0.5689 -0.0534
  328MPD2    C5 4979   0.467   0.624  17.197 -0.2356  0.3192 -0.0192
  328MPD2     H 4980   0.321   0.303  17.077  1.8287  0.2186 -2.6050
  328MPD2    H1 4981   0.380   0.719  17.023 -2.5091  0.7802  1.5288
  328MPD2    H2 4982   0.543   0.514  17.361 -0.7466  0.1758  0.3864
  328MPD2    H3 4983   0.511   0.713  17.241 -1.8857  0.8044  0.6500
  328MPD2     N 4984   0.243   0.539  16.945  0.4587 -0.0256 -0.0615
  328MPD2    H5 4985   0.231   0.637  16.919  1.6063  0.7996  2.4910
  328MPD2    N1 4986   0.454   0.275  17.291 -0.3070  0.7254  0.6119
  328MPD2    H7 4987   0.499   0.290  17.381  0.2960  0.0882  0.4166
  329TMC3    C1 4988   0.405   0.076  17.374  0.1913 -0.8120  0.5363
  329TMC3    C2 4989   0.314   0.126  17.461 -0.5494  0.1344 -0.1936
  329TMC3    C3 4990   0.229   0.040  17.526  0.2422  0.8282 -0.2759
  329TMC3    C4 4991   0.423   4.682  17.356  0.5337 -0.3044 -0.4859
  329TMC3    C5 4992   0.340   4.602  17.428 -0.2915 -0.2916  0.4298
  329TMC3    C6 4993   0.236   4.649  17.505 -0.9191 -1.4386  0.2921
  329TMC3     C 4994   0.410   0.154  17.257 -0.7037 -0.1761  0.8989
  329TMC3     O 4995   0.375   0.109  17.150  0.6643 -0.5847  0.4969
  329TMC3     H 4996   0.284   0.229  17.450 -1.0554  0.1189  0.9959
  329TMC3    H1 4997   0.499   4.643  17.290 -0.9530 -0.6006 -2.0426
  329TMC3    H2 4998   0.175   4.580  17.564 -0.6143  0.3421  2.6883
  329TMC3    C7 4999   0.352   4.460  17.410 -0.1248  0.0306  0.7384
  329TMC3    C8 5000   0.100   0.097  17.571 -0.1001 -0.2581  0.6665
  329TMC3    O1 5001   0.327   4.407  17.514 -0.2394 -0.3533  0.0603
  329TMC3    O2 5002   0.001   0.031  17.536  0.3730  0.1049 -0.2463
  330TMC3    C1 5003   2.839   4.084  10.196 -0.0141 -0.5994 -0.4371
  330TMC3    C2 5004   2.789   4.063  10.070  0.1260  0.1172  0.3115
  330TMC3    C3 5005   2.890   4.037   9.974 -0.5493  0.1073  0.3022
  330TMC3    C4 5006   2.967   4.076  10.223 -0.5786  0.2893 -0.2114
  330TMC3    C5 5007   3.066   4.070  10.126 -0.5265  0.3740 -0.3264
  330TMC3    C6 5008   3.022   4.057   9.997  0.1860  0.1969 -0.4482
  330TMC3     C 5009   2.749   4.106  10.304 -0.4755 -0.3412  0.0371
  330TMC3     O 5010   2.795   4.112  10.416  0.0381  0.6351 -0.1556
  330TMC3     H 5011   2.684   4.044  10.051 -0.0288  0.2417  1.0320
  330TMC3    H1 5012   2.998   4.090  10.326 -1.8816 -0.5095  0.2878
  330TMC3    H2 5013   3.093   4.053   9.915  1.7920  1.2857  0.9011
  330TMC3    C7 5014   3.194   4.140  10.141  0.2658 -0.5879 -0.5484
  330TMC3    C8 5015   2.843   4.025   9.841 -0.6629 -0.2173  0.0037
  330TMC3    O1 5016   3.255   4.164  10.035 -0.2112  0.5840 -0.4958
  330TMC3    O2 5017   2.910   4.076   9.753 -0.1649  0.1446  0.1520
  331MPD2     C 5018   1.226   4.014  12.781 -0.4026  0.4554 -0.3263
  331MPD2    C1 5019   1.151   4.009  12.667  0.3684 -0.2222 -0.4996
  331MPD2    C2 5020   1.085   3.890  12.644 -0.0946  0.4204  0.2381
  331MPD2    C3 5021   1.082   3.783  12.731  0.3796 -0.6541 -0.7264
  331MPD2    C4 5022   1.158   3.786  12.843  0.3203 -0.2127  0.4193
  331MPD2    C5 5023   1.227   3.904  12.866 -0.2946  0.3227 -0.0549
  331MPD2     H 5024   1.025   3.889  12.554  1.6480  1.8548 -0.9631
  331MPD2    H1 5025   1.168   3.700  12.909  1.8018 -0.1335  0.2967
  331MPD2    H2 5026   1.295   4.093  12.804  0.2838 -0.3149  0.2343
  331MPD2    H3 5027   1.296   3.914  12.949 -2.6564 -0.3191  2.0258
  331MPD2     N 5028   1.005   3.670  12.690 -0.3415 -0.1668  0.2356
  331MPD2    H5 5029   0.961   3.689  12.601 -1.6687  2.9690  1.5770
  331MPD2    N1 5030   1.152   4.115  12.574 -0.2490  0.3777  0.4259
  331MPD2    H7 5031   1.094   4.115  12.490 -1.0812  2.8233  1.0087
  332TMC3    C1 5032   0.892   3.456  12.705  0.2863  0.3813 -0.5789
  332TMC3    C2 5033   0.905   3.445  12.578 -0.6559  0.4729 -0.4994
  332TMC3    C3 5034   0.940   3.323  12.534 -0.0182  0.3945 -0.0194
  332TMC3    C4 5035   0.867   3.345  12.782 -0.0331 -0.1920  0.4277
  332TMC3    C5 5036   0.895   3.223  12.735  0.2957  0.0761 -0.6243
  332TMC3    C6 5037   0.952   3.208  12.609  0.2879 -0.4604 -0.3332
  332TMC3     C 5038   0.979   3.557  12.767 -0.0904 -0.2635 -0.0355
  332TMC3     O 5039   1.025   3.537  12.880 -0.0406  0.1535 -0.0916
  332TMC3     H 5040   0.920   3.533  12.516  3.1863 -0.8959 -1.4828
  332TMC3    H1 5041   0.851   3.362  12.888 -1.2257  1.7355 -0.0586
  332TMC3    H2 5042   0.996   3.117  12.570  0.8833  0.1241 -1.0279
  332TMC3    C7 5043   0.919   3.130  12.835  0.4415 -0.3785  0.2180
  332TMC3    C8 5044   1.014   3.341  12.412  0.5979 -0.3410  0.2134
  332TMC3    O1 5045   0.846   3.127  12.932 -0.2906 -0.3165 -0.5843
  332TMC3    O2 5046   1.114   3.271  12.401 -0.1342  0.0844 -0.3773
  333MPD2     C 5047   1.350   3.259  11.336 -0.1213  0.1210  0.3499
  333MPD2    C1 5048   1.389   3.167  11.238  0.0508  0.0104 -0.3214
  333MPD2    C2 5049   1.364   3.031  11.259  0.1493 -0.3723 -0.3576
  333MPD2    C3 5050   1.293   2.986  11.367  0.1845  0.6377 -0.5248
  333MPD2    C4 5051   1.249   3.082  11.464  0.6398 -0.0322 -0.1856
  333MPD2    C5 5052   1.279   3.215  11.445 -0.6424  0.1883 -0.4507
  333MPD2     H 5053   1.401   2.961  11.185  0.8279  0.4191 -0.7691
  333MPD2    H1 5054   1.192   3.047  11.549  1.9570 -2.0057 -0.1207
  333MPD2    H2 5055   1.373   3.364  11.329 -0.0069  0.0293 -0.7590
  333MPD2    H3 5056   1.252   3.294  11.515  0.8709 -1.5246  2.0784
  333MPD2     N 5057   1.257   2.853  11.374 -0.3856 -0.5002  0.2630
  333MPD2    H5 5058   1.295   2.790  11.303 -1.6564 -0.5559 -0.3692
  333MPD2    N1 5059   1.439   3.229  11.126  0.5633  0.0324 -0.1216
  333MPD2    H7 5060   1.441   3.330  11.133  2.8587  0.0730 -1.5832
  334TMC3    C1 5061   1.441   3.266  10.888 -0.4150  0.9279  0.0803
  334TMC3    C2 5062   1.489   3.235  10.763 -0.5804  0.2049 -0.1014
  334TMC3    C3 5063   1.470   3.321  10.651  0.1054  0.1900 -0.3830
  334TMC3    C4 5064   1.374   3.379  10.904  0.6686  0.4814 -0.0599
  334TMC3    C5 5065   1.361   3.463  10.794  0.4452 -0.3749  0.4600
  334TMC3    C6 5066   1.410   3.444  10.670 -0.8883 -1.4744  0.4875
  334TMC3     C 5067   1.452   3.165  10.999  0.3326  0.7241 -0.1485
  334TMC3     O 5068   1.462   3.046  10.972 -0.1238  0.4048  0.1255
  334TMC3     H 5069   1.536   3.139  10.741  2.2612  1.1067  2.0195
  334TMC3    H1 5070   1.346   3.422  10.999  3.2132  2.2561 -0.1183
  334TMC3    H2 5071   1.413   3.509  10.583  0.2975 -2.0391  0.0956
  334TMC3    C7 5072   1.324   3.602  10.830  0.0851 -0.2527  0.6683
  334TMC3    C8 5073   1.570   3.312  10.546 -0.1676 -0.3834 -0.8464
  334TMC3    O1 5074   1.353   3.649  10.938 -0.3438  0.2499 -0.2508
  334TMC3    O2 5075   1.534   3.319  10.430 -0.0534 -0.1243 -0.3854
  335TMC3    C1 5076   1.265   0.459  17.636  0.4457 -0.4845  0.0086
  335TMC3    C2 5077   1.149   0.431  17.570  0.1996  0.0629 -0.2894
  335TMC3    C3 5078   1.144   0.462  17.434  0.0630 -0.2324 -0.0205
  335TMC3    C4 5079   1.362   0.535  17.578  0.2171 -0.5857 -0.2547
  335TMC3    C5 5080   1.351   0.571  17.449 -0.4348  0.0771 -0.5156
  335TMC3    C6 5081   1.250   0.525  17.368  0.5282 -0.0183 -0.2483
  335TMC3     C 5082   1.270   0.464   0.010  0.6215 -0.7270  0.3160
  335TMC3     O 5083   1.166   0.452   0.075 -0.0153  0.4281 -0.2560
  335TMC3     H 5084   1.063   0.399  17.628 -0.7842  1.1089 -1.1771
  335TMC3    H1 5085   1.454   0.555  17.632  0.7421  0.9199 -1.7242
  335TMC3    H2 5086   1.260   0.544  17.261  1.3327 -0.4961 -0.2597
  335TMC3    C7 5087   1.471   0.619  17.387 -0.2183 -0.0113 -0.0270
  335TMC3    C8 5088   1.030   0.432  17.349 -0.1411 -0.2791  0.4524
  335TMC3    O1 5089   1.505   0.566  17.279 -0.0320  0.1645 -0.0914
  335TMC3    O2 5090   1.004   0.495  17.249  0.0915  0.0207  0.2081
  336MPD2     C 5091   0.872   2.840  16.137 -0.2285 -0.3547 -0.5665
  336MPD2    C1 5092   0.813   2.794  16.021 -0.4694  0.0495  0.1237
  336MPD2    C2 5093   0.826   2.658  15.996  0.1338  0.0064 -0.5055
  336MPD2    C3 5094   0.900   2.573  16.082  0.1416 -0.4594 -0.1599
  336MPD2    C4 5095   0.951   2.628  16.201  0.2691 -0.2896 -0.0078
  336MPD2    C5 5096   0.934   2.759  16.227  0.3413  0.2846  0.3170
  336MPD2     H 5097   0.781   2.615  15.908 -2.0125  3.3386 -1.0173
  336MPD2    H1 5098   0.995   2.578  16.287  0.0708  0.2780  0.4200
  336MPD2    H2 5099   0.856   2.942  16.168  0.6027 -0.2889 -0.3446
  336MPD2    H3 5100   0.961   2.793  16.326 -0.6647  0.1437  0.6416
  336MPD2     N 5101   0.951   2.448  16.054  0.3114 -0.6422  0.0560
  336MPD2    H5 5102   1.010   2.406  16.125 -0.2200 -0.0219  0.8598
  336MPD2    N1 5103   0.740   2.873  15.933 -0.4169 -0.2483  0.0016
  336MPD2    H7 5104   0.688   2.822  15.863  0.7735  1.9731 -2.5482
  337TMC3    C1 5105   0.654   3.054  15.812  0.1082  0.0766 -0.2153
  337TMC3    C2 5106   0.532   3.006  15.790 -0.5334 -0.5614  0.3957
  337TMC3    C3 5107   0.460   3.065  15.693  0.3248  1.1664 -0.3001
  337TMC3    C4 5108   0.699   3.167  15.746 -0.4202  0.1170 -0.1711
  337TMC3    C5 5109   0.613   3.223  15.658  0.2718 -0.0213  0.3199
  337TMC3    C6 5110   0.493   3.179  15.634  0.7068  0.1046  0.1891
  337TMC3     C 5111   0.730   3.010  15.924 -0.4540  0.4323 -0.2217
  337TMC3     O 5112   0.776   3.096  15.994 -0.3313  0.0488  0.1111
  337TMC3     H 5113   0.486   2.938  15.861 -0.1959  0.9192  2.0191
  337TMC3    H1 5114   0.796   3.204  15.778 -0.2210 -1.1689  0.6933
  337TMC3    H2 5115   0.427   3.242  15.576 -0.1978 -0.9920  0.0168
  337TMC3    C7 5116   0.640   3.365  15.638 -0.3222  0.2071  0.8214
  337TMC3    C8 5117   0.315   3.039  15.710  0.1984  0.0621 -0.5975
  337TMC3    O1 5118   0.611   3.404  15.525 -0.0908 -0.0013  0.1102
  337TMC3    O2 5119   0.273   3.043  15.823  0.6144 -0.0364 -0.3833
  338MPD2     C 5120   0.789   2.413   0.932 -0.1927  0.1893 -0.1400
  338MPD2    C1 5121   0.810   2.439   0.796  0.3482 -0.0970  1.0043
  338MPD2    C2 5122   0.702   2.461   0.720  0.7046 -0.1599  0.5411
  338MPD2    C3 5123   0.581   2.449   0.770 -0.1708  0.4204 -0.4457
  338MPD2    C4 5124   0.555   2.409   0.900  0.3564  0.3252  0.5038
  338MPD2    C5 5125   0.665   2.383   0.982  0.6959  0.3755 -0.0487
  338MPD2     H 5126   0.711   2.473   0.612 -0.7673  0.6749  0.5079
  338MPD2    H1 5127   0.457   2.398   0.944 -0.0151  1.7891  0.0329
  338MPD2    H2 5128   0.873   2.401   0.999 -0.7437  3.7572  1.1498
  338MPD2    H3 5129   0.650   2.346   1.083  0.7695 -1.4367 -0.6845
  338MPD2     N 5130   0.476   2.456   0.676 -0.0784 -0.2276  1.0892
  338MPD2    H5 5131   0.497   2.453   0.577 -0.0425 -1.3673  1.1369
  338MPD2    N1 5132   0.929   2.435   0.730  0.8940 -0.6623  0.3226
  338MPD2    H7 5133   0.916   2.426   0.630  1.3037  0.8181  0.1370
  339TMC3    C1 5134   0.267   2.484   0.577  0.0587  0.4437  0.3784
  339TMC3    C2 5135   0.242   2.368   0.506 -0.0238  0.2624 -0.4628
  339TMC3    C3 5136   0.243   2.372   0.365  0.0694 -0.1269 -0.1898
  339TMC3    C4 5137   0.266   2.605   0.511  0.1548 -0.1411  0.1906
  339TMC3    C5 5138   0.277   2.604   0.371 -0.3442  0.5542  0.2690
  339TMC3    C6 5139   0.270   2.492   0.296 -0.2867 -0.5307  0.1909
  339TMC3     C 5140   0.336   2.465   0.702 -0.2836  0.4260  0.5840
  339TMC3     O 5141   0.272   2.482   0.801  0.3772 -0.1365  0.1989
  339TMC3     H 5142   0.244   2.276   0.565 -1.8346  0.6623  0.2092
  339TMC3    H1 5143   0.288   2.697   0.564 -1.6413  0.1510  0.4523
  339TMC3    H2 5144   0.269   2.489   0.187  0.2576 -4.0588  0.2918
  339TMC3    C7 5145   0.385   2.700   0.333  0.4723  0.2834  0.2950
  339TMC3    C8 5146   0.233   2.256   0.283  0.4368  0.2308  0.7923
  339TMC3    O1 5147   0.388   2.823   0.360 -0.0344 -0.0147 -0.3250
  339TMC3    O2 5148   0.281   2.271   0.170 -1.2671 -0.1204 -0.3502
  340MPD2     C 5149   0.866   4.546   9.644 -0.7992  0.1188  0.5489
  340MPD2    C1 5150   0.871   4.504   9.775 -0.1218  0.2432  0.0252
  340MPD2    C2 5151   0.851   4.591   9.877 -0.6827 -0.2367 -0.0485
  340MPD2    C3 5152   0.837   4.728   9.854  0.3798 -0.0591 -0.5682
  340MPD2    C4 5153   0.840   0.026   9.727 -0.7491  0.1476  0.0993
  340MPD2    C5 5154   0.858   4.684   9.618 -0.2592  0.1392  0.9213
  340MPD2     H 5155   0.851   4.564   9.982 -1.4610  1.2241  0.3198
  340MPD2    H1 5156   0.841   0.131   9.700  3.1880  0.1485  0.2510
  340MPD2    H2 5157   0.874   4.477   9.561 -1.1726 -0.6227  1.1407
  340MPD2    H3 5158   0.841   4.712   9.514 -2.0915 -1.9707  0.6615
  340MPD2     N 5159   0.834   0.084   9.957 -0.0549  0.1858  0.7899
  340MPD2    H5 5160   0.856   0.182   9.943  0.6776 -0.0541  0.1902
  340MPD2    N1 5161   0.891   4.366   9.799 -0.4787 -0.2486 -0.4208
  340MPD2    H7 5162   0.941   4.316   9.727  1.2574  0.7579  0.0948
  341TMC3    C1 5163   0.892   4.163   9.916  0.3813  0.5053  0.2394
  341TMC3    C2 5164   0.823   4.087  10.007  0.3683 -0.0440 -0.1244
  341TMC3    C3 5165   0.873   3.958  10.037 -0.0693  0.4407 -0.1488
  341TMC3    C4 5166   1.010   4.118   9.871 -0.2893 -0.4668  0.0036
  341TMC3    C5 5167   1.041   3.985   9.885  0.3075  0.0227 -0.1532
  341TMC3    C6 5168   0.971   3.900   9.963  0.4112  0.2569 -0.3486
  341TMC3     C 5169   0.844   4.297   9.908  0.2760  0.7957  0.4948
  341TMC3     O 5170   0.779   4.345   9.998 -0.4110  0.5636 -0.3685
  341TMC3     H 5171   0.731   4.132  10.042  1.4510  1.3552  0.8989
  341TMC3    H1 5172   1.068   4.176   9.801 -0.0844 -0.5138  0.1334
  341TMC3    H2 5173   0.996   3.794   9.958  1.2060  0.4450 -0.2239
  341TMC3    C7 5174   1.177   3.950   9.851  0.2022 -1.3153  0.3938
  341TMC3    C8 5175   0.780   3.858  10.077 -0.3162 -0.3268 -0.7837
  341TMC3    O1 5176   1.252   4.023   9.910 -0.1021 -0.1632 -0.1180
  341TMC3    O2 5177   0.816   3.741  10.082 -0.5087  0.2006 -0.5198
  342MPD2     C 5178   4.283   3.062   0.030  0.6253 -0.3032  0.0475
  342MPD2    C1 5179   4.278   3.103  17.670  0.3567 -0.4567  0.4201
  342MPD2    C2 5180   4.259   3.236  17.648  0.8254 -0.5957 -0.0607
  342MPD2    C3 5181   4.231   3.326  17.747  0.4567  0.4395 -0.2533
  342MPD2    C4 5182   4.234   3.290   0.107  0.5678  0.0484 -0.0270
  342MPD2    C5 5183   4.261   3.158   0.133 -0.1914 -0.8793  0.3467
  342MPD2     H 5184   4.249   3.272  17.546  1.9870  0.7506  0.3061
  342MPD2    H1 5185   4.219   3.364   0.184  0.1248 -0.1056  0.0364
  342MPD2    H2 5186   4.310   2.960   0.054  1.2375 -0.0876  0.2765
  342MPD2    H3 5187   4.289   3.120   0.230  0.5482 -0.1577  0.4104
  342MPD2     N 5188   4.180   3.459  17.718 -0.4876  0.0786  0.6002
  342MPD2    H5 5189   4.156   3.515   0.029  2.5140 -0.4711  1.8774
  342MPD2    N1 5190   4.274   3.012  17.564  0.3786  0.2538 -0.4459
  342MPD2    H7 5191   4.293   3.054  17.473 -0.6400  0.8023 -0.4102
  343TMC3    C1 5192   4.208   2.824  17.454  0.3176 -0.3884 -0.2997
  343TMC3    C2 5193   4.297   2.847  17.353  0.0726  0.0676 -0.0105
  343TMC3    C3 5194   4.270   2.796  17.229 -0.0052 -1.0089  0.3819
  343TMC3    C4 5195   4.114   2.725  17.442 -0.6406 -0.1843 -0.6644
  343TMC3    C5 5196   4.103   2.661  17.326 -0.1984 -0.3279  0.0458
  343TMC3    C6 5197   4.163   2.708  17.208 -0.6525  0.1764  0.0510
  343TMC3     C 5198   4.232   2.885  17.576 -0.9921 -0.1696 -0.1320
  343TMC3     O 5199   4.192   2.827  17.676  0.6282  0.9479 -0.5185
  343TMC3     H 5200   4.387   2.906  17.366  0.3413 -0.7683  1.9638
  343TMC3    H1 5201   4.049   2.706  17.527 -0.5558  0.6615 -0.4109
  343TMC3    H2 5202   4.130   2.675  17.110 -0.8297 -0.1417  0.2168
  343TMC3    C7 5203   4.035   2.535  17.321 -0.0260 -0.8360 -0.4846
  343TMC3    C8 5204   4.341   2.853  17.115 -0.2953 -0.2310  0.4282
  343TMC3    O1 5205   4.003   2.489  17.216 -0.1906  0.1033 -0.2719
  343TMC3    O2 5206   4.390   2.965  17.128 -0.0560  0.0277 -0.1940
  344MPD2     C 5207   4.526   2.951  11.388  1.2658  0.1890  1.2214
  344MPD2    C1 5208   4.545   2.858  11.287 -0.2805 -0.3544 -0.5988
  344MPD2    C2 5209   4.615   2.895  11.175 -0.4782 -0.5075 -0.4297
  344MPD2    C3 5210   4.657   3.022  11.161  0.8969  0.5293  0.7202
  344MPD2    C4 5211   4.646   3.113  11.264 -0.2667  0.1132 -0.0193
  344MPD2    C5 5212   4.569   3.080  11.374  1.6692  0.6017 -0.5080
  344MPD2     H 5213   4.617   2.824  11.093  0.4593  0.3532 -1.1568
  344MPD2    H1 5214   4.683   3.215  11.258 -0.0016  0.1504  2.1614
  344MPD2    H2 5215   4.470   2.927  11.478 -1.0838  2.1966  0.3004
  344MPD2    H3 5216   4.549   3.158  11.447  1.9702  1.1065 -0.9709
  344MPD2     N 5217   4.725   3.073  11.056  0.2725  0.3315  0.9024
  344MPD2    H5 5218   0.013   3.170  11.055  0.4444  0.2751  0.3644
  344MPD2    N1 5219   4.492   2.724  11.295 -0.2686 -0.2464  0.4718
  344MPD2    H7 5220   4.519   2.652  11.229 -0.1689 -0.0125  0.2571
  345TMC3    C1 5221   0.097   3.098  10.860 -0.4619  0.0896  0.1432
  345TMC3    C2 5222   0.193   3.182  10.924  0.7497  0.3119  0.0020
  345TMC3    C3 5223   0.256   3.277  10.851 -0.6339 -0.4984  0.1945
  345TMC3    C4 5224   0.060   3.116  10.727 -0.1226 -1.1336  0.0180
  345TMC3    C5 5225   0.129   3.213  10.659 -0.5135  0.0204  0.7817
  345TMC3    C6 5226   0.225   3.293  10.713  0.4124 -0.0550  0.2916
  345TMC3     C 5227   0.012   3.017  10.938  0.4334  0.2759  0.4550
  345TMC3     O 5228   4.705   2.915  10.888 -0.1754  0.4643  0.3885
  345TMC3     H 5229   0.208   3.182  11.032 -2.4404 -3.7516  0.4664
  345TMC3    H1 5230   4.722   3.053  10.690 -0.9129 -0.6020  0.8579
  345TMC3    H2 5231   0.269   3.370  10.650 -1.1788  2.2122  1.9725
  345TMC3    C7 5232   0.081   3.256  10.527  0.1876 -0.1983  0.0410
  345TMC3    C8 5233   0.345   3.375  10.921  0.1932  0.2146  0.3299
  345TMC3    O1 5234   0.131   3.359  10.480  0.3153  0.4545 -0.1991
  345TMC3    O2 5235   0.407   3.337  11.018 -0.3072  0.0414  0.0265
  346MPD2     C 5236   4.086   4.650  14.221  0.3045 -0.2663 -0.2701
  346MPD2    C1 5237   4.187   4.632  14.126 -0.1444 -0.1270  0.0538
  346MPD2    C2 5238   4.315   4.678  14.156 -0.1165 -0.4675  0.2445
  346MPD2    C3 5239   4.351   4.730  14.282 -0.0731  0.5934 -0.0736
  346MPD2    C4 5240   4.246   0.007  14.364  0.0299  0.5579  0.5182
  346MPD2    C5 5241   4.123   4.704  14.337 -0.0426  0.2950  0.7745
  346MPD2     H 5242   4.402   4.681  14.092 -0.6087 -0.6719 -0.4378
  346MPD2    H1 5243   4.265   0.046  14.464 -0.3042 -0.5285  1.0001
  346MPD2    H2 5244   3.987   4.611  14.199  0.9786 -0.9788 -1.9283
  346MPD2    H3 5245   4.046   4.713  14.413 -0.1210  1.3312  0.5850
  346MPD2     N 5246   4.484   0.023  14.302 -0.0938  0.0390 -0.1234
  346MPD2    H5 5247   4.537   0.013  14.216  3.1036 -0.4834  1.8693
  346MPD2    N1 5248   4.167   4.574  13.992 -0.7496  0.1697 -0.1855
  346MPD2    H7 5249   4.242   4.563  13.924  1.5288  0.1993  2.3193
  347TMC3    C1 5250   4.684   0.059  14.408  0.0696 -0.4272 -0.3504
  347TMC3    C2 5251   4.731   0.124  14.294 -0.2317  0.2087  0.5461
  347TMC3    C3 5252   0.124   0.129  14.280  0.2214 -0.2783  0.4087
  347TMC3    C4 5253   0.023   0.002  14.498 -0.1727  0.0376 -0.2919
  347TMC3    C5 5254   0.155   0.014  14.484  0.1795  0.5687 -0.2749
  347TMC3    C6 5255   0.211   0.075  14.371 -0.2119  1.0754 -0.0968
  347TMC3     C 5256   4.542   0.045  14.423 -0.0832 -0.8567 -0.6230
  347TMC3     O 5257   4.495   0.017  14.535 -0.0123  0.3516  0.0803
  347TMC3     H 5258   4.669   0.149  14.209 -0.4339  1.4022  1.0421
  347TMC3    H1 5259   4.725   4.702  14.588  0.7301  0.1511  0.1821
  347TMC3    H2 5260   0.317   0.071  14.349 -0.1922  1.3128 -0.0523
  347TMC3    C7 5261   0.228   4.716  14.601 -0.1882 -0.1604 -0.1082
  347TMC3    C8 5262   0.181   0.125  14.151 -0.1602  0.2016 -0.2796
  347TMC3    O1 5263   0.164   4.636  14.670 -0.0620  0.1673 -0.2047
  347TMC3    O2 5264   0.162   0.216  14.075 -0.0523  0.0362 -0.3180
  348MPD2     C 5265   3.655   4.155  12.191  0.3003 -0.6475  0.4076
  348MPD2    C1 5266   3.619   4.086  12.076 -0.2623  0.0447 -0.2164
  348MPD2    C2 5267   3.579   4.155  11.960 -0.1208 -0.6760  0.0862
  348MPD2    C3 5268   3.591   4.289  11.955 -0.0867 -0.0019  1.0153
  348MPD2    C4 5269   3.639   4.365  12.066 -0.0833  0.4853  0.3046
  348MPD2    C5 5270   3.667   4.290  12.183  0.3934  0.4899  0.1341
  348MPD2     H 5271   3.550   4.094  11.875 -2.8245  1.6123 -0.6372
  348MPD2    H1 5272   3.641   4.474  12.069 -0.5447  0.5037 -0.1052
  348MPD2    H2 5273   3.674   4.110  12.289  0.3791 -2.0112 -0.2308
  348MPD2    H3 5274   3.703   4.334  12.275  0.5845  0.0558  0.2670
  348MPD2     N 5275   3.552   4.354  11.838 -0.2630 -0.3000  0.0658
  348MPD2    H5 5276   3.508   4.296  11.768  0.3368 -0.4552 -0.1823
  348MPD2    N1 5277   3.619   3.948  12.069 -0.2784 -0.1640  0.5587
  348MPD2    H7 5278   3.580   3.910  11.984 -0.9123  0.3738  0.6085
  349TMC3    C1 5279   3.660   3.724  12.102 -0.5642  0.5209  0.5770
  349TMC3    C2 5280   3.704   3.622  12.181  0.2548  0.4356 -0.0598
  349TMC3    C3 5281   3.684   3.494  12.132 -0.0561 -0.1672  0.1865
  349TMC3    C4 5282   3.597   3.705  11.985 -0.2483 -0.3088 -0.8167
  349TMC3    C5 5283   3.589   3.572  11.938 -0.4981  0.4506 -0.1441
  349TMC3    C6 5284   3.635   3.465  12.005 -0.0040 -0.3855  0.0780
  349TMC3     C 5285   3.677   3.858  12.151  0.0941 -0.0070 -0.2091
  349TMC3     O 5286   3.745   3.884  12.247  0.1315  0.0588  0.7139
  349TMC3     H 5287   3.747   3.641  12.278  0.1131 -0.6922  0.2268
  349TMC3    H1 5288   3.574   3.785  11.916  0.5618  0.7773  0.1610
  349TMC3    H2 5289   3.611   3.372  11.956  1.1016 -0.1029 -0.9889
  349TMC3    C7 5290   3.526   3.540  11.811  0.7525 -0.0330 -0.7747
  349TMC3    C8 5291   3.694   3.383  12.223  0.0119  0.5594 -0.2030
  349TMC3    O1 5292   3.434   3.459  11.813 -0.6569  0.2321 -0.1519
  349TMC3    O2 5293   3.716   3.408  12.338 -0.1681  0.4451 -0.1947
  350MPD2     C 5294   2.514   2.086  10.325 -0.2063  0.0053  0.0811
  350MPD2    C1 5295   2.562   1.959  10.332  0.4821  0.2382 -0.3433
  350MPD2    C2 5296   2.692   1.939  10.285 -0.9608 -0.3376 -0.4578
  350MPD2    C3 5297   2.779   2.050  10.254 -0.2643  0.1802  0.2652
  350MPD2    C4 5298   2.725   2.174  10.255 -0.3770  0.0301  0.3466
  350MPD2    C5 5299   2.593   2.191  10.287  0.1230  0.7498 -0.3810
  350MPD2     H 5300   2.722   1.835  10.279  0.5554  0.0579  0.2419
  350MPD2    H1 5301   2.771   2.266  10.220  0.2610  0.7853  3.1771
  350MPD2    H2 5302   2.409   2.107  10.341 -0.2832  0.8299 -1.5322
  350MPD2    H3 5303   2.547   2.289  10.287  1.8624  1.5628  1.9440
  350MPD2     N 5304   2.914   2.030  10.232  0.3853  0.0635 -0.2869
  350MPD2    H5 5305   2.944   1.936  10.209 -0.5964 -0.0865 -0.8992
  350MPD2    N1 5306   2.490   1.839  10.350  0.2389 -0.1700  0.1387
  350MPD2    H7 5307   2.529   1.755  10.309  1.0447 -1.1570  2.9325
  351TMC3    C1 5308   2.308   1.695  10.395  0.6933 -0.2290  0.5478
  351TMC3    C2 5309   2.384   1.594  10.335 -0.0680  0.3475  0.1687
  351TMC3    C3 5310   2.314   1.484  10.310 -0.6106 -0.4658  0.8424
  351TMC3    C4 5311   2.177   1.676  10.418 -0.5459  0.2074 -0.5510
  351TMC3    C5 5312   2.113   1.559  10.411  0.7373  0.5309 -0.3397
  351TMC3    C6 5313   2.183   1.462  10.343  0.1866  0.1347  0.3254
  351TMC3     C 5314   2.364   1.831  10.405  0.1745  0.2100 -0.1991
  351TMC3     O 5315   2.313   1.917  10.477 -0.0725 -0.0900  0.1562
  351TMC3     H 5316   2.491   1.596  10.318  0.1881  0.3084  1.8195
  351TMC3    H1 5317   2.137   1.760  10.474 -1.0723  0.4856 -1.3541
  351TMC3    H2 5318   2.135   1.365  10.338 -0.2351  0.3108  0.9366
  351TMC3    C7 5319   1.974   1.540  10.448 -0.2860 -0.4541  0.4509
  351TMC3    C8 5320   2.374   1.372  10.236  0.5897 -0.0159  0.5350
  351TMC3    O1 5321   1.934   1.631  10.520  0.0226  1.0207  0.0530
  351TMC3    O2 5322   2.299   1.278  10.211  0.0026  0.1288 -0.4583
  352MPD2     C 5323   1.470   4.504   1.024 -0.1258 -0.3227 -0.6894
  352MPD2    C1 5324   1.405   4.392   0.980  0.2586  1.1429  0.3666
  352MPD2    C2 5325   1.486   4.288   0.925  0.8049 -0.0447  0.4692
  352MPD2    C3 5326   1.623   4.302   0.917 -0.3020 -0.5441 -0.6489
  352MPD2    C4 5327   1.682   4.419   0.965  0.2195 -0.7464 -0.1395
  352MPD2    C5 5328   1.607   4.515   1.022  0.0464 -0.9414  0.4941
  352MPD2     H 5329   1.437   4.200   0.886  2.0200 -0.7332  0.4719
  352MPD2    H1 5330   1.790   4.428   0.957 -0.1150  0.2576 -3.7211
  352MPD2    H2 5331   1.411   4.589   1.056  0.3013 -0.1899 -0.2543
  352MPD2    H3 5332   1.662   4.606   1.044 -0.9985 -0.0462 -0.6043
  352MPD2     N 5333   1.708   4.198   0.861 -0.1636 -0.1302  0.4397
  352MPD2    H5 5334   1.808   4.217   0.857 -0.5984  2.0460  0.0014
  352MPD2    N1 5335   1.263   4.394   0.974  0.4816  0.0521  0.4768
  352MPD2    H7 5336   1.219   4.473   1.021  0.5873 -0.4576  1.4409
  353TMC3    C1 5337   1.755   4.016   0.713 -0.1698  0.4775 -0.0323
  353TMC3    C2 5338   1.848   3.963   0.803 -0.0719 -0.1620 -0.2788
  353TMC3    C3 5339   1.878   3.830   0.797 -0.4485  0.4693  0.1062
  353TMC3    C4 5340   1.699   3.934   0.619 -0.6901  0.1602 -0.7732
  353TMC3    C5 5341   1.717   3.801   0.626 -0.3901 -0.5648  0.3814
  353TMC3    C6 5342   1.807   3.741   0.715 -0.4655  0.1952  0.7033
  353TMC3     C 5343   1.655   4.100   0.777  0.1054  0.1144  0.4392
  353TMC3     O 5344   1.543   4.055   0.759  0.3364  0.1582  0.0644
  353TMC3     H 5345   1.902   4.027   0.871 -0.6636 -1.6434  1.5679
  353TMC3    H1 5346   1.637   3.992   0.551 -0.4610 -0.7160 -1.7272
  353TMC3    H2 5347   1.821   3.633   0.715  1.2114  0.4146 -0.5702
  353TMC3    C7 5348   1.595   3.736   0.603  0.3550 -0.0775 -0.3211
  353TMC3    C8 5349   1.972   3.770   0.895  0.1233 -0.1159  0.3641
  353TMC3    O1 5350   1.595   3.619   0.569  0.2520  0.8715 -0.1219
  353TMC3    O2 5351   2.040   3.851   0.959 -0.7308  0.5639 -0.7057
  354TMC3    C1 5352   2.050   0.789  13.792  0.1837  0.4225  0.6591
  354TMC3    C2 5353   2.164   0.861  13.774  0.2287 -0.5287 -0.1735
  354TMC3    C3 5354   2.198   0.893  13.649  0.7693 -0.0546  0.4300
  354TMC3    C4 5355   1.968   0.749  13.683 -0.6913 -0.5035 -0.0113
  354TMC3    C5 5356   2.015   0.779  13.560  0.5714 -0.0690  0.0896
  354TMC3    C6 5357   2.127   0.853  13.543  0.6833  0.4564  0.2790
  354TMC3     C 5358   2.031   0.702  13.913  0.4676  0.0250  0.1939
  354TMC3     O 5359   1.963   0.600  13.891  0.1567 -0.1637 -0.5445
  354TMC3     H 5360   2.230   0.900  13.850 -1.0277 -0.4262  0.8580
  354TMC3    H1 5361   1.895   0.670  13.691  0.6009 -1.8078 -0.9666
  354TMC3    H2 5362   2.165   0.885  13.447 -1.7860  0.3269 -0.7604
  354TMC3    C7 5363   1.975   0.679  13.466 -0.5237  0.0382 -0.2711
  354TMC3    C8 5364   2.335   0.927  13.631 -0.4257  0.2847  0.1073
  354TMC3    O1 5365   1.869   0.620  13.478  0.3676 -0.5154  0.2735
  354TMC3    O2 5366   2.410   0.896  13.724 -0.5224 -0.2085  0.2565
  355MPD2     C 5367   2.838   1.371  12.196  0.4178  1.0707 -0.0278
  355MPD2    C1 5368   2.938   1.356  12.100 -0.1374  0.2240 -1.0023
  355MPD2    C2 5369   3.063   1.325  12.144  0.3869  0.2654  0.0933
  355MPD2    C3 5370   3.094   1.299  12.279  0.0403  0.1684 -0.6650
  355MPD2    C4 5371   2.989   1.319  12.372 -0.3184  0.1548 -0.4638
  355MPD2    C5 5372   2.866   1.354  12.333 -0.1244 -0.6085  1.1340
  355MPD2     H 5373   3.145   1.313  12.074 -0.2526 -0.6498 -0.5068
  355MPD2    H1 5374   2.995   1.305  12.479  1.6204  0.4897 -0.5324
  355MPD2    H2 5375   2.739   1.390  12.159  0.3527 -0.0573 -0.4487
  355MPD2    H3 5376   2.777   1.368  12.394 -0.9962  3.3039 -0.9892
  355MPD2     N 5377   3.221   1.259  12.327 -0.0897  0.0942 -0.2069
  355MPD2    H5 5378   3.241   1.267  12.426 -2.0704 -3.9231  0.5464
  355MPD2    N1 5379   2.904   1.384  11.962 -0.1800  0.2660  0.0956
  355MPD2    H7 5380   2.810   1.422  11.952 -0.1746  0.2340 -0.0758
  356TMC3    C1 5381   3.460   1.227  12.318 -0.1491 -0.2576  0.1547
  356TMC3    C2 5382   3.550   1.287  12.236 -0.0439  0.1076 -0.1670
  356TMC3    C3 5383   3.619   1.403  12.280 -0.4338  0.0647 -0.2454
  356TMC3    C4 5384   3.452   1.275  12.448  0.2344 -0.5878  0.1268
  356TMC3    C5 5385   3.521   1.390  12.490  0.5109 -0.4722  0.2217
  356TMC3    C6 5386   3.614   1.448  12.409  0.1194  0.0515 -0.5135
  356TMC3     C 5387   3.331   1.219  12.251  0.4682  0.3874 -0.2249
  356TMC3     O 5388   3.331   1.205  12.127 -0.4461 -0.6201  0.2843
  356TMC3     H 5389   3.555   1.250  12.134 -1.8553 -0.8321  0.0808
  356TMC3    H1 5390   3.394   1.216  12.517 -1.3766  0.8922  0.0243
  356TMC3    H2 5391   3.684   1.524  12.443 -0.4430  0.6304 -0.6421
  356TMC3    C7 5392   3.499   1.421  12.628  0.1730 -0.1227  0.7008
  356TMC3    C8 5393   3.653   1.477  12.169  0.6352  0.5092  0.3994
  356TMC3    O1 5394   3.455   1.340  12.708  0.1117 -0.1408 -0.4065
  356TMC3    O2 5395   3.679   1.406  12.073  1.0054  0.0413  0.0342
  357MPD2     C 5396   2.645   1.365   0.747  0.5402  0.0371  0.7255
  357MPD2    C1 5397   2.718   1.321   0.851  0.0317 -0.7300  0.7137
  357MPD2    C2 5398   2.707   1.374   0.977 -0.1142  1.4372 -0.1601
  357MPD2    C3 5399   2.595   1.457   0.995  1.0434 -0.0860 -0.9103
  357MPD2    C4 5400   2.521   1.504   0.889 -0.1142 -0.5477 -0.2411
  357MPD2    C5 5401   2.553   1.471   0.761 -0.5880  0.2836  0.1357
  357MPD2     H 5402   2.769   1.336   1.057  0.0721  1.1360 -0.4498
  357MPD2    H1 5403   2.437   1.571   0.901  0.7923  0.7199 -1.0198
  357MPD2    H2 5404   2.671   1.320   0.652  0.5634 -1.8154  1.6059
  357MPD2    H3 5405   2.495   1.521   0.684 -1.1970 -1.1058 -0.3126
  357MPD2     N 5406   2.546   1.483   1.128 -0.1441 -0.1594 -0.4063
  357MPD2    H5 5407   2.454   1.526   1.117 -0.1365  0.0969  0.5664
  357MPD2    N1 5408   2.803   1.207   0.826 -0.7141  0.1621  0.4971
  357MPD2    H7 5409   2.799   1.166   0.734  1.2161 -0.1904  0.5680
  358TMC3    C1 5410   2.968   1.053   0.895 -0.7352 -0.5311  0.1503
  358TMC3    C2 5411   2.895   0.951   0.830 -0.1583 -0.0058  0.1874
  358TMC3    C3 5412   2.928   0.820   0.853 -0.8933  0.0803  0.1198
  358TMC3    C4 5413   3.051   1.019   0.996 -0.1120  0.0458 -0.0597
  358TMC3    C5 5414   3.067   0.892   1.027 -0.0754 -0.8393  0.5790
  358TMC3    C6 5415   3.022   0.791   0.950 -0.4670  0.2012  0.2010
  358TMC3     C 5416   2.905   1.182   0.915  0.0553 -0.2144  0.5674
  358TMC3     O 5417   2.959   1.252   1.003 -0.1533  0.4004 -1.2326
  358TMC3     H 5418   2.820   0.979   0.757  0.8804  1.6081 -0.2654
  358TMC3    H1 5419   3.101   1.091   1.060 -2.2533  1.5200 -0.0322
  358TMC3    H2 5420   3.048   0.687   0.967  0.6124  0.7860  2.0956
  358TMC3    C7 5421   3.170   0.853   1.124 -0.1694  0.4796  0.3998
  358TMC3    C8 5422   2.863   0.718   0.778  0.4820 -0.3069 -0.8213
  358TMC3    O1 5423   3.234   0.756   1.084  0.6262 -0.1658 -0.2363
  358TMC3    O2 5424   2.797   0.751   0.680 -0.5113  0.3932 -0.0160
  359MPD2     C 5425   2.941   0.176  12.475 -0.2767 -0.5817  0.0739
  359MPD2    C1 5426   2.973   0.046  12.456 -0.5597 -0.0968 -0.5667
  359MPD2    C2 5427   2.876   4.695  12.440  0.5539  0.0649 -0.4930
  359MPD2    C3 5428   2.741   4.737  12.434  0.2821  0.3805  0.7214
  359MPD2    C4 5429   2.713   0.129  12.436 -0.2239  0.5755 -0.1294
  359MPD2    C5 5430   2.809   0.214  12.457 -0.2094 -0.4732  0.2249
  359MPD2     H 5431   2.908   4.592  12.445  0.4662 -0.0066 -1.5539
  359MPD2    H1 5432   2.613   0.170  12.421  0.7866  2.4479 -1.6741
  359MPD2    H2 5433   3.015   0.253  12.490 -1.4503  0.7444 -0.9958
  359MPD2    H3 5434   2.785   0.319  12.458 -0.7703 -0.6130  1.4396
  359MPD2     N 5435   2.635   4.642  12.426 -0.1709 -0.8963  0.3689
  359MPD2    H5 5436   2.539   4.677  12.434  0.6228  1.0783  1.3483
  359MPD2    N1 5437   3.101   4.735  12.452 -0.0510  0.5856  0.6240
  359MPD2    H7 5438   3.108   4.636  12.435 -1.0018  0.6449 -0.1085
  360TMC3    C1 5439   3.328   0.002  12.442 -0.3490  0.4854  0.4118
  360TMC3    C2 5440   3.444   0.062  12.484  0.2518  0.5770 -0.7639
  360TMC3    C3 5441   3.553   0.078  12.397 -0.0125 -0.0036  0.1193
  360TMC3    C4 5442   3.318   4.715  12.303  0.0254  0.3971 -0.2531
  360TMC3    C5 5443   3.421   0.010  12.217  0.6398  0.5230  0.5184
  360TMC3    C6 5444   3.535   0.057  12.264  0.0351 -0.1347 -0.2248
  360TMC3     C 5445   3.205   0.053  12.502  0.5876 -0.0128 -0.5026
  360TMC3     O 5446   3.208   0.142  12.587 -0.1733 -0.3320 -0.3931
  360TMC3     H 5447   3.457   0.049  12.591  1.9971 -1.8594 -1.2574
  360TMC3    H1 5448   3.222   4.693  12.258  1.3923 -3.0635 -1.4504
  360TMC3    H2 5449   3.611   0.086  12.193 -0.3545  1.0168 -0.1580
  360TMC3    C7 5450   3.389   0.027  12.076 -0.1681 -0.0695  0.0177
  360TMC3    C8 5451   3.664   0.008  12.460  0.2566  0.0006 -1.0541
  360TMC3    O1 5452   3.441   0.126  12.021 -0.7034  0.3578  0.7896
  360TMC3    O2 5453   3.675   0.005  12.583  0.2781 -0.0217  0.0105
  361MPD2     C 5454   0.401   3.655  16.254 -0.1875  0.4382  0.1853
  361MPD2    C1 5455   0.351   3.685  16.380  0.3743  0.1888  0.2166
  361MPD2    C2 5456   0.398   3.620  16.498  0.0238  0.9507  0.3595
  361MPD2    C3 5457   0.488   3.520  16.486 -0.0013 -0.2861  0.0918
  361MPD2    C4 5458   0.536   3.485  16.365 -1.1201 -0.4014 -0.0308
  361MPD2    C5 5459   0.492   3.551  16.246  0.0601 -0.1825  0.9227
  361MPD2     H 5460   0.356   3.654  16.591  0.2976 -0.1291  0.8790
  361MPD2    H1 5461   0.610   3.408  16.347 -0.3585  0.2274  0.4133
  361MPD2    H2 5462   0.369   3.694  16.158  1.1757 -1.2993 -0.9622
  361MPD2    H3 5463   0.515   3.505  16.150 -0.3929  0.2827  0.5877
  361MPD2     N 5464   0.534   3.440  16.592  0.1611 -0.4488  0.1443
  361MPD2    H5 5465   0.592   3.360  16.570  1.1917  0.4354 -0.3920
  361MPD2    N1 5466   0.249   3.778  16.409 -0.1795  0.4650 -0.4432
  361MPD2    H7 5467   0.223   3.779  16.507 -0.1891  2.1862 -0.4748
  362TMC3    C1 5468   0.071   3.934  16.386 -0.0242  0.3302  1.2075
  362TMC3    C2 5469   0.079   3.967  16.519 -0.2472  0.1816  0.4530
  362TMC3    C3 5470   4.728   4.046  16.577 -0.0096  0.7466 -0.2148
  362TMC3    C4 5471   4.710   3.983  16.311 -0.4198  0.1536  0.0499
  362TMC3    C5 5472   4.619   4.067  16.370  0.9536  0.1887 -0.1728
  362TMC3    C6 5473   4.619   4.082  16.505  0.2106 -0.3728  0.8346
  362TMC3     C 5474   0.175   3.852  16.320 -0.4115  0.1227  0.2382
  362TMC3     O 5475   0.170   3.839  16.200  0.0158  0.8695 -0.1366
  362TMC3     H 5476   0.166   3.943  16.580  1.5780 -1.0653 -2.6446
  362TMC3    H1 5477   4.701   3.959  16.206  0.1790 -1.4234  0.3591
  362TMC3    H2 5478   4.537   4.130  16.557 -0.9092  0.1653 -1.4081
  362TMC3    C7 5479   4.523   4.137  16.297  0.3529 -0.1310 -0.5511
  362TMC3    C8 5480   0.004   4.071  16.720  0.4230 -0.2515 -0.2325
  362TMC3    O1 5481   4.473   4.235  16.348  0.5764 -0.1104  0.2683
  362TMC3    O2 5482   0.113   4.051  16.769  0.6635 -0.0571  0.0526
  363TMC3    C1 5483   2.720   0.942   9.575 -0.0480 -0.6528  0.2607
  363TMC3    C2 5484   2.854   0.951   9.595  0.4285 -0.1398  0.0590
  363TMC3    C3 5485   2.913   1.079   9.610  0.2187 -0.2989  1.0089
  363TMC3    C4 5486   2.629   1.043   9.587 -0.3462 -0.2584  0.5719
  363TMC3    C5 5487   2.689   1.164   9.620  0.0448  0.2000  0.2393
  363TMC3    C6 5488   2.823   1.182   9.628  0.6241 -0.1479  0.0481
  363TMC3     C 5489   2.676   0.804   9.555 -0.6970  0.2774  0.1279
  363TMC3     O 5490   2.751   0.709   9.565 -0.8193 -0.2437 -0.3476
  363TMC3     H 5491   2.909   0.869   9.550 -1.7460 -1.6114  0.1092
  363TMC3    H1 5492   2.522   1.029   9.575 -0.4339  1.7761 -0.9681
  363TMC3    H2 5493   2.874   1.276   9.644  3.1033 -1.5268  0.2569
  363TMC3    C7 5494   2.599   1.274   9.629  0.4721 -0.1846 -0.5776
  363TMC3    C8 5495   3.032   1.077   9.689  0.1957 -0.2838  0.3570
  363TMC3    O1 5496   2.486   1.246   9.671 -0.4266  0.1005 -0.4399
  363TMC3    O2 5497   3.051   1.177   9.755 -0.3191 -0.4256  0.3063
  364MPD2     C 5498   2.020   0.637  10.931 -0.2651 -0.4683 -0.5513
  364MPD2    C1 5499   2.061   0.588  10.808 -0.5358 -0.4647  0.3929
  364MPD2    C2 5500   2.055   0.453  10.790  0.8615 -0.6896  0.2328
  364MPD2    C3 5501   2.007   0.362  10.888  0.1560 -0.3122  0.6493
  364MPD2    C4 5502   1.955   0.423  11.003  0.1666 -0.0092 -0.1029
  364MPD2    C5 5503   1.966   0.559  11.023  1.0322 -0.3633  0.4716
  364MPD2     H 5504   2.096   0.419  10.695  1.1432 -1.2310  0.5481
  364MPD2    H1 5505   1.917   0.359  11.081  0.0560 -0.0631 -0.1996
  364MPD2    H2 5506   2.009   0.743  10.946 -2.9115 -0.6083 -1.5149
  364MPD2    H3 5507   1.925   0.606  11.111  0.6092 -1.4963  0.8805
  364MPD2     N 5508   2.020   0.222  10.888  0.1197 -0.0355  0.2282
  364MPD2    H5 5509   2.000   0.179  10.978 -0.0057  1.1119  0.7579
  364MPD2    N1 5510   2.119   0.676  10.714  0.1552  0.3246 -0.1338
  364MPD2    H7 5511   2.154   0.764  10.748  0.9101 -0.6591  1.6425
  365TMC3    C1 5512   2.242   0.735  10.527  0.3719 -0.2129  0.4409
  365TMC3    C2 5513   2.364   0.700  10.467  0.0432  1.1321  0.1161
  365TMC3    C3 5514   2.447   0.801  10.417  0.0934  0.5921 -0.1270
  365TMC3    C4 5515   2.212   0.865  10.537 -0.3017 -0.9608 -0.0381
  365TMC3    C5 5516   2.303   0.964  10.499  0.0070 -0.3522 -0.0972
  365TMC3    C6 5517   2.416   0.928  10.433 -0.8114 -0.8402  0.5918
  365TMC3     C 5518   2.154   0.635  10.585  0.0204  0.8005 -0.6783
  365TMC3     O 5519   2.151   0.528  10.527  0.5993  0.3128  0.1836
  365TMC3     H 5520   2.399   0.599  10.480 -0.0395  1.3263  1.7782
  365TMC3    H1 5521   2.112   0.886  10.575  0.2537  0.2834  0.7320
  365TMC3    H2 5522   2.479   1.007  10.394 -1.4832 -0.3902  0.4292
  365TMC3    C7 5523   2.277   1.106  10.528  0.5604  0.2446  0.0721
  365TMC3    C8 5524   2.575   0.765  10.363 -0.4697  0.3502 -0.5331
  365TMC3    O1 5525   2.345   1.194  10.480  0.0106 -0.2577  0.7713
  365TMC3    O2 5526   2.660   0.854  10.362 -0.0529 -0.3508  0.3005
  366MPD2     C 5527   4.683   2.426  15.476  0.3277 -0.7852 -0.9834
  366MPD2    C1 5528   0.072   2.398  15.479  0.3632  0.1421  0.2598
  366MPD2    C2 5529   0.115   2.267  15.482 -0.0731 -0.1140  0.4054
  366MPD2    C3 5530   0.026   2.164  15.469  0.2748  0.7623  0.2798
  366MPD2    C4 5531   4.633   2.188  15.473 -0.5902  0.6408  0.2367
  366MPD2    C5 5532   4.595   2.322  15.476  0.2183  0.2690 -0.1224
  366MPD2     H 5533   0.221   2.247  15.489  0.3527  1.5865 -0.9404
  366MPD2    H1 5534   4.553   2.117  15.456  0.3320  0.5027 -3.5049
  366MPD2    H2 5535   4.641   2.527  15.475  2.7382  0.2106 -0.6276
  366MPD2    H3 5536   4.489   2.341  15.489  0.3005 -0.1934  1.2320
  366MPD2     N 5537   0.082   2.040  15.450  0.3640 -0.3950  0.1566
  366MPD2    H5 5538   0.183   2.027  15.445  0.2350 -2.0963  2.1197
  366MPD2    N1 5539   0.163   2.507  15.486 -0.8139 -0.2241  0.4486
  366MPD2    H7 5540   0.127   2.601  15.476 -0.5034 -0.0993  0.5056
  367TMC3    C1 5541   0.361   2.614  15.481 -0.3336 -1.1110 -0.3951
  367TMC3    C2 5542   0.468   2.652  15.541  0.5891  0.0765  0.1790
  367TMC3    C3 5543   0.548   2.754  15.498  0.4377 -0.1273 -0.2304
  367TMC3    C4 5544   0.315   2.689  15.378 -0.5059 -0.1168 -0.3998
  367TMC3    C5 5545   0.391   2.799  15.336 -0.5553  0.2092 -0.2625
  367TMC3    C6 5546   0.502   2.840  15.403 -0.2171  0.0972  0.2442
  367TMC3     C 5547   0.294   2.492  15.511  0.1931  0.1032  0.7169
  367TMC3     O 5548   0.357   2.405  15.567  0.7761  0.7291  0.3318
  367TMC3     H 5549   0.495   2.591  15.626 -1.7926 -0.2116  0.7317
  367TMC3    H1 5550   0.225   2.666  15.322  0.1087 -0.1257 -1.3640
  367TMC3    H2 5551   0.553   2.923  15.354  0.8760  0.4394  1.9749
  367TMC3    C7 5552   0.310   2.894  15.272 -0.1815  0.1729  0.3111
  367TMC3    C8 5553   0.654   2.785  15.592  0.5110 -0.3200  0.7178
  367TMC3    O1 5554   0.306   3.009  15.321 -0.6361  0.4531  1.0154
  367TMC3    O2 5555   0.640   2.737  15.704 -0.1069 -0.1848  0.2289
  368MPD2     C 5556   0.998   4.161  13.152 -0.2443 -0.3188  0.6998
  368MPD2    C1 5557   0.991   4.293  13.103  0.1263 -0.4240 -0.2913
  368MPD2    C2 5558   1.113   4.364  13.079  0.4576 -0.0255 -0.3618
  368MPD2    C3 5559   1.229   4.308  13.115  0.7440  0.1343 -0.3224
  368MPD2    C4 5560   1.239   4.185  13.166  0.4141 -0.2372  0.5256
  368MPD2    C5 5561   1.124   4.112  13.184 -0.1451 -0.2040 -0.1166
  368MPD2     H 5562   1.108   4.468  13.049  1.1568 -0.0769 -0.6473
  368MPD2    H1 5563   1.336   4.142  13.190  0.0867 -1.2020  0.1144
  368MPD2    H2 5564   0.906   4.106  13.168 -0.7346  0.4862  0.6768
  368MPD2    H3 5565   1.121   4.013  13.227  0.7319  0.8776  2.4439
  368MPD2     N 5566   1.357   4.365  13.090 -0.0021  0.3175  0.8057
  368MPD2    H5 5567   1.437   4.302  13.096  1.1930  1.9331  1.7092
  368MPD2    N1 5568   0.865   4.342  13.071  0.6375  0.1891 -0.8308
  368MPD2    H7 5569   0.787   4.279  13.084  1.8819 -1.3465 -0.6497
  369TMC3    C1 5570   0.707   4.483  12.957 -0.0425  0.1410 -0.5123
  369TMC3    C2 5571   0.682   4.596  12.879 -0.5239 -0.3271  0.4620
  369TMC3    C3 5572   0.572   4.588  12.798  0.1729 -0.4955  0.3215
  369TMC3    C4 5573   0.618   4.380  12.952 -0.3186  0.7300 -0.2723
  369TMC3    C5 5574   0.497   4.389  12.877 -0.1546  0.0306 -0.4099
  369TMC3    C6 5575   0.476   4.496  12.799  0.7893  0.5156  0.6121
  369TMC3     C 5576   0.832   4.467  13.026  0.4825 -0.1229 -0.1091
  369TMC3     O 5577   0.896   4.571  13.014 -0.0223 -0.2843 -0.2871
  369TMC3     H 5578   0.762   4.668  12.868 -0.0116 -0.8163  0.9894
  369TMC3    H1 5579   0.630   4.293  13.016  0.9773  0.2242 -1.1966
  369TMC3    H2 5580   0.385   4.506  12.741  1.8848  2.9480 -0.6851
  369TMC3    C7 5581   0.422   4.265  12.860 -0.5066  0.3714 -0.2424
  369TMC3    C8 5582   0.545   4.701  12.720  0.5572  0.4987 -0.7945
  369TMC3    O1 5583   0.457   4.167  12.922  0.5221  0.8193 -0.4690
  369TMC3    O2 5584   0.429   4.710  12.688 -0.0317 -0.3027 -0.3819
  370TMC3    C1 5585   1.170   4.711  16.185 -0.2148 -0.0748 -0.0677
  370TMC3    C2 5586   1.118   4.657  16.298 -0.0415 -0.2957 -0.8521
  370TMC3    C3 5587   1.047   4.540  16.278  0.1439  0.5458  1.0755
  370TMC3    C4 5588   1.162   4.651  16.065  0.3196  1.0585  0.1829
  370TMC3    C5 5589   1.115   4.529  16.060 -0.0089 -1.2828  0.4226
  370TMC3    C6 5590   1.052   4.466  16.162  0.2901  0.7274  0.0006
  370TMC3     C 5591   1.304   0.026  16.209 -0.1941 -0.4492 -0.3741
  370TMC3     O 5592   1.377   4.715  16.291  0.5948 -0.1705  0.1539
  370TMC3     H 5593   1.139   4.713  16.389  1.0816 -0.3985 -1.0434
  370TMC3    H1 5594   1.218   4.683  15.977  0.8368  0.3774  0.2658
  370TMC3    H2 5595   1.013   4.365  16.157  0.5931  0.6210 -0.2294
  370TMC3    C7 5596   1.142   4.453  15.936 -0.4130  0.6317 -0.1615
  370TMC3    C8 5597   0.991   4.475  16.397  0.2818 -0.0065 -0.4858
  370TMC3    O1 5598   1.136   4.522  15.838  0.2781 -0.5020 -0.7923
  370TMC3    O2 5599   0.929   4.370  16.373  0.0077 -0.4017  0.4936
  371TMC3    C1 5600   2.309   2.669  15.455 -0.2179 -0.0388  0.0636
  371TMC3    C2 5601   2.193   2.674  15.534 -0.1747 -0.4127  0.6729
  371TMC3    C3 5602   2.133   2.797  15.544 -0.2612 -0.1673  0.0151
  371TMC3    C4 5603   2.367   2.776  15.396 -0.1169 -0.5598 -0.0091
  371TMC3    C5 5604   2.300   2.894  15.413  0.0649  0.5834  0.5187
  371TMC3    C6 5605   2.184   2.907  15.487  0.1130 -0.0074  0.1645
  371TMC3     C 5606   2.382   2.543  15.461 -0.5791 -0.1916  0.1513
  371TMC3     O 5607   2.456   2.522  15.367 -0.2083  0.4359 -0.0359
  371TMC3     H 5608   2.130   2.592  15.567 -3.0739  1.2211 -0.7814
  371TMC3    H1 5609   2.460   2.762  15.342  0.2645 -0.8405  0.7201
  371TMC3    H2 5610   2.133   3.002  15.505  0.3811 -0.2881  2.3844
  371TMC3    C7 5611   2.354   3.018  15.376  0.4087  0.7155  0.1822
  371TMC3    C8 5612   1.989   2.800  15.583 -0.2355  0.7016  0.4183
  371TMC3    O1 5613   2.306   3.120  15.424  0.1785  0.1483  0.2213
  371TMC3    O2 5614   1.920   2.707  15.550  0.0669  0.0605  0.8146
  372MPD2     C 5615   1.957   4.170  13.939  0.3279 -0.4903  0.0166
  372MPD2    C1 5616   2.043   4.060  13.937 -0.3156  0.8449 -0.0394
  372MPD2    C2 5617   1.992   3.934  13.959  0.9777  0.0062 -0.2836
  372MPD2    C3 5618   1.859   3.909  13.975 -0.2467 -0.4193  0.8591
  372MPD2    C4 5619   1.774   4.016  13.966  0.9132  0.1800  0.1629
  372MPD2    C5 5620   1.827   4.145  13.954  0.6764  0.4969 -0.3528
  372MPD2     H 5621   2.057   3.847  13.963  0.7042 -0.2416 -1.5299
  372MPD2    H1 5622   1.668   3.996  13.970  0.8547  0.5657  0.5160
  372MPD2    H2 5623   1.985   4.272  13.919 -1.4014 -0.5754 -2.8305
  372MPD2    H3 5624   1.768   4.235  13.967 -2.5944 -1.1835 -3.6775
  372MPD2     N 5625   1.818   3.776  13.998 -0.7803 -0.3277  0.3206
  372MPD2    H5 5626   1.892   3.707  14.007  0.3226  0.8994  0.5515
  372MPD2    N1 5627   2.179   4.085  13.940  0.2232  1.0916  0.4375
  372MPD2    H7 5628   2.242   4.006  13.945 -0.8645  0.2279  0.5340
  373TMC3    C1 5629   1.677   3.602  14.080 -0.2176 -0.5962 -0.8674
  373TMC3    C2 5630   1.606   3.579  14.195 -0.0633  0.2748 -0.0604
  373TMC3    C3 5631   1.595   3.443  14.223 -0.8111 -0.4234  1.0862
  373TMC3    C4 5632   1.739   3.511  14.001  0.6773 -0.2137 -0.0401
  373TMC3    C5 5633   1.734   3.378  14.039  0.7829 -0.0505 -0.2304
  373TMC3    C6 5634   1.666   3.344  14.153  0.0135  0.2396 -0.0971
  373TMC3     C 5635   1.692   3.745  14.046  1.2060  0.0867  1.3951
  373TMC3     O 5636   1.606   3.821  14.083  0.8283 -0.1444  0.2065
  373TMC3     H 5637   1.558   3.654  14.256  1.8788  0.6767  0.9739
  373TMC3    H1 5638   1.782   3.535  13.905 -0.3859  1.3006 -0.1521
  373TMC3    H2 5639   1.639   3.239  14.159 -2.0691  0.8889  1.8660
  373TMC3    C7 5640   1.841   3.296  13.994  0.9560 -0.4412  0.4941
  373TMC3    C8 5641   1.575   3.400  14.355  0.2000 -0.0758 -0.0587
  373TMC3    O1 5642   1.889   3.319  13.882  0.4408  0.9326 -0.4055
  373TMC3    O2 5643   1.576   3.280  14.372 -0.2468 -0.1228 -0.0505
  374TMC3    C1 5644   1.773   3.686  10.574 -0.6345  0.3709 -0.9183
  374TMC3    C2 5645   1.912   3.694  10.560 -0.2908  0.2828  0.7044
  374TMC3    C3 5646   1.964   3.660  10.431 -0.1871  0.2709  0.5355
  374TMC3    C4 5647   1.688   3.656  10.472  0.2832  0.0541 -0.9095
  374TMC3    C5 5648   1.747   3.623  10.355 -0.1120 -0.3666 -0.4561
  374TMC3    C6 5649   1.883   3.628  10.325  0.1902 -0.2359 -0.2101
  374TMC3     C 5650   1.702   3.732  10.696  0.0408 -1.2907  0.1363
  374TMC3     O 5651   1.586   3.704  10.713  0.6816 -0.0146  0.4692
  374TMC3     H 5652   1.983   3.702  10.642 -1.5671  1.6197  1.6794
  374TMC3    H1 5653   1.585   3.635  10.497  0.3841 -1.6759 -1.9935
  374TMC3    H2 5654   1.917   3.593  10.227  0.0770  3.0928 -1.4265
  374TMC3    C7 5655   1.663   3.597  10.247  0.3112  0.5201 -0.1525
  374TMC3    C8 5656   2.104   3.675  10.388  0.2255 -0.4268 -0.5711
  374TMC3    O1 5657   1.701   3.522  10.162 -0.2859  0.3287  0.1426
  374TMC3    O2 5658   2.126   3.653  10.268 -0.0044 -0.0734 -0.7283
  375MPD2     C 5659   2.612   0.254  17.105 -0.3879  0.5472 -0.8204
  375MPD2    C1 5660   2.501   0.232  17.021  0.2461  0.2887  0.5394
  375MPD2    C2 5661   2.494   0.105  16.956 -1.0616 -0.6266  0.2194
  375MPD2    C3 5662   2.584   4.742  16.978  0.1520  0.0213  0.3600
  375MPD2    C4 5663   2.695   0.023  17.056  0.6057 -0.6150  0.3848
  375MPD2    C5 5664   2.705   0.151  17.109  0.1604 -0.5604  0.1509
  375MPD2     H 5665   2.418   0.088  16.881 -1.7895 -0.0175  0.8176
  375MPD2    H1 5666   2.764   4.686  17.077  0.7668 -0.8206 -0.9448
  375MPD2    H2 5667   2.633   0.347  17.157  1.5780 -1.7685  2.5878
  375MPD2    H3 5668   2.795   0.166  17.168 -0.9266  1.3026  1.3356
  375MPD2     N 5669   2.589   4.617  16.906  0.1534 -0.3790  0.8460
  375MPD2    H5 5670   2.668   4.559  16.933 -0.4541 -1.8430 -0.5176
  375MPD2    N1 5671   2.394   0.327  17.009 -0.1582 -0.0701 -0.2863
  375MPD2    H7 5672   2.311   0.296  16.961  0.5877 -0.3229 -1.4201
  376TMC3    C1 5673   2.559   4.464  16.723  0.0287 -0.7117 -1.0854
  376TMC3    C2 5674   2.669   4.392  16.758  0.0040  0.6324  0.0363
  376TMC3    C3 5675   2.712   4.289  16.678 -0.2962  0.1298  0.0903
  376TMC3    C4 5676   2.510   4.447  16.594 -0.0353  0.0938 -0.3479
  376TMC3    C5 5677   2.573   4.363  16.503  0.4912  0.3414 -0.1777
  376TMC3    C6 5678   2.668   4.278  16.550  0.7507  0.0680 -0.3478
  376TMC3     C 5679   2.522   4.586  16.795  0.8727  0.2897  0.1513
  376TMC3     O 5680   2.420   4.642  16.751 -0.5091  0.4360  0.1612
  376TMC3     H 5681   2.713   4.403  16.856 -1.6018  0.0786  0.8085
  376TMC3    H1 5682   2.432   4.514  16.559  1.4047  0.9160 -1.9312
  376TMC3    H2 5683   2.720   4.209  16.485 -1.7326 -1.8018 -0.3761
  376TMC3    C7 5684   2.551   4.394  16.362  0.0548  0.1877  0.1769
  376TMC3    C8 5685   2.836   4.219  16.701 -0.3867  0.3084  0.5617
  376TMC3    O1 5686   2.476   4.488  16.332  0.0142  0.0246  0.5620
  376TMC3    O2 5687   2.840   4.105  16.665  0.5227  0.0173 -0.3030
  377MPD2     C 5688   0.884   4.335  12.687  0.4713 -0.3729 -0.2081
  377MPD2    C1 5689   0.810   4.388  12.586 -0.5000  0.5738  0.4491
  377MPD2    C2 5690   0.696   4.322  12.543  0.0134  0.8628 -0.3485
  377MPD2    C3 5691   0.657   4.201  12.598  0.2003  0.7678 -0.2004
  377MPD2    C4 5692   0.731   4.158  12.713 -0.0380 -0.1865 -0.3181
  377MPD2    C5 5693   0.835   4.223  12.757  0.1016 -0.4003  0.4493
  377MPD2     H 5694   0.634   4.364  12.464 -1.2893  0.2348  0.3384
  377MPD2    H1 5695   0.702   4.071  12.771 -0.2405 -0.2697 -0.5454
  377MPD2    H2 5696   0.966   4.391  12.731  1.1356 -0.4839 -1.3231
  377MPD2    H3 5697   0.898   4.193  12.839 -0.9001 -0.5901  1.1588
  377MPD2     N 5698   0.543   4.141  12.544 -0.1061 -0.5001 -0.1413
  377MPD2    H5 5699   0.494   4.196  12.474  0.7394  1.8229  1.0994
  377MPD2    N1 5700   0.853   4.516  12.541  0.0311  0.1762  0.4128
  377MPD2    H7 5701   0.947   4.546  12.565 -0.4305 -0.3514  2.8682
  378TMC3    C1 5702   0.914   0.052  12.184 -0.2717  0.7446  0.0245
  378TMC3    C2 5703   0.827   0.022  12.283  0.3427  0.3437  0.1637
  378TMC3    C3 5704   0.885   4.687  12.385  0.7490 -0.0035  0.0800
  378TMC3    C4 5705   1.047   0.028  12.189  0.2323 -0.6935 -0.5247
  378TMC3    C5 5706   1.094   4.699  12.296  0.3821 -0.3942 -0.6425
  378TMC3    C6 5707   1.015   4.652  12.394  0.1138  0.0462  0.6065
  378TMC3     C 5708   0.854   0.060  12.048 -0.3788  0.4018  0.0416
  378TMC3     O 5709   0.933   0.069  11.953  0.2774  0.0587 -0.2588
  378TMC3     H 5710   0.726   0.058  12.296 -0.2023 -0.3479 -1.9963
  378TMC3    H1 5711   1.104   0.063  12.103 -2.0991  0.4063 -1.6084
  378TMC3    H2 5712   1.059   4.627  12.490 -1.1841  0.7282  1.3810
  378TMC3    C7 5713   1.236   4.676  12.307 -0.7641  0.6324 -0.2586
  378TMC3    C8 5714   0.793   4.589  12.440 -0.5783  0.2057  0.1553
  378TMC3    O1 5715   1.291   4.691  12.415  0.6091 -0.0753 -0.0805
  378TMC3    O2 5716   0.697   4.567  12.368  0.4701  0.4914 -0.0163
  379MPD2     C 5717   1.759   2.736  16.026  0.0709  0.0247  0.0749
  379MPD2    C1 5718   1.700   2.671  16.134 -0.3023 -0.3707 -0.7606
  379MPD2    C2 5719   1.776   2.665  16.254  0.2521  0.0245  0.1758
  379MPD2    C3 5720   1.902   2.715  16.268 -0.7352 -0.2406  0.6565
  379MPD2    C4 5721   1.954   2.782  16.160  0.3635 -0.2412  0.0561
  379MPD2    C5 5722   1.882   2.797  16.040  0.1579 -0.5383 -0.2293
  379MPD2     H 5723   1.735   2.602  16.333 -2.6054  1.8896  0.1821
  379MPD2    H1 5724   2.054   2.822  16.166 -0.3297  1.3395  1.0436
  379MPD2    H2 5725   1.707   2.758  15.933  0.1846  3.9189  0.9272
  379MPD2    H3 5726   1.914   2.859  15.957 -1.5337  0.4493 -0.1603
  379MPD2     N 5727   1.972   2.709  16.391  0.5810 -0.4097  0.7759
  379MPD2    H5 5728   2.070   2.738  16.399  0.9721 -1.7136  0.6857
  379MPD2    N1 5729   1.576   2.614  16.116  0.2307 -0.2725  0.2322
  379MPD2    H7 5730   1.524   2.657  16.040  0.9279 -2.9320 -1.7540
  380TMC3    C1 5731   1.398   2.477  16.139  0.2192  0.6388 -0.2754
  380TMC3    C2 5732   1.396   2.349  16.082 -0.6089  0.0457 -0.5102
  380TMC3    C3 5733   1.316   2.332  15.973 -0.1423 -0.0786  0.4349
  380TMC3    C4 5734   1.324   2.582  16.094  0.3053  0.1027  0.6715
  380TMC3    C5 5735   1.238   2.563  15.989 -0.0011 -0.5532  0.3230
  380TMC3    C6 5736   1.235   2.438  15.927  0.1132 -0.7613  0.0170
  380TMC3     C 5737   1.523   2.516  16.186  0.4506  0.4544 -0.5356
  380TMC3     O 5738   1.574   2.451  16.283  0.1099 -0.4420  0.0415
  380TMC3     H 5739   1.436   2.261  16.129 -1.2823  0.2513  0.4367
  380TMC3    H1 5740   1.327   2.682  16.137  1.2447 -0.2926  1.5197
  380TMC3    H2 5741   1.172   2.429  15.839  0.3486  0.6683 -0.3048
  380TMC3    C7 5742   1.221   2.676  15.907 -0.0389 -0.6143 -0.1501
  380TMC3    C8 5743   1.381   2.276  15.858 -0.2681 -0.5211  0.3512
  380TMC3    O1 5744   1.314   2.754  15.898 -0.2035  0.5867 -0.1370
  380TMC3    O2 5745   1.319   2.284  15.749  0.2697 -0.1686 -0.1982
  381TMC3    C1 5746   0.909   3.667  16.242  1.1327 -0.6125 -0.5752
  381TMC3    C2 5747   0.992   3.772  16.207  0.2222 -0.3661 -0.0192
  381TMC3    C3 5748   1.011   3.866  16.297 -0.5231  0.5244  0.0718
  381TMC3    C4 5749   0.838   3.669  16.358  0.0373 -0.0957 -0.6622
  381TMC3    C5 5750   0.853   3.774  16.443 -0.7036  0.0695 -0.2474
  381TMC3    C6 5751   0.939   3.875  16.412 -0.5669 -0.4786  0.0163
  381TMC3     C 5752   0.906   3.541  16.168  0.2296  0.0401  0.2392
  381TMC3     O 5753   0.831   3.451  16.200  0.1910 -0.2235 -0.1267
  381TMC3     H 5754   1.033   3.773  16.107  0.8571  1.0645  0.2524
  381TMC3    H1 5755   0.772   3.585  16.379 -0.0122  0.3989  1.2238
  381TMC3    H2 5756   0.946   3.951  16.489 -0.3773  1.4689 -1.8990
  381TMC3    C7 5757   0.873   3.731  16.581  0.1170 -0.0866 -0.5012
  381TMC3    C8 5758   1.101   3.970  16.255  0.1408 -0.7087  0.8568
  381TMC3    O1 5759   0.915   3.618  16.594  0.0580  0.2474  0.1661
  381TMC3    O2 5760   1.150   3.969  16.145 -0.1190 -0.0659 -0.3961
  382MPD2     C 5761   0.336   1.421  16.811 -0.6744  0.5347  0.0024
  382MPD2    C1 5762   0.373   1.434  16.940 -0.6706  0.3549 -0.4541
  382MPD2    C2 5763   0.344   1.337  17.036  0.0315 -0.1119  0.3285
  382MPD2    C3 5764   0.272   1.223  16.998  0.0827 -0.5519 -0.1539
  382MPD2    C4 5765   0.240   1.208  16.865  0.4815 -0.2334  0.8560
  382MPD2    C5 5766   0.276   1.308  16.777  0.2598 -0.9488 -0.1428
  382MPD2     H 5767   0.380   1.354  17.137  0.2389  1.5200 -0.0322
  382MPD2    H1 5768   0.185   1.124  16.823  1.4971 -1.1996  1.4650
  382MPD2    H2 5769   0.337   1.501  16.739  2.0349  0.1642 -0.3910
  382MPD2    H3 5770   0.228   1.298  16.680  0.8327  1.2489 -0.6740
  382MPD2     N 5771   0.230   1.117  17.076 -0.0935  0.2208  0.6576
  382MPD2    H5 5772   0.198   1.032  17.031  0.1503  0.3558  0.2212
  382MPD2    N1 5773   0.451   1.547  16.983 -0.0983 -0.0771  0.0690
  382MPD2    H7 5774   0.489   1.548  17.077 -3.3132 -0.7479  1.3751
  383TMC3    C1 5775   0.237   0.972  17.263 -0.3782  0.5536  0.8690
  383TMC3    C2 5776   0.120   0.909  17.224 -0.9048  0.3795 -0.1982
  383TMC3    C3 5777   0.088   0.800  17.297 -0.0774  0.1108  0.2972
  383TMC3    C4 5778   0.316   0.934  17.370  0.1522  0.3667  0.2675
  383TMC3    C5 5779   0.269   0.825  17.439  0.5990 -0.5288  0.2400
  383TMC3    C6 5780   0.158   0.750  17.398  0.3840  0.2139  0.6166
  383TMC3     C 5781   0.269   1.101  17.203  0.0933 -0.1189  0.5476
  383TMC3     O 5782   0.339   1.178  17.264 -0.5319  0.0073  0.3414
  383TMC3     H 5783   0.048   0.942  17.149 -2.2613  0.0918  0.9935
  383TMC3    H1 5784   0.390   1.005  17.406  1.0555 -0.3897 -0.1027
  383TMC3    H2 5785   0.110   0.675  17.459 -0.1316  0.8421  0.9897
  383TMC3    C7 5786   0.362   0.746  17.518  0.1582 -0.3498 -0.2839
  383TMC3    C8 5787   0.014   0.701  17.220  0.2589  0.5370  0.0269
  383TMC3    O1 5788   0.330   0.653  17.591 -0.0384  0.1615  0.5443
  383TMC3    O2 5789   4.686   0.727  17.121 -0.0044 -0.0679  0.0805
  384MPD2     C 5790   1.989   2.360  11.978  0.0319 -0.1766  0.3099
  384MPD2    C1 5791   1.962   2.300  12.095  0.1483 -0.5775  0.1213
  384MPD2    C2 5792   2.002   2.166  12.108 -0.1479 -0.6151 -0.3178
  384MPD2    C3 5793   2.078   2.099  12.017 -0.3407 -0.1359  0.4776
  384MPD2    C4 5794   2.136   2.172  11.917  0.7227  0.7046 -0.1073
  384MPD2    C5 5795   2.088   2.297  11.902 -0.4234 -0.3234 -0.0704
  384MPD2     H 5796   1.975   2.116  12.200 -2.1094  1.3629  0.1728
  384MPD2    H1 5797   2.216   2.139  11.853  1.6248 -0.4010  1.5977
  384MPD2    H2 5798   1.955   2.460  11.956  0.3862 -0.1045  0.0948
  384MPD2    H3 5799   2.121   2.342  11.809 -0.4924  1.4459  0.7447
  384MPD2     N 5800   2.112   1.962  12.027 -0.2494 -0.0576 -0.8912
  384MPD2    H5 5801   2.177   1.921  11.961 -0.2933  0.1556 -1.0704
  384MPD2    N1 5802   1.880   2.348  12.194 -0.1312  0.3930  0.8743
  384MPD2    H7 5803   1.858   2.286  12.271  1.1462 -0.2087  0.7456
  385TMC3    C1 5804   2.150   1.752  12.139  0.1938  0.7286 -0.0893
  385TMC3    C2 5805   2.090   1.648  12.078 -0.1583  0.4384  0.2446
  385TMC3    C3 5806   2.063   1.534  12.148  0.3536 -0.0729  0.1964
  385TMC3    C4 5807   2.181   1.735  12.271  0.6406  0.2954  0.1973
  385TMC3    C5 5808   2.155   1.617  12.347  0.4493  0.0311  0.5460
  385TMC3    C6 5809   2.089   1.518  12.280 -0.6031  0.6397 -0.3890
  385TMC3     C 5810   2.084   1.882  12.138 -0.5841 -0.0436  0.0068
  385TMC3     O 5811   2.029   1.911  12.244  0.1247 -0.2300  0.3839
  385TMC3     H 5812   2.027   1.666  11.992 -0.5440 -1.4581  0.1317
  385TMC3    H1 5813   2.244   1.812  12.314  1.0826  0.1324 -0.1692
  385TMC3    H2 5814   2.050   1.434  12.336  0.5944  0.2706 -0.1110
  385TMC3    C7 5815   2.099   1.635  12.480  0.2634 -0.7706  0.3410
  385TMC3    C8 5816   1.941   1.470  12.105  0.2740 -0.2224  0.3178
  385TMC3    O1 5817   2.051   1.538  12.536  0.0813 -0.5073  0.0686
  385TMC3    O2 5818   1.873   1.431  12.197 -0.4553 -0.7670 -0.6997
  386TMC3    C1 5819   2.173   4.630  11.907  0.0316 -0.4259  0.3688
  386TMC3    C2 5820   2.142   4.538  11.810  0.3929  1.0032 -0.4546
  386TMC3    C3 5821   2.015   4.536  11.764 -0.1418 -0.4195 -1.0607
  386TMC3    C4 5822   2.084   4.719  11.960  0.3374  0.0679 -0.1912
  386TMC3    C5 5823   1.959   4.710  11.906  0.1970  0.0983 -0.5028
  386TMC3    C6 5824   1.923   4.617  11.816 -0.2603  0.1234 -0.7213
  386TMC3     C 5825   2.299   4.621  11.987 -0.2387 -0.3187 -0.5142
  386TMC3     O 5826   2.334   4.720  12.045  0.1497 -0.0211  0.7285
  386TMC3     H 5827   2.212   4.469  11.765  2.2527  2.7723 -0.2671
  386TMC3    H1 5828   2.108   0.047  12.037 -2.4272  1.6956 -0.8228
  386TMC3    H2 5829   1.817   4.605  11.792 -1.2092  0.9803  3.1331
  386TMC3    C7 5830   1.857   0.060  11.957 -0.0173  0.9457 -0.3526
  386TMC3    C8 5831   1.974   4.457  11.648  0.1584 -0.6461 -0.6420
  386TMC3    O1 5832   1.874   0.111  12.064 -0.2886 -0.0015 -0.1185
  386TMC3    O2 5833   1.857   4.424  11.646 -0.4376  0.0906  0.3731
  387MPD2     C 5834   4.248   4.424   9.822  0.0287 -0.0885  0.9822
  387MPD2    C1 5835   4.387   4.408   9.812  0.7042  0.6694 -0.2504
  387MPD2    C2 5836   4.442   4.289   9.832 -0.2329  0.3572 -0.5100
  387MPD2    C3 5837   4.361   4.183   9.852  0.4102 -0.1124  0.0946
  387MPD2    C4 5838   4.222   4.199   9.871 -0.0486  0.8805 -0.0812
  387MPD2    C5 5839   4.169   4.321   9.855 -0.4306 -0.1775  0.0033
  387MPD2     H 5840   4.547   4.280   9.809  0.3058  1.9379  1.3265
  387MPD2    H1 5841   4.162   4.112   9.896 -0.9601  1.7045  0.6094
  387MPD2    H2 5842   4.201   4.521   9.834  1.5771  0.8399 -0.5303
  387MPD2    H3 5843   4.061   4.334   9.863 -0.1640  2.0548  0.1970
  387MPD2     N 5844   4.423   4.059   9.866 -0.2145 -0.4698  0.0664
  387MPD2    H5 5845   4.523   4.064   9.856 -0.3101  0.3058 -0.4406
  387MPD2    N1 5846   4.479   4.520   9.790 -0.3815  0.0275 -0.6778
  387MPD2    H7 5847   4.578   4.499   9.799 -0.7459 -2.0606 -1.4286
  388TMC3    C1 5848   4.551   4.729   9.747 -0.4055 -0.3272 -0.2825
  388TMC3    C2 5849   4.550   0.069   9.639 -0.1402  0.4175 -0.6065
  388TMC3    C3 5850   4.664   0.099   9.576 -0.6929 -0.4068 -0.9121
  388TMC3    C4 5851   4.665   4.683   9.797 -0.0052  0.9915  0.0978
  388TMC3    C5 5852   0.036   4.709   9.731 -0.4191 -0.2199  0.5272
  388TMC3    C6 5853   0.041   0.048   9.626  0.0676  0.5534  0.1275
  388TMC3     C 5854   4.437   4.643   9.761 -0.2889  0.6284  0.4820
  388TMC3     O 5855   4.331   4.680   9.710 -0.0975  0.0720  0.5100
  388TMC3     H 5856   4.460   0.122   9.610  0.9348  2.0037 -1.0255
  388TMC3    H1 5857   4.668   4.634   9.894  0.7352 -0.0446 -0.4563
  388TMC3    H2 5858   0.137   0.076   9.586  1.0429 -0.9387  1.4109
  388TMC3    C7 5859   0.128   4.594   9.709 -0.1499 -0.4117 -0.5937
  388TMC3    C8 5860   4.679   0.211   9.490  0.4875 -0.7716 -0.0501
  388TMC3    O1 5861   0.186   4.589   9.598 -0.8590 -0.0855  0.5535
  388TMC3    O2 5862   4.577   0.253   9.436 -0.1238  0.9003  0.5372
  389MPD2     C 5863   3.753   2.993  11.083  1.0080 -0.4841  0.3848
  389MPD2    C1 5864   3.700   2.873  11.032 -0.1433 -0.0512  0.2616
  389MPD2    C2 5865   3.642   2.780  11.128 -0.1817  0.1679 -0.6160
  389MPD2    C3 5866   3.652   2.819  11.266  0.0484 -0.6761  0.4157
  389MPD2    C4 5867   3.692   2.941  11.306  0.5363  0.4368  0.3519
  389MPD2    C5 5868   3.744   3.027  11.213  0.8668  0.0886  0.3900
  389MPD2     H 5869   3.604   2.684  11.094 -0.1520  0.1932 -0.7196
  389MPD2    H1 5870   3.695   2.973  11.410  1.9739  3.9061 -0.7638
  389MPD2    H2 5871   3.804   3.063  11.019  0.4905  0.7595  1.3205
  389MPD2    H3 5872   3.785   3.121  11.247 -0.0505 -0.1427  2.1333
  389MPD2     N 5873   3.593   2.749  11.373  0.7870 -0.0637  0.5583
  389MPD2    H5 5874   3.588   2.794  11.464  1.3805  0.4314  0.3496
  389MPD2    N1 5875   3.726   2.840  10.896  0.0599 -0.6733  0.0926
  389MPD2    H7 5876   3.769   2.915  10.842  1.5392 -0.5724  1.3896
  390TMC3    C1 5877   3.483   2.571  11.477  0.0719  0.3493 -0.7795
  390TMC3    C2 5878   3.392   2.477  11.465  0.2210  0.2319 -0.2062
  390TMC3    C3 5879   3.334   2.435  11.581  0.5536 -0.2571 -0.7897
  390TMC3    C4 5880   3.517   2.624  11.599  0.7063 -0.1537  0.1897
  390TMC3    C5 5881   3.459   2.576  11.717  0.4646  0.3961  0.5576
  390TMC3    C6 5882   3.354   2.486  11.711 -0.1964  0.7140 -0.0163
  390TMC3     C 5883   3.549   2.615  11.358 -0.1652 -0.4247 -0.3631
  390TMC3     O 5884   3.536   2.545  11.258  0.5715 -0.1754  0.1213
  390TMC3     H 5885   3.369   2.435  11.368  2.5274 -0.5037 -0.4418
  390TMC3    H1 5886   3.611   2.677  11.613  1.1039 -0.2319 -2.0932
  390TMC3    H2 5887   3.297   2.436  11.788 -0.1194  0.6034 -0.0308
  390TMC3    C7 5888   3.498   2.623  11.846  0.1100 -0.0581  0.3047
  390TMC3    C8 5889   3.227   2.338  11.570 -0.4763  0.2201 -0.0926
  390TMC3    O1 5890   3.550   2.734  11.845 -0.1964 -0.7980  0.1699
  390TMC3    O2 5891   3.259   2.249  11.493  0.4815  0.3836 -0.2741
  391MPD2     C 5892   2.944   4.230  11.609 -0.6305 -0.3383 -0.1413
  391MPD2    C1 5893   3.032   4.273  11.516 -0.1232  0.6054  0.0218
  391MPD2    C2 5894   2.985   4.272  11.389  0.0275 -0.0921  0.3158
  391MPD2    C3 5895   2.859   4.221  11.350 -0.1346 -0.6101  0.4192
  391MPD2    C4 5896   2.781   4.175  11.449 -0.3794  0.1285 -0.2962
  391MPD2    C5 5897   2.820   4.183  11.583  0.1925  0.4863  0.3972
  391MPD2     H 5898   3.043   4.300  11.302 -1.9279  0.0243 -0.9435
  391MPD2    H1 5899   2.689   4.121  11.430  0.0544 -1.4383  2.1448
  391MPD2    H2 5900   2.966   4.240  11.715  0.1227 -0.7786 -0.2533
  391MPD2    H3 5901   2.759   4.158  11.670 -0.7667  3.7913  0.6992
  391MPD2     N 5902   2.819   4.226  11.213 -0.0488 -0.1551 -0.0429
  391MPD2    H5 5903   2.899   4.249  11.155  0.7188 -3.7960 -0.4491
  391MPD2    N1 5904   3.159   4.331  11.550 -0.0611 -0.3485 -0.5520
  391MPD2    H7 5905   3.194   4.308  11.643 -2.4348 -2.4551 -0.1857
  392TMC3    C1 5906   2.716   4.196  11.008 -0.5145  0.0084 -0.0189
  392TMC3    C2 5907   2.619   4.126  10.945 -0.0207  0.8411 -0.0514
  392TMC3    C3 5908   2.637   4.089  10.816 -0.6711  0.2722  0.5772
  392TMC3    C4 5909   2.830   4.236  10.938 -0.1167 -0.4660  0.2086
  392TMC3    C5 5910   2.840   4.199  10.805 -0.2325  0.2019  0.3156
  392TMC3    C6 5911   2.749   4.118  10.743 -0.8646  0.5873  0.1961
  392TMC3     C 5912   2.707   4.187  11.153  0.2608 -0.0085  0.9009
  392TMC3     O 5913   2.607   4.143  11.213  0.3525  0.0183 -0.2997
  392TMC3     H 5914   2.535   4.089  11.001 -0.1449  2.5458  0.8804
  392TMC3    H1 5915   2.896   4.312  10.978 -0.1577 -1.0345  1.3455
  392TMC3    H2 5916   2.755   4.091  10.639  0.4404  0.3937  0.3270
  392TMC3    C7 5917   2.956   4.252  10.737  0.3717  0.1095 -0.4916
  392TMC3    C8 5918   2.553   3.985  10.765 -0.1588  0.5016 -0.0301
  392TMC3    O1 5919   3.057   4.287  10.808  0.4984  0.2772  0.3845
  392TMC3    O2 5920   2.450   3.967  10.831  0.0347 -0.2148 -0.4834
  393TMC3    C1 5921   2.520   2.079  10.718  0.3208 -0.2417 -0.2025
  393TMC3    C2 5922   2.405   2.073  10.788 -0.3155 -0.5719 -0.6044
  393TMC3    C3 5923   2.359   1.949  10.823 -0.6010  0.0583  0.5898
  393TMC3    C4 5924   2.598   1.973  10.689  0.5900  0.6996  0.6490
  393TMC3    C5 5925   2.547   1.850  10.726 -0.2273  0.3061 -0.6892
  393TMC3    C6 5926   2.427   1.834  10.796 -0.3117  0.0237 -0.3601
  393TMC3     C 5927   2.542   2.201  10.638 -0.3134 -0.2884 -0.3721
  393TMC3     O 5928   2.654   2.216  10.593 -0.0462  0.5023  0.5644
  393TMC3     H 5929   2.353   2.166  10.811 -0.1129 -0.4785 -0.5279
  393TMC3    H1 5930   2.682   1.975  10.620 -0.6616 -2.8714 -0.9401
  393TMC3    H2 5931   2.394   1.734  10.824 -3.8654  0.4327 -3.1297
  393TMC3    C7 5932   2.595   1.730  10.654  0.1150  0.5223 -0.4103
  393TMC3    C8 5933   2.221   1.948  10.877 -0.8798 -0.0195  0.4775
  393TMC3    O1 5934   2.511   1.646  10.633 -0.0199  0.4200 -0.3665
  393TMC3    O2 5935   2.167   2.056  10.881 -0.1609  0.4188  0.4327
  394TMC3    C1 5936   3.735   2.715  10.705  0.7968  0.5905 -0.2814
  394TMC3    C2 5937   3.651   2.666  10.612 -0.1280 -0.2168 -0.2744
  394TMC3    C3 5938   3.678   2.711  10.480  0.1997  0.1069  0.2141
  394TMC3    C4 5939   3.851   2.775  10.675 -0.0889  0.0952  0.1160
  394TMC3    C5 5940   3.887   2.798  10.545  0.0598 -0.8162  0.7189
  394TMC3    C6 5941   3.791   2.772  10.447 -0.0296  0.2250  0.0865
  394TMC3     C 5942   3.691   2.725  10.841 -0.1686 -0.8979  0.0864
  394TMC3     O 5943   3.623   2.638  10.888 -0.5233 -0.2339 -0.1298
  394TMC3     H 5944   3.575   2.602  10.656  0.0983 -0.3666 -0.1017
  394TMC3    H1 5945   3.923   2.793  10.754  1.7348 -1.5965 -1.1609
  394TMC3    H2 5946   3.815   2.775  10.341 -1.7160  3.5598 -0.1773
  394TMC3    C7 5947   4.004   2.869  10.501  0.2730  0.3685 -0.1400
  394TMC3    C8 5948   3.631   2.617  10.380 -0.3502  0.3269  0.2634
  394TMC3    O1 5949   4.000   2.917  10.390  0.0759 -0.1362  0.1499
  394TMC3    O2 5950   3.618   2.661  10.267  0.4948 -0.1880 -0.1708
  395TMC3    C1 5951   3.343   4.529  14.920 -0.8422 -0.3003  0.2156
  395TMC3    C2 5952   3.349   4.419  14.838 -0.2423  0.0975 -0.0551
  395TMC3    C3 5953   3.423   4.427  14.725  0.3962  0.2930  0.0000
  395TMC3    C4 5954   3.397   4.650  14.892 -0.2598 -0.5073 -0.0374
  395TMC3    C5 5955   3.479   4.650  14.781  0.4248  0.1538 -0.8649
  395TMC3    C6 5956   3.488   4.543  14.693 -0.2201 -0.2354 -0.4356
  395TMC3     C 5957   3.295   4.512  15.054  0.9142 -0.1726 -0.3649
  395TMC3     O 5958   3.242   4.604  15.117 -0.3608 -0.0037  0.6145
  395TMC3     H 5959   3.297   4.328  14.862  0.8827 -0.6793 -0.5465
  395TMC3    H1 5960   3.386   4.731  14.963 -0.5591 -1.1228  0.6228
  395TMC3    H2 5961   3.548   4.546  14.603 -1.3175 -0.5526 -1.1788
  395TMC3    C7 5962   3.567   0.025  14.767  0.3721 -0.3909  0.4479
  395TMC3    C8 5963   3.392   4.329  14.623 -1.0113 -0.4885  0.0162
  395TMC3    O1 5964   3.537   0.120  14.843 -0.0765 -0.4876  0.0530
  395TMC3    O2 5965   3.477   4.289  14.546 -0.4095  0.2541  0.2540
  396MPD2     C 5966   3.014   0.627  16.988 -0.2795 -0.4307  0.4627
  396MPD2    C1 5967   3.138   0.642  17.050 -0.1996  0.3479  1.1749
  396MPD2    C2 5968   3.205   0.768  17.035 -0.3976  0.7134 -0.1395
  396MPD2    C3 5969   3.142   0.869  16.968  0.6232  0.4069  0.2160
  396MPD2    C4 5970   3.012   0.849  16.918 -0.4551 -0.3334 -0.5268
  396MPD2    C5 5971   2.956   0.728  16.924  0.0168  0.2300  0.1344
  396MPD2     H 5972   3.292   0.785  17.097 -0.6262  0.9783  0.1071
  396MPD2    H1 5973   2.946   0.925  16.877  0.0595 -0.7260 -2.0671
  396MPD2    H2 5974   2.953   0.538  16.992  0.3574 -0.9279 -0.6685
  396MPD2    H3 5975   2.852   0.720  16.894 -0.0312 -1.1637  0.6889
  396MPD2     N 5976   3.215   0.993  16.954  1.0953 -0.2800 -0.3516
  396MPD2    H5 5977   3.302   1.006  17.004  0.9457 -2.6102  0.4928
  396MPD2    N1 5978   3.187   0.535  17.132  0.3910  0.0606 -0.0660
  396MPD2    H7 5979   3.142   0.444  17.128  0.6264 -0.0366 -0.5075
  397TMC3    C1 5980   3.313   0.417  17.293 -0.1702  0.5351  0.6630
  397TMC3    C2 5981   3.415   0.343  17.242 -0.4462  0.7648  0.3533
  397TMC3    C3 5982   3.400   0.215  17.196  0.1361  0.0193 -0.0586
  397TMC3    C4 5983   3.192   0.356  17.304  0.1907 -0.9341 -0.1378
  397TMC3    C5 5984   3.181   0.223  17.260  1.0891 -0.0245  0.0438
  397TMC3    C6 5985   3.283   0.148  17.204 -0.6524  0.5285 -0.2747
  397TMC3     C 5986   3.293   0.542  17.218 -0.2303 -0.0789  1.0382
  397TMC3     O 5987   3.371   0.631  17.246  0.3720  0.0447  0.3815
  397TMC3     H 5988   3.514   0.386  17.256 -0.5315  0.9730  0.3100
  397TMC3    H1 5989   3.123   0.416  17.363 -0.8186 -0.1710 -2.1019
  397TMC3    H2 5990   3.270   0.045  17.173 -1.9974  0.6546 -0.1083
  397TMC3    C7 5991   3.062   0.158  17.305  0.1995 -0.8550 -0.3073
  397TMC3    C8 5992   3.518   0.126  17.190  0.0035 -0.4560  0.3713
  397TMC3    O1 5993   3.026   0.058  17.248 -0.8023  0.1511 -0.2184
  397TMC3    O2 5994   3.500   0.025  17.256 -1.1084  0.2945 -0.0831
  398MPD2     C 5995   1.282   2.427   0.176  0.7133 -0.1571 -0.4302
  398MPD2    C1 5996   1.382   2.435   0.273 -0.2663  0.3281  0.1515
  398MPD2    C2 5997   1.436   2.554   0.308 -0.1354 -0.2980 -0.1794
  398MPD2    C3 5998   1.385   2.669   0.256  0.1145 -1.3782 -0.1488
  398MPD2    C4 5999   1.293   2.664   0.153  0.1869 -0.1746 -0.5751
  398MPD2    C5 6000   1.238   2.543   0.119  0.9561  0.8554  0.1086
  398MPD2     H 6001   1.503   2.551   0.393  0.3324  1.3546 -0.4941
  398MPD2    H1 6002   1.264   2.755   0.101 -2.0379  0.6810  2.1496
  398MPD2    H2 6003   1.249   2.338   0.124  0.5874 -1.5164  1.9982
  398MPD2    H3 6004   1.153   2.525   0.054 -0.0184  0.7877  1.4097
  398MPD2     N 6005   1.451   2.790   0.299  0.3520  0.0062 -0.2288
  398MPD2    H5 6006   1.510   2.784   0.381 -1.6349  2.5629  1.4081
  398MPD2    N1 6007   1.448   2.322   0.323 -0.0142  0.6550 -0.2280
  398MPD2    H7 6008   1.525   2.323   0.390  0.7344  1.8993 -1.1068
  399TMC3    C1 6009   1.518   2.091   0.332 -0.0325 -0.4507  0.1684
  399TMC3    C2 6010   1.642   2.130   0.376 -0.2931  0.0911  0.1991
  399TMC3    C3 6011   1.726   2.028   0.415 -0.3706  0.1818 -0.3907
  399TMC3    C4 6012   1.479   1.961   0.351 -1.2673 -0.1611  0.3018
  399TMC3    C5 6013   1.557   1.869   0.398  0.2780  0.2274  0.1026
  399TMC3    C6 6014   1.691   1.897   0.429 -0.3648 -0.3050 -0.5564
  399TMC3     C 6015   1.419   2.194   0.288 -0.0403  0.3048 -0.1792
  399TMC3     O 6016   1.318   2.151   0.234 -0.1633 -0.3700 -0.1311
  399TMC3     H 6017   1.675   2.233   0.362 -0.2670 -0.1466 -1.4482
  399TMC3    H1 6018   1.378   1.936   0.321 -0.8160 -0.3573 -1.0547
  399TMC3    H2 6019   1.750   1.814   0.465 -0.9170  0.0310  1.1330
  399TMC3    C7 6020   1.508   1.731   0.412 -0.8010  0.7710  0.3161
  399TMC3    C8 6021   1.866   2.065   0.446 -0.0390  1.2550  0.4220
  399TMC3    O1 6022   1.585   1.632   0.398 -0.6230 -0.1124  0.6407
  399TMC3    O2 6023   1.901   2.182   0.438  0.0151 -0.1285  0.4477
  400TMC3    C1 6024   0.047   0.486  16.827 -0.2532 -0.4432 -0.1699
  400TMC3    C2 6025   4.706   0.406  16.752 -0.4092 -0.1856 -1.3265
  400TMC3    C3 6026   4.598   0.452  16.689 -0.8278  0.3742  0.4715
  400TMC3    C4 6027   0.019   0.623  16.834 -1.1826 -0.3254 -0.4125
  400TMC3    C5 6028   4.654   0.659  16.758  0.2216 -0.0160  0.0291
  400TMC3    C6 6029   4.574   0.583  16.689  0.5938  0.4952  0.4391
  400TMC3     C 6030   0.160   0.441  16.896 -0.8405  0.2756 -0.4924
  400TMC3     O 6031   0.183   0.324  16.889 -0.0941 -0.2317  0.0501
  400TMC3     H 6032   4.738   0.305  16.725  1.4713  0.0963 -0.1517
  400TMC3    H1 6033   0.066   0.698  16.897 -1.5156 -1.5020  1.2517
  400TMC3    H2 6034   4.497   0.632  16.630 -0.1186 -1.8207 -0.5234
  400TMC3    C7 6035   4.627   0.801  16.751  0.2711  0.3531  0.6542
  400TMC3    C8 6036   4.494   0.373  16.637  0.2527  0.0288 -0.8091
  400TMC3    O1 6037   4.563   0.838  16.654  0.2829 -0.1802  0.6189
  400TMC3    O2 6038   4.403   0.432  16.577 -0.2970  0.1718 -0.1572
  401MPD2     C 6039   3.440   4.154   1.353  0.3727  0.5317  0.1575
  401MPD2    C1 6040   3.489   4.044   1.291  0.0257 -0.6843 -0.0510
  401MPD2    C2 6041   3.410   3.934   1.269  0.5287 -0.3657  0.5134
  401MPD2    C3 6042   3.284   3.919   1.319 -0.0782  0.5583  0.8962
  401MPD2    C4 6043   3.230   4.035   1.373  0.5388  0.0764  0.0034
  401MPD2    C5 6044   3.309   4.151   1.395 -0.3817  0.2940 -0.6830
  401MPD2     H 6045   3.456   3.850   1.219  0.5076  1.1378 -2.0309
  401MPD2    H1 6046   3.128   4.043   1.409 -0.2360  1.6626 -2.4904
  401MPD2    H2 6047   3.491   4.249   1.364 -2.4112  2.4188 -3.2106
  401MPD2    H3 6048   3.261   4.239   1.436 -0.0422 -0.7218  1.9240
  401MPD2     N 6049   3.223   3.794   1.309 -0.1987  0.0017 -0.3814
  401MPD2    H5 6050   3.275   3.718   1.267 -0.3025 -0.6547  0.6807
  401MPD2    N1 6051   3.619   4.030   1.241 -0.2280 -0.4383 -0.5743
  401MPD2    H7 6052   3.647   3.957   1.177  0.8732 -0.2140 -0.3463
  402TMC3    C1 6053   3.082   3.625   1.362 -0.3631 -0.2769 -0.1061
  402TMC3    C2 6054   3.176   3.571   1.444 -0.5389 -0.1476 -0.6425
  402TMC3    C3 6055   3.213   3.448   1.406 -0.1578 -0.5023 -0.3639
  402TMC3    C4 6056   3.037   3.561   1.244  0.6036 -0.2241  0.6775
  402TMC3    C5 6057   3.079   3.437   1.222 -0.6317 -1.1338  0.4466
  402TMC3    C6 6058   3.167   3.376   1.299 -0.3968 -0.6157 -0.1447
  402TMC3     C 6059   3.099   3.772   1.354  0.4013  0.3727 -0.0011
  402TMC3     O 6060   2.997   3.838   1.359  0.0229  0.3488  0.3615
  402TMC3     H 6061   3.226   3.632   1.518 -1.0652 -2.4345  1.5845
  402TMC3    H1 6062   2.961   3.609   1.184  0.3927 -1.2724  0.1296
  402TMC3    H2 6063   3.192   3.274   1.273  1.1581 -0.3274  0.1922
  402TMC3    C7 6064   3.049   3.384   1.088  0.5971 -0.0162 -0.2752
  402TMC3    C8 6065   3.342   3.404   1.454 -0.6930 -0.9539 -0.1071
  402TMC3    O1 6066   2.934   3.403   1.047 -0.4489  0.0271  0.4576
  402TMC3    O2 6067   3.411   3.326   1.388 -0.2205 -0.2494  0.1564
  403MPD2     C 6068   1.009   2.224  14.000 -0.2860  0.0367 -0.2959
  403MPD2    C1 6069   1.104   2.205  13.910  0.4633  0.4214  0.3614
  403MPD2    C2 6070   1.235   2.224  13.956 -0.0375  0.1213  0.0485
  403MPD2    C3 6071   1.263   2.237  14.092  0.6482  0.1189 -0.0084
  403MPD2    C4 6072   1.163   2.254  14.183  0.3299  0.5639  0.2170
  403MPD2    C5 6073   1.036   2.250  14.131  0.9672  1.2057  0.1420
  403MPD2     H 6074   1.318   2.208  13.887  1.7545 -0.9038  2.4275
  403MPD2    H1 6075   1.177   2.267  14.289  0.1879  0.2343  0.2772
  403MPD2    H2 6076   0.906   2.216  13.968  0.4404  1.1868 -2.9429
  403MPD2    H3 6077   0.951   2.263  14.198  1.1985  0.2073  0.6214
  403MPD2     N 6078   1.400   2.239  14.135 -0.0524  0.7466 -0.1949
  403MPD2    H5 6079   1.474   2.238  14.066 -1.2545 -1.9909 -1.4341
  403MPD2    N1 6080   1.069   2.154  13.782  0.1707  0.2578  0.4166
  403MPD2    H7 6081   0.975   2.120  13.765 -0.4689  1.5913  1.3333
  404TMC3    C1 6082   1.090   2.066  13.569  0.2197  1.2212  0.5881
  404TMC3    C2 6083   1.064   1.941  13.607  0.8565  0.0172 -0.1587
  404TMC3    C3 6084   1.091   1.839  13.521  0.3874 -0.4027 -0.3058
  404TMC3    C4 6085   1.118   2.101  13.442  0.4956  0.5240 -0.1545
  404TMC3    C5 6086   1.127   1.995  13.347  0.4259  0.5114 -0.9074
  404TMC3    C6 6087   1.127   1.865  13.391 -0.5892 -0.1222  0.4861
  404TMC3     C 6088   1.159   2.148  13.671  0.0531  0.2179 -0.0075
  404TMC3     O 6089   1.266   2.198  13.650  0.3033  0.9407 -0.4389
  404TMC3     H 6090   1.050   1.923  13.713 -1.2076 -1.6510 -0.7177
  404TMC3    H1 6091   1.125   2.207  13.424 -2.9933  0.8954  0.8497
  404TMC3    H2 6092   1.168   1.785  13.329 -0.8799  0.1098 -0.0102
  404TMC3    C7 6093   1.177   2.042  13.222  1.0329  0.3581  0.6566
  404TMC3    C8 6094   1.160   1.728  13.583 -0.6992  0.2822 -0.6256
  404TMC3    O1 6095   1.239   2.149  13.234 -0.3466 -0.3028  0.7020
  404TMC3    O2 6096   1.254   1.681  13.524  0.2292 -0.0331 -0.4502
  405MPD2     C 6097   1.688   3.176  15.010  0.0000  0.3857  0.1586
  405MPD2    C1 6098   1.637   3.079  14.935  0.2078 -0.3730 -0.6076
  405MPD2    C2 6099   1.506   3.077  14.899  0.2054  0.0171 -0.3797
  405MPD2    C3 6100   1.420   3.179  14.936 -0.1413  0.0942 -0.3429
  405MPD2    C4 6101   1.470   3.288  15.003 -0.2067  0.4966  0.1592
  405MPD2    C5 6102   1.606   3.279  15.039 -0.9386 -0.0337  0.3582
  405MPD2     H 6103   1.474   2.993  14.839  0.3036 -0.9646  0.9428
  405MPD2    H1 6104   1.406   3.371  15.031  2.0562  3.1183 -2.3831
  405MPD2    H2 6105   1.789   3.173  15.048  0.7922  1.0682 -1.8580
  405MPD2    H3 6106   1.645   3.350  15.111 -1.6924 -0.1408  0.8710
  405MPD2     N 6107   1.289   3.157  14.894  0.0810 -0.3579  0.5839
  405MPD2    H5 6108   1.277   3.087  14.821  2.4927 -1.0552  0.8845
  405MPD2    N1 6109   1.712   2.964  14.900 -0.4075  0.6658 -0.0824
  405MPD2    H7 6110   1.660   2.904  14.836  0.6661 -0.2757 -0.0700
  406TMC3    C1 6111   0.854   3.183  14.794 -0.0954 -0.6694  0.1221
  406TMC3    C2 6112   0.854   3.053  14.749  0.0916 -0.2877  0.4033
  406TMC3    C3 6113   0.949   2.971  14.796 -0.0886  0.5287 -0.3274
  406TMC3    C4 6114   0.962   3.240  14.862 -0.2093  0.5765 -0.1771
  406TMC3    C5 6115   1.063   3.158  14.896 -0.3009  0.4259 -0.4981
  406TMC3    C6 6116   1.051   3.025  14.869 -0.1827  0.1241 -0.2433
  406TMC3     C 6117   0.770   3.286  14.736  0.0866 -0.0977 -0.1200
  406TMC3     O 6118   0.762   3.394  14.801  0.2923  0.3830  0.1440
  406TMC3     H 6119   0.788   3.027  14.667 -0.5590 -1.5033  1.3175
  406TMC3    H1 6120   0.971   3.346  14.886  0.8558  0.2666  0.7622
  406TMC3    H2 6121   1.127   2.970  14.924 -0.6228  0.3474  0.5939
  406TMC3    C7 6122   1.182   3.222  14.946  0.1498  0.1012  0.6065
  406TMC3    C8 6123   0.956   2.832  14.751 -0.0392 -0.3646 -0.6327
  406TMC3    O1 6124   1.181   3.324  15.018  0.6507 -0.2826  0.3528
  406TMC3    O2 6125   0.861   2.771  14.703  0.1636  0.3302  0.2635
  407MPD2     C 6126   3.778   3.822   9.828 -0.4837 -0.0203  0.0388
  407MPD2    C1 6127   3.909   3.856   9.866  0.0056 -0.2007  0.5489
  407MPD2    C2 6128   3.929   3.913   9.991 -0.3566  0.2068 -0.3322
  407MPD2    C3 6129   3.823   3.949  10.068  0.4705  0.1220  1.2963
  407MPD2    C4 6130   3.697   3.915  10.039  0.4451 -0.5394 -0.0971
  407MPD2    C5 6131   3.678   3.846   9.916 -1.1728 -0.2499  0.1079
  407MPD2     H 6132   4.030   3.948  10.008  0.6194 -2.6070 -0.4569
  407MPD2    H1 6133   3.617   3.938  10.110 -0.4634 -0.7994 -1.0411
  407MPD2    H2 6134   3.746   3.779   9.733 -0.7680 -1.5788  0.8464
  407MPD2    H3 6135   3.573   3.828   9.893 -1.4864 -0.0328  1.3571
  407MPD2     N 6136   3.846   4.010  10.195  0.1063  0.1107  0.1890
  407MPD2    H5 6137   3.757   4.027  10.241  0.9106 -0.4471  1.9174
  407MPD2    N1 6138   4.014   3.832   9.784  0.7559 -0.4579  0.4784
  407MPD2    H7 6139   4.102   3.862   9.823  1.2703 -3.6201  1.7443
  408TMC3    C1 6140   4.135   3.772   9.593  0.5906  1.0781  0.0336
  408TMC3    C2 6141   4.232   3.675   9.606 -0.5062 -0.7603 -0.1527
  408TMC3    C3 6142   4.359   3.712   9.593  0.0382 -0.3849 -0.1137
  408TMC3    C4 6143   4.164   3.908   9.574  0.3732  0.8438 -0.2293
  408TMC3    C5 6144   4.297   3.934   9.557  0.0263 -0.7137  0.3947
  408TMC3    C6 6145   4.397   3.843   9.567  0.0352  0.0200 -0.3751
  408TMC3     C 6146   4.016   3.749   9.674 -0.4379  0.0751 -0.2046
  408TMC3     O 6147   3.925   3.692   9.617  0.3300  0.2460  0.0397
  408TMC3     H 6148   4.198   3.580   9.648  0.0047 -0.4321  1.0182
  408TMC3    H1 6149   4.084   3.979   9.564  2.2786  3.0130 -0.0334
  408TMC3    H2 6150   4.499   3.879   9.559 -0.3655  0.8680 -1.7832
  408TMC3    C7 6151   4.333   4.069   9.518 -0.0298 -0.2053 -0.6128
  408TMC3    C8 6152   4.459   3.605   9.593 -0.3751  0.1655  0.7139
  408TMC3    O1 6153   4.444   4.080   9.459 -0.0234 -0.5931  0.3941
  408TMC3    O2 6154   4.410   3.495   9.586 -0.7820  0.7697 -0.3611
  409MPD2     C 6155   3.673   4.430  17.083 -0.0034  0.1377 -0.2460
  409MPD2    C1 6156   3.807   4.419  17.078 -0.2242 -0.5997 -0.5645
  409MPD2    C2 6157   3.880   4.510  17.006  0.1022 -0.4252 -0.1842
  409MPD2    C3 6158   3.825   4.628  16.963 -0.8623  0.8061  0.1128
  409MPD2    C4 6159   3.691   4.637  16.979 -0.6565  0.0749 -0.3747
  409MPD2    C5 6160   3.615   4.539  17.028  0.2758 -0.4030 -0.5175
  409MPD2     H 6161   3.988   4.501  17.019  0.0120 -0.0077  0.8174
  409MPD2    H1 6162   3.643   4.733  16.959  0.2988  0.7313  0.4782
  409MPD2    H2 6163   3.606   4.354  17.122  0.4074 -1.2693 -2.2795
  409MPD2    H3 6164   3.509   4.551  17.047  0.5930 -0.6491  1.4089
  409MPD2     N 6165   3.900   0.002  16.921 -0.2025 -0.5317  0.6214
  409MPD2    H5 6166   3.844   0.068  16.868  2.7944  0.0772 -1.7743
  409MPD2    N1 6167   3.888   4.317  17.143 -0.3596 -0.3185  0.6266
  409MPD2    H7 6168   3.988   4.319  17.128 -0.5317  2.0410 -0.2462
  410TMC3    C1 6169   4.086   0.150  16.923 -0.4934  0.1751 -0.2771
  410TMC3    C2 6170   4.183   0.209  17.001 -0.7604 -0.4108 -0.1805
  410TMC3    C3 6171   4.241   0.322  16.944  0.3777  0.0802  0.9035
  410TMC3    C4 6172   4.055   0.187  16.800 -0.4227  0.1489 -0.0360
  410TMC3    C5 6173   4.110   0.309  16.752 -0.2479  0.2877  0.0488
  410TMC3    C6 6174   4.205   0.375  16.824  0.2961 -0.4408  0.0689
  410TMC3     C 6175   4.030   0.023  16.963 -0.2027  0.1363 -0.2443
  410TMC3     O 6176   4.097   4.698  17.040 -0.4789  0.2505  0.5739
  410TMC3     H 6177   4.204   0.169  17.099  0.4636  0.1959 -0.1846
  410TMC3    H1 6178   3.980   0.144  16.735  1.1906  0.0885 -1.8766
  410TMC3    H2 6179   4.262   0.457  16.780 -2.1227  1.4183  0.4297
  410TMC3    C7 6180   4.031   0.374  16.645  0.5343 -0.1960  0.5603
  410TMC3    C8 6181   4.366   0.378  17.005 -0.3507 -0.0282 -0.1627
  410TMC3    O1 6182   3.944   0.304  16.596  0.7531 -0.2926 -0.0089
  410TMC3    O2 6183   4.395   0.495  16.987  0.2749  0.1276  0.1727
  411MPD2     C 6184   3.911   0.803  14.599 -0.3662  0.7559  0.6094
  411MPD2    C1 6185   3.828   0.804  14.700 -0.8183 -0.0104 -0.1934
  411MPD2    C2 6186   3.727   0.704  14.718 -0.1829  0.0562  0.3853
  411MPD2    C3 6187   3.724   0.605  14.624 -1.0159  0.0764  0.3803
  411MPD2    C4 6188   3.821   0.607  14.521  0.2260 -0.5368 -0.1510
  411MPD2    C5 6189   3.920   0.699  14.515 -0.2580  0.7603 -0.5918
  411MPD2     H 6190   3.659   0.712  14.802 -0.7353 -0.3449 -0.0243
  411MPD2    H1 6191   3.828   0.521  14.455  1.8353 -1.1212  0.7816
  411MPD2    H2 6192   3.983   0.884  14.592 -0.0361  0.2419 -2.2250
  411MPD2    H3 6193   4.004   0.689  14.447 -1.3415  1.7437 -2.0761
  411MPD2     N 6194   3.622   0.503  14.617  0.4342 -0.6606 -0.0329
  411MPD2    H5 6195   3.624   0.440  14.538  0.5423  0.1043 -0.6447
  411MPD2    N1 6196   3.835   0.920  14.788  0.3483 -0.4187 -0.3557
  411MPD2    H7 6197   3.897   0.992  14.753  1.8114 -2.2135 -1.5134
  412TMC3    C1 6198   3.415   0.402  14.639 -0.3507 -0.2006 -0.1012
  412TMC3    C2 6199   3.395   0.439  14.512  0.1235  0.3637  0.3885
  412TMC3    C3 6200   3.267   0.403  14.458 -0.6120  0.7864 -0.3373
  412TMC3    C4 6201   3.329   0.338  14.730  1.0686 -0.0295  0.0114
  412TMC3    C5 6202   3.216   0.296  14.665 -0.1266  0.0079  0.7230
  412TMC3    C6 6203   3.176   0.335  14.542  0.4010 -0.7210 -0.4934
  412TMC3     C 6204   3.521   0.482  14.702 -0.1535 -0.5997 -0.7634
  412TMC3     O 6205   3.505   0.513  14.819 -0.2463 -0.0196 -0.1194
  412TMC3     H 6206   3.472   0.485  14.452  0.9291  0.0371  1.1800
  412TMC3    H1 6207   3.348   0.313  14.833  0.0685  0.0438  0.2210
  412TMC3    H2 6208   3.084   0.298  14.500 -0.1332  1.1567 -0.9631
  412TMC3    C7 6209   3.173   0.158  14.701  0.2636  0.2267 -0.4301
  412TMC3    C8 6210   3.272   0.349  14.325 -0.3707 -0.9704 -0.1417
  412TMC3    O1 6211   3.179   0.119  14.819  0.4510  0.3832 -1.6786
  412TMC3    O2 6212   3.213   0.240  14.316 -0.6033 -0.1613  0.4859
  413MPD2     C 6213   0.925   4.460  15.230 -0.4478 -0.0465 -0.0715
  413MPD2    C1 6214   0.842   4.376  15.158 -0.1688 -0.2227 -0.3362
  413MPD2    C2 6215   0.901   4.254  15.121  0.2503  0.1067  0.3755
  413MPD2    C3 6216   1.023   4.216  15.167 -0.4727  0.2197  0.0365
  413MPD2    C4 6217   1.102   4.305  15.235  0.2828  0.3337  0.4445
  413MPD2    C5 6218   1.052   4.426  15.264 -0.0167 -0.7331 -0.5588
  413MPD2     H 6219   0.840   4.173  15.082  0.0987  0.9963 -1.2093
  413MPD2    H1 6220   1.207   4.295  15.256 -0.2277 -1.5324  2.0428
  413MPD2    H2 6221   0.885   4.547  15.280 -1.2355  0.6345 -1.8784
  413MPD2    H3 6222   1.107   4.501  15.319 -1.1929 -2.8898  3.5306
  413MPD2     N 6223   1.076   4.085  15.140 -0.7218  0.5205 -0.5414
  413MPD2    H5 6224   1.016   4.027  15.082  0.6197 -0.8662 -0.5562
  413MPD2    N1 6225   0.703   4.402  15.147 -0.1038  0.1314  0.1954
  413MPD2    H7 6226   0.655   4.480  15.191 -1.9673 -1.0826  0.2906
  414TMC3    C1 6227   1.220   3.914  15.128  0.5497 -0.0399 -0.4480
  414TMC3    C2 6228   1.267   3.825  15.217 -0.2159  0.4840 -0.6153
  414TMC3    C3 6229   1.239   3.688  15.192  0.3613  0.4712 -0.3718
  414TMC3    C4 6230   1.133   3.872  15.026 -0.1754  1.3253  0.3915
  414TMC3    C5 6231   1.121   3.742  15.005  0.1641  0.4536  0.3239
  414TMC3    C6 6232   1.169   3.648  15.087 -1.1136  0.2506  0.6936
  414TMC3     C 6233   1.199   4.041  15.179 -0.4616  0.1772  0.3740
  414TMC3     O 6234   1.288   4.083  15.255 -0.0237 -0.2674 -0.2296
  414TMC3     H 6235   1.315   3.855  15.309  1.1879 -0.8005 -0.9155
  414TMC3    H1 6236   1.088   3.935  14.950  1.5788 -0.0428 -1.7485
  414TMC3    H2 6237   1.150   3.545  15.063 -1.7535  1.4803 -4.0898
  414TMC3    C7 6238   1.011   3.717  14.916 -0.0001  0.2001  0.2660
  414TMC3    C8 6239   1.299   3.580  15.270  0.1995  0.2512 -0.6033
  414TMC3    O1 6240   0.914   3.786  14.936 -0.1263  0.2432  0.4000
  414TMC3    O2 6241   1.228   3.483  15.303  0.0005 -0.0396  0.4137
  415TMC3    C1 6242   1.445   1.717  10.315  0.2152  0.6017  0.8841
  415TMC3    C2 6243   1.563   1.668  10.269  0.4124  0.6253 -0.3598
  415TMC3    C3 6244   1.567   1.622  10.135 -0.5440 -0.0919 -0.9003
  415TMC3    C4 6245   1.333   1.711  10.240  0.5447 -0.2087 -1.1825
  415TMC3    C5 6246   1.337   1.648  10.117 -0.1064 -0.0237 -0.2801
  415TMC3    C6 6247   1.454   1.611  10.060 -0.5293 -0.2623  0.0992
  415TMC3     C 6248   1.433   1.778  10.447 -1.2212 -0.5367 -0.5833
  415TMC3     O 6249   1.322   1.823  10.473  0.1506 -0.3130  0.2022
  415TMC3     H 6250   1.656   1.663  10.324  2.7490  0.1424 -4.3763
  415TMC3    H1 6251   1.247   1.768  10.272  0.6582  0.8155 -2.6786
  415TMC3    H2 6252   1.465   1.568   9.962  0.9186  0.5128 -0.0711
  415TMC3    C7 6253   1.207   1.610  10.054  0.4897 -0.4700  0.3183
  415TMC3    C8 6254   1.700   1.589  10.074 -0.1021  0.0608  0.3729
  415TMC3    O1 6255   1.209   1.610   9.932 -0.0629  0.3243  0.1677
  415TMC3    O2 6256   1.704   1.538   9.960 -0.3572 -0.7785 -0.0658
  416MPD2     C 6257   3.403   0.991  11.329 -0.5251 -0.4109 -0.0615
  416MPD2    C1 6258   3.367   0.924  11.441 -0.5519  0.1463 -0.0418
  416MPD2    C2 6259   3.374   0.776  11.444  0.2328  0.2514 -0.4043
  416MPD2    C3 6260   3.410   0.714  11.329 -0.3691 -0.3349  0.3034
  416MPD2    C4 6261   3.446   0.785  11.215 -0.0319  0.3723 -0.4721
  416MPD2    C5 6262   3.434   0.921  11.218  0.0846  0.7023 -0.0530
  416MPD2     H 6263   3.349   0.724  11.536 -1.0562  0.5281 -0.5994
  416MPD2    H1 6264   3.468   0.733  11.123 -0.2787  0.4618 -0.5816
  416MPD2    H2 6265   3.402   1.099  11.325 -2.5589 -0.4778 -1.2792
  416MPD2    H3 6266   3.458   0.982  11.131 -0.6065 -1.0935 -1.4899
  416MPD2     N 6267   3.390   0.570  11.333 -0.6031  0.0367  0.7956
  416MPD2    H5 6268   3.383   0.530  11.426 -0.2168  1.5468  1.4737
  416MPD2    N1 6269   3.323   0.999  11.551  0.4222  0.3448  0.4588
  416MPD2    H7 6270   3.314   1.099  11.540 -2.4325 -0.2023 -2.2341
  417TMC3    C1 6271   3.204   1.046  11.738  0.1377  0.2996  0.0482
  417TMC3    C2 6272   3.177   1.016  11.865  0.0312  0.1860 -0.0445
  417TMC3    C3 6273   3.051   1.024  11.911 -0.1662 -0.0648 -0.3577
  417TMC3    C4 6274   3.096   1.082  11.656 -0.7220 -0.6967  0.7112
  417TMC3    C5 6275   2.965   1.088  11.693  0.1157  0.1902  0.1903
  417TMC3    C6 6276   2.941   1.058  11.827  0.2145  0.4876 -0.1434
  417TMC3     C 6277   3.284   0.948  11.670  0.6239  0.4177 -0.2988
  417TMC3     O 6278   3.288   0.832  11.710 -0.7762 -0.0328  0.0125
  417TMC3     H 6279   3.253   0.984  11.935 -1.0815 -1.5300  0.3896
  417TMC3    H1 6280   3.118   1.105  11.552 -0.7118 -2.7728  0.2505
  417TMC3    H2 6281   2.849   1.089  11.875 -0.5886 -0.4857 -1.0640
  417TMC3    C7 6282   2.858   1.096  11.597  0.5501  0.3590  0.0883
  417TMC3    C8 6283   3.013   0.994  12.051 -0.0492  0.1397 -0.6958
  417TMC3    O1 6284   2.879   1.179  11.510 -0.1563  0.6426 -0.1601
  417TMC3    O2 6285   2.896   1.014  12.084 -0.4885  0.0730 -0.2966
  418TMC3    C1 6286   1.743   3.067   0.236 -0.1507  0.2350  0.0665
  418TMC3    C2 6287   1.610   3.066   0.211 -0.1589  0.0375  0.2285
  418TMC3    C3 6288   1.520   3.014   0.299 -0.1733  0.6007  0.4718
  418TMC3    C4 6289   1.792   3.031   0.360 -0.3716 -0.5766 -0.5995
  418TMC3    C5 6290   1.699   2.998   0.451  0.0344 -0.0487 -0.1453
  418TMC3    C6 6291   1.568   2.976   0.422  0.6465  0.0943  0.0272
  418TMC3     C 6292   1.826   3.122   0.135  0.1257  0.9840  0.1625
  418TMC3     O 6293   1.780   3.229   0.091  0.5311 -0.5823  0.0329
  418TMC3     H 6294   1.576   3.081   0.109 -0.5197  3.4496  0.8783
  418TMC3    H1 6295   1.898   3.034   0.383  0.4482 -1.5252 -4.1866
  418TMC3    H2 6296   1.500   2.952   0.503  0.6546 -0.7268 -0.2077
  418TMC3    C7 6297   1.749   2.910   0.546  0.0421  0.1913  0.2006
  418TMC3    C8 6298   1.442   2.910   0.234 -0.3943 -0.2717  0.2306
  418TMC3    O1 6299   1.727   2.792   0.535 -0.0507 -0.4924 -0.4677
  418TMC3    O2 6300   1.407   2.929   0.117 -0.3041 -0.1398 -0.3333
  419MPD2     C 6301   0.417   0.424  11.880  0.0771  0.5391  0.0255
  419MPD2    C1 6302   0.410   0.565  11.897 -0.7139 -0.0866 -0.0161
  419MPD2    C2 6303   0.321   0.618  11.994  0.1315 -0.0957  0.1990
  419MPD2    C3 6304   0.238   0.532  12.059  0.5313 -0.0737 -0.0799
  419MPD2    C4 6305   0.249   0.388  12.045  0.9843 -0.2881 -0.1360
  419MPD2    C5 6306   0.347   0.340  11.961 -0.3496 -0.2242 -0.5563
  419MPD2     H 6307   0.311   0.725  12.007 -1.3812 -0.4252  1.6620
  419MPD2    H1 6308   0.186   0.319  12.100 -1.1193  2.1173  0.4877
  419MPD2    H2 6309   0.476   0.382  11.799  0.3866  3.3590 -1.1976
  419MPD2    H3 6310   0.352   0.234  11.936  1.8164 -0.6077  1.5070
  419MPD2     N 6311   0.143   0.591  12.149 -0.6187  0.3201  0.4407
  419MPD2    H5 6312   0.145   0.690  12.174 -1.8888  0.4582 -0.0342
  419MPD2    N1 6313   0.485   0.656  11.817  0.0898 -0.1580 -0.3534
  419MPD2    H7 6314   0.473   0.756  11.829  1.4030 -0.1620  1.1064
  420TMC3    C1 6315   4.723   0.604  12.320  0.0326  0.4686  1.0531
  420TMC3    C2 6316   4.650   0.706  12.271  0.6718  0.2136  0.6709
  420TMC3    C3 6317   4.563   0.769  12.361  1.1160 -0.1146  0.8916
  420TMC3    C4 6318   4.709   0.562  12.448 -0.0051  0.6287 -0.1826
  420TMC3    C5 6319   4.619   0.622  12.537 -0.7230 -0.1464  0.9836
  420TMC3    C6 6320   4.548   0.727  12.487  0.5902 -0.2581 -0.1535
  420TMC3     C 6321   0.065   0.522  12.239  0.4498 -0.0461  0.1206
  420TMC3     O 6322   0.065   0.405  12.267 -0.5653  0.2304 -0.1945
  420TMC3     H 6323   4.677   0.743  12.173 -2.9791 -0.4338 -0.5967
  420TMC3    H1 6324   0.049   0.503  12.484 -0.2399 -0.2164 -1.0133
  420TMC3    H2 6325   4.476   0.778  12.550 -0.5278 -2.0616  0.0453
  420TMC3    C7 6326   4.668   0.627  12.678  0.6252 -0.6543 -0.1877
  420TMC3    C8 6327   4.525   0.911  12.339 -0.4092  0.3963  0.3594
  420TMC3    O1 6328   4.712   0.531  12.738 -0.2802 -0.0450  1.0128
  420TMC3    O2 6329   4.510   0.981  12.437 -0.4259 -0.2088  0.3995
  421TMC3    C1 6330   1.585   2.229  14.274  0.3073  0.1008 -0.2087
  421TMC3    C2 6331   1.643   2.316  14.359 -0.3481 -0.6094  0.6275
  421TMC3    C3 6332   1.771   2.296  14.396 -0.1089  0.0081  0.4348
  421TMC3    C4 6333   1.652   2.138  14.199 -0.0768  0.2346 -0.0144
  421TMC3    C5 6334   1.792   2.132  14.226 -0.2635 -0.6380  1.0671
  421TMC3    C6 6335   1.853   2.215  14.319  0.5246  0.1294 -0.5469
  421TMC3     C 6336   1.445   2.244  14.262 -0.0167 -0.5912  0.5183
  421TMC3     O 6337   1.380   2.261  14.365 -0.3670  0.4007  0.1883
  421TMC3     H 6338   1.575   2.380  14.414  1.0872 -1.3500  3.2339
  421TMC3    H1 6339   1.607   2.072  14.125 -1.6649  1.4762 -0.1643
  421TMC3    H2 6340   1.961   2.207  14.329  0.5088  0.7189  0.0748
  421TMC3    C7 6341   1.883   2.062  14.141  0.5194  0.2512  0.6455
  421TMC3    C8 6342   1.828   2.392  14.479 -0.3316  0.3274  0.8895
  421TMC3    O1 6343   1.981   2.120  14.099 -0.2191 -0.2440 -0.3434
  421TMC3    O2 6344   1.777   2.415  14.588  0.2086  0.1633 -0.4391
  422TMC3    C1 6345   3.894   3.569  12.635 -0.2850 -0.2530  0.0832
  422TMC3    C2 6346   3.869   3.704  12.617 -0.8197  0.3115 -0.3781
  422TMC3    C3 6347   3.741   3.736  12.591 -0.0271 -0.4299 -0.0091
  422TMC3    C4 6348   3.795   3.473  12.648 -0.3005  0.1895 -0.5269
  422TMC3    C5 6349   3.664   3.516  12.619  0.6437 -0.0955  0.0027
  422TMC3    C6 6350   3.638   3.648  12.591 -0.2760 -0.4163  0.7007
  422TMC3     C 6351   4.030   3.533  12.665 -0.4604  0.5814 -0.7600
  422TMC3     O 6352   4.110   3.625  12.664 -0.1830 -0.0659 -0.1464
  422TMC3     H 6353   3.943   3.783  12.621  0.8097 -1.1465 -1.8738
  422TMC3    H1 6354   3.810   3.367  12.658 -0.8787  0.0930 -0.6927
  422TMC3    H2 6355   3.539   3.682  12.564  0.3368  1.4611  0.8209
  422TMC3    C7 6356   3.565   3.414  12.614  0.3116  0.3311 -0.3903
  422TMC3    C8 6357   3.702   3.874  12.596 -0.4620 -0.6288  0.4162
  422TMC3    O1 6358   3.606   3.297  12.613 -0.1939 -0.0622  0.3016
  422TMC3    O2 6359   3.774   3.956  12.657  0.0284 -0.2823  0.0084
  423MPD2     C 6360   0.631   4.014   0.549  0.0094  0.0483 -0.5223
  423MPD2    C1 6361   0.746   4.087   0.529  0.5923 -0.4410 -0.2325
  423MPD2    C2 6362   0.800   4.101   0.405  0.1063  0.0278 -0.2462
  423MPD2    C3 6363   0.748   4.019   0.309 -0.8289  0.2137  0.4511
  423MPD2    C4 6364   0.643   3.931   0.330  0.3363 -0.0678  0.0488
  423MPD2    C5 6365   0.580   3.932   0.451  0.0710 -0.1386 -0.0286
  423MPD2     H 6366   0.888   4.161   0.386  0.3295 -0.5580 -1.0837
  423MPD2    H1 6367   0.604   3.858   0.259 -1.5078  0.6057  0.3877
  423MPD2    H2 6368   0.589   3.999   0.647  0.0886 -2.1714 -0.8328
  423MPD2    H3 6369   0.506   3.860   0.484 -1.8820  1.7034 -0.3634
  423MPD2     N 6370   0.799   4.005   0.178 -0.5018 -0.2831 -0.5102
  423MPD2    H5 6371   0.752   3.948   0.107 -0.2939  0.0262 -0.8953
  423MPD2    N1 6372   0.820   4.161   0.627 -0.6161 -0.9992 -0.2726
  423MPD2    H7 6373   0.906   4.211   0.608  0.4072 -2.5253  0.2878
  424TMC3    C1 6374   0.845   4.240   0.840 -0.3622  0.0465 -0.1672
  424TMC3    C2 6375   0.981   4.255   0.813  0.4010  0.5844  0.3676
  424TMC3    C3 6376   1.056   4.328   0.901 -0.4405  0.4416 -0.0105
  424TMC3    C4 6377   0.781   4.293   0.951  0.5114 -0.1913 -0.7679
  424TMC3    C5 6378   0.864   4.374   1.033  1.2168  0.3703  0.0688
  424TMC3    C6 6379   0.997   4.388   1.012  0.2139  0.6531  0.0630
  424TMC3     C 6380   0.764   4.161   0.755 -0.0179  0.5984  0.5924
  424TMC3     O 6381   0.652   4.143   0.801  0.1006 -0.3194 -0.9289
  424TMC3     H 6382   1.037   4.205   0.734 -0.2792  0.8326 -0.2695
  424TMC3    H1 6383   0.678   4.274   0.979  0.1881  0.6485 -1.4005
  424TMC3    H2 6384   1.064   4.438   1.081  0.2015 -1.7823  1.8353
  424TMC3    C7 6385   0.799   4.444   1.144  0.3725  0.0591 -0.5751
  424TMC3    C8 6386   1.194   4.306   0.900  0.5165  0.5345 -0.4581
  424TMC3    O1 6387   0.871   4.528   1.201 -0.1313  0.0148 -0.0914
  424TMC3    O2 6388   1.228   4.225   0.814 -0.1322  0.2032  0.2229
  425MPD2     C 6389   4.682   3.716  17.093 -0.2600  0.0419 -0.1446
  425MPD2    C1 6390   4.623   3.609  17.153  0.3496  0.8413 -0.7797
  425MPD2    C2 6391   4.518   3.633  17.238 -0.0139  0.0843  0.6331
  425MPD2    C3 6392   4.487   3.757  17.281 -0.2687  0.8224 -0.0797
  425MPD2    C4 6393   4.548   3.865  17.225  0.3683 -0.6474 -0.3760
  425MPD2    C5 6394   4.638   3.844  17.124  0.0898 -0.1825  0.6182
  425MPD2     H 6395   4.455   3.553  17.278  1.4064 -1.8119 -0.9016
  425MPD2    H1 6396   4.541   3.969  17.257 -1.1029 -0.1837 -2.2157
  425MPD2    H2 6397   0.003   3.695  17.008  1.2103 -0.4337  1.0763
  425MPD2    H3 6398   4.691   3.925  17.074 -1.7999  0.2911 -0.6145
  425MPD2     N 6399   4.380   3.773  17.367 -0.2582  0.5367 -0.4272
  425MPD2    H5 6400   4.326   3.687  17.373 -1.4000  1.2404 -0.6091
  425MPD2    N1 6401   4.670   3.479  17.116 -0.2915  0.3643  0.2966
  425MPD2    H7 6402   0.008   3.485  17.055 -0.8907 -3.3667 -0.8669
  426TMC3    C1 6403   4.704   3.250  17.119 -0.0850  0.0052  0.2386
  426TMC3    C2 6404   0.023   3.253  16.994  0.1271  0.0202  0.1426
  426TMC3    C3 6405   0.119   3.161  16.981  0.2206  0.9091  0.0337
  426TMC3    C4 6406   4.724   3.149  17.212  0.1650 -0.2190 -0.1623
  426TMC3    C5 6407   0.079   3.064  17.184 -0.3398  0.1456 -0.2861
  426TMC3    C6 6408   0.159   3.073  17.079 -0.0615  0.4781 -0.2754
  426TMC3     C 6409   4.627   3.363  17.163  0.3607 -0.1796 -0.6976
  426TMC3     O 6410   4.537   3.331  17.240 -0.4094 -0.3487 -0.2218
  426TMC3     H 6411   0.002   3.325  16.915  0.3572  0.8854  0.8688
  426TMC3    H1 6412   4.657   3.138  17.297 -0.3644  1.2604 -0.3890
  426TMC3    H2 6413   0.240   3.002  17.067  1.6662  2.2533  1.0009
  426TMC3    C7 6414   0.046   2.925  17.219 -0.4232 -0.2251 -0.4165
  426TMC3    C8 6415   0.186   3.144  16.856 -0.4037 -0.4105  0.5674
  426TMC3    O1 6416   0.093   2.839  17.144 -0.3060  0.3974 -0.2138
  426TMC3    O2 6417   0.213   3.030  16.820  0.2618 -0.6830  0.2219
  427MPD2     C 6418   3.004   1.038  15.143  0.1811 -0.3027  0.3371
  427MPD2    C1 6419   2.955   0.958  15.248 -0.6094 -0.3441  0.4400
  427MPD2    C2 6420   2.822   0.949  15.279  0.8456  0.2575  0.2230
  427MPD2    C3 6421   2.736   1.018  15.196 -0.0986 -0.2797  0.0560
  427MPD2    C4 6422   2.783   1.070  15.079 -0.3390 -0.0771 -0.4514
  427MPD2    C5 6423   2.917   1.079  15.053  0.0711  0.6000 -0.7781
  427MPD2     H 6424   2.783   0.888  15.360  0.0156 -2.7110 -2.3787
  427MPD2    H1 6425   2.715   1.122  15.013 -1.1598 -0.0446  0.4268
  427MPD2    H2 6426   3.110   1.040  15.117 -0.2306  0.4190 -1.2593
  427MPD2    H3 6427   2.954   1.123  14.961  1.0629  0.2645 -0.5481
  427MPD2     N 6428   2.599   1.013  15.206  0.2962  0.1165 -0.2931
  427MPD2    H5 6429   2.544   1.026  15.122 -0.8117 -0.1304  0.3952
  427MPD2    N1 6430   3.035   0.887  15.340 -0.0579 -0.0104 -0.2890
  427MPD2    H7 6431   2.995   0.842  15.422 -0.3558  1.2921  0.2795
  428TMC3    C1 6432   3.228   0.789  15.440  0.5091  0.2666  0.4382
  428TMC3    C2 6433   3.156   0.679  15.477 -0.4413 -0.3111  0.0415
  428TMC3    C3 6434   3.216   0.595  15.569 -0.2190  0.2482  0.1184
  428TMC3    C4 6435   3.364   0.795  15.463 -0.7159  0.0776  0.2552
  428TMC3    C5 6436   3.413   0.717  15.571 -0.2735  0.1237  0.3279
  428TMC3    C6 6437   3.336   0.617  15.623 -0.0462  0.2594 -0.1445
  428TMC3     C 6438   3.172   0.885  15.343  0.2371 -0.3187  0.3759
  428TMC3     O 6439   3.251   0.925  15.254  0.4921  0.1683 -0.3444
  428TMC3     H 6440   3.057   0.653  15.443 -0.2571  0.3215 -0.9936
  428TMC3    H1 6441   3.414   0.881  15.420 -1.2303 -0.6350 -1.7821
  428TMC3    H2 6442   3.369   0.544  15.696  1.0475 -0.2376 -1.1192
  428TMC3    C7 6443   3.531   0.759  15.643 -0.2169 -0.7712 -0.1227
  428TMC3    C8 6444   3.154   0.470  15.586  0.0577  0.1991  0.1254
  428TMC3    O1 6445   3.540   0.736  15.765 -0.9416 -0.2945 -0.0207
  428TMC3    O2 6446   3.170   0.405  15.689  0.0889 -0.5760  0.2806
  429MPD2     C 6447   4.147   0.796   0.167 -0.7482  0.0964  0.8331
  429MPD2    C1 6448   4.234   0.750   0.074  0.0566 -0.8309 -0.5202
  429MPD2    C2 6449   4.275   0.837  17.740  0.0791  0.7056  0.0648
  429MPD2    C3 6450   4.216   0.964  17.726  0.4948 -0.4470 -0.1987
  429MPD2    C4 6451   4.133   1.012   0.060  0.0878  0.0342  0.0527
  429MPD2    C5 6452   4.096   0.924   0.157 -0.4609 -0.1914  0.5648
  429MPD2     H 6453   4.337   0.800  17.658 -2.7370 -1.7329 -0.9928
  429MPD2    H1 6454   4.098   1.114   0.048 -1.6362 -0.5674 -0.0871
  429MPD2    H2 6455   4.119   0.734   0.251 -0.3411 -0.4302  0.5763
  429MPD2    H3 6456   4.024   0.964   0.228  0.4193 -0.1751  1.4534
  429MPD2     N 6457   4.255   1.051  17.621  0.5753  0.7774 -0.5470
  429MPD2    H5 6458   4.325   1.015  17.557  1.6834 -0.3644  1.3227
  429MPD2    N1 6459   4.290   0.620   0.077  0.1479 -0.1663  0.6224
  429MPD2    H7 6460   4.359   0.597   0.006 -0.9827  0.4140 -0.6770
  430TMC3    C1 6461   4.270   1.236  17.471 -0.0114 -0.1141 -0.3539
  430TMC3    C2 6462   4.196   1.337  17.411 -0.9437 -0.0779  0.4148
  430TMC3    C3 6463   4.265   1.396  17.308  0.3626  0.0156  0.2243
  430TMC3    C4 6464   4.403   1.206  17.441 -0.3585 -0.2882  0.1333
  430TMC3    C5 6465   4.466   1.278  17.345 -0.1848  0.5474  0.3643
  430TMC3    C6 6466   4.398   1.376  17.276  0.5102  0.6879  0.3222
  430TMC3     C 6467   4.206   1.177  17.592  0.0707 -0.5404 -0.3286
  430TMC3     O 6468   4.109   1.233  17.636 -0.3541 -0.0639  0.3853
  430TMC3     H 6469   4.089   1.352  17.427 -0.9635  0.4498 -0.2149
  430TMC3    H1 6470   4.455   1.135  17.504  0.2821  0.0709  0.0149
  430TMC3    H2 6471   4.445   1.432  17.196  0.4814 -1.9142 -1.5374
  430TMC3    C7 6472   4.549   1.184  17.271  0.3443 -0.3558  0.0808
  430TMC3    C8 6473   4.174   1.426  17.201  0.0530 -0.1106 -0.5543
  430TMC3    O1 6474   4.550   1.064  17.293  0.2424 -0.4595 -0.0017
  430TMC3    O2 6475   4.111   1.330  17.161  0.1988 -0.0833  0.1571
  431MPD2     C 6476   0.676   1.177  12.382 -0.2302 -0.1976  0.5987
  431MPD2    C1 6477   0.732   1.246  12.277  0.0884  0.1418 -0.0175
  431MPD2    C2 6478   0.738   1.181  12.151 -0.2681  0.1762  0.2031
  431MPD2    C3 6479   0.700   1.050  12.139  0.1618 -0.0481  0.1074
  431MPD2    C4 6480   0.651   0.985  12.250 -0.1596 -0.1574  0.1182
  431MPD2    C5 6481   0.632   1.050  12.372 -0.3566 -0.5765  0.0490
  431MPD2     H 6482   0.781   1.223  12.061  0.4878  0.7354  0.8284
  431MPD2    H1 6483   0.638   0.878  12.241 -1.3099 -0.0821  0.8821
  431MPD2    H2 6484   0.649   1.231  12.472  2.1097 -0.8312  1.6630
  431MPD2    H3 6485   0.595   0.990  12.455 -0.6540  0.0926  0.3962
  431MPD2     N 6486   0.720   0.978  12.021  0.4132  0.5095 -0.3810
  431MPD2    H5 6487   0.673   0.888  12.016  0.8420  0.2458  0.3402
  431MPD2    N1 6488   0.779   1.376  12.281  0.6338 -0.0669  0.0256
  431MPD2    H7 6489   0.831   1.412  12.202  0.0703 -0.6056 -0.5850
  432TMC3    C1 6490   0.777   0.930  11.796  0.1946 -0.4887  0.4256
  432TMC3    C2 6491   0.883   0.913  11.713 -0.3474 -0.9556  0.5912
  432TMC3    C3 6492   0.892   0.806  11.627 -0.0914 -0.3482 -0.0755
  432TMC3    C4 6493   0.674   0.837  11.802 -0.0474  0.4517 -0.6727
  432TMC3    C5 6494   0.684   0.735  11.717  0.1322  0.2247 -0.4966
  432TMC3    C6 6495   0.786   0.721  11.625 -0.5050 -0.2258  0.6426
  432TMC3     C 6496   0.783   1.025  11.907  1.4168 -0.6305  0.5440
  432TMC3     O 6497   0.868   1.110  11.895  0.0269  0.4152  1.0147
  432TMC3     H 6498   0.965   0.982  11.703 -0.0970 -1.3720 -0.1556
  432TMC3    H1 6499   0.595   0.845  11.876 -1.8608 -1.0696 -2.4408
  432TMC3    H2 6500   0.781   0.643  11.550  1.8744 -1.8775  2.1995
  432TMC3    C7 6501   0.592   0.624  11.723  0.0062  0.3351  0.6759
  432TMC3    C8 6502   1.018   0.748  11.577 -0.0669  0.2362 -0.6846
  432TMC3    O1 6503   0.629   0.513  11.694 -0.2250  0.6060 -0.1728
  432TMC3    O2 6504   1.013   0.631  11.536 -0.2232 -0.4960 -0.0471
  433MPD2     C 6505   3.670   4.139  11.140 -0.0309 -0.6882 -0.0976
  433MPD2    C1 6506   3.758   4.044  11.186  0.3229 -0.4158  0.1657
  433MPD2    C2 6507   3.798   4.053  11.321  0.1824  0.3573  0.7077
  433MPD2    C3 6508   3.776   4.167  11.393  0.5201  0.3441 -0.0245
  433MPD2    C4 6509   3.704   4.273  11.333 -0.1678 -0.0331  0.1616
  433MPD2    C5 6510   3.641   4.253  11.210 -0.6242  0.2004  0.1614
  433MPD2     H 6511   3.858   3.976  11.367 -0.2572 -0.8608 -0.7601
  433MPD2    H1 6512   3.695   4.367  11.386  0.1025  1.9079 -3.2446
  433MPD2    H2 6513   3.616   4.129  11.046  0.0722 -1.6320 -0.0572
  433MPD2    H3 6514   3.576   4.326  11.163  0.1810  0.7091 -0.1522
  433MPD2     N 6515   3.821   4.167  11.528 -0.3802  0.1910  0.1490
  433MPD2    H5 6516   3.845   4.075  11.564  0.9319  0.3539 -0.2800
  433MPD2    N1 6517   3.781   3.930  11.102 -0.0459 -0.2306 -0.1617
  433MPD2    H7 6518   3.734   3.927  11.012 -0.6492  0.1013  0.1455
  434TMC3    C1 6519   3.895   3.747  11.009  0.3988  0.9729  0.1418
  434TMC3    C2 6520   3.977   3.650  11.053  0.5645  0.3990 -0.2284
  434TMC3    C3 6521   4.092   3.617  10.994  0.0038  1.0225  0.9606
  434TMC3    C4 6522   3.923   3.821  10.901  0.0146  0.2604  0.0824
  434TMC3    C5 6523   4.042   3.792  10.840  0.1452 -0.4668 -0.4523
  434TMC3    C6 6524   4.130   3.696  10.884 -0.6564  0.2424  0.0343
  434TMC3     C 6525   3.864   3.826  11.131 -0.2639  0.0866 -0.5533
  434TMC3     O 6526   3.915   3.792  11.235 -0.2764 -0.0860  0.1980
  434TMC3     H 6527   3.954   3.597  11.145 -0.3901  0.9239 -0.1611
  434TMC3    H1 6528   3.878   3.915  10.873  1.5517  1.0723  0.3423
  434TMC3    H2 6529   4.218   3.679  10.824 -0.1324  2.4970  0.1997
  434TMC3    C7 6530   4.048   3.801  10.698 -0.4865 -0.5183 -0.6846
  434TMC3    C8 6531   4.191   3.573  11.098 -0.0860 -0.3202  0.0976
  434TMC3    O1 6532   4.153   3.800  10.640 -0.1318 -0.1481  0.1947
  434TMC3    O2 6533   4.144   3.525  11.201 -0.1117 -0.3383  0.0712
  435MPD2     C 6534   1.343   4.628  15.412 -0.0679  0.4754 -0.0839
  435MPD2    C1 6535   1.309   4.622  15.551  0.8498 -0.1484  0.2718
  435MPD2    C2 6536   1.402   4.560  15.637  0.1375 -0.3906  0.0750
  435MPD2    C3 6537   1.519   4.506  15.586  0.3302 -0.7728  0.2489
  435MPD2    C4 6538   1.543   4.499  15.450  0.3454  0.3833  0.2553
  435MPD2    C5 6539   1.460   4.564  15.368 -0.0117 -0.0414  0.4056
  435MPD2     H 6540   1.394   4.571  15.745  0.6932 -1.0527  0.1806
  435MPD2    H1 6541   1.619   4.436  15.406  0.0977  0.1393  0.1729
  435MPD2    H2 6542   1.279   4.674  15.337 -0.4339 -0.3320 -0.2637
  435MPD2    H3 6543   1.473   4.563  15.261 -0.8006  0.2153  0.3066
  435MPD2     N 6544   1.589   4.421  15.671 -0.3902 -0.5024 -0.4923
  435MPD2    H5 6545   1.565   4.430  15.769 -1.3932 -3.2176 -0.5034
  435MPD2    N1 6546   1.194   4.680  15.613 -0.0145 -0.0062  0.9336
  435MPD2    H7 6547   1.204   4.680  15.714 -2.4771  3.0629  1.1808
  436TMC3    C1 6548   0.950   0.091  15.875  0.0371  0.1701 -0.3724
  436TMC3    C2 6549   1.042   0.073  15.781 -0.5003 -0.5550 -0.1316
  436TMC3    C3 6550   0.994   0.037  15.656  0.7108  0.6768 -0.2150
  436TMC3    C4 6551   0.815   0.069  15.848  1.4844 -0.8240 -0.4274
  436TMC3    C5 6552   0.773   0.021  15.728  0.1139 -0.0284  0.4992
  436TMC3    C6 6553   0.861   0.027  15.625  0.0140  0.1859  0.3765
  436TMC3     C 6554   0.987   0.171  15.991 -0.4535 -0.5064  0.0109
  436TMC3     O 6555   1.088   0.241  15.983 -0.2402  0.7571 -0.3594
  436TMC3     H 6556   1.147   0.094  15.799 -0.5811 -0.4203  0.1735
  436TMC3    H1 6557   0.743   0.065  15.930  3.1526 -2.0049  0.9884
  436TMC3    H2 6558   0.829   0.003  15.524 -0.9212  0.0282  0.7190
  436TMC3    C7 6559   0.652   4.685  15.726  0.2559  0.6304 -1.0332
  436TMC3    C8 6560   1.083   4.737  15.555  1.2205 -0.0690  0.5344
  436TMC3    O1 6561   0.578   4.678  15.821 -0.4748  0.8211 -0.4962
  436TMC3    O2 6562   1.054   0.020  15.436  0.3019 -0.0549 -0.2995
  437TMC3    C1 6563   4.525   2.237  12.430  0.3097  0.5275 -0.4894
  437TMC3    C2 6564   4.485   2.345  12.346  0.6849  0.5848 -0.9942
  437TMC3    C3 6565   4.553   2.364  12.230  0.3500 -0.1081  0.2766
  437TMC3    C4 6566   4.630   2.159  12.398 -0.4947  0.1556  0.1159
  437TMC3    C5 6567   4.699   2.200  12.290 -0.9057 -0.4054  0.5602
  437TMC3    C6 6568   4.657   2.280  12.197  0.0897  0.0585  0.3970
  437TMC3     C 6569   4.435   2.174  12.528 -0.8399 -0.3100 -0.9516
  437TMC3     O 6570   4.449   2.061  12.572  0.2401 -0.0952 -0.0493
  437TMC3     H 6571   4.391   2.396  12.363 -0.4423 -2.3054  1.3337
  437TMC3    H1 6572   4.661   2.080  12.465  2.9123  1.5759  0.2558
  437TMC3    H2 6573   4.708   2.300  12.103  1.3713  0.2159  1.1317
  437TMC3    C7 6574   0.080   2.130  12.271  0.2741  0.1369  1.1034
  437TMC3    C8 6575   4.520   2.478  12.148 -0.6149  0.0449 -0.5494
  437TMC3    O1 6576   0.113   2.071  12.373  0.0276  0.1392 -0.2754
  437TMC3    O2 6577   4.465   2.570  12.208  0.1977 -0.4702  0.2283
  438MPD2     C 6578   2.476   2.178  16.981 -0.0718 -0.5144 -0.2862
  438MPD2    C1 6579   2.510   2.310  17.018 -0.2452  0.2102  0.2668
  438MPD2    C2 6580   2.494   2.358  17.147 -0.3164 -0.2482 -0.5577
  438MPD2    C3 6581   2.435   2.279  17.238 -0.0918  0.4126  0.4962
  438MPD2    C4 6582   2.396   2.153  17.207 -0.1719  0.4091  0.5894
  438MPD2    C5 6583   2.428   2.106  17.087  0.2521 -0.2674 -0.5625
  438MPD2     H 6584   2.537   2.455  17.170  1.1376 -1.0345  0.0431
  438MPD2    H1 6585   2.356   2.086  17.281  1.2285 -1.5545 -0.4242
  438MPD2    H2 6586   2.499   2.134  16.885  0.8557  1.0979 -0.8181
  438MPD2    H3 6587   2.417   2.000  17.068 -0.0082 -0.1412 -1.1229
  438MPD2     N 6588   2.427   2.325  17.376  0.0441 -0.6248  0.1246
  438MPD2    H5 6589   2.397   2.257  17.445 -1.3195  0.3256  0.4669
  438MPD2    N1 6590   2.585   2.387  16.923 -0.0959 -0.3599  0.0305
  438MPD2    H7 6591   2.629   2.471  16.959 -2.4535  0.7254  0.3694
  439TMC3    C1 6592   2.683   2.447  16.720  0.4504  0.3875 -0.1440
  439TMC3    C2 6593   2.657   2.500  16.599  0.6525  0.2341  0.0675
  439TMC3    C3 6594   2.762   2.552  16.530 -0.3226  0.9119  0.3025
  439TMC3    C4 6595   2.801   2.464  16.784  0.0775 -0.0800  0.3521
  439TMC3    C5 6596   2.903   2.531  16.721  0.1740  0.3539  0.0913
  439TMC3    C6 6597   2.887   2.571  16.589 -0.0948  0.2794  0.0120
  439TMC3     C 6598   2.584   2.361  16.785 -0.0090  0.1605 -0.2686
  439TMC3     O 6599   2.526   2.278  16.714  0.0639 -0.0447 -0.5077
  439TMC3     H 6600   2.555   2.480  16.566 -0.1733  0.3982  2.5002
  439TMC3    H1 6601   2.818   2.421  16.882  2.1025  0.4974  0.2604
  439TMC3    H2 6602   2.966   2.617  16.531  0.7705 -1.2927 -0.0643
  439TMC3    C7 6603   3.032   2.466  16.746  1.0539 -0.3240  0.2572
  439TMC3    C8 6604   2.776   2.518  16.391  0.3637  1.1830  0.2512
  439TMC3    O1 6605   3.040   2.413  16.856 -0.2044 -0.5742  0.0101
  439TMC3    O2 6606   2.890   2.522  16.347 -0.3252  0.0693 -0.8007
  440MPD2     C 6607   0.716   2.889  15.110 -0.3320 -0.3341 -0.5780
  440MPD2    C1 6608   0.785   2.997  15.158  0.4693 -0.2641 -0.5056
  440MPD2    C2 6609   0.926   2.979  15.187  0.2387  0.4107 -0.0616
  440MPD2    C3 6610   0.983   2.853  15.174  0.0778 -0.5138 -0.0080
  440MPD2    C4 6611   0.910   2.747  15.122  0.1052  0.0252  0.3539
  440MPD2    C5 6612   0.777   2.767  15.098 -0.0091 -0.1075 -0.4344
  440MPD2     H 6613   0.986   3.064  15.217 -0.0931  0.7844 -0.4549
  440MPD2    H1 6614   0.958   2.653  15.098  0.5911  0.2160  0.5889
  440MPD2    H2 6615   0.614   2.895  15.075 -0.8914 -2.1128  0.7311
  440MPD2    H3 6616   0.711   2.683  15.076  3.4794 -3.0161  0.2296
  440MPD2     N 6617   1.121   2.822  15.216 -0.4336  0.3386  0.7255
  440MPD2    H5 6618   1.141   2.723  15.212 -1.2500  0.1978  0.1801
  440MPD2    N1 6619   0.731   3.128  15.164 -0.9055  0.2730  0.1904
  440MPD2    H7 6620   0.773   3.193  15.228  1.0851  1.0682 -1.9204
  441TMC3    C1 6621   1.350   2.856  15.250  0.0197 -0.4111  0.3927
  441TMC3    C2 6622   1.447   2.945  15.215  0.1901  0.0052  0.0958
  441TMC3    C3 6623   1.574   2.922  15.267 -0.1390  0.4781  0.7468
  441TMC3    C4 6624   1.362   2.755  15.345  0.1673  0.0576  0.3236
  441TMC3    C5 6625   1.496   2.725  15.382 -0.0253  0.3038 -0.1100
  441TMC3    C6 6626   1.602   2.807  15.346 -0.3126  0.0607 -0.1719
  441TMC3     C 6627   1.221   2.913  15.235 -0.1035  0.2133  0.2848
  441TMC3     O 6628   1.220   3.032  15.230  0.0433 -0.0062  0.2166
  441TMC3     H 6629   1.444   3.028  15.146 -1.3046 -1.0946 -1.1529
  441TMC3    H1 6630   1.278   2.693  15.375 -0.5890  0.0982 -1.7376
  441TMC3    H2 6631   1.692   2.799  15.405  0.2866  1.2464 -0.9263
  441TMC3    C7 6632   1.502   2.622  15.480  0.0418 -0.1997 -0.5694
  441TMC3    C8 6633   1.645   3.041  15.307  0.1735  0.7889 -0.4373
  441TMC3    O1 6634   1.401   2.599  15.538 -0.4107 -0.1586 -0.0187
  441TMC3    O2 6635   1.760   3.032  15.353  0.2725  0.3320  0.2297
  442MPD2     C 6636   4.529   3.195  16.611  0.7268  0.7729  0.1946
  442MPD2    C1 6637   4.433   3.133  16.689 -0.5236  0.5118  0.4927
  442MPD2    C2 6638   4.374   3.014  16.641 -0.2373 -0.0018  0.0585
  442MPD2    C3 6639   4.419   2.961  16.521  0.5803  0.1954  0.3620
  442MPD2    C4 6640   4.502   3.033  16.445  0.1352 -0.2424 -0.1257
  442MPD2    C5 6641   4.559   3.149  16.490  0.1683 -0.2993 -0.1153
  442MPD2     H 6642   4.300   2.957  16.696  0.5099 -0.1852  0.8558
  442MPD2    H1 6643   4.539   2.992  16.352 -1.8642 -1.9877 -0.1487
  442MPD2    H2 6644   4.573   3.289  16.640 -1.5707  2.0241 -0.4181
  442MPD2    H3 6645   4.643   3.196  16.440 -1.1718  1.7639 -0.4362
  442MPD2     N 6646   4.362   2.841  16.469  0.3748  0.2969  0.4428
  442MPD2    H5 6647   4.390   2.825  16.373 -0.5038  3.0969 -0.2732
  442MPD2    N1 6648   4.383   3.184  16.818  0.0107  0.1365 -0.0066
  442MPD2    H7 6649   4.317   3.123  16.865 -0.6275 -0.0209 -1.1127
  443TMC3    C1 6650   4.338   3.332  16.988  0.3561  0.4081  0.4688
  443TMC3    C2 6651   4.319   3.469  17.015  1.4323  0.1854  0.5896
  443TMC3    C3 6652   4.212   3.505  17.093 -0.2820 -0.1190 -0.8135
  443TMC3    C4 6653   4.266   3.235  17.045 -0.4730 -0.1202 -0.1708
  443TMC3    C5 6654   4.170   3.275  17.139 -0.2830 -0.1509  0.3601
  443TMC3    C6 6655   4.144   3.410  17.161  0.5341 -0.0097  0.2006
  443TMC3     C 6656   4.411   3.310  16.866 -0.4650 -0.1192 -0.0112
  443TMC3     O 6657   4.477   3.410  16.840  0.6612  0.1258 -0.4350
  443TMC3     H 6658   4.387   3.540  16.970  1.3175  0.5739  1.0227
  443TMC3    H1 6659   4.293   3.131  17.031 -0.5259 -0.1393 -0.1317
  443TMC3    H2 6660   4.066   3.439  17.230 -0.0269 -0.2483 -0.3371
  443TMC3    C7 6661   4.089   3.179  17.209 -0.7752 -0.0201 -0.3771
  443TMC3    C8 6662   4.166   3.642  17.093  0.3358 -1.0016  0.1191
  443TMC3    O1 6663   4.073   3.083  17.135  0.1197  0.2401 -0.5159
  443TMC3    O2 6664   4.088   3.671  17.185  0.5781  0.6858 -0.6507
  444MPD2     C 6665   4.529   2.879  16.898  0.0369  0.5020  0.1091
  444MPD2    C1 6666   4.457   2.759  16.910 -0.0666  0.9900  0.0212
  444MPD2    C2 6667   4.491   2.646  16.836 -0.1298  0.1671 -1.1631
  444MPD2    C3 6668   4.612   2.654  16.763 -0.8738  0.2621  0.3698
  444MPD2    C4 6669   4.683   2.774  16.753 -0.4034  0.6044 -0.1220
  444MPD2    C5 6670   4.637   2.884  16.816 -0.0070  0.1614 -0.2565
  444MPD2     H 6671   4.444   2.549  16.853  1.6311 -0.6469 -0.8681
  444MPD2    H1 6672   0.017   2.788  16.678  0.7752 -2.6738  0.4728
  444MPD2    H2 6673   4.512   2.968  16.958 -1.2532  1.2875 -1.4332
  444MPD2    H3 6674   4.698   2.972  16.801 -0.9586  1.1036  1.4394
  444MPD2     N 6675   4.657   2.536  16.698  0.0323  0.1723 -0.2225
  444MPD2    H5 6676   4.594   2.457  16.702  1.0854 -0.6537 -0.0218
  444MPD2    N1 6677   4.366   2.753  17.022 -0.0744  0.9413  0.1228
  444MPD2    H7 6678   4.325   2.660  17.027  2.1935 -0.1026 -0.5264
  445TMC3    C1 6679   0.066   2.393  16.583 -0.0921 -0.0601 -0.9500
  445TMC3    C2 6680   4.710   2.307  16.548 -0.4180  0.8209 -0.2882
  445TMC3    C3 6681   4.737   2.176  16.539  0.3009  0.0047  0.0147
  445TMC3    C4 6682   0.198   2.357  16.591 -0.1117 -0.8056  0.3438
  445TMC3    C5 6683   0.221   2.224  16.578  0.4535 -1.0499 -0.4641
  445TMC3    C6 6684   0.121   2.126  16.549  0.3592  0.3117 -0.6786
  445TMC3     C 6685   0.036   2.526  16.629 -0.0639  0.7602  0.1565
  445TMC3     O 6686   0.131   2.600  16.640  0.1144  0.0452 -0.6852
  445TMC3     H 6687   4.605   2.334  16.554 -0.4390  1.2801 -2.7342
  445TMC3    H1 6688   0.279   2.428  16.599 -0.1586 -0.9627  2.2012
  445TMC3    H2 6689   0.144   2.021  16.533 -2.5601 -0.5605  0.9390
  445TMC3    C7 6690   0.348   2.201  16.518 -0.3248 -0.1183  0.2974
  445TMC3    C8 6691   4.633   2.076  16.520 -0.2300 -0.3676 -0.1079
  445TMC3    O1 6692   0.414   2.291  16.477  0.1801  0.6867  0.2600
  445TMC3    O2 6693   4.669   1.960  16.505 -0.6170  0.6417 -0.0489
  446MPD2     C 6694   3.784   3.385  11.573 -0.4098 -0.4856 -0.1731
  446MPD2    C1 6695   3.773   3.452  11.455  0.7427  0.6536  0.9754
  446MPD2    C2 6696   3.865   3.553  11.425 -0.1212 -1.0047 -0.1539
  446MPD2    C3 6697   3.974   3.574  11.506  0.8333  0.0363  0.1536
  446MPD2    C4 6698   3.985   3.499  11.617 -0.2159 -1.0253  0.2156
  446MPD2    C5 6699   3.888   3.409  11.654  0.8809  0.5748 -0.2733
  446MPD2     H 6700   3.855   3.615  11.336  0.2155 -1.1313 -0.2815
  446MPD2    H1 6701   4.070   3.507  11.684  0.3323 -1.2991 -0.4424
  446MPD2    H2 6702   3.715   3.311  11.611 -2.0252  0.7536 -0.6822
  446MPD2    H3 6703   3.910   3.349  11.742  0.1337  1.9532  0.8663
  446MPD2     N 6704   4.073   3.666  11.461 -0.0288  0.2672  0.0888
  446MPD2    H5 6705   4.055   3.703  11.368 -0.3968 -0.9083 -0.3119
  446MPD2    N1 6706   3.669   3.416  11.358 -0.3228 -1.0676 -0.7639
  446MPD2    H7 6707   3.660   3.478  11.278 -1.3917 -2.1816 -1.5025
  447TMC3    C1 6708   4.283   3.780  11.453 -0.2887 -0.9122  0.2464
  447TMC3    C2 6709   4.254   3.832  11.327 -0.9502  0.1543  0.1479
  447TMC3    C3 6710   4.343   3.920  11.271  0.5142 -0.6199 -0.1466
  447TMC3    C4 6711   4.398   3.804  11.510  0.2149  0.4905  0.2816
  447TMC3    C5 6712   4.489   3.882  11.442  0.1858 -0.9803 -0.4518
  447TMC3    C6 6713   4.460   3.950  11.330 -0.7709  0.5778 -1.1325
  447TMC3     C 6714   4.189   3.693  11.517 -0.6934 -0.4752  0.1613
  447TMC3     O 6715   4.234   3.661  11.628 -0.6834 -0.6884  0.1734
  447TMC3     H 6716   4.160   3.808  11.279 -0.9142  2.4018 -1.0799
  447TMC3    H1 6717   4.420   3.756  11.605 -0.1967 -0.2814 -0.0152
  447TMC3    H2 6718   4.526   4.022  11.281 -0.1681  2.4890  2.4949
  447TMC3    C7 6719   4.598   3.937  11.514 -1.1002 -0.2731 -0.3146
  447TMC3    C8 6720   4.315   3.947  11.131 -0.0378  0.8227  0.0111
  447TMC3    O1 6721   4.690   3.975  11.441  0.0713 -0.0285 -0.1731
  447TMC3    O2 6722   4.198   3.932  11.095  0.1096 -0.3669 -0.0626
  448TMC3    C1 6723   2.162   3.625  17.088  0.0074 -0.0002 -0.7156
  448TMC3    C2 6724   2.168   3.560  16.967  0.5610  0.0522  0.2543
  448TMC3    C3 6725   2.252   3.458  16.960  0.1200  0.2245 -0.1225
  448TMC3    C4 6726   2.249   3.599  17.189  0.1950 -0.4351 -0.6046
  448TMC3    C5 6727   2.341   3.498  17.175  0.0438  0.0682 -0.1931
  448TMC3    C6 6728   2.346   3.425  17.056  0.0816  0.0103  0.0272
  448TMC3     C 6729   2.081   3.745  17.095  0.1442 -0.2328 -0.3099
  448TMC3     O 6730   2.051   3.779  17.209 -0.2579 -0.4976 -0.2645
  448TMC3     H 6731   2.093   3.595  16.897  0.7487  0.0276  0.0416
  448TMC3    H1 6732   2.246   3.659  17.279 -3.2293 -0.5982 -0.6143
  448TMC3    H2 6733   2.401   3.332  17.042  0.6173  0.4656 -0.9028
  448TMC3    C7 6734   2.433   3.449  17.281  0.0413  0.2250 -0.2209
  448TMC3    C8 6735   2.275   3.404  16.830  0.7423 -0.2111 -0.6833
  448TMC3    O1 6736   2.536   3.398  17.239  0.6544 -0.0686  0.0282
  448TMC3    O2 6737   2.352   3.306  16.835  0.3469  0.0377  0.0497
  449MPD2     C 6738   3.542   1.934  13.821 -0.5365  0.3225 -0.6037
  449MPD2    C1 6739   3.553   1.866  13.702 -0.2898 -0.3519  0.4057
  449MPD2    C2 6740   3.643   1.757  13.691  0.1345  0.0418 -0.5059
  449MPD2    C3 6741   3.733   1.734  13.791  0.0086  0.1838 -0.1243
  449MPD2    C4 6742   3.725   1.808  13.906  0.2597 -0.1942  0.4449
  449MPD2    C5 6743   3.630   1.912  13.917  0.2684 -0.0743 -0.9920
  449MPD2     H 6744   3.658   1.695  13.603 -0.5614 -1.8577  0.7067
  449MPD2    H1 6745   3.800   1.786  13.981  0.2373  2.1457  1.1529
  449MPD2    H2 6746   3.471   2.013  13.841  0.0990  1.2946 -2.1561
  449MPD2    H3 6747   3.616   1.980  14.001  0.1667 -0.3140 -0.8161
  449MPD2     N 6748   3.832   1.638  13.766 -0.9156  0.1322 -0.4882
  449MPD2    H5 6749   3.825   1.574  13.688  0.0875 -0.9957  0.3458
  449MPD2    N1 6750   3.469   1.890  13.591  0.3007  0.4221 -0.4201
  449MPD2    H7 6751   3.488   1.832  13.510 -0.6125 -0.1985 -0.1835
  450TMC3    C1 6752   3.336   2.001  13.439 -0.5720  0.1163  0.0688
  450TMC3    C2 6753   3.383   2.114  13.378 -0.1993 -0.6787 -0.5093
  450TMC3    C3 6754   3.452   2.102  13.265  0.0767 -0.4724  0.2284
  450TMC3    C4 6755   3.347   1.875  13.377 -0.0339 -0.2013 -0.3438
  450TMC3    C5 6756   3.417   1.868  13.260  0.6501 -0.2772 -0.0507
  450TMC3    C6 6757   3.475   1.979  13.207 -0.4642 -0.2321 -0.5023
  450TMC3     C 6758   3.381   1.995  13.578 -0.8323  0.3576  0.2879
  450TMC3     O 6759   3.377   2.097  13.650 -0.1450  0.2856 -0.1426
  450TMC3     H 6760   3.379   2.210  13.428 -2.2884 -1.3440  0.5777
  450TMC3    H1 6761   3.307   1.783  13.418  1.4628  0.4847  2.6459
  450TMC3    H2 6762   3.507   1.971  13.104  1.6951 -0.3666  0.1971
  450TMC3    C7 6763   3.497   1.747  13.265 -0.5359 -0.3809  0.0880
  450TMC3    C8 6764   3.523   2.217  13.220 -0.3712  0.6058 -0.2473
  450TMC3    O1 6765   3.495   1.692  13.377 -0.1819 -0.4961 -0.6696
  450TMC3    O2 6766   3.478   2.327  13.242  1.2831  0.1185 -0.0578
  451MPD2     C 6767   0.114   0.623   1.229 -0.1618  0.5028  0.1164
  451MPD2    C1 6768   0.103   0.633   1.092 -0.0857  0.3331  0.3107
  451MPD2    C2 6769   0.186   0.549   1.018  0.3153 -0.8475  0.2191
  451MPD2    C3 6770   0.282   0.468   1.073 -0.4391  0.4073 -0.4410
  451MPD2    C4 6771   0.301   0.470   1.211 -0.1438 -0.6098 -0.5038
  451MPD2    C5 6772   0.207   0.542   1.288  0.5598 -0.0329 -0.2843
  451MPD2     H 6773   0.185   0.561   0.910  1.5330  3.1506  0.6644
  451MPD2    H1 6774   0.368   0.398   1.256 -0.9489  0.4008  2.3528
  451MPD2    H2 6775   0.052   0.684   1.294  0.9150  0.8310  0.8156
  451MPD2    H3 6776   0.216   0.522   1.394  0.0067  3.2424  0.3605
  451MPD2     N 6777   0.367   0.381   0.999 -0.2178  0.0028 -0.3751
  451MPD2    H5 6778   0.439   0.333   1.051  0.0272  1.1783  0.3625
  451MPD2    N1 6779   0.018   0.730   1.045  0.2520  0.4113 -0.2994
  451MPD2    H7 6780   4.701   0.775   1.113  2.3166 -0.0188  1.8048
  452TMC3    C1 6781   0.469   0.276   0.805  0.6989  0.0066  0.1905
  452TMC3    C2 6782   0.434   0.203   0.696 -0.1523 -0.8555  0.4148
  452TMC3    C3 6783   0.522   0.174   0.596  0.2667  0.0765  0.5137
  452TMC3    C4 6784   0.598   0.317   0.820 -0.2127 -0.8589 -0.4691
  452TMC3    C5 6785   0.683   0.290   0.718  0.4094  0.6733  0.3835
  452TMC3    C6 6786   0.653   0.211   0.608  0.1033  0.2135 -0.6168
  452TMC3     C 6787   0.368   0.373   0.858 -0.1809 -0.2008  0.0273
  452TMC3     O 6788   0.284   0.419   0.780  0.2863 -0.1207 -0.3520
  452TMC3     H 6789   0.329   0.186   0.676 -0.7558  2.3243  0.8999
  452TMC3    H1 6790   0.619   0.396   0.891  0.6945 -2.6522  1.2421
  452TMC3    H2 6791   0.730   0.166   0.546 -0.5040 -2.5731  0.6607
  452TMC3    C7 6792   0.801   0.367   0.690 -0.1053 -0.3933  0.0055
  452TMC3    C8 6793   0.478   0.086   0.493  0.5315  1.1130 -0.5387
  452TMC3    O1 6794   0.860   0.358   0.582 -0.1934  0.1456  0.2600
  452TMC3    O2 6795   0.371   0.028   0.510  0.0441  0.0499 -0.3057
  453TMC3    C1 6796   1.177   3.008  12.011 -0.5281 -0.0832 -0.2669
  453TMC3    C2 6797   1.092   2.914  11.961 -0.1075 -0.3260  0.3426
  453TMC3    C3 6798   1.130   2.827  11.866  0.2157  0.2264 -0.4392
  453TMC3    C4 6799   1.311   3.009  11.969 -0.1132  1.4227 -0.3337
  453TMC3    C5 6800   1.341   2.920  11.869  0.2377 -0.0941  0.1357
  453TMC3    C6 6801   1.252   2.832  11.814 -1.2256 -1.1970  0.2538
  453TMC3     C 6802   1.157   3.031  12.154 -0.0328 -0.2191  0.1994
  453TMC3     O 6803   1.253   3.032  12.226  0.0094 -0.1225  0.5191
  453TMC3     H 6804   0.988   2.910  11.989  0.2694 -0.3900  1.7082
  453TMC3    H1 6805   1.394   3.071  12.002  1.9301 -0.5872 -1.6091
  453TMC3    H2 6806   1.263   2.764  11.730  1.0484  1.4074 -1.5550
  453TMC3    C7 6807   1.440   2.973  11.772  0.2200 -0.0131 -0.2966
  453TMC3    C8 6808   1.073   2.695  11.876  0.1672  0.2406 -0.1204
  453TMC3    O1 6809   1.488   3.088  11.782  0.0803 -0.2086  0.7290
  453TMC3    O2 6810   0.953   2.700  11.892 -0.1159 -0.2982 -0.2841
  454MPD2     C 6811   0.583   2.321  15.973  0.6791  0.4487 -0.0799
  454MPD2    C1 6812   0.483   2.355  15.887  1.0561 -0.6515  0.5693
  454MPD2    C2 6813   0.427   2.484  15.890 -0.0317  0.8706  0.0166
  454MPD2    C3 6814   0.457   2.569  15.997  0.2077 -0.0182 -0.4625
  454MPD2    C4 6815   0.541   2.523  16.099 -0.4284 -0.1142  0.5218
  454MPD2    C5 6816   0.604   2.405  16.082 -0.1570 -0.3993 -0.4091
  454MPD2     H 6817   0.352   2.517  15.819  0.5037  0.6570 -0.6478
  454MPD2    H1 6818   0.566   2.573  16.192 -0.4888  2.8387 -1.0537
  454MPD2    H2 6819   0.629   2.223  15.977 -1.2600 -0.5551 -1.8854
  454MPD2    H3 6820   0.669   2.372  16.162 -2.3512 -1.4293  0.9421
  454MPD2     N 6821   0.385   2.689  16.023  0.1205  0.1720  0.2079
  454MPD2    H5 6822   0.409   2.726  16.115 -3.9115 -1.2948  1.8728
  454MPD2    N1 6823   0.439   2.265  15.785 -0.1170  0.1117  0.6985
  454MPD2    H7 6824   0.382   2.308  15.713  0.1061 -0.8982 -0.0627
  455TMC3    C1 6825   0.175   2.778  16.040  0.0164  0.6076 -0.0806
  455TMC3    C2 6826   0.230   2.847  16.143 -0.4183 -0.5384  0.1573
  455TMC3    C3 6827   0.187   2.812  16.270 -0.3109  0.2610  0.1493
  455TMC3    C4 6828   0.083   2.679  16.065  1.5636  0.7349 -0.2099
  455TMC3    C5 6829   0.053   2.642  16.192  0.1898 -0.1664  0.3217
  455TMC3    C6 6830   0.097   2.715  16.294  0.1684  0.1476  0.1576
  455TMC3     C 6831   0.279   2.735  15.948  0.0990  0.1567 -0.1501
  455TMC3     O 6832   0.237   2.699  15.841 -0.6286  0.5887  0.0578
  455TMC3     H 6833   0.310   2.920  16.133 -0.0058 -0.9066  0.7831
  455TMC3    H1 6834   0.051   2.615  15.984  0.0719  0.1150  0.8854
  455TMC3    H2 6835   0.051   2.702  16.392  0.1674  0.4417  0.1961
  455TMC3    C7 6836   0.021   2.497  16.209  0.3558 -0.4972 -0.0367
  455TMC3    C8 6837   0.197   2.912  16.377  0.3033  0.3985  0.7437
  455TMC3    O1 6838   4.655   2.466  16.259  0.1334  0.5433  0.2867
  455TMC3    O2 6839   0.168   2.869  16.491  0.7061  0.3294  0.0114
  456MPD2     C 6840   2.748   2.456  15.781  0.0030  0.5551 -0.2107
  456MPD2    C1 6841   2.858   2.473  15.865 -0.4381  0.0731  0.4870
  456MPD2    C2 6842   2.848   2.564  15.973  0.0675 -0.7290 -1.1203
  456MPD2    C3 6843   2.734   2.642  15.990 -0.2045  0.0197  0.6340
  456MPD2    C4 6844   2.635   2.620  15.901  1.0459 -0.6424  0.1682
  456MPD2    C5 6845   2.638   2.534  15.798  0.7761  0.9639 -0.5288
  456MPD2     H 6846   2.928   2.567  16.046 -1.4669 -1.1482  0.5851
  456MPD2    H1 6847   2.542   2.676  15.901  0.0829 -2.2209  1.0091
  456MPD2    H2 6848   2.751   2.391  15.694  1.2456  0.0598  0.2001
  456MPD2    H3 6849   2.550   2.528  15.736  2.1678  0.3932 -2.4638
  456MPD2     N 6850   2.732   2.735  16.094 -0.3725  0.1086  0.2974
  456MPD2    H5 6851   2.810   2.731  16.159  0.8420 -1.1127 -1.2381
  456MPD2    N1 6852   2.985   2.407  15.832 -0.3179  0.3465  0.0784
  456MPD2    H7 6853   2.978   2.339  15.757 -1.3151  0.3521  0.1637
  457TMC3    C1 6854   2.674   2.922  16.231 -0.5866  0.6025 -0.2049
  457TMC3    C2 6855   2.588   3.021  16.268 -0.3525 -0.4623  0.0079
  457TMC3    C3 6856   2.620   3.106  16.369 -0.5820 -0.0197 -0.5029
  457TMC3    C4 6857   2.795   2.906  16.299  0.3920 -0.0279 -0.3524
  457TMC3    C5 6858   2.833   3.002  16.394  0.5337 -0.0604  0.3276
  457TMC3    C6 6859   2.741   3.104  16.430 -0.2173  0.0124 -0.1743
  457TMC3     C 6860   2.631   2.825  16.130 -0.2258 -0.5005 -0.8269
  457TMC3     O 6861   2.526   2.846  16.080  0.1107 -0.4738 -0.0572
  457TMC3     H 6862   2.493   3.031  16.217 -0.6216  2.0772  0.9975
  457TMC3    H1 6863   2.858   2.817  16.295  1.7894  0.9676 -0.3142
  457TMC3    H2 6864   2.763   3.156  16.522 -1.1660 -1.4351  0.8758
  457TMC3    C7 6865   2.929   2.960  16.491 -0.0179 -0.0998  0.1841
  457TMC3    C8 6866   2.537   3.217  16.409  0.3029 -0.2744  0.2657
  457TMC3    O1 6867   2.912   2.998  16.603  0.4510 -0.0728 -0.0107
  457TMC3    O2 6868   2.588   3.294  16.486 -0.1922  0.2921  0.3550
  458MPD2     C 6869   0.529   1.993  12.084  0.3464 -0.4160 -0.0489
  458MPD2    C1 6870   0.482   1.992  12.211  0.5988  0.0608  0.4146
  458MPD2    C2 6871   0.358   2.036  12.243  0.5228 -0.3131  0.1769
  458MPD2    C3 6872   0.276   2.091  12.141  0.4011  0.1824 -0.2803
  458MPD2    C4 6873   0.318   2.077  12.013 -0.4846 -0.5399  0.6809
  458MPD2    C5 6874   0.441   2.034  11.985  0.2390 -0.5983 -0.6112
  458MPD2     H 6875   0.330   2.031  12.348 -0.2084  0.2963  0.0093
  458MPD2    H1 6876   0.252   2.105  11.932  2.5520 -0.9379 -1.9394
  458MPD2    H2 6877   0.628   1.967  12.052  1.7201  1.6321  2.4915
  458MPD2    H3 6878   0.472   2.019  11.882  2.1625 -0.0663 -0.1099
  458MPD2     N 6879   0.150   2.149  12.161 -0.5516  0.4259  0.2822
  458MPD2    H5 6880   0.108   2.193  12.080 -0.0354 -0.2580 -0.3544
  458MPD2    N1 6881   0.577   1.973  12.306  0.1020  0.2512  0.3240
  458MPD2    H7 6882   0.673   1.987  12.275  0.9705  1.0121  3.3444
  459TMC3    C1 6883   0.649   1.980  12.531  0.0761 -0.1870 -0.5704
  459TMC3    C2 6884   0.731   2.084  12.507 -0.3637 -0.2839 -0.2211
  459TMC3    C3 6885   0.786   2.149  12.616 -0.4225 -0.0891 -0.2961
  459TMC3    C4 6886   0.649   1.926  12.655  0.1717 -1.0037  0.2082
  459TMC3    C5 6887   0.722   1.972  12.754  0.6542 -0.8505 -1.1834
  459TMC3    C6 6888   0.800   2.082  12.733 -0.8643 -0.1193 -0.8805
  459TMC3     C 6889   0.547   1.935  12.437  0.1339 -0.7686 -0.3659
  459TMC3     O 6890   0.454   1.867  12.479  0.1094  0.1978 -0.7101
  459TMC3     H 6891   0.747   2.122  12.407 -1.2508  0.9467  0.1069
  459TMC3    H1 6892   0.591   1.835  12.670  1.1849 -1.8522 -0.9701
  459TMC3    H2 6893   0.859   2.134  12.808 -0.1985  0.7472 -2.0172
  459TMC3    C7 6894   0.707   1.905  12.883 -0.3770 -0.3223  0.0282
  459TMC3    C8 6895   0.893   2.245  12.582  0.3926 -0.0670 -0.2543
  459TMC3    O1 6896   0.689   1.783  12.889 -0.3997  0.6515 -0.0735
  459TMC3    O2 6897   0.986   2.274  12.658 -0.0525 -0.1162 -0.4402
  460MPD2     C 6898   4.554   4.037  10.873  0.3084 -0.4973  0.7164
  460MPD2    C1 6899   4.434   4.029  10.926  0.5692 -0.3560  0.4019
  460MPD2    C2 6900   4.323   4.067  10.850  0.0537 -0.1428 -0.3811
  460MPD2    C3 6901   4.343   4.123  10.726 -0.0828 -0.0282 -0.6284
  460MPD2    C4 6902   4.470   4.134  10.675  0.3422  0.1092  0.1716
  460MPD2    C5 6903   4.573   4.097  10.757 -0.2113  0.0490  0.9223
  460MPD2     H 6904   4.229   4.060  10.904  0.5518 -2.4090  0.1854
  460MPD2    H1 6905   4.489   4.183  10.581 -0.0170 -0.6621 -0.3038
  460MPD2    H2 6906   4.647   4.014  10.924  1.1770 -1.4638 -1.2916
  460MPD2    H3 6907   4.678   4.109  10.735 -0.8975  2.1364 -1.2203
  460MPD2     N 6908   4.233   4.173  10.650  0.5801 -1.1004 -0.1789
  460MPD2    H5 6909   4.139   4.149  10.679  0.1681  0.2119 -0.4157
  460MPD2    N1 6910   4.427   3.994  11.061 -0.3229  0.1992  0.0990
  460MPD2    H7 6911   4.516   3.996  11.110  0.4858 -2.0242 -1.2946
  461TMC3    C1 6912   4.118   4.262  10.472 -0.3277  0.2449 -0.0742
  461TMC3    C2 6913   4.071   4.144  10.428 -0.6371  0.8475 -0.1305
  461TMC3    C3 6914   3.963   4.139  10.350 -0.0506 -0.2973  0.5863
  461TMC3    C4 6915   4.085   4.383  10.420  0.6974 -0.2666 -0.4235
  461TMC3    C5 6916   3.979   4.367  10.328  0.3297 -0.5156 -0.2287
  461TMC3    C6 6917   3.907   4.252  10.301  0.1420  0.1334  0.4688
  461TMC3     C 6918   4.244   4.254  10.540  0.5826 -0.0555 -0.4959
  461TMC3     O 6919   4.334   4.328  10.504 -0.7951 -0.0831  0.4345
  461TMC3     H 6920   4.104   4.053  10.476 -2.5289  0.4023  0.3467
  461TMC3    H1 6921   4.131   4.477  10.449 -1.0940  0.6129 -0.4784
  461TMC3    H2 6922   3.842   4.259  10.215  1.5659  0.1431 -0.6147
  461TMC3    C7 6923   3.947   4.485  10.251  0.1124  1.1127  0.9766
  461TMC3    C8 6924   3.971   4.035  10.254 -0.4860  0.5337  0.1376
  461TMC3    O1 6925   3.830   4.484  10.214  0.1235  0.6291 -0.0548
  461TMC3    O2 6926   4.077   3.982  10.230  0.0873 -0.3281 -0.2993
  462TMC3    C1 6927   4.545   1.070   0.136  0.4607  0.1182 -0.4129
  462TMC3    C2 6928   4.615   1.002   0.036 -0.2320 -0.0105  0.2344
  462TMC3    C3 6929   4.663   0.880   0.058  0.0900 -0.5937 -0.2112
  462TMC3    C4 6930   4.534   1.024   0.259 -0.4185 -0.2051  0.2018
  462TMC3    C5 6931   4.596   0.902   0.282  0.4080  0.8213 -0.1173
  462TMC3    C6 6932   4.674   0.833   0.185 -0.2443  0.1631  0.1243
  462TMC3     C 6933   4.505   1.209   0.107 -0.5015  0.3854  0.3047
  462TMC3     O 6934   4.429   1.257   0.186 -0.4208  0.0154  0.1769
  462TMC3     H 6935   4.604   1.036  17.703  0.3914 -2.1288 -0.5576
  462TMC3    H1 6936   4.500   1.093   0.336 -0.3554  2.3759 -2.1046
  462TMC3    H2 6937   4.725   0.739   0.202  0.8469  0.9905  1.3691
  462TMC3    C7 6938   4.564   0.806   0.392  0.3092 -0.4627  0.0554
  462TMC3    C8 6939   4.647   0.785  17.716 -0.2255  0.2434 -0.4622
  462TMC3    O1 6940   4.649   0.726   0.427 -0.3237 -0.5984  0.4020
  462TMC3    O2 6941   4.564   0.817  17.632 -0.6195 -0.1611  0.1803
  463MPD2     C 6942   1.631   3.483   1.133 -0.3991 -0.2949 -0.3684
  463MPD2    C1 6943   1.599   3.602   1.066 -0.6272  0.5469  0.3775
  463MPD2    C2 6944   1.662   3.720   1.102 -0.5663 -0.3673 -0.3743
  463MPD2    C3 6945   1.749   3.726   1.207  0.0088  0.0354 -0.5198
  463MPD2    C4 6946   1.779   3.605   1.267 -0.5356 -0.1731  0.1454
  463MPD2    C5 6947   1.724   3.482   1.230 -0.3496  0.3238 -0.1753
  463MPD2     H 6948   1.634   3.801   1.036 -2.9654  0.5335  1.7688
  463MPD2    H1 6949   1.852   3.600   1.347 -1.3550  1.9949  1.0389
  463MPD2    H2 6950   1.596   3.389   1.094  0.6561 -1.4921  1.6033
  463MPD2    H3 6951   1.751   3.392   1.284  1.3040 -0.0418 -1.5923
  463MPD2     N 6952   1.823   3.839   1.246 -0.1016  0.6368  0.4963
  463MPD2    H5 6953   1.902   3.815   1.305 -1.6201 -0.9084  1.9091
  463MPD2    N1 6954   1.499   3.618   0.970  0.1165 -0.1142 -0.7799
  463MPD2    H7 6955   1.480   3.714   0.945 -2.2390 -0.5995 -0.8687
  464TMC3    C1 6956   1.280   3.576   0.889 -0.8033 -0.6996 -0.1597
  464TMC3    C2 6957   1.244   3.701   0.931 -0.1430  0.5630  0.7994
  464TMC3    C3 6958   1.112   3.735   0.925  0.6784  0.5348 -0.1815
  464TMC3    C4 6959   1.185   3.484   0.849  0.5900  0.1915  0.8316
  464TMC3    C5 6960   1.056   3.519   0.847  0.3169  0.9071 -0.2431
  464TMC3    C6 6961   1.014   3.648   0.872 -0.1255  0.7832 -0.5169
  464TMC3     C 6962   1.409   3.520   0.934 -0.6929  0.4050 -0.0274
  464TMC3     O 6963   1.418   3.398   0.938  0.1800 -0.6084 -0.1426
  464TMC3     H 6964   1.308   3.753   1.001  1.3899 -1.2186  0.7030
  464TMC3    H1 6965   1.226   3.386   0.824  0.6111  0.4419 -0.1194
  464TMC3    H2 6966   0.911   3.682   0.879 -0.0563  1.1498 -1.2866
  464TMC3    C7 6967   0.965   3.412   0.825  0.5686 -0.2877  0.6692
  464TMC3    C8 6968   1.060   3.847   0.989  0.4156 -0.2281 -0.4272
  464TMC3    O1 6969   1.007   3.301   0.795 -0.3108  0.0830 -0.0685
  464TMC3    O2 6970   0.941   3.859   0.988  0.3153  0.1155  0.7515
  465MPD2     C 6971   2.017   2.972  16.646 -0.0190  0.3530 -0.6967
  465MPD2    C1 6972   1.890   2.927  16.678  0.1827 -0.2465  0.2273
  465MPD2    C2 6973   1.793   2.943  16.586 -0.2779  0.0052 -0.2102
  465MPD2    C3 6974   1.811   2.999  16.462  0.4359  0.6000  0.0156
  465MPD2    C4 6975   1.938   3.053  16.436  0.0811 -0.0497 -0.5576
  465MPD2    C5 6976   2.038   3.038  16.528  0.0421 -0.0036 -0.5637
  465MPD2     H 6977   1.688   2.918  16.603 -0.5788  1.6936  0.3449
  465MPD2    H1 6978   1.955   3.100  16.340 -1.7726  0.9197 -0.4253
  465MPD2    H2 6979   2.100   2.980  16.715 -0.1175 -2.2912 -0.2878
  465MPD2    H3 6980   2.132   3.085  16.503 -0.5410  0.8445 -1.1767
  465MPD2     N 6981   1.702   2.993  16.381 -0.2830 -0.2429 -0.2861
  465MPD2    H5 6982   1.616   2.971  16.429 -1.4542  1.4101 -1.6402
  465MPD2    N1 6983   1.855   2.885  16.808  0.1465  0.5030  0.3227
  465MPD2    H7 6984   1.758   2.857  16.812  0.1592  0.2570 -1.2560
  466TMC3    C1 6985   1.363   2.998  16.304  0.0955  0.8391 -0.2268
  466TMC3    C2 6986   1.336   3.131  16.267  0.3861  0.3161  0.1559
  466TMC3    C3 6987   1.415   3.189  16.170  0.1472  0.4558 -0.4908
  466TMC3    C4 6988   1.482   2.946  16.268  0.2597  0.6107  0.1324
  466TMC3    C5 6989   1.574   3.011  16.189 -0.3820  0.1915  0.3186
  466TMC3    C6 6990   1.530   3.124  16.122  0.3803  0.7275  0.0867
  466TMC3     C 6991   1.332   2.969  16.450  0.4102 -0.1691  0.1673
  466TMC3     O 6992   1.425   2.915  16.511  0.1649 -0.5296  0.3163
  466TMC3     H 6993   1.249   3.186  16.301  0.5320  0.7410 -0.1618
  466TMC3    H1 6994   1.508   2.849  16.308  0.4773  0.2678 -0.8564
  466TMC3    H2 6995   1.603   3.170  16.056  0.9276  2.0891  1.6131
  466TMC3    C7 6996   1.705   3.027  16.250 -0.2385 -0.7400  0.3348
  466TMC3    C8 6997   1.417   3.336  16.152  0.1463 -0.3564 -0.0120
  466TMC3    O1 6998   1.793   3.079  16.181 -0.7713  0.1714  0.0748
  466TMC3    O2 6999   1.494   3.390  16.071  0.3579  0.4661  0.0978
  467TMC3    C1 7000   2.531   1.220  13.857  1.0483  0.0665 -0.2122
  467TMC3    C2 7001   2.603   1.247  13.744 -0.2690 -0.2572 -0.2310
  467TMC3    C3 7002   2.533   1.293  13.635 -0.0828  0.4521  0.6106
  467TMC3    C4 7003   2.396   1.235  13.870 -1.1029 -0.4045 -0.0706
  467TMC3    C5 7004   2.333   1.280  13.751  0.2126 -0.4291 -0.4801
  467TMC3    C6 7005   2.399   1.308  13.641  0.5577 -0.6389  0.1574
  467TMC3     C 7006   2.606   1.261  13.967 -0.2872  0.4073  0.0563
  467TMC3     O 7007   2.677   1.360  13.944 -0.5785  0.2265  0.4676
  467TMC3     H 7008   2.711   1.246  13.749 -0.2659 -1.8094 -0.7286
  467TMC3    H1 7009   2.351   1.203  13.963 -0.7622 -2.5513 -0.6403
  467TMC3    H2 7010   2.356   1.349  13.551 -2.1655 -1.1631  1.1882
  467TMC3    C7 7011   2.197   1.251  13.736 -0.1526 -0.4351  0.5939
  467TMC3    C8 7012   2.605   1.373  13.540 -0.3458 -0.0212 -0.3699
  467TMC3    O1 7013   2.160   1.255  13.621  0.2308  0.4083  0.4916
  467TMC3    O2 7014   2.566   1.488  13.516 -0.4839 -0.2906 -0.2824
  468MPD2     C 7015   1.152   4.062  10.686 -0.4261 -0.9600 -0.0441
  468MPD2    C1 7016   1.232   4.024  10.789  0.1304 -0.7321  0.3425
  468MPD2    C2 7017   1.277   3.895  10.803 -0.5605 -0.1662 -0.3752
  468MPD2    C3 7018   1.233   3.802  10.712 -0.1009 -0.2144 -0.2852
  468MPD2    C4 7019   1.154   3.836  10.608 -0.3549 -0.0232 -0.0929
  468MPD2    C5 7020   1.117   3.968  10.594  0.7019  0.0733  0.4941
  468MPD2     H 7021   1.340   3.859  10.883 -0.4162 -0.7558 -0.7514
  468MPD2    H1 7022   1.121   3.767  10.531 -0.8543 -1.0965  1.0903
  468MPD2    H2 7023   1.122   4.164  10.664 -0.5102 -0.9109  0.3040
  468MPD2    H3 7024   1.056   3.995  10.509  1.9557  0.4346 -0.2992
  468MPD2     N 7025   1.261   3.666  10.723 -0.5377  0.0463 -0.1264
  468MPD2    H5 7026   1.227   3.602  10.652 -0.7454 -1.0570  0.9779
  468MPD2    N1 7027   1.283   4.111  10.888  0.0557  0.7763 -0.1702
  468MPD2    H7 7028   1.355   4.064  10.941 -0.6251 -0.6033 -0.4831
  469TMC3    C1 7029   1.295   4.298  11.011  0.5974 -0.0164 -0.4479
  469TMC3    C2 7030   1.423   4.275  11.031 -0.2830  0.1935 -0.4074
  469TMC3    C3 7031   1.483   4.362  11.119 -0.6089 -0.2887  0.3056
  469TMC3    C4 7032   1.230   4.411  11.055 -0.3417  0.7054 -0.3519
  469TMC3    C5 7033   1.294   4.497  11.132 -0.6497  0.5472 -0.3334
  469TMC3    C6 7034   1.425   4.471  11.166  0.4330  0.4646  0.7218
  469TMC3     C 7035   1.215   4.216  10.925 -0.6355 -0.0450 -0.0480
  469TMC3     O 7036   1.095   4.228  10.913 -0.1626  0.2459  0.0117
  469TMC3     H 7037   1.476   4.189  10.992 -1.8669 -0.6274 -0.7477
  469TMC3    H1 7038   1.127   4.433  11.029 -0.3160 -0.2759 -1.2838
  469TMC3    H2 7039   1.489   4.541  11.220  1.5098  0.1872 -0.2027
  469TMC3    C7 7040   1.224   4.630  11.145  0.4261 -0.0904  0.2701
  469TMC3    C8 7041   1.625   4.359  11.107  0.0327 -0.5048  0.2196
  469TMC3    O1 7042   1.110   4.628  11.104 -0.3420  0.1716 -0.0627
  469TMC3    O2 7043   1.673   4.338  10.999 -0.0079 -0.2321 -0.2204
  470TMC3    C1 7044   3.540   0.386   0.477  0.4599  1.0688 -0.4291
  470TMC3    C2 7045   3.533   0.519   0.454  0.3849 -0.1862 -0.1981
  470TMC3    C3 7046   3.622   0.605   0.516 -1.0052 -0.3413  0.3364
  470TMC3    C4 7047   3.629   0.335   0.561 -0.5982 -0.3931  0.2732
  470TMC3    C5 7048   3.719   0.422   0.619  0.2020 -0.4041  0.4907
  470TMC3    C6 7049   3.713   0.558   0.607  0.0936  0.0900  0.3227
  470TMC3     C 7050   3.429   0.307   0.421  0.0554 -0.8215 -0.3960
  470TMC3     O 7051   3.365   0.354   0.326 -0.2621  0.3888  0.0183
  470TMC3     H 7052   3.460   0.554   0.382 -1.5601 -3.5659  0.1371
  470TMC3    H1 7053   3.631   0.228   0.578  0.0700 -0.4591 -0.2275
  470TMC3    H2 7054   3.789   0.620   0.654  0.3551  0.1128 -0.1319
  470TMC3    C7 7055   3.837   0.367   0.673 -0.3587 -0.1888 -0.4316
  470TMC3    C8 7056   3.621   0.743   0.494 -0.8257  0.6881  0.0076
  470TMC3    O1 7057   3.852   0.246   0.647 -0.0235  0.1304  0.2187
  470TMC3    O2 7058   3.696   0.809   0.568 -0.4650 -0.5433  0.0328
  471MPD2     C 7059   4.148   1.679  16.762  0.5231 -0.4182  0.1748
  471MPD2    C1 7060   4.119   1.546  16.784 -0.0260  0.3308  0.0298
  471MPD2    C2 7061   4.117   1.506  16.916 -0.0560 -0.1714 -0.3539
  471MPD2    C3 7062   4.155   1.593  17.020  0.7455 -0.2559  0.0577
  471MPD2    C4 7063   4.179   1.723  16.997 -0.4780  0.3612 -0.0512
  471MPD2    C5 7064   4.187   1.760  16.870 -0.1528  0.5060  0.0051
  471MPD2     H 7065   4.093   1.404  16.942 -0.3292 -0.0321 -0.0492
  471MPD2    H1 7066   4.211   1.789  17.077 -0.0071  0.1501 -0.0711
  471MPD2    H2 7067   4.165   1.725  16.665 -1.4445 -1.2347 -0.5513
  471MPD2    H3 7068   4.208   1.863  16.846 -0.6733  0.7658  0.6552
  471MPD2     N 7069   4.189   1.547  17.147  0.4554  0.1717 -0.1111
  471MPD2    H5 7070   4.243   1.611  17.203 -0.3805 -0.6897  1.6796
  471MPD2    N1 7071   4.079   1.453  16.685  0.2155  0.1785 -0.7127
  471MPD2    H7 7072   4.060   1.357  16.713  0.8744  1.4066  3.9808
  472TMC3    C1 7073   4.019   1.385  16.457 -0.3813  0.0193 -0.1711
  472TMC3    C2 7074   3.930   1.408  16.364 -0.3683 -0.1177  0.2023
  472TMC3    C3 7075   3.862   1.305  16.300  0.3075  0.0537  0.2149
  472TMC3    C4 7076   4.062   1.263  16.484 -0.1489 -0.0088 -0.0844
  472TMC3    C5 7077   4.017   1.157  16.408  0.1864  0.1348  1.0103
  472TMC3    C6 7078   3.904   1.182  16.332 -0.5097 -0.6389 -0.5793
  472TMC3     C 7079   4.054   1.495  16.553 -0.6370 -0.1082 -0.2495
  472TMC3     O 7080   4.041   1.607  16.501 -0.5325 -0.1666 -0.0978
  472TMC3     H 7081   3.894   1.507  16.337 -2.1106 -0.8536 -0.1699
  472TMC3    H1 7082   4.139   1.239  16.556  1.0414  1.1745 -0.9584
  472TMC3    H2 7083   3.851   1.093  16.301 -1.4242  0.2168 -1.4908
  472TMC3    C7 7084   4.044   1.022  16.453 -0.1499  0.3064 -0.2886
  472TMC3    C8 7085   3.727   1.327  16.272  0.1330 -0.5997  0.0724
  472TMC3    O1 7086   4.098   1.001  16.558 -0.7123  0.1896  0.3492
  472TMC3    O2 7087   3.694   1.385  16.169  0.0781 -0.3347  0.5233
  473MPD2     C 7088   3.941   3.504  13.671 -0.2732  0.3291 -0.0339
  473MPD2    C1 7089   3.834   3.590  13.663 -0.2050  0.5990  0.6914
  473MPD2    C2 7090   3.831   3.709  13.740 -0.6747 -0.1337  0.4097
  473MPD2    C3 7091   3.932   3.736  13.825  0.5362 -0.1962 -0.7249
  473MPD2    C4 7092   4.037   3.647  13.844  0.6029 -0.6747  0.0885
  473MPD2    C5 7093   4.040   3.532  13.763  0.3574 -0.0432  0.2760
  473MPD2     H 7094   3.744   3.771  13.721 -0.0986  1.0430  1.6508
  473MPD2    H1 7095   4.105   3.660  13.928 -0.7288  0.5475  0.9788
  473MPD2    H2 7096   3.958   3.417  13.608  0.7905  0.3768  0.1843
  473MPD2    H3 7097   4.127   3.471  13.786 -0.2955 -0.8301  0.6575
  473MPD2     N 7098   3.943   3.848  13.911  0.3364  0.2847 -0.9730
  473MPD2    H5 7099   4.030   3.861  13.962  0.0862 -3.1112  0.3676
  473MPD2    N1 7100   3.727   3.563  13.571 -0.0343 -0.2236 -0.4728
  473MPD2    H7 7101   3.648   3.626  13.583 -0.0578  0.0048 -1.7581
  474TMC3    C1 7102   3.876   4.057  14.012 -0.5005 -0.0975  0.4323
  474TMC3    C2 7103   3.777   4.143  14.023 -0.2885  0.5865 -0.2704
  474TMC3    C3 7104   3.808   4.265  14.077  0.0315  0.3727 -0.5479
  474TMC3    C4 7105   4.009   4.077  14.053  1.4411 -0.3285  0.4916
  474TMC3    C5 7106   4.032   4.198  14.115 -0.0301  0.1484 -0.9724
  474TMC3    C6 7107   3.929   4.291  14.127  0.0488  0.2647  0.2157
  474TMC3     C 7108   3.847   3.947  13.926  0.1551 -0.7530  0.2198
  474TMC3     O 7109   3.732   3.942  13.883  0.3358 -0.3799  0.2013
  474TMC3     H 7110   3.673   4.123  13.998 -0.5494 -0.9056  2.0542
  474TMC3    H1 7111   4.086   4.001  14.057 -0.2567 -2.0223  0.8030
  474TMC3    H2 7112   3.952   4.383  14.180  0.3347 -0.4016  1.2386
  474TMC3    C7 7113   4.161   4.230  14.167 -0.5442 -0.5066  0.3394
  474TMC3    C8 7114   3.696   4.345  14.118 -0.7771  0.2148  0.4360
  474TMC3    O1 7115   4.252   4.201  14.091  0.1082 -0.4394 -0.0675
  474TMC3    O2 7116   3.590   4.291  14.153  0.0864  0.6403  0.2168
  475MPD2     C 7117   2.922   1.564  10.282 -0.2064 -0.0233  0.3671
  475MPD2    C1 7118   2.984   1.657  10.359  0.5017 -0.3955  0.2238
  475MPD2    C2 7119   2.920   1.708  10.473 -0.1738 -0.7456 -0.4082
  475MPD2    C3 7120   2.792   1.666  10.512  0.3164 -0.1567  0.3242
  475MPD2    C4 7121   2.738   1.561  10.441 -0.2839  0.1813 -0.0442
  475MPD2    C5 7122   2.803   1.514  10.325 -0.1197 -0.2599  0.6235
  475MPD2     H 7123   2.971   1.783  10.533  0.0675 -0.5853 -0.8160
  475MPD2    H1 7124   2.640   1.517  10.456  0.3558 -1.3935 -0.3782
  475MPD2    H2 7125   2.972   1.530  10.192  1.1702  3.5970 -0.2173
  475MPD2    H3 7126   2.747   1.451  10.256  0.9227  0.1882 -0.6361
  475MPD2     N 7127   2.727   1.743  10.616  0.0940  0.0793  0.4181
  475MPD2    H5 7128   2.785   1.810  10.665 -0.8712  2.2526 -1.4042
  475MPD2    N1 7129   3.103   1.721  10.312 -0.5349  0.1007 -0.1357
  475MPD2    H7 7130   3.145   1.777  10.387 -0.5428 -1.5302  1.0767
  476TMC3    C1 7131   3.221   1.864  10.190  0.1480 -0.2339  0.2531
  476TMC3    C2 7132   3.152   1.972  10.133 -0.8263  0.3848  0.1585
  476TMC3    C3 7133   3.144   2.091  10.202  0.8628  0.2100  0.1470
  476TMC3    C4 7134   3.288   1.882  10.304 -0.4901 -0.5123 -0.1460
  476TMC3    C5 7135   3.277   1.999  10.378 -0.4000 -0.8771 -0.9695
  476TMC3    C6 7136   3.218   2.108  10.320 -0.6718 -0.3495  0.4759
  476TMC3     C 7137   3.135   1.745  10.185  0.0304  0.3637  0.0493
  476TMC3     O 7138   3.057   1.740  10.090 -0.1223  0.1573 -0.1844
  476TMC3     H 7139   3.092   1.960  10.043  3.9049 -0.4026 -2.9038
  476TMC3    H1 7140   3.341   1.794  10.338 -1.6394 -0.4261  1.8648
  476TMC3    H2 7141   3.224   2.202  10.374 -0.3340 -0.5819  0.8439
  476TMC3    C7 7142   3.237   1.960  10.517  0.3762 -0.5417 -0.1704
  476TMC3    C8 7143   3.007   2.139  10.228  0.2809  1.1696 -0.0815
  476TMC3    O1 7144   3.254   1.845  10.543  0.1252 -1.0170  0.3294
  476TMC3    O2 7145   3.001   2.244  10.291 -0.7030 -0.4958  0.1571
  477MPD2     C 7146   0.350   3.473  12.050  0.1229  0.2462 -0.4550
  477MPD2    C1 7147   0.239   3.396  12.090 -0.7190 -0.6181 -0.1568
  477MPD2    C2 7148   0.260   3.276  12.155  0.3004 -0.2168 -0.2447
  477MPD2    C3 7149   0.385   3.240  12.193  0.1347 -0.2031 -0.0814
  477MPD2    C4 7150   0.493   3.326  12.169 -0.3071  0.5307 -0.0668
  477MPD2    C5 7151   0.472   3.435  12.087  0.1750 -0.2922 -0.2230
  477MPD2     H 7152   0.179   3.216  12.195 -0.1721 -0.4242 -1.5253
  477MPD2    H1 7153   0.593   3.316  12.210  0.6984 -2.2150 -3.1237
  477MPD2    H2 7154   0.343   3.567  11.995 -0.8868  0.4842  0.0834
  477MPD2    H3 7155   0.554   3.500  12.060  0.6054  0.2225  2.3348
  477MPD2     N 7156   0.397   3.115  12.257 -0.5780 -0.3815  0.8508
  477MPD2    H5 7157   0.311   3.072  12.290 -0.8069 -1.1685 -0.7328
  477MPD2    N1 7158   0.115   3.425  12.030  0.1090 -0.0948  0.4381
  477MPD2    H7 7159   0.098   3.512  11.980 -0.8101 -2.7306 -3.8821
  478TMC3    C1 7160   4.634   3.394  11.950  0.3936  0.7216  0.2370
  478TMC3    C2 7161   4.515   3.329  11.967 -0.6782 -0.3559  0.4237
  478TMC3    C3 7162   4.420   3.342  11.868  0.3025  0.1842  0.3799
  478TMC3    C4 7163   4.664   3.460  11.833 -0.6493 -0.2040  0.5062
  478TMC3    C5 7164   4.562   3.463  11.741  0.5162  0.2906 -0.5155
  478TMC3    C6 7165   4.439   3.423  11.759 -0.0968 -0.0272  0.2449
  478TMC3     C 7166   0.004   3.344  12.038  0.2600  0.2898  0.7140
  478TMC3     O 7167   4.720   3.259  12.122  0.2714  0.4577 -0.2606
  478TMC3     H 7168   4.496   3.273  12.058 -2.0192 -0.6735 -0.0519
  478TMC3    H1 7169   0.009   3.520  11.814 -1.1838 -0.1264 -1.6313
  478TMC3    H2 7170   4.359   3.440  11.689  0.0332 -1.4587 -0.2557
  478TMC3    C7 7171   4.592   3.523  11.607  0.8264 -0.2608  0.1298
  478TMC3    C8 7172   4.286   3.345  11.919  0.0905 -0.2171  0.2826
  478TMC3    O1 7173   4.700   3.582  11.600  0.5709  0.1233 -0.1476
  478TMC3    O2 7174   4.269   3.265  12.009 -0.1062  0.8189 -0.3301
  479MPD2     C 7175   3.798   0.959  15.479  0.0139  0.5697  0.1819
  479MPD2    C1 7176   3.733   0.900  15.581  0.4466 -0.6168 -0.1276
  479MPD2    C2 7177   3.786   0.909  15.710  0.0770  0.0464  1.7675
  479MPD2    C3 7178   3.881   1.011  15.740 -0.6961  0.7643 -0.4706
  479MPD2    C4 7179   3.937   1.074  15.633 -0.0097  0.0860 -0.7867
  479MPD2    C5 7180   3.904   1.046  15.505 -0.0189 -0.3827  0.4641
  479MPD2     H 7181   3.746   0.853  15.794 -0.1505 -0.5777  1.2364
  479MPD2    H1 7182   4.011   1.151  15.652 -0.8422  0.6253  0.2804
  479MPD2    H2 7183   3.762   0.948  15.377  0.0322 -0.6701  0.3017
  479MPD2    H3 7184   3.967   1.089  15.428 -1.1551 -1.9847 -1.3610
  479MPD2     N 7185   3.919   1.055  15.869 -0.6038  0.3706  0.1874
  479MPD2    H5 7186   4.001   1.114  15.873  0.3315 -0.9816  1.3327
  479MPD2    N1 7187   3.620   0.824  15.554 -0.3994  0.6150 -0.8903
  479MPD2    H7 7188   3.586   0.827  15.458 -1.8427 -0.1792 -0.3921
  480TMC3    C1 7189   3.556   0.908  16.136  0.3113 -0.2612 -0.0260
  480TMC3    C2 7190   3.466   0.984  16.066  0.4395  0.0144 -0.0776
  480TMC3    C3 7191   3.512   1.053  15.960 -0.3439  0.0191 -0.1932
  480TMC3    C4 7192   3.688   0.917  16.104 -0.2627  0.3931 -0.0647
  480TMC3    C5 7193   3.735   0.998  16.006 -0.8541  0.4431  0.3466
  480TMC3    C6 7194   3.647   1.078  15.936  0.0692  0.1396  0.1656
  480TMC3     C 7195   3.525   0.793  16.221 -0.0126  0.0753  0.3544
  480TMC3     O 7196   3.626   0.730  16.262  0.1440 -0.4757  0.0648
  480TMC3     H 7197   3.359   0.965  16.070  0.5961 -0.1997  3.0888
  480TMC3    H1 7198   3.762   0.853  16.151  0.8045  0.6320 -1.4377
  480TMC3    H2 7199   3.683   1.158  15.872  2.3545 -0.7414  0.3171
  480TMC3    C7 7200   3.879   1.025  15.995 -0.6737 -0.2664  0.1307
  480TMC3    C8 7201   3.419   1.092  15.854 -0.2083  0.2276  0.4883
  480TMC3    O1 7202   3.946   1.026  16.097  0.5921  0.0188  0.0053
  480TMC3    O2 7203   3.302   1.104  15.887  0.5664  0.1028  0.3490
  481MPD2     C 7204   0.404   0.670  13.766  0.5181 -0.2638 -0.5279
  481MPD2    C1 7205   0.288   0.625  13.822  0.2395 -0.3357  0.2490
  481MPD2    C2 7206   0.286   0.564  13.944  0.2008  1.0093 -0.4746
  481MPD2    C3 7207   0.404   0.571  14.019  1.0233  0.1516  0.4513
  481MPD2    C4 7208   0.522   0.622  13.963 -0.2966  0.1540 -1.0461
  481MPD2    C5 7209   0.521   0.672  13.836  0.2231  0.5129  0.0228
  481MPD2     H 7210   0.201   0.510  13.985  1.0289  0.6322  0.7375
  481MPD2    H1 7211   0.618   0.625  14.013 -1.3732 -0.2201  1.0582
  481MPD2    H2 7212   0.406   0.721  13.670 -1.2445  1.1916  0.2137
  481MPD2    H3 7213   0.612   0.714  13.796  0.1687  1.3495  0.7790
  481MPD2     N 7214   0.412   0.509  14.142 -0.1745 -0.4262 -0.2181
  481MPD2    H5 7215   0.506   0.496  14.179 -0.5942  0.3233  1.1322
  481MPD2    N1 7216   0.171   0.637  13.742 -0.4985 -0.7661  0.4654
  481MPD2    H7 7217   0.185   0.673  13.648 -0.9896  0.3094  0.8015
  482TMC3    C1 7218   4.691   0.624  13.668  0.1306 -0.6874 -0.1292
  482TMC3    C2 7219   4.606   0.518  13.651  0.1916  0.1957 -0.2045
  482TMC3    C3 7220   4.544   0.508  13.526 -0.5333  0.3180  0.1828
  482TMC3    C4 7221   4.717   0.713  13.567  0.2319  0.6451  0.4925
  482TMC3    C5 7222   4.654   0.693  13.442 -0.5036  0.3022  0.5141
  482TMC3    C6 7223   4.571   0.586  13.415 -1.5284 -0.5871  0.4060
  482TMC3     C 7224   0.041   0.611  13.777 -0.6761 -0.9267  0.0446
  482TMC3     O 7225   0.001   0.546  13.876  0.6193 -0.6380  0.2967
  482TMC3     H 7226   4.580   0.446  13.728  1.6805 -0.8213 -0.6549
  482TMC3    H1 7227   0.046   0.792  13.582  0.5250  0.5420 -0.3951
  482TMC3    H2 7228   4.533   0.556  13.317  1.5666 -0.5173 -0.8287
  482TMC3    C7 7229   4.682   0.788  13.341  0.7770 -0.1435 -0.3711
  482TMC3    C8 7230   4.449   0.394  13.519  0.1628 -0.0557 -0.0058
  482TMC3    O1 7231   4.718   0.898  13.378 -0.0555  0.4992 -0.0502
  482TMC3    O2 7232   4.454   0.297  13.598  0.4858 -0.3168  0.3398
  483TMC3    C1 7233   3.840   4.077   1.214 -0.1034 -0.6360  0.7170
  483TMC3    C2 7234   3.937   4.174   1.210  0.2176 -0.0264  0.0102
  483TMC3    C3 7235   4.068   4.128   1.174 -0.0595 -0.5979 -0.4722
  483TMC3    C4 7236   3.863   3.941   1.185  0.0572 -0.7071 -0.3190
  483TMC3    C5 7237   3.987   3.906   1.140 -0.0248 -0.6285  0.3387
  483TMC3    C6 7238   4.092   3.996   1.142 -0.6311 -0.0179 -0.0314
  483TMC3     C 7239   3.719   4.115   1.274  0.6036  0.4157 -0.3392
  483TMC3     O 7240   3.715   4.214   1.341  0.0477 -0.3725  0.5965
  483TMC3     H 7241   3.909   4.277   1.227 -0.5004 -0.4808  1.5738
  483TMC3    H1 7242   3.797   3.858   1.205 -0.7499  0.1678  0.6594
  483TMC3    H2 7243   4.194   3.962   1.126 -0.4308  0.8071 -0.4919
  483TMC3    C7 7244   4.013   3.773   1.082 -0.6704  0.3259 -0.2066
  483TMC3    C8 7245   4.178   4.215   1.135 -0.5923  0.4507 -0.1617
  483TMC3    O1 7246   4.128   3.753   1.047 -0.0151  0.4399 -0.0942
  483TMC3    O2 7247   4.250   4.185   1.040  0.4996  0.3102 -0.1605
  484MPD2     C 7248   0.903   2.522  12.326 -0.3685  0.3108  0.3773
  484MPD2    C1 7249   0.951   2.419  12.404 -0.3840  0.2262 -0.1380
  484MPD2    C2 7250   1.088   2.411  12.420  0.5109 -0.2780 -0.1331
  484MPD2    C3 7251   1.176   2.493  12.343  0.0707 -0.5412  0.1183
  484MPD2    C4 7252   1.124   2.591  12.266  0.3275  0.3578  0.2460
  484MPD2    C5 7253   0.988   2.614  12.266 -0.3962 -0.3132  0.1384
  484MPD2     H 7254   1.127   2.337  12.489 -1.8738  0.6651  2.2315
  484MPD2    H1 7255   1.187   2.654  12.204 -1.0952  0.7030 -0.8496
  484MPD2    H2 7256   0.797   2.545  12.329 -0.6258 -0.8438  0.0013
  484MPD2    H3 7257   0.954   2.694  12.201 -2.2402 -1.3907 -0.2388
  484MPD2     N 7258   1.317   2.472  12.339  0.3418 -0.4510  0.3952
  484MPD2    H5 7259   1.364   2.540  12.281 -0.7814 -1.0252 -1.1900
  484MPD2    N1 7260   0.859   2.326  12.473  0.2297  0.2695 -0.4895
  484MPD2    H7 7261   0.765   2.320  12.433  0.6390 -0.3513 -1.3511
  485TMC3    C1 7262   1.526   2.389  12.412 -0.1877  0.0759  0.1541
  485TMC3    C2 7263   1.588   2.326  12.516 -0.5116 -0.6272  0.0343
  485TMC3    C3 7264   1.725   2.332  12.513 -0.2671  0.1777 -0.3125
  485TMC3    C4 7265   1.596   2.456  12.313  0.2539 -0.5162 -0.3762
  485TMC3    C5 7266   1.733   2.472  12.321 -0.6580  0.4120  0.3395
  485TMC3    C6 7267   1.798   2.411  12.422 -0.0111 -0.4163 -0.5338
  485TMC3     C 7268   1.380   2.368  12.408 -0.2467 -0.0826 -0.3677
  485TMC3     O 7269   1.339   2.285  12.486  0.0713  0.2411  0.8084
  485TMC3     H 7270   1.540   2.272  12.597 -1.7877 -0.6202 -0.7183
  485TMC3    H1 7271   1.546   2.473  12.218 -1.5314  0.8331  0.8203
  485TMC3    H2 7272   1.906   2.418  12.421  0.0444 -1.0744  0.7509
  485TMC3    C7 7273   1.790   2.451  12.186 -0.4640 -0.3785  0.3051
  485TMC3    C8 7274   1.785   2.205  12.511  0.4992  0.8255 -0.0043
  485TMC3    O1 7275   1.767   2.535  12.095 -0.1010 -0.3870 -0.0961
  485TMC3    O2 7276   1.870   2.199  12.424  0.5037 -0.1393 -0.1468
  486MPD2     C 7277   3.228   0.566  12.991  0.1893 -0.5176 -0.0966
  486MPD2    C1 7278   3.097   0.609  13.023 -0.2856  0.1109 -0.4766
  486MPD2    C2 7279   3.068   0.751  13.018  0.4080  0.1538 -0.2813
  486MPD2    C3 7280   3.169   0.840  12.982 -1.0423  1.0206 -0.2022
  486MPD2    C4 7281   3.295   0.795  12.940 -0.2567 -1.0928  0.2977
  486MPD2    C5 7282   3.317   0.660  12.945 -0.1067 -0.1476  0.4741
  486MPD2     H 7283   2.968   0.787  13.041 -0.3941 -0.6830 -2.4390
  486MPD2    H1 7284   3.373   0.857  12.896 -0.2149  0.1077  2.0713
  486MPD2    H2 7285   3.257   0.462  12.981  2.7085  0.2860 -1.2362
  486MPD2    H3 7286   3.408   0.621  12.901 -1.2905 -0.9809 -1.2731
  486MPD2     N 7287   3.147   0.979  12.978  0.0654 -0.1689 -0.4986
  486MPD2    H5 7288   3.223   1.041  12.951 -2.2835  2.4288 -1.2037
  486MPD2    N1 7289   3.003   0.506  13.054 -0.2560  0.7622  0.4236
  486MPD2    H7 7290   3.030   0.409  13.044 -1.1719  0.6156 -0.5579
  487TMC3    C1 7291   2.800   0.395  13.100 -0.2346 -0.6940 -0.4747
  487TMC3    C2 7292   2.660   0.401  13.078 -0.3348 -0.0378 -0.5954
  487TMC3    C3 7293   2.590   0.289  13.084  0.8570 -0.1673  0.8529
  487TMC3    C4 7294   2.850   0.284  13.159 -0.1664  0.4302 -0.4523
  487TMC3    C5 7295   2.765   0.177  13.183 -0.2004  0.0192  0.0141
  487TMC3    C6 7296   2.637   0.177  13.146 -0.6265 -0.2415  0.5473
  487TMC3     C 7297   2.873   0.525  13.100 -0.3566  0.2364  0.2268
  487TMC3     O 7298   2.802   0.626  13.112 -0.1294  0.0770  0.4484
  487TMC3     H 7299   2.615   0.495  13.050  1.3200  0.0749 -2.9052
  487TMC3    H1 7300   2.948   0.288  13.206  1.4677 -1.4944 -3.7111
  487TMC3    H2 7301   2.585   0.083  13.130  0.6153 -0.9697  0.7603
  487TMC3    C7 7302   2.821   0.072  13.270  0.4257 -0.2053  0.3377
  487TMC3    C8 7303   2.448   0.286  13.070 -0.4216 -0.0202 -1.1491
  487TMC3    O1 7304   2.938   0.082  13.303 -0.1757  0.3018  0.4635
  487TMC3    O2 7305   2.389   0.184  13.048  0.4627  0.0155  0.0676
  488MPD2     C 7306   3.773   2.741  16.452 -0.0224 -0.4018  0.0013
  488MPD2    C1 7307   3.830   2.815  16.555 -0.1271 -0.6029  0.2047
  488MPD2    C2 7308   3.817   2.773  16.688  0.2707 -0.3962  0.5737
  488MPD2    C3 7309   3.754   2.660  16.719 -0.3397  1.2127  0.3223
  488MPD2    C4 7310   3.687   2.586  16.624  0.2440 -0.6341 -0.3456
  488MPD2    C5 7311   3.701   2.629  16.491  0.1267 -0.2516 -0.4852
  488MPD2     H 7312   3.869   2.832  16.762  0.0629  1.2546 -0.5797
  488MPD2    H1 7313   3.649   2.485  16.637  1.2325 -0.8723  0.6656
  488MPD2    H2 7314   3.782   2.771  16.349  1.1119  0.6794  0.4149
  488MPD2    H3 7315   3.661   2.562  16.416  0.4760  2.1640 -2.8530
  488MPD2     N 7316   3.767   2.618  16.857  0.1817 -0.2828 -0.2497
  488MPD2    H5 7317   3.845   2.653  16.911  0.6235  0.9360 -1.7002
  488MPD2    N1 7318   3.919   2.929  16.529 -0.5897 -0.2955 -0.0502
  488MPD2    H7 7319   3.956   2.973  16.612 -2.8570 -0.6157  1.1182
  489TMC3    C1 7320   3.697   2.535  17.063 -0.6398 -0.2976  0.2310
  489TMC3    C2 7321   3.742   2.654  17.120  0.2140  0.4265  0.5125
  489TMC3    C3 7322   3.733   2.674  17.255 -0.0228  0.2193 -0.5850
  489TMC3    C4 7323   3.642   2.431  17.137  0.2743  0.1868  0.7278
  489TMC3    C5 7324   3.631   2.460  17.272 -0.0322  0.5976 -0.1262
  489TMC3    C6 7325   3.678   2.580  17.335  0.2907  0.1220  0.0143
  489TMC3     C 7326   3.693   2.516  16.920 -0.2605  0.2523 -0.2668
  489TMC3     O 7327   3.619   2.435  16.873 -0.4547 -0.3543 -0.5444
  489TMC3     H 7328   3.783   2.737  17.063 -1.5161 -0.1789 -1.6250
  489TMC3    H1 7329   3.603   2.342  17.088  0.0429  0.0418  1.1692
  489TMC3    H2 7330   3.685   2.598  17.441 -1.1977  2.2580 -0.2497
  489TMC3    C7 7331   3.550   2.370  17.356  0.8934 -0.4629 -0.3938
  489TMC3    C8 7332   3.741   2.814  17.294  0.5543  0.4662 -0.3403
  489TMC3    O1 7333   3.573   2.374  17.478  0.0582 -0.0506  0.0635
  489TMC3    O2 7334   3.724   2.896  17.203  0.0137  0.1918  0.7808
  490MPD2     C 7335   4.544   1.875  17.234 -0.1507  0.9327 -1.0080
  490MPD2    C1 7336   4.500   1.955  17.341 -0.3131 -0.2720 -0.1163
  490MPD2    C2 7337   4.578   2.063  17.376 -0.4955 -0.6656 -0.0301
  490MPD2    C3 7338   4.680   2.099  17.295 -0.3322 -0.0907 -0.6622
  490MPD2    C4 7339   4.715   2.030  17.185  0.0039 -0.2195  0.0113
  490MPD2    C5 7340   4.649   1.913  17.153  0.1134  0.1468  0.2323
  490MPD2     H 7341   4.545   2.115  17.465  0.3920  0.8045 -0.5479
  490MPD2    H1 7342   0.056   2.058  17.123 -0.2668  1.0629  0.2245
  490MPD2    H2 7343   4.494   1.785  17.202  0.4410 -0.2731  1.4231
  490MPD2    H3 7344   4.683   1.849  17.073 -0.3106  2.3390 -1.7223
  490MPD2     N 7345   0.018   2.213  17.323 -0.2271  0.1613 -0.0885
  490MPD2    H5 7346   0.102   2.213  17.266  1.1308 -0.8381  1.9303
  490MPD2    N1 7347   4.381   1.940  17.406  0.5917 -0.0688 -0.2976
  490MPD2    H7 7348   4.349   2.020  17.459  0.6850 -0.2371  0.0126
  491TMC3    C1 7349   4.161   1.883  17.426  0.2842 -0.5333 -0.4384
  491TMC3    C2 7350   4.156   1.899  17.561 -0.4225 -0.9436  0.6273
  491TMC3    C3 7351   4.040   1.851  17.622 -0.6102  0.2336  0.1222
  491TMC3    C4 7352   4.063   1.815  17.357  0.4123  0.5003 -0.5728
  491TMC3    C5 7353   3.955   1.773  17.426 -0.1838  0.2727  0.1820
  491TMC3    C6 7354   3.933   1.796  17.557  0.2942  0.1296 -0.7749
  491TMC3     C 7355   4.286   1.849  17.373  1.4052 -0.0799  0.1395
  491TMC3     O 7356   4.297   1.746  17.309  0.4750  0.3323  0.4263
  491TMC3     H 7357   4.239   1.925  17.626 -0.5488  1.1656 -0.0518
  491TMC3    H1 7358   4.076   1.806  17.250 -2.6101  1.1668 -1.0011
  491TMC3    H2 7359   3.844   1.767  17.611 -0.6894  1.6925 -1.5687
  491TMC3    C7 7360   3.877   1.663  17.366 -0.3579  0.1176  0.2147
  491TMC3    C8 7361   4.030   1.856  17.762 -0.5781  0.2026 -0.3859
  491TMC3    O1 7362   3.875   1.674  17.244  0.4627  0.6171  0.3841
  491TMC3    O2 7363   3.919   1.887   0.033  0.0523 -0.0676 -0.4354
  492MPD2     C 7364   4.195   2.347  11.946  0.6503 -0.0955 -0.2281
  492MPD2    C1 7365   4.194   2.279  11.827 -0.0211 -0.8443  0.4938
  492MPD2    C2 7366   4.180   2.142  11.839 -0.2830 -0.4578  0.3064
  492MPD2    C3 7367   4.139   2.082  11.965  0.2969  0.4361 -0.1657
  492MPD2    C4 7368   4.146   2.152  12.080 -0.5103  0.0701  1.3361
  492MPD2    C5 7369   4.179   2.284  12.070 -0.3823 -0.3978  0.1668
  492MPD2     H 7370   4.192   2.086  11.747 -0.2175  2.6258 -1.5792
  492MPD2    H1 7371   4.114   2.107  12.173 -0.7448  0.5711  1.4974
  492MPD2    H2 7372   4.235   2.448  11.954 -1.8445  0.7575  1.6805
  492MPD2    H3 7373   4.202   2.341  12.159 -0.0228 -1.0027  0.4634
  492MPD2     N 7374   4.087   1.952  11.971 -0.1172  0.2830 -0.0609
  492MPD2    H5 7375   4.082   1.917  12.066 -1.4236 -3.4737 -1.4731
  492MPD2    N1 7376   4.230   2.347  11.706  0.4760 -0.4148 -0.2772
  492MPD2    H7 7377   4.253   2.444  11.720  0.9113 -0.4537 -0.7477
  493TMC3    C1 7378   4.243   2.382  11.478 -0.3599 -0.8963 -0.2317
  493TMC3    C2 7379   4.347   2.466  11.496  0.8536 -0.0096  0.3823
  493TMC3    C3 7380   4.394   2.531  11.382  0.0739 -0.0985  0.0069
  493TMC3    C4 7381   4.205   2.344  11.351  0.1306  0.3408  0.0950
  493TMC3    C5 7382   4.252   2.407  11.249  0.6648 -0.2909  0.1852
  493TMC3    C6 7383   4.349   2.502  11.260  0.3812  0.1306  0.6673
  493TMC3     C 7384   4.206   2.289  11.584  0.0176 -0.4804 -1.0173
  493TMC3     O 7385   4.184   2.174  11.547  0.0159  0.1649  0.4697
  493TMC3     H 7386   4.392   2.479  11.593 -1.6011  2.8389  1.1458
  493TMC3    H1 7387   4.108   2.296  11.338  1.0482 -1.6303  0.5662
  493TMC3    H2 7388   4.393   2.542  11.169 -1.9890 -1.0590 -1.0191
  493TMC3    C7 7389   4.214   2.339  11.125  0.0999 -0.2600  0.2275
  493TMC3    C8 7390   4.431   2.667  11.407 -0.1037  0.1405  0.1805
  493TMC3    O1 7391   4.117   2.265  11.122 -0.4051  0.0513  0.1159
  493TMC3    O2 7392   4.390   2.725  11.507  0.1587 -0.0958  0.3054
  494TMC3    C1 7393   0.174   4.052   0.631 -0.0583 -0.2941 -0.7338
  494TMC3    C2 7394   0.119   3.931   0.594 -0.0779  0.2047 -0.4904
  494TMC3    C3 7395   0.126   3.888   0.465  0.2810  0.3814 -0.2323
  494TMC3    C4 7396   0.249   4.121   0.546 -0.2180 -0.0468 -0.7370
  494TMC3    C5 7397   0.244   4.084   0.411  0.6559 -0.7482 -0.1139
  494TMC3    C6 7398   0.186   3.967   0.365  0.5104 -0.0981 -0.4936
  494TMC3     C 7399   0.160   4.085   0.770 -0.1673  0.1816 -0.1492
  494TMC3     O 7400   0.255   4.148   0.814 -0.4105  0.0023 -0.8421
  494TMC3     H 7401   0.072   3.875   0.674  0.6779  1.2274  0.6677
  494TMC3    H1 7402   0.276   4.224   0.567 -1.6757 -0.2301  2.2149
  494TMC3    H2 7403   0.209   3.931   0.266 -0.6795 -0.2441 -0.7081
  494TMC3    C7 7404   0.334   4.154   0.317  0.0134 -0.5576  0.1561
  494TMC3    C8 7405   0.177   3.752   0.459  0.3644 -0.1543 -0.5977
  494TMC3    O1 7406   0.335   4.101   0.202 -0.6884  0.2455 -0.4903
  494TMC3    O2 7407   0.220   3.695   0.558  0.1552 -0.0448 -0.5105
  495TMC3    C1 7408   3.773   1.076  14.947  0.9627 -0.3867  0.2052
  495TMC3    C2 7409   3.727   1.160  14.847 -0.6761 -0.1539 -0.8741
  495TMC3    C3 7410   3.637   1.257  14.873 -0.3285  0.7490 -0.0191
  495TMC3    C4 7411   3.750   1.109  15.080 -0.2219 -0.3304  0.6660
  495TMC3    C5 7412   3.667   1.212  15.103 -0.2155 -0.3472 -0.0185
  495TMC3    C6 7413   3.611   1.287  15.000  0.1114 -0.3489  0.3757
  495TMC3     C 7414   3.772   0.937  14.915  0.1886  0.6255 -0.1674
  495TMC3     O 7415   3.717   0.864  14.992  0.4564  0.0373  0.2802
  495TMC3     H 7416   3.757   1.140  14.745 -1.2216 -1.6000 -0.7542
  495TMC3    H1 7417   3.780   1.042  15.160 -0.4753 -2.2380 -0.8364
  495TMC3    H2 7418   3.526   1.349  15.026 -0.0375 -1.7460  3.2052
  495TMC3    C7 7419   3.633   1.233  15.242 -0.2001 -0.4529 -0.2393
  495TMC3    C8 7420   3.517   1.256  14.790 -0.4897 -0.1684  0.6430
  495TMC3    O1 7421   3.725   1.212  15.318 -0.2273  0.0248 -0.0656
  495TMC3    O2 7422   3.427   1.341  14.803  0.0952 -0.1907 -0.3903
  496MPD2     C 7423   0.574   1.504  15.175 -0.7584 -0.8763 -0.5962
  496MPD2    C1 7424   0.614   1.430  15.284 -0.1898 -0.0513 -0.0920
  496MPD2    C2 7425   0.529   1.369  15.374  0.2078  0.1538  0.2617
  496MPD2    C3 7426   0.391   1.389  15.352 -0.4428 -0.5307  0.1103
  496MPD2    C4 7427   0.351   1.444  15.233  0.2934  0.1539 -0.2758
  496MPD2    C5 7428   0.444   1.494  15.139 -0.1371  0.1923  1.3106
  496MPD2     H 7429   0.562   1.319  15.465  0.2212 -0.5829 -0.1503
  496MPD2    H1 7430   0.245   1.457  15.214 -0.0114  0.0056  1.3423
  496MPD2    H2 7431   0.639   1.551  15.103 -0.7383 -0.1577 -0.1089
  496MPD2    H3 7432   0.418   1.549  15.049 -0.9872 -0.3129  1.2457
  496MPD2     N 7433   0.296   1.331  15.435  0.3230  0.7722 -0.6410
  496MPD2    H5 7434   0.201   1.330  15.400 -0.6474  3.1063  1.9131
  496MPD2    N1 7435   0.757   1.433  15.298  0.3317  0.0953 -0.9118
  496MPD2    H7 7436   0.812   1.497  15.242 -0.3238  0.8411 -0.7179
  497TMC3    C1 7437   0.243   1.146  15.584  0.2032 -0.8114 -0.1065
  497TMC3    C2 7438   0.200   1.056  15.487 -0.5553 -0.0549  0.1310
  497TMC3    C3 7439   0.148   0.939  15.523 -0.3124 -0.4231  0.1309
  497TMC3    C4 7440   0.250   1.107  15.714 -0.3577  0.8002  0.2942
  497TMC3    C5 7441   0.210   0.981  15.746  0.0560 -0.1366  0.0192
  497TMC3    C6 7442   0.159   0.897  15.651  0.3321 -0.1654  0.1464
  497TMC3     C 7443   0.329   1.263  15.549  0.2187  0.3161 -0.0064
  497TMC3     O 7444   0.412   1.295  15.633 -0.3772 -0.0368  0.1703
  497TMC3     H 7445   0.212   1.093  15.386 -0.3996  0.4303  0.3259
  497TMC3    H1 7446   0.296   1.177  15.782  2.4926 -2.0009  1.2265
  497TMC3    H2 7447   0.120   0.801  15.683  3.5944 -0.7471  2.3857
  497TMC3    C7 7448   0.279   0.913  15.856  0.4164 -0.8311  0.4001
  497TMC3    C8 7449   0.078   0.875  15.414 -0.6690 -0.1089  0.1393
  497TMC3    O1 7450   0.244   0.803  15.899 -0.7657 -0.0763  0.2462
  497TMC3    O2 7451   0.064   0.945  15.316 -0.6271  0.0047 -0.8816
  498MPD2     C 7452   2.205   1.652  10.012 -0.1097  0.0282 -0.7589
  498MPD2    C1 7453   2.147   1.766  10.070  0.1599  0.1950 -0.1609
  498MPD2    C2 7454   2.016   1.758  10.109 -0.0367  0.0045 -0.1539
  498MPD2    C3 7455   1.939   1.641  10.094  0.5111  0.0237  0.4203
  498MPD2    C4 7456   1.992   1.538  10.017  0.4579 -0.1773 -0.1312
  498MPD2    C5 7457   2.125   1.537   9.978 -0.2396  0.4768  0.1611
  498MPD2     H 7458   1.967   1.840  10.160 -0.0439 -0.8603  1.2360
  498MPD2    H1 7459   1.933   1.447  10.010 -0.6803  0.5972 -0.6494
  498MPD2    H2 7460   2.307   1.640   9.979  0.8044 -0.3468  2.1683
  498MPD2    H3 7461   2.167   1.442   9.945  1.8988  1.3525  0.4005
  498MPD2     N 7462   1.804   1.647  10.139 -0.0457  0.5800  0.3803
  498MPD2    H5 7463   1.786   1.725  10.201  0.9653 -0.9838  2.6508
  498MPD2    N1 7464   2.212   1.887  10.083 -0.1253 -0.1606 -1.0512
  498MPD2    H7 7465   2.158   1.969  10.113  0.7324  0.0324 -0.0175
  499TMC3    C1 7466   2.364   2.061  10.019  0.4537 -0.0558  0.6388
  499TMC3    C2 7467   2.489   2.101   9.998 -0.5375  0.8119  0.2231
  499TMC3    C3 7468   2.524   2.233   9.986  0.6296  0.1619  0.4982
  499TMC3    C4 7469   2.261   2.152  10.014 -0.1877 -0.0018 -0.5588
  499TMC3    C5 7470   2.298   2.284  10.007 -0.0492  0.5642 -0.3854
  499TMC3    C6 7471   2.426   2.326   9.999 -0.5540  0.4234  0.0953
  499TMC3     C 7472   2.333   1.921  10.030  0.5644  0.2593  0.5916
  499TMC3     O 7473   2.427   1.843   9.999 -0.4766  0.0771 -0.8305
  499TMC3     H 7474   2.571   2.031   9.991 -1.7635 -0.5574 -0.3993
  499TMC3    H1 7475   2.157   2.123  10.029 -0.8000  1.4696 -1.9684
  499TMC3    H2 7476   2.456   2.424   9.965  0.0730 -0.8134 -2.9137
  499TMC3    C7 7477   2.195   2.372   9.972  0.3679 -0.3598 -0.3632
  499TMC3    C8 7478   2.660   2.286   9.963 -0.3368 -0.2477  0.1468
  499TMC3    O1 7479   2.224   2.481   9.920  0.1258  0.1609 -0.4285
  499TMC3    O2 7480   2.669   2.396  10.009  0.3531  0.1685  0.4020
  500MPD2     C 7481   2.999   3.196  10.862 -0.0554 -0.0622  0.2974
  500MPD2    C1 7482   3.004   3.220  10.723 -0.1863 -0.0739 -0.9038
  500MPD2    C2 7483   2.894   3.230  10.644 -0.0581  1.4150  0.8242
  500MPD2    C3 7484   2.771   3.202  10.696 -0.0316 -0.4824  0.2360
  500MPD2    C4 7485   2.763   3.180  10.836 -0.1095  0.0530  0.0559
  500MPD2    C5 7486   2.870   3.187  10.918 -0.4531 -0.3949  0.0986
  500MPD2     H 7487   2.915   3.248  10.539  0.2089  3.3676  1.2159
  500MPD2    H1 7488   2.669   3.164  10.887  1.3515 -1.0903  2.3446
  500MPD2    H2 7489   3.077   3.201  10.937  0.8436  1.8523 -0.7669
  500MPD2    H3 7490   2.854   3.167  11.023  1.1047  0.3790  0.4973
  500MPD2     N 7491   2.648   3.214  10.618 -0.4694 -0.0571 -0.3988
  500MPD2    H5 7492   2.566   3.184  10.669  0.0737 -1.8791 -0.5699
  500MPD2    N1 7493   3.128   3.224  10.657  0.0916 -0.2054 -0.3733
  500MPD2    H7 7494   3.128   3.258  10.561  1.7219  0.9381  0.0241
  501TMC3    C1 7495   3.368   3.218  10.630 -0.0681 -0.0228  0.5186
  501TMC3    C2 7496   3.369   3.327  10.550  0.5681 -0.1156 -0.2036
  501TMC3    C3 7497   3.484   3.351  10.472  0.0422  0.3351  0.5069
  501TMC3    C4 7498   3.481   3.141  10.647 -0.9955  0.1623  0.3136
  501TMC3    C5 7499   3.593   3.169  10.578 -0.6053  0.8235  0.1392
  501TMC3    C6 7500   3.590   3.271  10.489  0.7929 -0.1017  0.4250
  501TMC3     C 7501   3.255   3.194  10.716  0.1608 -0.6569 -0.0499
  501TMC3     O 7502   3.276   3.132  10.820  0.3520  0.0286 -0.2860
  501TMC3     H 7503   3.281   3.390  10.548 -1.4462 -2.9203 -0.2691
  501TMC3    H1 7504   3.479   3.054  10.712  1.9794 -0.9971 -1.1376
  501TMC3    H2 7505   3.669   3.275  10.415 -0.0203  0.5269 -0.4125
  501TMC3    C7 7506   3.713   3.155  10.653 -0.3737  0.0052  0.0590
  501TMC3    C8 7507   3.522   3.494  10.472  0.7184 -0.2605 -0.0478
  501TMC3    O1 7508   3.708   3.081  10.753  0.2745 -0.7022 -0.6161
  501TMC3    O2 7509   3.483   3.574  10.558 -0.1407 -0.1482 -0.0742
  502TMC3    C1 7510   2.876   1.754  15.072  0.9097 -0.6266 -0.1029
  502TMC3    C2 7511   2.868   1.875  15.014 -0.4283 -0.1036 -0.0187
  502TMC3    C3 7512   2.776   1.966  15.076 -0.4693 -0.2404 -0.3594
  502TMC3    C4 7513   2.780   1.713  15.164  0.0016  0.3675  0.0195
  502TMC3    C5 7514   2.691   1.807  15.211 -0.7032  0.1863 -0.0564
  502TMC3    C6 7515   2.674   1.933  15.158 -0.2094 -0.3978 -0.6022
  502TMC3     C 7516   3.014   1.736  15.121  0.3650 -0.8379  0.3591
  502TMC3     O 7517   3.111   1.743  15.039  0.1348  0.4856 -0.0222
  502TMC3     H 7518   2.938   1.899  14.935 -0.3346  0.8352  0.3526
  502TMC3    H1 7519   2.799   1.626  15.225  0.7547  0.9404  0.5984
  502TMC3    H2 7520   2.619   2.009  15.210 -0.1021 -0.6061 -0.1836
  502TMC3    C7 7521   2.630   1.761  15.333  0.0282 -0.5551  0.0705
  502TMC3    C8 7522   2.834   2.098  15.075  0.6166  0.8105  0.2334
  502TMC3    O1 7523   2.684   1.690  15.420 -0.6067  0.0224 -0.0115
  502TMC3    O2 7524   2.901   2.116  14.978 -0.1523  0.2411  0.0656
  503MPD2     C 7525   0.710   2.731  16.654 -0.0710 -0.3662  0.1357
  503MPD2    C1 7526   0.683   2.756  16.788 -0.3650  0.6326  0.3912
  503MPD2    C2 7527   0.733   2.675  16.889  0.4864 -0.0779 -0.2246
  503MPD2    C3 7528   0.819   2.570  16.860 -0.1602  0.4747 -0.2307
  503MPD2    C4 7529   0.857   2.544  16.728 -0.4860  0.1615  0.4588
  503MPD2    C5 7530   0.798   2.623  16.631  0.1464  0.7514  0.2765
  503MPD2     H 7531   0.707   2.686  16.994 -2.8934  0.7460 -1.1648
  503MPD2    H1 7532   0.921   2.461  16.702 -0.3434 -0.2317  2.0747
  503MPD2    H2 7533   0.652   2.778  16.575  0.9436 -1.9476 -1.5656
  503MPD2    H3 7534   0.818   2.606  16.526 -0.8235  1.6782 -0.0623
  503MPD2     N 7535   0.862   2.484  16.968 -0.1935  0.1304 -0.4085
  503MPD2    H5 7536   0.822   2.507  17.059  0.3750  1.5868 -0.5209
  503MPD2    N1 7537   0.619   2.877  16.829 -0.3341  0.6631  0.1797
  503MPD2    H7 7538   0.598   2.880  16.928  0.2127  1.9229  0.2622
  504TMC3    C1 7539   1.014   2.342  17.072 -0.6909  0.2801 -0.0760
  504TMC3    C2 7540   0.927   2.326  17.176  0.1026  0.0384  0.1662
  504TMC3    C3 7541   0.982   2.301  17.297 -0.3210 -0.3381  0.6157
  504TMC3    C4 7542   1.148   2.325  17.075 -0.6212  1.0694 -0.1928
  504TMC3    C5 7543   1.197   2.294  17.196  0.0162 -0.5996  0.1084
  504TMC3    C6 7544   1.118   2.276  17.308  0.0503 -0.1476 -0.1281
  504TMC3     C 7545   0.965   2.390  16.949  0.4920  0.6555  0.3074
  504TMC3     O 7546   1.041   2.387  16.856 -0.5316 -0.0263 -0.0123
  504TMC3     H 7547   0.820   2.335  17.162  0.0401 -1.7283 -0.3642
  504TMC3    H1 7548   1.211   2.321  16.987 -0.3504  1.1915 -0.0050
  504TMC3    H2 7549   1.157   2.222  17.394  0.0800 -0.3934 -0.2980
  504TMC3    C7 7550   1.344   2.297  17.228  0.0707  0.0972  0.3995
  504TMC3    C8 7551   0.892   2.293  17.415 -0.0630  0.5168 -0.5563
  504TMC3    O1 7552   1.373   2.276  17.344 -0.0951  0.2632 -0.2753
  504TMC3    O2 7553   0.772   2.306  17.404 -0.4515  0.1690  0.1604
  505MPD2     C 7554   0.331   1.517  10.913 -0.3234 -0.0395  0.6147
  505MPD2    C1 7555   0.454   1.469  10.877 -0.0414 -0.7704 -0.2367
  505MPD2    C2 7556   0.567   1.506  10.940  0.7559  0.0185  0.3161
  505MPD2    C3 7557   0.558   1.604  11.044 -0.0826  0.3008  0.2255
  505MPD2    C4 7558   0.436   1.647  11.085  0.2125  0.4023 -0.1946
  505MPD2    C5 7559   0.324   1.604  11.016 -0.4618 -0.7933 -0.3891
  505MPD2     H 7560   0.662   1.465  10.906  0.1285  1.1408 -2.8659
  505MPD2    H1 7561   0.412   1.703  11.174 -1.9051  0.3168 -0.7154
  505MPD2    H2 7562   0.243   1.492  10.856  0.0890 -0.7746  0.2983
  505MPD2    H3 7563   0.228   1.653  11.030  1.3266  2.5994  0.1896
  505MPD2     N 7564   0.675   1.652  11.113  0.6587  0.5898  0.1749
  505MPD2    H5 7565   0.670   1.716  11.191 -1.5952  0.9104 -0.2350
  505MPD2    N1 7566   0.448   1.370  10.773 -0.6261 -0.4630 -0.1965
  505MPD2    H7 7567   0.365   1.365  10.715  0.4169  0.4469 -1.7587
  506TMC3    C1 7568   0.558   1.188  10.644  0.2491 -0.2588 -0.4520
  506TMC3    C2 7569   0.539   1.235  10.516 -0.0247  0.6463 -0.4865
  506TMC3    C3 7570   0.616   1.186  10.419 -0.0485  0.1199 -0.0408
  506TMC3    C4 7571   0.654   1.095  10.666 -0.4233  0.1393  0.0722
  506TMC3    C5 7572   0.741   1.067  10.564 -0.6295  0.0807  0.8112
  506TMC3    C6 7573   0.725   1.107  10.441  0.1115 -0.3205  0.9188
  506TMC3     C 7574   0.550   1.279  10.761  0.2386 -0.2988  0.5665
  506TMC3     O 7575   0.645   1.255  10.836  0.3994 -0.6522 -0.1254
  506TMC3     H 7576   0.462   1.309  10.496  0.8489  2.0385  1.3023
  506TMC3    H1 7577   0.663   1.050  10.764 -0.2035  0.5951  0.2590
  506TMC3    H2 7578   0.789   1.085  10.356 -0.8766  1.5860 -0.3247
  506TMC3    C7 7579   0.879   1.040  10.598 -0.7065  0.2877  0.0556
  506TMC3    C8 7580   0.632   1.271  10.304  1.1668  0.4906  0.0245
  506TMC3    O1 7581   0.963   1.007  10.514  0.7943  0.0961  0.1128
  506TMC3    O2 7582   0.534   1.270  10.223  0.7994 -0.3979  0.8879
  507TMC3    C1 7583   1.759   2.591  14.964  0.9104  0.1786 -0.8133
  507TMC3    C2 7584   1.697   2.570  14.842 -0.8235 -0.3440 -0.8319
  507TMC3    C3 7585   1.713   2.665  14.746  0.3225  0.6020  0.6251
  507TMC3    C4 7586   1.833   2.697  14.991 -0.4427 -0.2012  0.0873
  507TMC3    C5 7587   1.850   2.789  14.893 -0.5281  0.6506  0.3345
  507TMC3    C6 7588   1.798   2.769  14.776  0.2975  0.1723 -0.5167
  507TMC3     C 7589   1.691   2.543  15.084 -0.0663 -0.7013  0.1346
  507TMC3     O 7590   1.730   2.584  15.193 -0.3883  0.0182  0.5148
  507TMC3     H 7591   1.621   2.495  14.821 -2.9235  1.0704  1.6807
  507TMC3    H1 7592   1.853   2.740  15.089  1.4423 -0.7610 -0.0606
  507TMC3    H2 7593   1.800   2.849  14.704  1.9821  1.8175  1.3691
  507TMC3    C7 7594   1.842   2.931  14.932 -0.9672  1.2510 -0.4685
  507TMC3    C8 7595   1.586   2.712  14.681 -0.8241  0.3510 -0.3582
  507TMC3    O1 7596   1.919   2.980  15.014 -0.3001 -0.0692 -0.1162
  507TMC3    O2 7597   1.566   2.831  14.690 -0.2394 -0.3332 -0.0019
  508MPD2     C 7598   2.651   4.211  16.046  0.6192 -0.3422 -0.1564
  508MPD2    C1 7599   2.613   4.315  16.121  0.3396  0.8610  0.2980
  508MPD2    C2 7600   2.590   4.435  16.056 -0.1036 -0.2988 -0.0390
  508MPD2    C3 7601   2.603   4.461  15.919  0.5534  0.2432 -0.5688
  508MPD2    C4 7602   2.658   4.359  15.847 -0.2915 -0.3363 -0.0074
  508MPD2    C5 7603   2.673   4.235  15.909  0.1632 -0.5385 -1.1744
  508MPD2     H 7604   2.551   4.519  16.113  1.3317  0.9367 -0.8803
  508MPD2    H1 7605   2.663   4.361  15.738  0.0762  1.9484  0.0697
  508MPD2    H2 7606   2.650   4.107  16.076 -1.3455 -0.3402 -0.2045
  508MPD2    H3 7607   2.698   4.149  15.848 -0.5408 -1.8247  0.3757
  508MPD2     N 7608   2.553   4.580  15.863 -0.0381 -0.2439  0.2442
  508MPD2    H5 7609   2.512   4.649  15.925 -2.1413 -1.7329  0.4888
  508MPD2    N1 7610   2.613   4.308  16.266  0.2242 -0.3458  0.6781
  508MPD2    H7 7611   2.658   4.228  16.308 -1.0439 -2.1153 -1.3233
  509TMC3    C1 7612   2.479   0.147  15.509 -0.2142 -0.1660  0.4389
  509TMC3    C2 7613   2.512   0.256  15.589  0.3123  0.7310  0.2149
  509TMC3    C3 7614   2.545   0.232  15.722  0.2055  0.4064  0.2924
  509TMC3    C4 7615   2.491   0.023  15.559  0.3311 -0.3545  0.3256
  509TMC3    C5 7616   2.512   4.742  15.690 -0.0986 -0.3058  0.3807
  509TMC3    C6 7617   2.554   0.105  15.771  0.5026  0.0500  0.5466
  509TMC3     C 7618   2.429   0.170  15.377  0.6515  0.0159  0.1069
  509TMC3     O 7619   2.432   0.086  15.290 -0.8260 -0.3736 -0.2694
  509TMC3     H 7620   2.524   0.355  15.545 -2.2325  0.5937 -0.7873
  509TMC3    H1 7621   2.464   4.687  15.489 -0.6496 -1.6291  2.1416
  509TMC3    H2 7622   2.590   0.092  15.872 -1.1144 -0.3703  1.0714
  509TMC3    C7 7623   2.558   4.607  15.724  0.6200 -0.0336  0.6927
  509TMC3    C8 7624   2.625   0.331  15.796 -0.2796  0.2571  0.1614
  509TMC3    O1 7625   2.616   4.553  15.627  0.4009  0.1210 -0.3614
  509TMC3    O2 7626   2.687   0.289  15.894  0.4600 -0.1351 -0.5901
  510MPD2     C 7627   0.097   1.539  14.522  0.4540 -0.3287  0.0475
  510MPD2    C1 7628   0.166   1.468  14.624 -0.0357 -0.1426 -0.5422
  510MPD2    C2 7629   0.303   1.444  14.606  0.3947 -0.3443  0.4487
  510MPD2    C3 7630   0.370   1.502  14.501 -0.1033 -0.4643 -0.3380
  510MPD2    C4 7631   0.307   1.580  14.407 -0.1368  0.0716 -0.5411
  510MPD2    C5 7632   0.172   1.599  14.424  0.4755 -0.1635 -0.4728
  510MPD2     H 7633   0.355   1.383  14.679  0.0145  2.4323  3.0284
  510MPD2    H1 7634   0.356   1.623  14.320  2.2688 -4.5037 -1.4298
  510MPD2    H2 7635   4.736   1.566  14.508  1.3242  2.5962 -0.7295
  510MPD2    H3 7636   0.127   1.661  14.347  1.3961  0.6836 -0.3267
  510MPD2     N 7637   0.515   1.482  14.503 -0.5560  0.1026  0.4720
  510MPD2    H5 7638   0.558   1.461  14.592 -0.6801  1.7487  0.9218
  510MPD2    N1 7639   0.092   1.408  14.724 -0.2575 -0.1017  0.1199
  510MPD2    H7 7640   4.736   1.417  14.706 -0.4868 -0.1358  1.3967
  511TMC3    C1 7641   0.038   1.313  14.926 -0.0885 -0.2240 -0.4026
  511TMC3    C2 7642   0.039   1.344  15.061 -0.3646  0.5378  0.2683
  511TMC3    C3 7643   4.720   1.249  15.145 -0.1547  0.6071  0.2348
  511TMC3    C4 7644   4.731   1.194  14.876  0.0305  0.4034  0.1832
  511TMC3    C5 7645   4.675   1.113  14.968 -0.3757 -0.0749  0.0860
  511TMC3    C6 7646   4.669   1.133  15.099  0.1483  0.0174 -0.3477
  511TMC3     C 7647   0.146   1.359  14.843  0.3277  0.5853 -0.2470
  511TMC3     O 7648   0.255   1.368  14.887  0.2565 -0.5352 -0.0083
  511TMC3     H 7649   0.077   1.440  15.095 -0.2968  0.6757 -0.1949
  511TMC3    H1 7650   4.718   1.180  14.770  0.8013 -0.6673  0.2211
  511TMC3    H2 7651   4.636   1.062  15.174 -0.5853 -0.9493 -1.5882
  511TMC3    C7 7652   4.613   0.990  14.914 -0.3767 -0.6783 -0.8426
  511TMC3    C8 7653   4.722   1.284  15.288 -0.1920  0.0191  0.1727
  511TMC3    O1 7654   4.618   0.979  14.793  0.5990  0.3181  0.3763
  511TMC3    O2 7655   0.049   1.380  15.319  0.0828  0.7200 -0.5118
  512TMC3    C1 7656   3.625   0.859  13.599  0.3609  0.1079 -0.6655
  512TMC3    C2 7657   3.748   0.813  13.623  0.3059 -0.5166  0.3715
  512TMC3    C3 7658   3.763   0.677  13.635 -0.0538  0.2243  0.2547
  512TMC3    C4 7659   3.514   0.783  13.600  0.5187 -0.9211  0.3153
  512TMC3    C5 7660   3.536   0.653  13.629  0.2257  0.3458 -0.1467
  512TMC3    C6 7661   3.655   0.593  13.647 -0.6328 -0.3581 -0.6881
  512TMC3     C 7662   3.612   1.002  13.587  0.0726  0.1706  0.4516
  512TMC3     O 7663   3.708   1.064  13.555  0.2265 -0.4082  0.0576
  512TMC3     H 7664   3.829   0.885  13.613 -0.0901  0.0468  1.1521
  512TMC3    H1 7665   3.415   0.817  13.572  1.5540  0.9892 -1.0467
  512TMC3    H2 7666   3.679   0.487  13.653 -2.8010 -0.8048  0.0534
  512TMC3    C7 7667   3.435   0.564  13.587  0.3402 -0.1973  0.0929
  512TMC3    C8 7668   3.885   0.626  13.691  0.4203  0.3609  0.1095
  512TMC3    O1 7669   3.319   0.580  13.615  0.2485  0.1287 -0.4849
  512TMC3    O2 7670   3.916   0.507  13.675 -0.0487  0.1248 -0.0456
  513MPD2     C 7671   0.691   1.324  13.059  0.1696 -0.0168  0.0400
  513MPD2    C1 7672   0.749   1.204  13.005  0.4864  0.0770 -0.0019
  513MPD2    C2 7673   0.740   1.091  13.085  0.4039 -0.3863 -0.6744
  513MPD2    C3 7674   0.693   1.098  13.213  0.0027  0.3800  0.1051
  513MPD2    C4 7675   0.632   1.209  13.257  0.4177  0.3928  0.0899
  513MPD2    C5 7676   0.640   1.326  13.187  0.6964 -0.5635 -0.3455
  513MPD2     H 7677   0.775   0.996  13.047 -0.7533 -0.7910 -0.7546
  513MPD2    H1 7678   0.605   1.216  13.362 -0.3139 -0.5443 -0.0385
  513MPD2    H2 7679   0.679   1.408  12.992 -1.0818 -1.8859 -2.0785
  513MPD2    H3 7680   0.599   1.419  13.225  2.5429  0.5287 -1.0269
  513MPD2     N 7681   0.708   0.976  13.284 -0.0926 -0.3842 -0.0417
  513MPD2    H5 7682   0.749   0.894  13.240 -1.3622 -1.8762  1.5183
  513MPD2    N1 7683   0.799   1.192  12.873  0.0210  0.0750 -1.0489
  513MPD2    H7 7684   0.825   1.099  12.842  0.6526  0.4563 -1.6635
  514TMC3    C1 7685   0.862   1.227  12.664 -0.8088  0.0533  0.6468
  514TMC3    C2 7686   0.980   1.277  12.639 -1.3028  0.5598  0.1519
  514TMC3    C3 7687   1.073   1.186  12.605 -0.4678 -0.4740 -0.0233
  514TMC3    C4 7688   0.828   1.092  12.657 -1.1945  0.5922  0.4236
  514TMC3    C5 7689   0.934   1.008  12.634 -0.0935  0.2237  0.3604
  514TMC3    C6 7690   1.060   1.051  12.607 -0.2701 -0.7037  0.2121
  514TMC3     C 7691   0.811   1.293  12.783  0.3025 -0.2333  0.2586
  514TMC3     O 7692   0.814   1.415  12.789  0.4067 -0.5504  0.9676
  514TMC3     H 7693   1.007   1.381  12.647  2.2884 -0.4837  1.8352
  514TMC3    H1 7694   0.729   1.049  12.669 -0.7170 -0.6807 -0.2274
  514TMC3    H2 7695   1.141   0.983  12.585  0.0213  0.0774 -1.1835
  514TMC3    C7 7696   0.915   0.890  12.717 -0.1730 -0.5253 -0.0365
  514TMC3    C8 7697   1.212   1.233  12.597  0.5945 -0.0529  0.3504
  514TMC3    O1 7698   0.821   0.897  12.796  0.2424  0.5231  0.2212
  514TMC3    O2 7699   1.238   1.322  12.678  0.5624 -0.0068 -0.1804
  515MPD2     C 7700   4.571   2.639  14.776 -0.1902 -0.0228 -0.1599
  515MPD2    C1 7701   4.452   2.687  14.823 -0.9702  0.5676 -0.0710
  515MPD2    C2 7702   4.429   2.819  14.852 -0.0131 -1.1409  0.2364
  515MPD2    C3 7703   4.534   2.916  14.829 -0.3845  1.0578  0.4984
  515MPD2    C4 7704   4.655   2.867  14.767  0.5557 -0.2378  0.6072
  515MPD2    C5 7705   4.674   2.728  14.752  0.1922  0.5835 -0.4429
  515MPD2     H 7706   4.335   2.845  14.898  1.0884 -1.5899  2.7899
  515MPD2    H1 7707   4.733   2.937  14.741 -0.5809  1.0374  0.6543
  515MPD2    H2 7708   4.586   2.535  14.750  3.5023  0.6124 -0.5514
  515MPD2    H3 7709   0.026   2.691  14.716  0.5881  0.1379  1.0652
  515MPD2     N 7710   4.510   3.049  14.845  0.4937 -0.3835  0.0802
  515MPD2    H5 7711   4.591   3.107  14.828 -1.2254  2.0703  0.1300
  515MPD2    N1 7712   4.342   2.596  14.840 -0.3942  0.1694  0.3240
  515MPD2    H7 7713   4.256   2.637  14.874  0.4369  1.0763  1.3311
  516TMC3    C1 7714   4.211   2.409  14.816 -0.6049 -0.4761  0.4955
  516TMC3    C2 7715   4.127   2.471  14.724  0.4149 -0.0793  0.1213
  516TMC3    C3 7716   4.018   2.405  14.697 -0.5848 -0.1095  0.6672
  516TMC3    C4 7717   4.176   2.293  14.881  0.0502  0.9552  0.4028
  516TMC3    C5 7718   4.056   2.236  14.851  0.3179  0.1961  0.0323
  516TMC3    C6 7719   3.979   2.287  14.753  0.3841  0.3547 -0.2457
  516TMC3     C 7720   4.349   2.456  14.839  0.5664 -0.7977  0.0950
  516TMC3     O 7721   4.439   2.375  14.823 -0.5799  0.5534 -0.3551
  516TMC3     H 7722   4.169   2.545  14.658  1.8525 -0.4416  0.6196
  516TMC3    H1 7723   4.240   2.242  14.951  2.1358  1.1129 -1.3826
  516TMC3    H2 7724   3.882   2.255  14.716  0.4266  0.8736 -0.8073
  516TMC3    C7 7725   4.034   2.112  14.925  0.3273 -0.1532  0.8924
  516TMC3    C8 7726   3.927   2.474  14.609 -0.2080 -0.5701  0.0820
  516TMC3    O1 7727   4.082   2.107  15.041  0.3325 -0.8866  0.4290
  516TMC3    O2 7728   3.816   2.504  14.655  0.8301 -0.5244 -0.7545
  517MPD2     C 7729   4.043   4.087   0.318 -0.0170 -0.5266 -0.5171
  517MPD2    C1 7730   4.136   4.122   0.223  0.2544 -0.2010  0.0914
  517MPD2    C2 7731   4.206   4.240   0.238 -0.2478  1.0271  0.8632
  517MPD2    C3 7732   4.193   4.323   0.351  0.4696  0.5261  0.1511
  517MPD2    C4 7733   4.096   4.289   0.444  0.0567  0.3747 -0.1635
  517MPD2    C5 7734   4.026   4.171   0.427 -0.1289 -1.0002  0.0382
  517MPD2     H 7735   4.287   4.265   0.170 -1.4134  0.4141 -0.7437
  517MPD2    H1 7736   4.061   4.345   0.530 -1.7348 -0.4269 -0.3567
  517MPD2    H2 7737   3.983   3.997   0.315 -3.2971  1.6292 -0.0964
  517MPD2    H3 7738   3.955   4.150   0.506 -0.1202  0.4458  0.4343
  517MPD2     N 7739   4.283   4.428   0.365 -0.0261  0.9256 -0.6648
  517MPD2    H5 7740   4.352   4.439   0.292 -1.9469  1.1630 -2.4473
  517MPD2    N1 7741   4.170   4.039   0.107 -0.6156  0.1398 -0.2246
  517MPD2    H7 7742   4.228   4.089   0.041  0.6447  1.4825  1.9309
  518TMC3    C1 7743   4.149   3.842  17.744  0.3890  0.7592  0.2193
  518TMC3    C2 7744   4.123   3.709  17.727  0.7278 -1.2226  0.5790
  518TMC3    C3 7745   4.114   3.654  17.604 -0.3601  0.1791  0.7026
  518TMC3    C4 7746   4.202   3.911  17.632  0.6974  0.8127 -0.2221
  518TMC3    C5 7747   4.215   3.847  17.508  0.2083  0.3942 -0.2999
  518TMC3    C6 7748   4.171   3.720  17.501 -0.5617 -0.0896  0.0756
  518TMC3     C 7749   4.111   3.911   0.095 -0.2024 -0.4880 -0.7627
  518TMC3     O 7750   4.047   3.844   0.178 -0.1309 -0.0591  0.1867
  518TMC3     H 7751   4.064   3.659   0.034 -2.6585  0.0614 -1.2033
  518TMC3    H1 7752   4.222   4.017  17.641  3.3714  0.1291  1.8702
  518TMC3    H2 7753   4.180   3.666  17.407 -0.0388  1.3056 -0.6680
  518TMC3    C7 7754   4.338   3.880  17.436  0.6251 -0.4196 -0.4051
  518TMC3    C8 7755   4.136   3.511  17.600 -0.2295 -0.3703  0.9528
  518TMC3    O1 7756   4.393   3.986  17.464  0.4575  0.2536  0.0657
  518TMC3    O2 7757   4.149   3.459  17.487 -0.2656  0.1483 -0.4515
  519MPD2     C 7758   0.379   2.488  14.491  0.0845 -0.1663 -0.2735
  519MPD2    C1 7759   0.402   2.472  14.362  0.1818 -0.2039  0.5230
  519MPD2    C2 7760   0.446   2.353  14.313 -0.5150 -0.2184 -0.2797
  519MPD2    C3 7761   0.475   2.252  14.406  0.0650 -0.0777  0.7095
  519MPD2    C4 7762   0.465   2.275  14.540  0.6421  0.3579 -0.3773
  519MPD2    C5 7763   0.412   2.392  14.583  0.2426  0.7817 -0.0639
  519MPD2     H 7764   0.445   2.330  14.207  1.7754 -4.5683  0.6707
  519MPD2    H1 7765   0.485   2.200  14.615  1.0799  1.7627  0.9040
  519MPD2    H2 7766   0.352   2.585  14.532  0.7958 -0.6498  1.3555
  519MPD2    H3 7767   0.410   2.414  14.689 -0.8449  0.9453 -0.1193
  519MPD2     N 7768   0.509   2.116  14.371 -0.3658  0.2129 -0.4520
  519MPD2    H5 7769   0.548   2.053  14.439 -0.1888 -0.4862 -1.1967
  519MPD2    N1 7770   0.395   2.585  14.277  0.6642 -0.2674  0.4868
  519MPD2    H7 7771   0.357   2.671  14.316 -1.9971 -1.0138 -0.4644
  520TMC3    C1 7772   0.576   1.943  14.232 -0.2873  0.8535  0.9097
  520TMC3    C2 7773   0.531   1.863  14.134  0.5003  0.0661  0.5830
  520TMC3    C3 7774   0.621   1.793  14.055 -0.2422 -0.1859 -0.4736
  520TMC3    C4 7775   0.703   1.956  14.260  0.3173 -0.1911  0.5949
  520TMC3    C5 7776   0.789   1.868  14.195 -0.4084 -0.8024 -0.1702
  520TMC3    C6 7777   0.751   1.789  14.089  0.2137 -0.2858 -0.1040
  520TMC3     C 7778   0.506   2.070  14.240 -0.3015  0.1980 -0.2871
  520TMC3     O 7779   0.451   2.122  14.140 -0.3124  0.6968  0.0618
  520TMC3     H 7780   0.425   1.845  14.122 -0.0002  3.9478 -0.6640
  520TMC3    H1 7781   0.729   2.014  14.348 -0.8902  0.2044  0.6925
  520TMC3    H2 7782   0.817   1.718  14.041 -0.4672 -0.0310 -1.4146
  520TMC3    C7 7783   0.934   1.876  14.225  0.0562  0.2398  0.2324
  520TMC3    C8 7784   0.583   1.753  13.920 -0.0809  0.5746 -0.0356
  520TMC3    O1 7785   0.959   1.918  14.337  0.3932  0.0023 -0.0797
  520TMC3    O2 7786   0.663   1.687  13.855  0.2418 -0.5953  0.1849
  521MPD2     C 7787   1.699   0.876  17.515 -0.5277  0.3459  0.0515
  521MPD2    C1 7788   1.653   0.778  17.432 -0.2482  0.5148  0.2285
  521MPD2    C2 7789   1.742   0.731  17.337  0.0352 -0.3251 -0.0336
  521MPD2    C3 7790   1.869   0.789  17.323 -0.6328  0.4786 -0.2048
  521MPD2    C4 7791   1.916   0.885  17.407 -0.0367  0.2400 -0.6311
  521MPD2    C5 7792   1.829   0.926  17.509  0.6325  0.3594 -0.0127
  521MPD2     H 7793   1.713   0.655  17.265  0.1964  1.3100 -1.8315
  521MPD2    H1 7794   2.009   0.939  17.395  1.1355 -1.4893  0.7071
  521MPD2    H2 7795   1.642   0.922  17.595 -1.2061 -0.0629 -0.1994
  521MPD2    H3 7796   1.860   1.007  17.575 -0.9401  0.0912  1.0603
  521MPD2     N 7797   1.944   0.746  17.209  0.1109 -0.3665  0.5439
  521MPD2    H5 7798   1.895   0.688  17.142  0.7085 -1.4121  1.0012
  521MPD2    N1 7799   1.530   0.721  17.457  0.4002  0.5707  0.1954
  521MPD2    H7 7800   1.489   0.761  17.541  1.0054  1.1563  0.2176
  522TMC3    C1 7801   2.119   0.694  17.070 -0.2756  0.1294  0.4969
  522TMC3    C2 7802   2.251   0.651  17.080  0.2188 -0.0082 -0.7849
  522TMC3    C3 7803   2.286   0.540  17.009 -0.4839  0.4006 -1.0406
  522TMC3    C4 7804   2.043   0.659  16.964 -0.5072 -0.2358  0.7104
  522TMC3    C5 7805   2.094   0.571  16.875  0.5345 -0.9211 -0.3541
  522TMC3    C6 7806   2.208   0.500  16.904  1.0425  0.5572 -0.8240
  522TMC3     C 7807   2.075   0.780  17.176  0.0668  0.1037 -0.0765
  522TMC3     O 7808   2.155   0.846  17.240  0.1760  0.2768 -0.3953
  522TMC3     H 7809   2.319   0.696  17.152 -0.5208  0.2027 -0.2207
  522TMC3    H1 7810   1.947   0.708  16.949 -0.7961 -1.2214 -0.7311
  522TMC3    H2 7811   2.252   0.443  16.824 -1.0531 -2.6099  0.2721
  522TMC3    C7 7812   2.078   0.590  16.730  0.0656  0.2199 -0.1857
  522TMC3    C8 7813   2.394   0.456  17.058  0.0252  0.1739 -0.0372
  522TMC3    O1 7814   2.179   0.582  16.661 -0.2052  0.0862 -0.2583
  522TMC3    O2 7815   2.487   0.523  17.103 -0.5835  0.2928  0.0079
  523MPD2     C 7816   4.177   4.719  10.070  0.1621 -0.1520  0.4038
  523MPD2    C1 7817   4.058   4.675  10.119 -0.1255 -0.9461  0.5982
  523MPD2    C2 7818   3.945   4.742  10.083 -0.4948  0.0610  0.0601
  523MPD2    C3 7819   3.952   0.112   9.998  0.3253  0.5791  0.0987
  523MPD2    C4 7820   4.080   0.156   9.958  0.3036 -0.1462  0.5200
  523MPD2    C5 7821   4.192   0.092  10.003 -0.3807  1.0788 -0.5761
  523MPD2     H 7822   3.854   4.699  10.124 -0.1269 -0.9718 -0.1853
  523MPD2    H1 7823   4.101   0.238   9.891 -1.7043 -0.5499 -0.5989
  523MPD2    H2 7824   4.269   4.670  10.099  1.2648  0.3659 -2.2437
  523MPD2    H3 7825   4.287   0.113   9.955 -0.9273 -0.2595 -2.2220
  523MPD2     N 7826   3.839   0.175   9.944 -0.1736 -0.1061 -0.0202
  523MPD2    H5 7827   3.847   0.254   9.880 -0.8486  0.2887  0.3866
  523MPD2    N1 7828   4.062   4.558  10.209 -0.4097  0.5127 -0.2728
  523MPD2    H7 7829   4.157   4.532  10.234 -0.5824 -0.6935 -0.8436
  524TMC3    C1 7830   3.621   0.213   9.874  0.5807  0.3336 -0.4134
  524TMC3    C2 7831   3.516   0.150   9.828  0.0436 -0.0684 -0.3902
  524TMC3    C3 7832   3.427   0.229   9.763 -0.2649 -0.5100 -0.3154
  524TMC3    C4 7833   3.623   0.351   9.886  0.4283  0.2756  0.6158
  524TMC3    C5 7834   3.528   0.425   9.824  0.8036  0.2326  0.3691
  524TMC3    C6 7835   3.431   0.363   9.763 -0.0496 -0.6283  0.0516
  524TMC3     C 7836   3.712   0.135   9.952 -0.4402  0.2792 -0.0399
  524TMC3     O 7837   3.674   0.019   9.985 -0.6221 -0.3652 -0.1024
  524TMC3     H 7838   3.516   0.043   9.808 -1.7503 -0.0726 -0.3757
  524TMC3    H1 7839   3.700   0.396   9.949  1.6260 -1.0741  0.1150
  524TMC3    H2 7840   3.345   0.410   9.719  0.3981 -0.8991 -1.1132
  524TMC3    C7 7841   3.501   0.553   9.879 -0.1217 -0.5796 -0.2329
  524TMC3    C8 7842   3.337   0.169   9.667 -0.6201 -0.1010 -0.1679
  524TMC3    O1 7843   3.576   0.590   9.963  0.1390  0.9831 -0.1223
  524TMC3    O2 7844   3.230   0.222   9.655 -0.3651 -0.6622  0.2463
  525MPD2     C 7845   1.916   1.887  14.783  0.1216 -0.4130  0.1337
  525MPD2    C1 7846   2.038   1.836  14.830  0.1731 -0.1885 -0.0725
  525MPD2    C2 7847   2.154   1.870  14.765  0.0902 -0.1483 -0.2763
  525MPD2    C3 7848   2.152   1.944  14.648 -0.1911 -0.5123 -0.6609
  525MPD2    C4 7849   2.034   1.997  14.604 -0.3633  1.1053 -0.0082
  525MPD2    C5 7850   1.915   1.962  14.665  0.0328 -0.1801 -0.3781
  525MPD2     H 7851   2.247   1.837  14.812  1.0079  2.1200 -0.5160
  525MPD2    H1 7852   2.034   2.080  14.535  3.7541 -1.4292 -2.9978
  525MPD2    H2 7853   1.822   1.862  14.830 -0.8319 -1.0417 -2.0645
  525MPD2    H3 7854   1.823   2.003  14.625  0.2971  3.2090  2.4982
  525MPD2     N 7855   2.266   2.010  14.594 -0.0466 -0.1399  0.2849
  525MPD2    H5 7856   2.246   2.088  14.532 -2.0389 -0.9206 -0.0574
  525MPD2    N1 7857   2.054   1.752  14.943  0.0164  1.2506  0.2853
  525MPD2    H7 7858   2.143   1.739  14.989  1.4015 -0.3742 -2.8434
  526TMC3    C1 7859   1.972   1.622  15.123 -0.0448 -0.0124  1.3974
  526TMC3    C2 7860   1.880   1.628  15.221  0.7421 -1.0091  0.0933
  526TMC3    C3 7861   1.907   1.549  15.328 -0.4321  0.2495 -0.0704
  526TMC3    C4 7862   2.087   1.554  15.131 -0.6293  0.6978 -0.3275
  526TMC3    C5 7863   2.110   1.477  15.238  0.3207 -0.7876  0.6381
  526TMC3    C6 7864   2.022   1.471  15.342  0.4226  0.2867 -0.0899
  526TMC3     C 7865   1.941   1.709  15.018 -0.7508  0.1344 -0.2875
  526TMC3     O 7866   1.823   1.729  14.997 -0.1741 -0.1903 -0.2633
  526TMC3     H 7867   1.795   1.695  15.228  0.7462 -0.7740 -1.8782
  526TMC3    H1 7868   2.158   1.561  15.050 -0.4643  0.0819 -0.2428
  526TMC3    H2 7869   2.042   1.427  15.439  1.5632  0.4944 -0.2335
  526TMC3    C7 7870   2.238   1.409  15.262 -0.1154 -0.0942 -0.4296
  526TMC3    C8 7871   1.847   1.601  15.449  0.2889  0.3274 -0.8684
  526TMC3    O1 7872   2.261   1.353  15.367 -0.2975 -0.3445  0.0288
  526TMC3    O2 7873   1.798   1.709  15.450  0.2613  0.2749  0.1591
  527MPD2     C 7874   0.383   4.575   1.389 -0.0300 -0.5385  0.1831
  527MPD2    C1 7875   0.353   4.523   1.264  0.3553  0.6391  0.3426
  527MPD2    C2 7876   0.449   4.491   1.175  0.3870  0.9689 -0.4150
  527MPD2    C3 7877   0.579   4.514   1.215 -0.4861 -0.4256 -1.0568
  527MPD2    C4 7878   0.611   4.561   1.336  0.8934  0.2486  0.7330
  527MPD2    C5 7879   0.508   4.602   1.423 -0.2130 -0.3806 -0.4010
  527MPD2     H 7880   0.426   4.444   1.080 -0.7994  3.0424 -1.1705
  527MPD2    H1 7881   0.704   4.610   1.359  0.5344  1.5695 -0.6308
  527MPD2    H2 7882   0.308   4.609   1.459  2.2368  1.1206  1.8432
  527MPD2    H3 7883   0.523   4.644   1.522  1.5779  0.0217 -0.8385
  527MPD2     N 7884   0.666   4.448   1.129 -0.1321  0.1753  0.5544
  527MPD2    H5 7885   0.622   4.402   1.050 -0.4327  2.0877 -0.3915
  527MPD2    N1 7886   0.221   4.501   1.223 -0.3320 -0.1111  0.7173
  527MPD2    H7 7887   0.203   4.464   1.130 -2.5255  2.7038  0.0344
  528TMC3    C1 7888   4.735   4.454   1.243  0.2369  0.6457 -0.0884
  528TMC3    C2 7889   4.725   4.446   1.107 -1.1519 -0.4143  0.3152
  528TMC3    C3 7890   4.627   4.358   1.072 -0.2660  0.0261  0.2447
  528TMC3    C4 7891   4.649   4.393   1.333  0.7476 -0.3103  0.1438
  528TMC3    C5 7892   4.562   4.296   1.293  0.1075  0.6933  0.9771
  528TMC3    C6 7893   4.551   4.278   1.159  0.1180  0.2961  0.1151
  528TMC3     C 7894   0.111   4.516   1.305 -0.3353 -0.0769 -0.1620
  528TMC3     O 7895   0.088   4.563   1.416 -0.4504  0.2330 -0.3174
  528TMC3     H 7896   0.047   4.498   1.039 -0.3381  0.8583  2.0664
  528TMC3    H1 7897   4.674   4.394   1.438 -1.1639 -0.2832  0.5954
  528TMC3    H2 7898   4.476   4.207   1.126  0.8402 -0.7959  0.8063
  528TMC3    C7 7899   4.466   4.232   1.382  0.0187 -0.3058 -0.0734
  528TMC3    C8 7900   4.616   4.336   0.925  0.5755  0.3320  0.5566
  528TMC3    O1 7901   4.386   4.153   1.329  0.1847  0.1811 -0.7015
  528TMC3    O2 7902   4.697   4.398   0.860 -0.0199  0.4964 -0.6032
  529MPD2     C 7903   2.503   3.723   1.160 -0.0480 -0.7907  0.0163
  529MPD2    C1 7904   2.509   3.599   1.100 -0.3102  0.3357 -0.3693
  529MPD2    C2 7905   2.450   3.596   0.978  0.1746  0.5692 -0.0751
  529MPD2    C3 7906   2.398   3.701   0.911  0.4381 -0.0695 -0.6211
  529MPD2    C4 7907   2.399   3.824   0.974 -0.8756  0.0497  0.2342
  529MPD2    C5 7908   2.446   3.832   1.099  0.1079 -0.7115  1.2119
  529MPD2     H 7909   2.457   3.499   0.930  1.3550  1.0924 -0.9830
  529MPD2    H1 7910   2.366   3.918   0.931 -3.5123 -0.9715  0.0737
  529MPD2    H2 7911   2.532   3.727   1.264  1.7208  0.4180 -0.5223
  529MPD2    H3 7912   2.453   3.927   1.150  0.5137 -0.6684  1.0734
  529MPD2     N 7913   2.349   3.688   0.782  0.2479 -0.1569 -0.0847
  529MPD2    H5 7914   2.320   3.770   0.729 -0.2278  0.0489  0.4846
  529MPD2    N1 7915   2.575   3.484   1.143  0.1760 -0.1810 -0.2307
  529MPD2    H7 7916   2.565   3.397   1.091  1.0941 -0.6437  0.3636
  530TMC3    C1 7917   2.680   3.329   1.284 -0.4130  0.4679 -0.2353
  530TMC3    C2 7918   2.732   3.286   1.404 -0.3458 -0.0517 -0.2815
  530TMC3    C3 7919   2.787   3.158   1.410 -0.5461 -0.7694 -0.3399
  530TMC3    C4 7920   2.671   3.247   1.182  0.7374 -0.5168 -0.0557
  530TMC3    C5 7921   2.702   3.119   1.199  0.1480  0.2344 -0.5998
  530TMC3    C6 7922   2.761   3.071   1.310 -0.4103 -0.4188 -0.6982
  530TMC3     C 7923   2.648   3.466   1.262  0.1751  0.5069  0.4284
  530TMC3     O 7924   2.660   3.549   1.356 -0.2416 -0.2553  0.2952
  530TMC3     H 7925   2.735   3.349   1.493 -2.3559  0.4153 -0.5395
  530TMC3    H1 7926   2.650   3.280   1.080  2.0832 -0.9142 -0.4559
  530TMC3    H2 7927   2.802   2.971   1.318  0.5443  0.1572  1.6587
  530TMC3    C7 7928   2.721   3.033   1.094 -0.1146 -0.1331  0.0373
  530TMC3    C8 7929   2.895   3.140   1.508  0.1360  0.3012  0.4278
  530TMC3    O1 7930   2.761   3.075   0.988 -0.1428 -0.5061  0.3149
  530TMC3    O2 7931   2.887   3.209   1.606  0.3891 -0.2109 -0.0266
  531MPD2     C 7932   1.060   0.459  12.968 -0.3024 -0.1110  0.1389
  531MPD2    C1 7933   0.987   0.573  13.012  0.3822 -0.5108  0.8036
  531MPD2    C2 7934   0.957   0.663  12.915  1.0962  0.4726  0.2945
  531MPD2    C3 7935   1.008   0.669  12.783 -0.1198 -0.3807  0.5003
  531MPD2    C4 7936   1.087   0.570  12.747 -0.0773 -0.5219  0.0138
  531MPD2    C5 7937   1.109   0.465  12.840 -0.1431  0.2370 -0.7518
  531MPD2     H 7938   0.894   0.746  12.945  0.6787  0.6650 -1.0832
  531MPD2    H1 7939   1.144   0.574  12.655  0.1002 -1.4601  0.0845
  531MPD2    H2 7940   1.093   0.376  13.030 -0.0868 -1.9458 -2.4483
  531MPD2    H3 7941   1.175   0.386  12.804  1.4231  0.7226  1.0636
  531MPD2     N 7942   1.000   0.784  12.695 -0.5498  0.0316  0.1625
  531MPD2    H5 7943   1.061   0.789  12.614 -0.3580 -1.2996  0.2224
  531MPD2    N1 7944   0.952   0.587  13.149 -0.0849 -0.3405 -0.3942
  531MPD2    H7 7945   1.008   0.522  13.202  0.3496 -0.9406 -1.5881
  532TMC3    C1 7946   0.851   0.680  13.339 -0.0254  0.2700 -0.1356
  532TMC3    C2 7947   0.739   0.744  13.367  0.0446  0.8364 -0.1350
  532TMC3    C3 7948   0.735   0.841  13.465 -0.2318  0.2965  0.1008
  532TMC3    C4 7949   0.965   0.683  13.419  0.3453 -0.0528  0.0734
  532TMC3    C5 7950   0.957   0.769  13.528  0.4673 -0.9182 -0.2139
  532TMC3    C6 7951   0.845   0.852  13.543  0.3816 -0.0584 -0.6565
  532TMC3     C 7952   0.857   0.676  13.195 -0.9871  0.0602 -0.1066
  532TMC3     O 7953   0.782   0.754  13.136  0.4874 -0.4298  0.2570
  532TMC3     H 7954   0.655   0.727  13.301 -1.0926 -1.5969  1.9195
  532TMC3    H1 7955   1.057   0.639  13.384 -0.0669 -0.4360 -0.5459
  532TMC3    H2 7956   0.839   0.937  13.610 -0.1593 -0.8167  0.2553
  532TMC3    C7 7957   1.077   0.818  13.587  0.7041 -0.3499  0.1850
  532TMC3    C8 7958   0.688   0.969  13.419 -0.0892  0.5069 -0.4653
  532TMC3    O1 7959   1.078   0.933  13.623 -0.1694  0.0649  0.1991
  532TMC3    O2 7960   0.680   1.059  13.508 -0.3290 -0.8794 -0.1171
  533TMC3    C1 7961   2.446   2.156  14.641 -0.1810  0.6522 -0.8457
  533TMC3    C2 7962   2.581   2.163  14.663  0.2468  0.0395 -0.7161
  533TMC3    C3 7963   2.631   2.279  14.708 -0.2091  0.3715  0.7270
  533TMC3    C4 7964   2.357   2.261  14.673 -0.2790  0.5626  0.0059
  533TMC3    C5 7965   2.417   2.369  14.732 -0.2049  0.4456  0.5288
  533TMC3    C6 7966   2.552   2.385  14.742  0.2645 -0.8240 -0.5029
  533TMC3     C 7967   2.391   2.020  14.650 -0.3265 -0.2685  0.1088
  533TMC3     O 7968   2.460   1.950  14.717  0.1459 -0.0648 -0.1719
  533TMC3     H 7969   2.647   2.080  14.640 -1.2274 -1.8277  1.7641
  533TMC3    H1 7970   2.252   2.248  14.650 -0.0529  1.6499 -1.5954
  533TMC3    H2 7971   2.602   2.470  14.786  0.2714 -0.0732 -1.9682
  533TMC3    C7 7972   2.355   2.386  14.860 -0.3348  0.1844  0.2004
  533TMC3    C8 7973   2.772   2.307  14.704 -0.1175  0.1101  0.3437
  533TMC3    O1 7974   2.303   2.285  14.902 -0.5677 -0.7601 -0.6125
  533TMC3    O2 7975   2.812   2.404  14.766  0.0018 -0.0728  0.2976
  534MPD2     C 7976   0.729   3.216   0.810  0.5789  0.4163 -0.0592
  534MPD2    C1 7977   0.722   3.351   0.825 -0.2680 -0.2256 -0.7804
  534MPD2    C2 7978   0.601   3.406   0.834 -0.0811 -1.0288 -0.0163
  534MPD2    C3 7979   0.484   3.339   0.808 -0.1454 -0.7773 -0.2062
  534MPD2    C4 7980   0.487   3.202   0.794 -0.1176  0.2974 -0.2471
  534MPD2    C5 7981   0.615   3.145   0.788 -0.1923 -0.7301  0.4969
  534MPD2     H 7982   0.593   3.511   0.862  1.2732 -1.4319  1.9365
  534MPD2    H1 7983   0.403   3.133   0.787 -0.9473  1.1424  1.2635
  534MPD2    H2 7984   0.825   3.166   0.810  0.2902 -0.1462 -1.2281
  534MPD2    H3 7985   0.623   3.038   0.769 -1.3265 -0.8983  0.9222
  534MPD2     N 7986   0.357   3.392   0.804 -0.1295  0.4800  0.1131
  534MPD2    H5 7987   0.288   3.330   0.764  0.6681 -0.2586 -0.1107
  534MPD2    N1 7988   0.829   3.438   0.845  0.4880  0.0135  0.2449
  534MPD2    H7 7989   0.808   3.524   0.895  1.7988  0.3250  0.2810
  535TMC3    C1 7990   0.180   3.547   0.835  0.4290 -0.5313  0.0668
  535TMC3    C2 7991   0.120   3.610   0.940 -0.9212 -0.7586 -0.4423
  535TMC3    C3 7992   4.726   3.628   0.934 -0.4666  0.9075  0.1441
  535TMC3    C4 7993   0.120   3.503   0.723 -0.3440  0.1030  0.9713
  535TMC3    C5 7994   4.733   3.529   0.713  0.3859 -0.4319  0.2299
  535TMC3    C6 7995   4.665   3.586   0.818 -0.1934 -0.1250  0.0390
  535TMC3     C 7996   0.318   3.510   0.859  0.4082  0.7870  0.3505
  535TMC3     O 7997   0.380   3.578   0.936 -0.0208  0.8918 -0.2032
  535TMC3     H 7998   0.172   3.633   1.032  0.8471  1.1333 -1.9142
  535TMC3    H1 7999   0.181   3.461   0.643 -2.5634  0.2708 -0.8288
  535TMC3    H2 8000   4.559   3.599   0.798 -0.3933 -2.1932 -0.1787
  535TMC3    C7 8001   4.677   3.528   0.585  0.1799 -0.0421  0.6885
  535TMC3    C8 8002   4.641   3.638   1.054  0.8212 -0.1530  0.0547
  535TMC3    O1 8003   4.701   3.431   0.511  0.4628 -0.1879  0.4005
  535TMC3    O2 8004   4.523   3.607   1.028 -0.2015 -0.7059 -0.0299
  536MPD2     C 8005   3.669   1.631  16.490 -0.8436 -0.2564  0.1972
  536MPD2    C1 8006   3.532   1.597  16.500 -0.2448  0.2040 -0.1051
  536MPD2    C2 8007   3.444   1.636  16.403  0.4940 -1.0536 -0.2342
  536MPD2    C3 8008   3.491   1.718  16.298  0.3909  0.4951  1.1400
  536MPD2    C4 8009   3.628   1.753  16.295  0.2369  0.1258 -0.5236
  536MPD2    C5 8010   3.717   1.706  16.385 -0.7031  0.5923 -1.0621
  536MPD2     H 8011   3.343   1.597  16.404 -0.8614  2.5187 -0.0339
  536MPD2    H1 8012   3.662   1.817  16.214 -0.0467 -0.3502 -1.0295
  536MPD2    H2 8013   3.739   1.603  16.568 -1.2140 -1.7032  0.0185
  536MPD2    H3 8014   3.821   1.736  16.385 -1.3059  2.7455 -1.4534
  536MPD2     N 8015   3.405   1.760  16.201  0.2333 -0.6175  0.0387
  536MPD2    H5 8016   3.441   1.814  16.123  0.7854  0.2346  0.8918
  536MPD2    N1 8017   3.500   1.507  16.602  0.0587 -0.4386 -0.1692
  536MPD2    H7 8018   3.581   1.481  16.658 -2.1101  0.2083  3.2192
  537TMC3    C1 8019   3.375   1.378  16.748 -0.2687  0.3407 -0.6101
  537TMC3    C2 8020   3.448   1.424  16.852 -0.7888  0.4473 -0.7227
  537TMC3    C3 8021   3.428   1.356  16.971  0.0987 -0.5238 -0.5541
  537TMC3    C4 8022   3.293   1.273  16.757  1.4452  0.1186 -0.5906
  537TMC3    C5 8023   3.286   1.204  16.879 -0.0754  0.2837 -0.7774
  537TMC3    C6 8024   3.352   1.243  16.990  0.9250  0.5122  0.5913
  537TMC3     C 8025   3.378   1.442  16.628 -0.4158 -0.4405 -0.0154
  537TMC3     O 8026   3.270   1.464  16.576 -0.0119  1.0066  0.0954
  537TMC3     H 8027   3.493   1.522  16.848  1.4547 -0.6046 -1.5059
  537TMC3    H1 8028   3.238   1.234  16.673 -0.5179 -1.9597  1.6681
  537TMC3    H2 8029   3.336   1.196  17.086 -0.0057  0.0447  0.2095
  537TMC3    C7 8030   3.174   1.108  16.893  0.3750 -0.1488 -0.0688
  537TMC3    C8 8031   3.509   1.398  17.080  0.3148  0.0451 -0.8606
  537TMC3    O1 8032   3.069   1.131  16.832  0.3889 -0.1101  0.4289
  537TMC3    O2 8033   3.543   1.514  17.067  0.6798 -0.8774  0.0871
  538TMC3    C1 8034   4.331   4.385  11.026  0.1908  0.0768  0.1835
  538TMC3    C2 8035   4.471   4.384  11.007 -0.5646 -0.8882 -0.3069
  538TMC3    C3 8036   4.529   4.428  10.892  1.0718  0.0377 -0.5076
  538TMC3    C4 8037   4.245   4.439  10.929  0.2830  0.2683 -0.0654
  538TMC3    C5 8038   4.310   4.481  10.814 -0.7434  0.0499  0.3036
  538TMC3    C6 8039   4.446   4.467  10.790 -1.0705  0.5250 -0.3964
  538TMC3     C 8040   4.286   4.339  11.157 -0.4899 -0.1896  0.2063
  538TMC3     O 8041   4.170   4.292  11.154  0.4146  0.4498  0.0288
  538TMC3     H 8042   4.534   4.341  11.085  0.7391  3.6102  1.1153
  538TMC3    H1 8043   4.138   4.446  10.948  0.5916 -0.8989  2.0857
  538TMC3    H2 8044   4.481   4.490  10.690 -2.8783 -0.0311 -1.1720
  538TMC3    C7 8045   4.225   4.549  10.723 -0.4014 -0.2011  0.5430
  538TMC3    C8 8046   4.672   4.402  10.878 -0.0556  0.4625 -0.3352
  538TMC3    O1 8047   4.105   4.526  10.739  0.2522 -0.1957  0.0789
  538TMC3    O2 8048   4.729   4.342  10.967  0.3216 -0.2898 -0.1256
  539MPD2     C 8049   4.105   3.494  12.106 -0.2087  0.9521 -0.0713
  539MPD2    C1 8050   4.149   3.548  11.985 -0.3395  0.1418 -0.0183
  539MPD2    C2 8051   4.115   3.677  11.953 -0.1205 -0.1025 -0.3274
  539MPD2    C3 8052   4.034   3.755  12.043  0.2368  0.1074 -0.2424
  539MPD2    C4 8053   4.006   3.705  12.165 -0.2602  0.0000  0.1640
  539MPD2    C5 8054   4.036   3.576  12.193 -0.5081  0.1837 -0.2823
  539MPD2     H 8055   4.144   3.716  11.856 -0.9590  1.6491  0.1350
  539MPD2    H1 8056   3.940   3.753  12.236 -0.1857  1.1143 -0.5245
  539MPD2    H2 8057   4.125   3.393  12.141 -0.1552  0.7432 -0.7114
  539MPD2    H3 8058   4.003   3.529  12.285  1.9986  2.7761  1.9464
  539MPD2     N 8059   4.002   3.892  12.024  0.6430  0.2393  0.2081
  539MPD2    H5 8060   3.973   3.942  12.107  0.1559 -0.8075  0.6666
  539MPD2    N1 8061   4.242   3.479  11.902 -0.3137 -0.1414 -1.2185
  539MPD2    H7 8062   4.291   3.538  11.835  1.4491 -1.8560 -1.4532
  540TMC3    C1 8063   3.961   4.088  11.891  0.5104 -0.5252  0.1284
  540TMC3    C2 8064   3.881   4.111  11.782  0.0564 -0.6072 -0.0801
  540TMC3    C3 8065   3.858   4.242  11.746 -0.1162 -0.0527 -0.3243
  540TMC3    C4 8066   4.019   4.177  11.973 -0.0070 -0.0352  0.1332
  540TMC3    C5 8067   3.987   4.306  11.937  0.3074  0.1044  0.6531
  540TMC3    C6 8068   3.916   4.343  11.824  0.2825  0.2689 -0.7080
  540TMC3     C 8069   4.020   3.958  11.901 -0.8691 -0.1716 -0.1932
  540TMC3     O 8070   4.049   3.915  11.789  0.2998 -0.0584 -0.1333
  540TMC3     H 8071   3.832   4.029  11.731 -0.8330 -0.0780 -0.0805
  540TMC3    H1 8072   4.080   4.150  12.058  1.0189 -1.1230 -0.9424
  540TMC3    H2 8073   3.863   4.437  11.815 -0.8457 -0.3423 -0.4219
  540TMC3    C7 8074   3.994   4.408  12.036 -0.2961 -1.0498 -0.0661
  540TMC3    C8 8075   3.825   4.278  11.610  0.0656 -0.0587 -0.3866
  540TMC3    O1 8076   3.990   4.522  11.991  0.6187  0.5169 -0.1148
  540TMC3    O2 8077   3.818   4.392  11.570  0.0482  0.2613 -0.0376
  541MPD2     C 8078   2.603   0.924  13.517  0.3254 -0.5222  0.5605
  541MPD2    C1 8079   2.497   0.980  13.454  0.0687 -0.0453  0.0186
  541MPD2    C2 8080   2.514   1.021  13.320 -0.2267 -0.1131  0.4078
  541MPD2    C3 8081   2.635   0.995  13.253  0.2501 -0.8016 -0.3046
  541MPD2    C4 8082   2.733   0.930  13.320 -0.1344 -0.4103 -0.3211
  541MPD2    C5 8083   2.718   0.909  13.451 -0.0270  0.1100  0.6133
  541MPD2     H 8084   2.422   1.050  13.271 -0.0307  1.1094  0.7588
  541MPD2    H1 8085   2.829   0.897  13.283  0.7155  3.1213 -1.2562
  541MPD2    H2 8086   2.599   0.912  13.624  1.0414 -0.4488  0.5934
  541MPD2    H3 8087   2.799   0.867  13.510  1.2684 -0.4866 -1.5885
  541MPD2     N 8088   2.656   1.018  13.111  0.0502 -0.1420 -0.1213
  541MPD2    H5 8089   2.746   0.997  13.071  0.5088  2.3564 -0.4454
  541MPD2    N1 8090   2.371   0.979  13.506 -0.1429  0.0443  0.6628
  541MPD2    H7 8091   2.295   1.014  13.449 -0.8534 -0.9591  0.9989
  542TMC3    C1 8092   2.629   1.097  12.893 -0.5891  0.5411 -0.3379
  542TMC3    C2 8093   2.734   1.017  12.853  0.1721 -0.3413 -0.4745
  542TMC3    C3 8094   2.814   1.062  12.746  0.2358  0.3820 -0.9548
  542TMC3    C4 8095   2.605   1.219  12.844  0.3258 -0.1367  0.1742
  542TMC3    C5 8096   2.693   1.265  12.744  0.7557  1.3946  0.0226
  542TMC3    C6 8097   2.801   1.192  12.695  0.0782  0.9723 -0.2710
  542TMC3     C 8098   2.570   1.079  13.024 -0.9705 -0.1409  0.3579
  542TMC3     O 8099   2.463   1.140  13.041  0.1083 -0.2788  0.6619
  542TMC3     H 8100   2.758   0.924  12.903  0.1079 -0.7227 -1.1579
  542TMC3    H1 8101   2.539   1.289  12.896 -0.4642 -0.4424 -0.4203
  542TMC3    H2 8102   2.856   1.243  12.617 -1.7282  2.7009 -0.4003
  542TMC3    C7 8103   2.694   1.411  12.730  1.1944  0.1494 -0.3513
  542TMC3    C8 8104   2.904   0.966  12.687  0.2437 -0.4617 -0.0549
  542TMC3    O1 8105   2.798   1.462  12.689 -0.2664  0.1002 -0.2459
  542TMC3    O2 8106   2.926   0.856  12.742  0.1133  0.1076  0.2035
  543TMC3    C1 8107   2.402   2.473  17.552  0.1452  0.3697 -0.8502
  543TMC3    C2 8108   2.462   2.406  17.642 -0.0158  0.4555 -0.6395
  543TMC3    C3 8109   2.422   2.406   0.006 -0.1962 -0.2262 -0.3496
  543TMC3    C4 8110   2.300   2.554  17.579  0.1721 -0.2523  0.0516
  543TMC3    C5 8111   2.257   2.556  17.711 -0.0731 -0.3026 -0.4792
  543TMC3    C6 8112   2.313   2.482   0.038  0.3769  0.0024 -0.5907
  543TMC3     C 8113   2.424   2.459  17.413  0.2949 -0.6453 -0.0200
  543TMC3     O 8114   2.417   2.566  17.346 -0.2701 -0.2062  0.2125
  543TMC3     H 8115   2.545   2.340  17.620  0.5363  0.5062  1.2292
  543TMC3    H1 8116   2.244   2.603  17.500  1.7470  1.4223 -0.0254
  543TMC3    H2 8117   2.282   2.480   0.142 -1.2261  0.9787 -1.0367
  543TMC3    C7 8118   2.148   2.636  17.752  1.0656 -0.2786 -0.1573
  543TMC3    C8 8119   2.420   2.278   0.071 -0.1031 -0.5807 -0.3115
  543TMC3    O1 8120   2.108   2.622   0.097 -0.1054  0.3061 -0.1231
  543TMC3    O2 8121   2.504   2.197   0.052  0.1700  0.3023 -0.4075
  544MPD2     C 8122   2.103   1.870   0.139 -0.1896  0.0351 -0.1344
  544MPD2    C1 8123   2.236   1.873   0.109  0.1141 -0.2346 -0.1878
  544MPD2    C2 8124   2.300   1.992   0.095 -0.4739 -0.5346  0.1695
  544MPD2    C3 8125   2.236   2.115   0.114  0.5787 -0.0603  0.0012
  544MPD2    C4 8126   2.098   2.107   0.142  0.0773 -0.4485  0.5062
  544MPD2    C5 8127   2.031   1.988   0.142 -0.2385  0.2077 -0.3131
  544MPD2     H 8128   2.403   1.991   0.062 -0.8230  0.0351 -0.9396
  544MPD2    H1 8129   2.043   2.199   0.158 -0.4726 -0.8688  1.0032
  544MPD2    H2 8130   2.047   1.778   0.149 -1.3394  0.8497  1.0065
  544MPD2    H3 8131   1.925   1.993   0.167 -0.3086 -0.4717 -0.4723
  544MPD2     N 8132   2.292   2.246   0.095  0.6829  0.0618  0.4634
  544MPD2    H5 8133   2.218   2.314   0.105  1.4504  1.0563 -0.7360
  544MPD2    N1 8134   2.299   1.746   0.093 -0.8139 -0.3262 -0.1567
  544MPD2    H7 8135   2.244   1.669   0.129 -0.7127 -1.4708 -2.4973
  545TMC3    C1 8136   2.448   1.571   0.065  1.0508 -0.2955 -0.2556
  545TMC3    C2 8137   2.574   1.528   0.041 -0.2015 -0.3865  0.7981
  545TMC3    C3 8138   2.594   1.399   0.011  0.5632 -0.8294 -0.4170
  545TMC3    C4 8139   2.337   1.486   0.074 -0.7947  0.1809  0.0099
  545TMC3    C5 8140   2.364   1.359   0.048 -0.7181 -0.0791  0.0960
  545TMC3    C6 8141   2.486   1.315  17.769  0.0486 -0.4076  0.0766
  545TMC3     C 8142   2.432   1.718   0.080  0.5658  0.4916 -0.3413
  545TMC3     O 8143   2.537   1.784   0.086 -0.0881 -0.1234 -0.0369
  545TMC3     H 8144   2.661   1.591   0.056  0.0441 -0.8910  1.4483
  545TMC3    H1 8145   2.237   1.514   0.103 -0.6591 -1.0296  1.6370
  545TMC3    H2 8146   2.501   1.213  17.734 -1.1838 -0.8047  0.7035
  545TMC3    C7 8147   2.251   1.269   0.031 -0.2586 -0.7813  0.6487
  545TMC3    C8 8148   2.729   1.351  17.766  0.3906 -0.2918  0.2463
  545TMC3    O1 8149   2.140   1.319   0.004  0.1055 -0.0928  0.4055
  545TMC3    O2 8150   2.808   1.440  17.739 -0.0200  0.5023 -0.0973
  546MPD2     C 8151   3.844   2.129  17.574 -0.2110  0.0047  0.0754
  546MPD2    C1 8152   3.840   2.153  17.442  0.4456 -0.5449  0.7225
  546MPD2    C2 8153   3.901   2.277  17.395 -0.4571  0.3173 -0.1750
  546MPD2    C3 8154   3.969   2.357  17.482 -0.2909  0.4420 -0.3619
  546MPD2    C4 8155   3.970   2.330  17.621 -0.5862  0.3135 -0.0574
  546MPD2    C5 8156   3.903   2.213  17.660 -0.0049  0.2144  0.2987
  546MPD2     H 8157   3.886   2.309  17.293  0.6938  0.5988 -0.2519
  546MPD2    H1 8158   4.023   2.388  17.696  1.3977 -2.1256  0.4627
  546MPD2    H2 8159   3.795   2.041  17.614  1.3618 -0.7479  0.3403
  546MPD2    H3 8160   3.903   2.191  17.766 -0.7289  1.4705  0.5659
  546MPD2     N 8161   4.024   2.482  17.447  0.1867 -0.2235  0.2532
  546MPD2    H5 8162   4.053   2.544  17.522  0.6077 -1.1625  0.8792
  546MPD2    N1 8163   3.766   2.067  17.353  0.0281 -0.3148 -0.1559
  546MPD2    H7 8164   3.705   2.000  17.399  1.6090 -2.2080 -0.8497
  547TMC3    C1 8165   3.640   2.017  17.156  0.1277 -0.2150  0.8057
  547TMC3    C2 8166   3.591   2.065  17.040 -0.0369  0.5498  0.7335
  547TMC3    C3 8167   3.475   2.002  16.997  0.0502 -0.0677  0.5108
  547TMC3    C4 8168   3.585   1.914  17.228 -0.4163 -0.3325  0.9526
  547TMC3    C5 8169   3.465   1.860  17.181  0.9678 -0.6498 -0.1726
  547TMC3    C6 8170   3.407   1.907  17.065  0.7701 -0.3487  0.5653
  547TMC3     C 8171   3.749   2.093  17.220  0.5037 -0.0739 -0.0060
  547TMC3     O 8172   3.811   2.162  17.142 -0.4648  0.2907  0.2077
  547TMC3     H 8173   3.626   2.157  16.995  0.4703  0.1095  0.2313
  547TMC3    H1 8174   3.642   1.868  17.308 -0.0771  2.5879  2.3902
  547TMC3    H2 8175   3.316   1.867  17.020 -0.3065 -1.1399  3.4875
  547TMC3    C7 8176   3.388   1.778  17.273  0.5622  0.4490  0.2537
  547TMC3    C8 8177   3.382   2.079  16.910 -0.1223 -0.5276 -0.2455
  547TMC3    O1 8178   3.426   1.761  17.385 -0.1459  0.9674 -0.1114
  547TMC3    O2 8179   3.264   2.082  16.933  0.5505 -0.2011  0.3354
  548MPD2     C 8180   2.606   2.538  12.780  0.2144  0.5439  0.6027
  548MPD2    C1 8181   2.638   2.410  12.823 -0.0847 -0.3867 -0.1292
  548MPD2    C2 8182   2.766   2.363  12.803  0.5750  0.2936 -0.0293
  548MPD2    C3 8183   2.870   2.452  12.778  0.0582  0.2215 -0.1383
  548MPD2    C4 8184   2.838   2.587  12.745  0.1369  0.1074 -0.5601
  548MPD2    C5 8185   2.704   2.628  12.759 -0.2070 -0.0302  0.0663
  548MPD2     H 8186   2.801   2.266  12.835 -0.7403  0.2082  1.1024
  548MPD2    H1 8187   2.911   2.666  12.731 -1.3308  1.5230 -0.1452
  548MPD2    H2 8188   2.508   2.586  12.781  0.9792  2.1109  1.0218
  548MPD2    H3 8189   2.670   2.730  12.743 -2.1228 -0.3733  1.9285
  548MPD2     N 8190   3.002   2.397  12.778 -0.4958  0.0205 -0.3714
  548MPD2    H5 8191   3.014   2.299  12.801 -0.8930  0.4036  1.4456
  548MPD2    N1 8192   2.523   2.324  12.847  0.1000  0.4691  0.2253
  548MPD2    H7 8193   2.434   2.364  12.819 -0.5979 -0.7963  0.6535
  549TMC3    C1 8194   2.399   2.140  12.926 -0.3921 -0.0248 -0.7262
  549TMC3    C2 8195   2.282   2.220  12.924  0.9860  0.3131 -0.9403
  549TMC3    C3 8196   2.160   2.160  12.939  0.1075 -0.3532  0.2008
  549TMC3    C4 8197   2.396   2.003  12.955 -0.0568 -0.4998 -0.0739
  549TMC3    C5 8198   2.271   1.949  12.976 -0.3175 -0.1760 -0.2799
  549TMC3    C6 8199   2.156   2.024  12.956  0.0250  0.0673 -0.2969
  549TMC3     C 8200   2.531   2.200  12.898  0.5967  0.3783 -0.8833
  549TMC3     O 8201   2.635   2.144  12.936  0.0617  0.3259 -0.5034
  549TMC3     H 8202   2.285   2.326  12.902  1.0781  0.5290  0.0974
  549TMC3    H1 8203   2.497   1.967  12.971 -0.0669 -1.0994 -1.3666
  549TMC3    H2 8204   2.056   1.982  12.968  0.4643 -1.0584 -0.5893
  549TMC3    C7 8205   2.252   1.803  13.008  0.3903  0.1355  0.6445
  549TMC3    C8 8206   2.043   2.236  12.901 -0.5872  0.0131 -0.0922
  549TMC3    O1 8207   2.139   1.755  13.013  0.0782 -0.7543  0.0877
  549TMC3    O2 8208   1.942   2.214  12.962 -0.4946 -0.1428 -0.0454
  550TMC3    C1 8209   2.532   0.694  12.468 -0.0323 -0.6892  0.2661
  550TMC3    C2 8210   2.417   0.718  12.532 -0.2219  0.4524  0.4627
  550TMC3    C3 8211   2.397   0.842  12.567  0.4270  0.4967 -0.5295
  550TMC3    C4 8212   2.625   0.793  12.435  0.4788  0.5382  0.4620
  550TMC3    C5 8213   2.612   0.914  12.495  0.3255 -0.1480  0.1282
  550TMC3    C6 8214   2.495   0.939  12.565  0.7268  0.3528 -0.7386
  550TMC3     C 8215   2.507   0.589  12.373  0.0159 -0.2782  0.0430
  550TMC3     O 8216   2.396   0.541  12.367 -0.2836 -0.1078  0.2924
  550TMC3     H 8217   2.345   0.637  12.546  2.1591 -2.0364 -1.6263
  550TMC3    H1 8218   2.711   0.785  12.370  0.8485  2.7594  0.6904
  550TMC3    H2 8219   2.474   1.037  12.607 -1.8319 -0.0915 -0.9884
  550TMC3    C7 8220   2.615   1.010  12.390 -0.6975  0.5931  0.2834
  550TMC3    C8 8221   2.267   0.880  12.627  0.2713 -0.5025  0.3445
  550TMC3    O1 8222   2.710   1.081  12.371  0.7805  1.1068 -0.1542
  550TMC3    O2 8223   2.269   0.995  12.668  0.6382  1.0184  0.3936
  551TMC3    C1 8224   4.177   3.530  13.157  0.4642 -0.2918  0.2844
  551TMC3    C2 8225   4.287   3.465  13.123  0.7020  0.2883  0.5890
  551TMC3    C3 8226   4.383   3.456  13.214  0.3003 -0.7759 -0.0117
  551TMC3    C4 8227   4.144   3.575  13.285  0.1282  0.1774 -0.6217
  551TMC3    C5 8228   4.250   3.571  13.372  0.2354  0.3804  0.0394
  551TMC3    C6 8229   4.372   3.512  13.346 -0.4714 -0.3851 -0.9517
  551TMC3     C 8230   4.059   3.478  13.092 -0.3642  0.5508  0.1372
  551TMC3     O 8231   4.061   3.358  13.065 -0.1195 -0.7064  0.0987
  551TMC3     H 8232   4.303   3.429  13.022 -0.9282  1.7707 -0.1896
  551TMC3    H1 8233   4.047   3.618  13.306 -0.6961 -1.5239 -0.9573
  551TMC3    H2 8234   4.463   3.528  13.402 -0.4369  2.8645 -1.9670
  551TMC3    C7 8235   4.238   3.628  13.502  0.0028 -0.8575 -0.3015
  551TMC3    C8 8236   4.518   3.421  13.180  0.4440 -0.6096 -0.4988
  551TMC3    O1 8237   4.311   3.575  13.587 -0.1841 -0.3559 -0.8479
  551TMC3    O2 8238   4.576   3.367  13.273  0.0787  0.1102  0.1120
  552MPD2     C 8239   1.563   0.656  13.948  0.2570  0.0934  0.4223
  552MPD2    C1 8240   1.521   0.564  14.038  0.4193 -0.1549 -0.0141
  552MPD2    C2 8241   1.593   0.554  14.149  1.1220 -0.9299  0.6722
  552MPD2    C3 8242   1.703   0.636  14.180 -1.1468  0.7106 -0.3669
  552MPD2    C4 8243   1.740   0.730  14.088  0.0073 -0.0322  0.0305
  552MPD2    C5 8244   1.669   0.737  13.970  0.0488 -0.6001  0.0136
  552MPD2     H 8245   1.571   0.471  14.214  2.3917 -2.1557 -0.4484
  552MPD2    H1 8246   1.823   0.798  14.106 -0.3717  0.3394  0.3530
  552MPD2    H2 8247   1.515   0.676  13.853 -0.0069 -0.3126  0.4684
  552MPD2    H3 8248   1.707   0.802  13.891  0.4927  0.0459  0.7630
  552MPD2     N 8249   1.787   0.624  14.297 -0.4337 -0.2113  0.0075
  552MPD2    H5 8250   1.854   0.701  14.302 -1.9292  1.1360 -0.8966
  552MPD2    N1 8251   1.403   0.482  14.024  0.3593  0.5830 -0.2264
  552MPD2    H7 8252   1.400   0.392  14.071  1.4615 -0.0941 -1.4331
  553TMC3    C1 8253   1.224   0.403  13.888 -0.0747  0.4481 -1.0330
  553TMC3    C2 8254   1.172   0.416  13.764 -0.6683 -0.0260  0.1038
  553TMC3    C3 8255   1.132   0.307  13.687 -0.3555 -0.1075  0.7449
  553TMC3    C4 8256   1.242   0.278  13.941  0.3903 -0.3879 -0.4740
  553TMC3    C5 8257   1.222   0.172  13.855  0.0480  0.1320  0.5178
  553TMC3    C6 8258   1.166   0.184  13.733 -0.0401  0.1496 -0.2676
  553TMC3     C 8259   1.313   0.512  13.926  0.8209  0.2556  0.2946
  553TMC3     O 8260   1.287   0.624  13.887 -0.0619 -0.2086  0.1402
  553TMC3     H 8261   1.159   0.516  13.722 -1.6662 -0.9139 -1.7096
  553TMC3    H1 8262   1.292   0.258  14.035 -1.5161 -1.8004  0.2282
  553TMC3    H2 8263   1.161   0.094  13.673 -0.3194 -0.2320  0.3185
  553TMC3    C7 8264   1.279   0.050  13.888 -0.4207 -0.1340 -0.4367
  553TMC3    C8 8265   1.123   0.329  13.543 -0.3378  0.2449  0.1124
  553TMC3    O1 8266   1.211   4.693  13.858 -0.2625  0.1083 -0.2297
  553TMC3    O2 8267   1.151   0.441  13.507  0.9057 -0.3801  0.8603
  554TMC3    C1 8268   3.513   4.518  11.680  0.7312 -0.3024 -0.2093
  554TMC3    C2 8269   3.396   4.454  11.645 -0.1772 -0.5738 -0.7352
  554TMC3    C3 8270   3.354   4.464  11.517 -0.5129 -0.4099  0.0644
  554TMC3    C4 8271   3.570   4.612  11.603 -0.3718  0.5944 -0.0474
  554TMC3    C5 8272   3.522   4.633  11.474 -1.3686  0.2394  0.2754
  554TMC3    C6 8273   3.422   4.548  11.430  0.2636 -0.2200 -0.0612
  554TMC3     C 8274   3.575   4.483  11.802  0.6208  0.5635 -0.2002
  554TMC3     O 8275   3.657   4.562  11.846  0.1949 -0.7005 -0.2324
  554TMC3     H 8276   3.339   4.400  11.720  0.0770 -0.5892 -0.5506
  554TMC3    H1 8277   3.660   4.663  11.636 -0.9583  0.3839  1.9133
  554TMC3    H2 8278   3.385   4.560  11.329  0.9160  0.9052 -0.1652
  554TMC3    C7 8279   3.613   4.673  11.373 -0.5475  0.4187  0.0119
  554TMC3    C8 8280   3.235   4.403  11.460 -0.0557 -0.2666 -0.5239
  554TMC3    O1 8281   3.611   4.592  11.278 -0.6210 -0.6597 -0.9968
  554TMC3    O2 8282   3.217   4.423  11.344  0.1032 -0.0044 -0.1089
  555TMC3    C1 8283   2.324   3.847  15.102  0.2097  0.5401  0.4416
  555TMC3    C2 8284   2.432   3.921  15.137  0.6928  0.6283  0.2096
  555TMC3    C3 8285   2.538   3.852  15.187 -0.4591 -0.0832  0.1604
  555TMC3    C4 8286   2.309   3.716  15.135 -0.1367 -0.2060  0.0204
  555TMC3    C5 8287   2.421   3.655  15.184  0.3815  0.5623  0.2048
  555TMC3    C6 8288   2.536   3.716  15.216 -0.4986  0.5917  0.1613
  555TMC3     C 8289   2.207   3.930  15.122 -0.2947 -0.3536 -0.3205
  555TMC3     O 8290   2.210   4.002  15.220  0.3966 -0.0467 -0.0756
  555TMC3     H 8291   2.436   4.028  15.123  0.0475  0.6421  0.1290
  555TMC3    H1 8292   2.227   3.656  15.097 -0.7877  1.5160 -1.2837
  555TMC3    H2 8293   2.613   3.675  15.281 -2.8094 -1.0424  1.8790
  555TMC3    C7 8294   2.418   3.509  15.201  0.6457 -0.2628  0.2754
  555TMC3    C8 8295   2.651   3.936  15.222  0.2829 -0.0472 -0.4386
  555TMC3    O1 8296   2.308   3.457  15.219 -0.4743  0.2311 -0.3749
  555TMC3    O2 8297   2.622   4.055  15.226 -0.2682  0.6900  0.1617
  556MPD2     C 8298   0.655   0.682  10.453  0.3101  0.5004 -0.4363
  556MPD2    C1 8299   0.630   0.575  10.534  0.0849  0.2759  0.0647
  556MPD2    C2 8300   0.568   0.460  10.487 -0.3642 -0.6974 -0.6363
  556MPD2    C3 8301   0.551   0.449  10.357 -0.3880 -0.3526 -0.3522
  556MPD2    C4 8302   0.585   0.553  10.270 -0.0059 -0.3695 -0.1070
  556MPD2    C5 8303   0.635   0.666  10.318 -0.0104 -0.0300 -0.4774
  556MPD2     H 8304   0.546   0.383  10.560 -2.0876 -0.1253 -0.5661
  556MPD2    H1 8305   0.583   0.551  10.162  0.9733  1.1282 -0.1514
  556MPD2    H2 8306   0.702   0.776  10.481 -0.4748  1.0423 -0.9347
  556MPD2    H3 8307   0.654   0.748  10.250  2.7887  0.0157  0.3584
  556MPD2     N 8308   0.510   0.319  10.320  0.2657  0.0497  0.2697
  556MPD2    H5 8309   0.482   0.249  10.388  3.1426 -1.1253  0.2356
  556MPD2    N1 8310   0.657   0.571  10.675 -0.1779 -0.1744  0.8724
  556MPD2    H7 8311   0.617   0.489  10.720 -1.0793 -0.8619 -1.1933
  557TMC3    C1 8312   0.417   0.156  10.172  0.5493 -0.2140  0.2400
  557TMC3    C2 8313   0.418   0.101  10.049  0.7049 -0.4929  0.2917
  557TMC3    C3 8314   0.375   4.715  10.022  0.0216 -0.6933 -0.2440
  557TMC3    C4 8315   0.378   0.081  10.280 -0.2737 -0.0486  0.0304
  557TMC3    C5 8316   0.330   4.699  10.252  0.7667  0.0342  0.4266
  557TMC3    C6 8317   0.331   4.640  10.129 -0.4260 -0.5699 -0.4864
  557TMC3     C 8318   0.479   0.280  10.191  0.4426 -0.7591 -0.1360
  557TMC3     O 8319   0.514   0.337  10.089 -0.2245  0.7962 -0.2023
  557TMC3     H 8320   0.443   0.172   9.971 -1.7656 -0.6953 -0.7003
  557TMC3    H1 8321   0.350   0.112  10.380  0.5698 -0.0946  0.2729
  557TMC3    H2 8322   0.314   4.535  10.111  1.5488 -0.8408 -0.7594
  557TMC3    C7 8323   0.262   4.632  10.359 -0.0815 -0.0601 -0.4046
  557TMC3    C8 8324   0.412   4.660   9.892  0.3611 -0.3772  0.3914
  557TMC3    O1 8325   0.142   4.614  10.337  0.0060 -0.2432  0.3057
  557TMC3    O2 8326   0.395   4.740   9.801 -0.0509 -0.1507  0.1233
  558TMC3    C1 8327   2.519   3.231  10.422  0.0266  0.2147  0.0028
  558TMC3    C2 8328   2.441   3.128  10.462  0.7793  0.1582  0.0610
  558TMC3    C3 8329   2.343   3.076  10.380  0.7381 -0.3830  0.5257
  558TMC3    C4 8330   2.503   3.279  10.297  0.5165 -0.8107 -0.4515
  558TMC3    C5 8331   2.404   3.227  10.216  0.4070  0.5676 -0.6480
  558TMC3    C6 8332   2.328   3.115  10.254  0.3624  0.1486 -0.7285
  558TMC3     C 8333   2.641   3.253  10.485 -0.1164  0.1316  0.7323
  558TMC3     O 8334   2.735   3.288  10.417 -0.3056  0.1035 -0.8409
  558TMC3     H 8335   2.452   3.093  10.564 -1.8360 -2.4892 -0.5589
  558TMC3    H1 8336   2.576   3.348  10.259 -1.5037  1.1954 -0.7076
  558TMC3    H2 8337   2.236   3.078  10.211  0.1626 -1.3764  1.0233
  558TMC3    C7 8338   2.415   3.264  10.082  0.3580  0.5093  0.3560
  558TMC3    C8 8339   2.264   2.959  10.421  0.2352 -0.4101  0.2035
  558TMC3    O1 8340   2.495   3.349  10.049 -0.2521 -0.6542  0.3214
  558TMC3    O2 8341   2.155   2.928  10.365  0.4206  0.3244  0.1331
  559MPD2     C 8342   2.955   3.580  10.666 -0.0529 -0.4364 -0.9638
  559MPD2    C1 8343   2.878   3.557  10.778  0.5610  0.0978  0.8394
  559MPD2    C2 8344   2.936   3.523  10.896  0.1049 -0.0279  0.4611
  559MPD2    C3 8345   3.079   3.520  10.913 -0.1727 -0.6762  0.0723
  559MPD2    C4 8346   3.156   3.551  10.799 -0.4426 -0.3091  0.2301
  559MPD2    C5 8347   3.093   3.574  10.678  0.5303  0.0998  0.7863
  559MPD2     H 8348   2.874   3.504  10.982 -1.4485 -2.8311 -1.2787
  559MPD2    H1 8349   3.265   3.548  10.792 -0.5193  0.4927 -1.3142
  559MPD2    H2 8350   2.907   3.609  10.573  1.8995  1.1589 -1.4511
  559MPD2    H3 8351   3.152   3.601  10.592  0.1698 -0.9136  0.2211
  559MPD2     N 8352   3.120   3.469  11.036  0.3137  0.1898 -0.1785
  559MPD2    H5 8353   3.049   3.435  11.100  1.0791  0.7789  0.9720
  559MPD2    N1 8354   2.740   3.561  10.768 -1.0241  0.6430 -0.6209
  559MPD2    H7 8355   2.701   3.594  10.680  0.3839 -2.2040 -2.2985
  560TMC3    C1 8356   3.274   3.437  11.209  0.5871 -0.2197  0.2558
  560TMC3    C2 8357   3.197   3.330  11.244 -0.4009  1.0358  0.4887
  560TMC3    C3 8358   3.260   3.210  11.273 -0.1972 -0.6895  0.5551
  560TMC3    C4 8359   3.410   3.436  11.241 -0.3871  0.1567  0.4870
  560TMC3    C5 8360   3.472   3.312  11.259 -0.1650 -0.0500  0.4253
  560TMC3    C6 8361   3.399   3.198  11.266 -0.0505  0.3428  0.1179
  560TMC3     C 8362   3.252   3.485  11.070  0.0899  1.0357  0.1408
  560TMC3     O 8363   3.350   3.530  11.011 -0.0363 -0.3233  0.6027
  560TMC3     H 8364   3.089   3.321  11.239 -0.3998  1.2024  0.1978
  560TMC3    H1 8365   3.474   3.524  11.232 -0.2976 -0.0883 -1.2585
  560TMC3    H2 8366   3.444   3.103  11.293 -0.5054 -0.2917 -1.3721
  560TMC3    C7 8367   3.581   3.306  11.358  0.3081  0.1922 -0.2607
  560TMC3    C8 8368   3.185   3.090  11.228  0.0032  0.7707  0.3787
  560TMC3    O1 8369   3.570   3.220  11.447 -0.6103 -0.1410  0.5820
  560TMC3    O2 8370   3.059   3.075  11.253  0.1998 -0.1094  0.1761
  561TMC3    C1 8371   1.281   2.443  11.414  0.0412  0.1385  0.3127
  561TMC3    C2 8372   1.178   2.374  11.464  0.4053 -0.0055 -0.5469
  561TMC3    C3 8373   1.069   2.446  11.501  1.1567 -0.3165 -0.3728
  561TMC3    C4 8374   1.294   2.580  11.416 -0.1483 -0.0782  0.0506
  561TMC3    C5 8375   1.181   2.641  11.465  0.9093  0.3350 -0.1809
  561TMC3    C6 8376   1.065   2.584  11.497  0.4499 -0.5269  0.0952
  561TMC3     C 8377   1.398   2.364  11.376 -0.5554 -0.5499 -0.3272
  561TMC3     O 8378   1.415   2.252  11.418 -0.1062  0.0571  0.0834
  561TMC3     H 8379   1.178   2.266  11.461  0.5645 -0.0484  1.0158
  561TMC3    H1 8380   1.372   2.642  11.374  0.4736 -1.7381 -1.2299
  561TMC3    H2 8381   0.984   2.644  11.535  0.6756 -1.0340  1.3557
  561TMC3    C7 8382   1.184   2.793  11.469 -0.2263 -0.4043 -0.5229
  561TMC3    C8 8383   0.953   2.377  11.560 -0.0004 -0.4441 -0.3748
  561TMC3    O1 8384   1.117   2.848  11.553 -0.6614  0.1011 -0.2942
  561TMC3    O2 8385   0.945   2.259  11.539 -0.5746  0.6026  0.3008
  562TMC3    C1 8386   2.228   4.209  16.466 -0.5226 -0.6656 -0.3584
  562TMC3    C2 8387   2.182   4.335  16.471  0.3804  0.2027 -0.5202
  562TMC3    C3 8388   2.171   4.394  16.345 -0.0724 -0.2876  0.0449
  562TMC3    C4 8389   2.258   4.134  16.351  0.2594  0.3417  0.2644
  562TMC3    C5 8390   2.254   4.200  16.238 -1.0948 -0.0927  0.6264
  562TMC3    C6 8391   2.216   4.331  16.230  0.0022 -0.1123 -0.3678
  562TMC3     C 8392   2.287   4.171  16.590 -0.5517 -0.1560  0.5893
  562TMC3     O 8393   2.251   4.235  16.690  0.4634 -0.2076  0.0762
  562TMC3     H 8394   2.149   4.387  16.560  2.1263 -1.8748  1.3299
  562TMC3    H1 8395   2.261   4.026  16.350  1.2061  0.3801 -2.4678
  562TMC3    H2 8396   2.218   4.384  16.135 -2.2954  0.6950  0.0387
  562TMC3    C7 8397   2.273   4.119  16.122 -0.2162  0.2416 -0.0706
  562TMC3    C8 8398   2.139   4.536  16.337  0.4046 -0.2158 -0.0777
  562TMC3    O1 8399   2.244   4.174  16.018 -0.4873 -0.4898 -0.3433
  562TMC3    O2 8400   2.157   4.603  16.438  0.1426  0.0830  0.4466
  563MPD2     C 8401   4.483   0.748  15.831 -0.1329  0.4486  0.1168
  563MPD2    C1 8402   4.572   0.795  15.923 -0.6960  0.0127 -0.5161
  563MPD2    C2 8403   4.687   0.720  15.957 -0.1410  0.4004  0.1775
  563MPD2    C3 8404   4.711   0.601  15.894  0.4961  0.4009  0.1206
  563MPD2    C4 8405   4.622   0.558  15.789  0.0759  0.1598 -0.4400
  563MPD2    C5 8406   4.508   0.633  15.757  0.3332 -0.0295 -0.6346
  563MPD2     H 8407   0.013   0.746  16.036  1.0663 -0.9927 -0.4292
  563MPD2    H1 8408   4.633   0.460  15.745 -0.7269  0.5465 -1.5217
  563MPD2    H2 8409   4.388   0.798  15.823 -0.2142  0.2358 -0.2295
  563MPD2    H3 8410   4.437   0.602  15.680  0.6458 -1.2325 -0.4432
  563MPD2     N 8411   0.069   0.516  15.947  0.3999 -0.0989 -0.7390
  563MPD2    H5 8412   0.131   0.546  16.021  0.4877  0.2828 -0.9690
  563MPD2    N1 8413   4.530   0.909  15.999  0.0973  0.8850 -0.5177
  563MPD2    H7 8414   4.439   0.952  15.983 -1.1772 -0.6234  2.7351
  564TMC3    C1 8415   4.545   1.001  16.214  0.1208 -0.2671 -0.4708
  564TMC3    C2 8416   4.419   0.945  16.208  0.1351  0.1464 -0.4941
  564TMC3    C3 8417   4.379   0.837  16.275 -0.4935 -0.6515  0.6412
  564TMC3    C4 8418   4.629   0.944  16.306  0.3685 -0.1559 -0.5651
  564TMC3    C5 8419   4.597   0.827  16.374  0.0007 -0.2195 -0.1385
  564TMC3    C6 8420   4.469   0.778  16.358  0.1228 -0.3707  0.0698
  564TMC3     C 8421   4.616   0.973  16.087  0.0821 -0.9202 -0.1015
  564TMC3     O 8422   4.738   0.969  16.090  0.2407  0.2868 -0.2987
  564TMC3     H 8423   4.339   1.001  16.161  0.3737  0.8027 -0.1329
  564TMC3    H1 8424   4.732   0.977  16.314  0.0632  1.0104 -1.4415
  564TMC3    H2 8425   4.443   0.692  16.419  1.5137 -0.6114  0.3270
  564TMC3    C7 8426   4.698   0.726  16.386 -0.2592 -0.2544  0.7199
  564TMC3    C8 8427   4.326   0.733  16.193  0.0910 -0.0796  1.1492
  564TMC3    O1 8428   0.068   0.758  16.424 -0.3436 -0.2461 -0.1325
  564TMC3    O2 8429   4.358   0.618  16.229  0.0832 -0.1465 -0.2459
  565TMC3    C1 8430   0.166   1.735  10.504  0.5161  1.0314  0.3665
  565TMC3    C2 8431   0.212   1.606  10.535  0.5413 -0.5376  0.1626
  565TMC3    C3 8432   0.142   1.506  10.476 -0.2655 -0.0406 -0.2365
  565TMC3    C4 8433   0.081   1.759  10.397 -0.6020 -0.7783  0.7937
  565TMC3    C5 8434   0.017   1.655  10.340  0.2909 -0.1218  0.4446
  565TMC3    C6 8435   0.038   1.526  10.383 -0.0388  0.6154  0.0050
  565TMC3     C 8436   0.210   1.847  10.591  0.4819 -0.3459  0.6489
  565TMC3     O 8437   0.302   1.828  10.669  0.1154 -0.6398  1.0700
  565TMC3     H 8438   0.271   1.596  10.625  0.8163 -0.0784  0.0352
  565TMC3    H1 8439   0.073   1.863  10.366 -1.4714 -1.0054  0.2373
  565TMC3    H2 8440   0.011   1.442  10.320 -1.1054 -0.6218  2.1288
  565TMC3    C7 8441   4.682   1.671  10.214 -0.6218  0.3482 -0.0549
  565TMC3    C8 8442   0.187   1.371  10.513 -0.7017 -0.6403 -0.0467
  565TMC3    O1 8443   4.619   1.570  10.185  0.3465  0.2415 -0.5293
  565TMC3    O2 8444   0.203   1.350  10.632 -0.1355 -0.4141  0.1036
  566MPD2     C 8445   2.021   3.566  14.487  0.1921  1.1840 -0.6156
  566MPD2    C1 8446   1.987   3.451  14.428 -0.4204 -0.5014  0.2275
  566MPD2    C2 8447   1.853   3.420  14.429 -0.6108 -0.3849  0.2683
  566MPD2    C3 8448   1.755   3.511  14.464  0.1754  0.0945 -0.5720
  566MPD2    C4 8449   1.792   3.622  14.525  0.1915  0.1856  0.6482
  566MPD2    C5 8450   1.922   3.657  14.534 -0.4760  0.6982 -0.3038
  566MPD2     H 8451   1.817   3.328  14.385  1.1593 -0.2412 -1.4649
  566MPD2    H1 8452   1.713   3.692  14.547 -0.3359  0.4051 -1.9168
  566MPD2    H2 8453   2.122   3.605  14.483 -0.4897  2.8952 -1.2454
  566MPD2    H3 8454   1.946   3.756  14.572  1.8563  0.1658 -0.4090
  566MPD2     N 8455   1.615   3.495  14.438 -0.2472 -0.4383  0.2097
  566MPD2    H5 8456   1.550   3.569  14.458  0.9034  0.9265 -1.0692
  566MPD2    N1 8457   2.090   3.375  14.370  0.1879 -0.5363  0.4746
  566MPD2    H7 8458   2.183   3.414  14.360 -0.5990  1.0594 -0.6919
  567TMC3    C1 8459   2.186   3.194  14.256 -0.2891 -0.4572  0.0940
  567TMC3    C2 8460   2.260   3.302  14.205 -0.2656 -0.0039  0.1988
  567TMC3    C3 8461   2.391   3.312  14.238 -0.5604  0.4314  0.0468
  567TMC3    C4 8462   2.247   3.087  14.313  0.5164 -0.2036  1.1683
  567TMC3    C5 8463   2.380   3.096  14.337  0.4334  0.6249 -0.4010
  567TMC3    C6 8464   2.456   3.209  14.295  0.0313 -0.2704  0.1561
  567TMC3     C 8465   2.073   3.242  14.334 -0.7373 -0.0551  0.4998
  567TMC3     O 8466   1.992   3.162  14.378  0.0434  0.2363  0.1343
  567TMC3     H 8467   2.215   3.375  14.139  1.9838  0.3604 -0.9226
  567TMC3    H1 8468   2.183   3.013  14.359  0.6297 -0.7253  0.4934
  567TMC3    H2 8469   2.549   3.228  14.347 -0.6666 -0.0845  1.3373
  567TMC3    C7 8470   2.404   3.074  14.480 -0.5740  0.2569  0.0381
  567TMC3    C8 8471   2.446   3.442  14.222 -0.2382  0.2383 -0.9064
  567TMC3    O1 8472   2.519   3.078  14.523  0.0083 -0.1929 -0.3189
  567TMC3    O2 8473   2.363   3.527  14.212  0.5785  0.1320  0.4641
  568MPD2     C 8474   4.397   4.088  15.949 -1.0396  0.7588 -0.6258
  568MPD2    C1 8475   4.399   4.143  16.075 -0.7393  0.6218 -0.7283
  568MPD2    C2 8476   4.310   4.251  16.100  0.3050 -0.3253 -0.0985
  568MPD2    C3 8477   4.227   4.305  16.000  0.0497  0.0864 -0.3040
  568MPD2    C4 8478   4.223   4.237  15.885 -0.3819  0.6095  0.1153
  568MPD2    C5 8479   4.309   4.138  15.858 -0.3095 -0.2369  0.0126
  568MPD2     H 8480   4.313   4.302  16.196 -0.4661 -1.9641  0.7863
  568MPD2    H1 8481   4.150   4.261  15.808 -0.2678  0.0764 -0.1631
  568MPD2    H2 8482   4.473   4.016  15.922 -1.6321  1.0948 -3.2304
  568MPD2    H3 8483   4.294   4.095  15.760 -0.9419  1.1417 -0.4926
  568MPD2     N 8484   4.152   4.422  16.035 -0.4118  0.2182  0.4404
  568MPD2    H5 8485   4.168   4.450  16.132  0.2894  1.9733 -0.1727
  568MPD2    N1 8486   4.490   4.082  16.172 -0.0644  0.2900 -0.2182
  568MPD2    H7 8487   4.540   4.004  16.128  1.4908  0.9503  0.3596
  569TMC3    C1 8488   4.025   4.619  16.003 -0.2674 -0.5376 -0.1996
  569TMC3    C2 8489   4.017   4.623  16.142 -0.1797  0.2697  0.5064
  569TMC3    C3 8490   4.023   4.737  16.203 -0.2526 -0.1204  0.0057
  569TMC3    C4 8491   4.043   4.730  15.922  0.2007 -0.2893  0.3051
  569TMC3    C5 8492   4.048   0.103  15.993  0.0034  0.6974  0.0821
  569TMC3    C6 8493   4.041   0.110  16.128 -0.0639 -0.0673 -0.1243
  569TMC3     C 8494   4.082   4.498  15.941 -0.3887 -0.8929  0.3893
  569TMC3     O 8495   4.094   4.489  15.822 -0.2052  0.3722 -0.4292
  569TMC3     H 8496   3.983   4.532  16.191  0.0198 -0.1266 -0.0901
  569TMC3    H1 8497   4.043   4.724  15.814 -1.4839  0.4885  0.2707
  569TMC3    H2 8498   4.017   0.202  16.181  1.0373  0.0823  0.1341
  569TMC3    C7 8499   4.032   0.232  15.914  0.4565 -0.2329  0.4991
  569TMC3    C8 8500   4.034   4.725  16.348  0.2761 -0.1400  0.1576
  569TMC3    O1 8501   3.966   0.225  15.811 -0.0998  0.5194 -0.3852
  569TMC3    O2 8502   3.995   4.619  16.394  0.1350  0.0499  0.1931
  570TMC3    C1 8503   4.061   3.076  16.415 -0.0089  0.0305  0.0584
  570TMC3    C2 8504   4.144   3.097  16.307 -0.2157 -0.1026  0.2203
  570TMC3    C3 8505   4.225   3.205  16.313 -0.0695 -1.2310  0.0950
  570TMC3    C4 8506   4.053   3.165  16.523  0.1948  0.1233  0.3690
  570TMC3    C5 8507   4.118   3.285  16.511 -0.1016 -0.5370 -0.4652
  570TMC3    C6 8508   4.216   3.299  16.411 -0.4180  0.1635  0.8569
  570TMC3     C 8509   3.979   2.958  16.410  0.0725  0.0790 -0.3320
  570TMC3     O 8510   3.970   2.912  16.298 -0.6072  0.0351 -0.3377
  570TMC3     H 8511   4.165   3.017  16.237  2.2525  0.9912 -0.2857
  570TMC3    H1 8512   3.972   3.153  16.595 -1.1095 -1.1014 -1.3055
  570TMC3    H2 8513   4.279   3.388  16.414 -0.2518  0.0826 -0.3386
  570TMC3    C7 8514   4.112   3.387  16.616 -0.0554 -0.3917  0.0860
  570TMC3    C8 8515   4.279   3.238  16.186 -0.1182 -0.1589  0.1110
  570TMC3    O1 8516   4.078   3.347  16.725  0.0976  0.1761 -0.0682
  570TMC3    O2 8517   4.227   3.196  16.088 -0.2667  0.8101  0.0097
  571MPD2     C 8518   1.991   0.131   0.226  0.3241  0.2460  0.3799
  571MPD2    C1 8519   2.089   0.089   0.313 -0.2250 -0.3961 -0.4544
  571MPD2    C2 8520   2.160   0.182   0.391 -0.0066  0.2838 -0.2916
  571MPD2    C3 8521   2.112   0.309   0.395  0.1042 -0.4767  0.6962
  571MPD2    C4 8522   1.998   0.346   0.322  0.4554  0.3009  0.2794
  571MPD2    C5 8523   1.944   0.256   0.235 -0.9354 -0.1206  0.3743
  571MPD2     H 8524   2.261   0.155   0.421 -0.1218  0.7468  0.4980
  571MPD2    H1 8525   1.972   0.451   0.311  1.2730  0.7287  2.4654
  571MPD2    H2 8526   1.938   0.067   0.157  1.8451 -0.8783  0.2357
  571MPD2    H3 8527   1.878   0.294   0.158 -0.1830  1.7752  0.6645
  571MPD2     N 8528   2.185   0.405   0.477 -0.7944 -0.0078  0.0973
  571MPD2    H5 8529   2.154   0.500   0.458  0.5617  0.7735  1.7912
  571MPD2    N1 8530   2.123   4.696   0.304 -0.3972  0.1475  0.6411
  571MPD2    H7 8531   2.080   4.641   0.230  0.3142  1.1049 -0.4921
  572TMC3    C1 8532   2.340   0.527   0.590  0.7323  0.5869 -0.0703
  572TMC3    C2 8533   2.402   0.531   0.714  0.3772  0.6782 -0.3608
  572TMC3    C3 8534   2.418   0.656   0.766 -0.1698  0.6859  0.2570
  572TMC3    C4 8535   2.276   0.634   0.530  0.2751  0.2286 -0.9426
  572TMC3    C5 8536   2.291   0.757   0.584  0.1694  0.3506 -0.4122
  572TMC3    C6 8537   2.360   0.770   0.702  0.4446  0.0465  0.0624
  572TMC3     C 8538   2.293   0.398   0.560 -0.4849  0.9149  0.2613
  572TMC3     O 8539   2.339   0.294   0.610 -0.4066  0.0455 -0.1504
  572TMC3     H 8540   2.453   0.448   0.762 -0.2451  1.2740  1.3264
  572TMC3    H1 8541   2.230   0.634   0.431  0.4846 -3.2043 -1.0646
  572TMC3    H2 8542   2.345   0.863   0.757  1.1487 -1.0409  2.0703
  572TMC3    C7 8543   2.221   0.865   0.526  0.2426  0.8033 -0.4347
  572TMC3    C8 8544   2.502   0.693   0.878  0.0396 -0.4397  0.0484
  572TMC3    O1 8545   2.117   0.841   0.466 -0.4479  0.1640 -0.5781
  572TMC3    O2 8546   2.537   0.810   0.880 -0.0740 -0.2367  0.6858
  573MPD2     C 8547   2.823   0.363   0.857  0.0312  0.5967 -0.0478
  573MPD2    C1 8548   2.817   0.476   0.776 -0.2002 -0.2473  0.1816
  573MPD2    C2 8549   2.763   0.464   0.647  0.1947  0.0143  0.4121
  573MPD2    C3 8550   2.710   0.341   0.607 -0.2399 -0.4258 -0.6470
  573MPD2    C4 8551   2.710   0.232   0.690 -0.0281  0.8958 -0.2676
  573MPD2    C5 8552   2.769   0.244   0.813 -0.1997 -0.0177  0.1787
  573MPD2     H 8553   2.789   0.544   0.578 -0.0169 -0.3800 -0.1273
  573MPD2    H1 8554   2.673   0.134   0.664  2.8342 -0.4104  0.5764
  573MPD2    H2 8555   2.857   0.365   0.960 -0.3629  0.4723  0.0841
  573MPD2    H3 8556   2.763   0.154   0.873 -0.5158  1.0422  1.7397
  573MPD2     N 8557   2.642   0.325   0.488 -0.4339 -0.5633  0.3394
  573MPD2    H5 8558   2.585   0.241   0.491  2.4158 -2.5902 -2.8807
  573MPD2    N1 8559   2.874   0.593   0.832  0.1689 -0.3013 -0.3101
  573MPD2    H7 8560   2.922   0.591   0.921 -1.2915 -1.8199  0.4326
  574TMC3    C1 8561   2.529   0.380   0.288  0.2553 -0.1680  0.6681
  574TMC3    C2 8562   2.445   0.476   0.234  0.4158 -0.2101 -0.0806
  574TMC3    C3 8563   2.356   0.437   0.143  0.3852 -0.7447  0.0984
  574TMC3    C4 8564   2.532   0.254   0.240  1.2932 -0.0437 -0.3793
  574TMC3    C5 8565   2.431   0.218   0.152 -0.3311  0.3108  0.9828
  574TMC3    C6 8566   2.341   0.309   0.103 -0.2992  0.1382 -0.7834
  574TMC3     C 8567   2.612   0.420   0.394  0.0389  0.0176  0.2821
  574TMC3     O 8568   2.640   0.538   0.393 -0.3539 -0.1372  0.5854
  574TMC3     H 8569   2.462   0.579   0.262 -0.5133 -0.4050  1.1893
  574TMC3    H1 8570   2.608   0.179   0.261  0.8939 -0.3801 -0.1280
  574TMC3    H2 8571   2.271   0.296   0.021  1.4446  2.5537 -2.6511
  574TMC3    C7 8572   2.414   0.079   0.108 -0.2108 -0.0060 -0.2542
  574TMC3    C8 8573   2.258   0.544   0.102  0.2461  0.1959 -0.2932
  574TMC3    O1 8574   2.324   0.048   0.029  0.0168  0.0473 -0.1129
  574TMC3    O2 8575   2.153   0.504   0.054  0.0126 -0.2488 -0.1063
  575TMC3    C1 8576   0.308   0.773  11.117  0.8071 -0.6056 -0.6218
  575TMC3    C2 8577   0.290   0.640  11.085 -0.1816 -0.3356 -1.4409
  575TMC3    C3 8578   0.326   0.609  10.950 -0.6804  0.6312 -0.0394
  575TMC3    C4 8579   0.337   0.866  11.020  0.1648 -0.1266  0.0137
  575TMC3    C5 8580   0.373   0.824  10.895 -0.4576 -0.0933  0.5113
  575TMC3    C6 8581   0.359   0.691  10.847  0.6660 -0.3604  0.2478
  575TMC3     C 8582   0.352   0.796  11.256  1.0941 -0.3084 -0.0413
  575TMC3     O 8583   0.342   0.702  11.334 -0.0481  0.3273 -0.3680
  575TMC3     H 8584   0.276   0.567  11.163  0.7891  0.4170 -0.5713
  575TMC3    H1 8585   0.352   0.970  11.048  1.7099 -0.1473 -0.7484
  575TMC3    H2 8586   0.373   0.648  10.749  0.4888  0.6547 -0.2203
  575TMC3    C7 8587   0.374   0.930  10.788  0.0924 -0.5121 -0.4704
  575TMC3    C8 8588   0.338   0.470  10.918 -0.2323  0.0544  0.0715
  575TMC3    O1 8589   0.366   1.047  10.823 -0.6225  0.0275 -0.4652
  575TMC3    O2 8590   0.391   0.439  10.810 -0.0438 -0.3384  0.3895
  576MPD2     C 8591   0.436   2.618  12.848 -0.1488 -0.4949 -0.4548
  576MPD2    C1 8592   0.478   2.731  12.788  0.0260  0.2401 -0.3246
  576MPD2    C2 8593   0.557   2.826  12.864 -0.0792  0.6647 -0.2538
  576MPD2    C3 8594   0.579   2.804  12.995 -0.1895 -0.1195 -0.7399
  576MPD2    C4 8595   0.549   2.679  13.048 -0.9123  0.1916 -0.0920
  576MPD2    C5 8596   0.477   2.592  12.970  0.0111  0.6778  0.1013
  576MPD2     H 8597   0.588   2.919  12.818 -1.9432  0.7587 -1.3438
  576MPD2    H1 8598   0.567   2.650  13.151  0.2934  2.3486  0.3142
  576MPD2    H2 8599   0.384   2.541  12.791  1.0474 -0.7841 -1.1643
  576MPD2    H3 8600   0.448   2.499  13.016 -0.0646  0.6494 -0.0048
  576MPD2     N 8601   0.644   2.907  13.068 -0.4959  0.1182 -0.6505
  576MPD2    H5 8602   0.683   2.986  13.017  0.0581  0.6761  0.6408
  576MPD2    N1 8603   0.461   2.758  12.649  0.8893 -0.0457  0.1197
  576MPD2    H7 8604   0.480   2.854  12.622  0.6126 -0.2739 -0.8850
  577TMC3    C1 8605   0.453   2.730  12.416 -0.0468  0.6121 -0.0322
  577TMC3    C2 8606   0.470   2.632  12.317 -0.3263  0.6110 -0.8856
  577TMC3    C3 8607   0.485   2.673  12.194 -0.0233  0.5997 -0.0866
  577TMC3    C4 8608   0.461   2.871  12.381  0.4240  0.1585  0.1431
  577TMC3    C5 8609   0.486   2.894  12.254 -0.3521 -0.1927 -0.5203
  577TMC3    C6 8610   0.521   2.803  12.163  0.3827 -0.4071  0.9630
  577TMC3     C 8611   0.435   2.668  12.548 -0.3855 -0.4843 -0.0583
  577TMC3     O 8612   0.386   2.555  12.552  0.1823  0.2394 -0.9555
  577TMC3     H 8613   0.449   2.526  12.329  0.0638  0.5195 -0.9806
  577TMC3    H1 8614   0.438   2.952  12.448 -1.3366  0.9737 -1.4405
  577TMC3    H2 8615   0.522   2.828  12.057 -1.1845 -0.1132  1.0164
  577TMC3    C7 8616   0.508   3.033  12.222  0.0892  0.3988 -0.4261
  577TMC3    C8 8617   0.486   2.558  12.091  1.1047 -0.2423 -0.2142
  577TMC3    O1 8618   0.593   3.064  12.141 -0.2696  0.1163  0.2575
  577TMC3    O2 8619   0.442   2.452  12.128  0.9270 -0.0919  0.2506
  578MPD2     C 8620   3.397   3.399   1.823 -0.2212  0.4746 -0.9091
  578MPD2    C1 8621   3.429   3.389   1.690  0.2364  0.1021  0.1290
  578MPD2    C2 8622   3.554   3.355   1.651 -0.1876  0.1306 -0.3627
  578MPD2    C3 8623   3.657   3.348   1.739 -0.3001  1.1433 -0.3823
  578MPD2    C4 8624   3.628   3.351   1.871 -0.1013 -0.8517  0.2653
  578MPD2    C5 8625   3.500   3.365   1.910 -0.0172  0.2342 -0.6514
  578MPD2     H 8626   3.583   3.367   1.547  2.0494 -2.8707 -0.1124
  578MPD2    H1 8627   3.696   3.331   1.954  0.2252  1.7786  0.6363
  578MPD2    H2 8628   3.301   3.433   1.860  0.1763 -0.0146  0.5641
  578MPD2    H3 8629   3.485   3.387   2.015 -0.3113 -0.6315 -0.5105
  578MPD2     N 8630   3.790   3.341   1.685  0.4320 -1.0158 -0.0269
  578MPD2    H5 8631   3.800   3.338   1.584 -2.2997  0.4164 -0.3303
  578MPD2    N1 8632   3.330   3.412   1.594  0.0560 -0.1208  0.4775
  578MPD2    H7 8633   3.235   3.417   1.630 -0.9916 -1.2441 -2.1422
  579TMC3    C1 8634   4.015   3.285   1.687 -0.0160  0.1681  0.3426
  579TMC3    C2 8635   4.129   3.364   1.701  0.6801  0.1077 -0.5727
  579TMC3    C3 8636   4.228   3.349   1.607  0.0580 -0.5369 -0.0053
  579TMC3    C4 8637   4.001   3.198   1.581  0.1332  0.4030 -0.9318
  579TMC3    C5 8638   4.099   3.191   1.490  0.1364  0.2591 -0.0290
  579TMC3    C6 8639   4.220   3.263   1.499  0.6184 -0.5894  0.4224
  579TMC3     C 8640   3.904   3.332   1.764 -0.4418 -0.6585  0.5204
  579TMC3     O 8641   3.920   3.352   1.885  0.4459  0.6373  0.1879
  579TMC3     H 8642   4.155   3.415   1.793  1.8600 -0.0710 -0.8023
  579TMC3    H1 8643   3.918   3.129   1.578 -0.8350  1.5548 -1.0499
  579TMC3    H2 8644   4.301   3.250   1.428 -1.2570 -0.4676 -1.7460
  579TMC3    C7 8645   4.093   3.091   1.384 -0.4976 -0.0120  0.6002
  579TMC3    C8 8646   4.346   3.428   1.620 -0.6669 -0.0114 -0.3887
  579TMC3    O1 8647   4.197   3.044   1.340 -0.3011  0.0492  0.2093
  579TMC3    O2 8648   4.374   3.492   1.720 -0.2053  0.1487 -0.2897
  580TMC3    C1 8649   2.751   2.335  12.445  0.8621  0.3251  0.0824
  580TMC3    C2 8650   2.844   2.430  12.425  0.1278  0.3271  0.1028
  580TMC3    C3 8651   2.972   2.391  12.419  0.0240 -0.2205  0.0507
  580TMC3    C4 8652   2.781   2.203  12.453  0.1973 -0.1166  0.3982
  580TMC3    C5 8653   2.917   2.167  12.455  0.2619 -0.4689 -0.4679
  580TMC3    C6 8654   3.011   2.258  12.436  0.6099 -0.0325 -0.0306
  580TMC3     C 8655   2.612   2.368  12.423 -0.0041 -0.1330  0.1953
  580TMC3     O 8656   2.529   2.307  12.487  0.2212  0.1622 -0.6883
  580TMC3     H 8657   2.817   2.530  12.456 -0.1992 -0.1074  1.2024
  580TMC3    H1 8658   2.703   2.135  12.485 -0.9032  1.1016  0.3507
  580TMC3    H2 8659   3.117   2.242  12.442  0.6817  0.3582 -0.2077
  580TMC3    C7 8660   2.942   2.025  12.479  0.0641 -0.5567 -0.1089
  580TMC3    C8 8661   3.079   2.492  12.403  0.1175  0.2296  0.4718
  580TMC3    O1 8662   2.857   1.955  12.528 -0.0687 -0.5130 -0.0768
  580TMC3    O2 8663   3.045   2.605  12.441 -0.0470  0.2167 -0.3695
  581MPD2     C 8664   0.328   1.807  14.687  0.7754 -0.1245 -0.7997
  581MPD2    C1 8665   0.221   1.829  14.775 -0.3014  0.7314 -0.2771
  581MPD2    C2 8666   0.129   1.934  14.750  0.0007  0.1004 -0.2461
  581MPD2    C3 8667   0.140   2.004  14.629  0.0348 -0.4125 -0.1374
  581MPD2    C4 8668   0.240   1.965  14.536  0.1765 -0.0304  1.1840
  581MPD2    C5 8669   0.331   1.865  14.565 -0.7349  0.0520  0.2848
  581MPD2     H 8670   0.047   1.966  14.813  2.1183  1.3080  1.8826
  581MPD2    H1 8671   0.248   2.013  14.440  1.0577  0.7380  1.6411
  581MPD2    H2 8672   0.406   1.739  14.719  0.5286 -0.2638 -0.4897
  581MPD2    H3 8673   0.419   1.839  14.508 -2.0109 -0.2924 -1.5327
  581MPD2     N 8674   0.054   2.116  14.603  0.3173 -0.6819  0.2022
  581MPD2    H5 8675   4.730   2.148  14.672  0.3070 -0.1470 -0.0604
  581MPD2    N1 8676   0.226   1.775  14.912 -0.1852  0.2990  0.0948
  581MPD2    H7 8677   0.317   1.748  14.948  0.8807  1.0955 -2.0045
  582TMC3    C1 8678   0.161   1.761  15.139  0.1740 -0.8444 -0.0862
  582TMC3    C2 8679   0.290   1.761  15.170  0.1223 -0.4916  0.4194
  582TMC3    C3 8680   0.323   1.776  15.302 -0.2902 -0.7581  0.7926
  582TMC3    C4 8681   0.064   1.789  15.224  0.6554 -0.6974  0.7756
  582TMC3    C5 8682   0.100   1.829  15.350 -0.0626  0.2876 -0.1744
  582TMC3    C6 8683   0.231   1.814  15.394  1.0205 -0.1548  0.5216
  582TMC3     C 8684   0.118   1.767  15.001 -1.0225  0.3141  0.1433
  582TMC3     O 8685   4.741   1.775  14.976 -0.0679 -0.0448  0.2047
  582TMC3     H 8686   0.367   1.742  15.096  3.1040 -0.7959  3.5811
  582TMC3    H1 8687   4.702   1.799  15.198  1.0762  0.4031 -0.5109
  582TMC3    H2 8688   0.268   1.855  15.487  0.7909  0.8906  0.1575
  582TMC3    C7 8689   0.016   1.925  15.422  0.3989 -0.1738  0.0548
  582TMC3    C8 8690   0.456   1.797  15.352  0.0122  0.0966  0.8613
  582TMC3    O1 8691   4.640   1.900  15.422  0.4222 -0.0617 -0.0587
  582TMC3    O2 8692   0.477   1.764  15.470  0.1998  0.8344  0.0345
  583MPD2     C 8693   0.880   3.691  16.877  0.3593 -0.1344 -0.0173
  583MPD2    C1 8694   0.838   3.810  16.811  0.3042 -0.6369 -0.2760
  583MPD2    C2 8695   0.795   3.912  16.897  0.2241 -0.8213 -0.8190
  583MPD2    C3 8696   0.814   3.915  17.032  0.5289  0.3921  0.2590
  583MPD2    C4 8697   0.887   3.808  17.092 -0.4664  0.4134 -0.1967
  583MPD2    C5 8698   0.911   3.697  17.013  1.0109 -0.1910  0.0446
  583MPD2     H 8699   0.734   3.985  16.846  3.1157  2.0257 -0.1682
  583MPD2    H1 8700   0.911   3.809  17.198 -0.1660  1.3935 -0.2709
  583MPD2    H2 8701   0.895   3.603  16.816  0.6652 -0.8435  1.0903
  583MPD2    H3 8702   0.940   3.600  17.052  0.9005 -1.2516 -2.5137
  583MPD2     N 8703   0.762   4.023  17.105 -0.1373 -0.5155 -1.0951
  583MPD2    H5 8704   0.735   4.108  17.057 -0.7503  0.7506  1.4785
  583MPD2    N1 8705   0.821   3.824  16.669  0.0925 -0.0565  0.2184
  583MPD2    H7 8706   0.786   3.914  16.636  0.1944 -0.7067 -1.6525
  584TMC3    C1 8707   0.716   4.137  17.300 -0.1440  0.5042 -0.3476
  584TMC3    C2 8708   0.767   4.255  17.239  0.2575  0.4918  0.0580
  584TMC3    C3 8709   0.773   4.363  17.321  0.3542 -0.0775  0.3550
  584TMC3    C4 8710   0.690   4.133  17.437 -0.1609  0.0515  0.6608
  584TMC3    C5 8711   0.700   4.249  17.517 -0.9274  0.0819  0.9165
  584TMC3    C6 8712   0.740   4.366  17.456 -0.0039  0.5133  0.0207
  584TMC3     C 8713   0.738   4.011  17.237 -0.2636 -0.5332  0.3506
  584TMC3     O 8714   0.760   3.919  17.313 -0.1406 -0.5616 -0.2027
  584TMC3     H 8715   0.797   4.257  17.135  1.6677 -1.1472  0.4384
  584TMC3    H1 8716   0.661   4.041  17.488 -0.4565 -0.7157 -0.8806
  584TMC3    H2 8717   0.713   4.459  17.505 -1.2971 -0.3915  1.0042
  584TMC3    C7 8718   0.644   4.239  17.648  0.3020  0.0058 -0.5972
  584TMC3    C8 8719   0.770   4.484  17.240 -0.5585 -0.4546  0.0551
  584TMC3    O1 8720   0.545   4.167  17.671 -0.5324 -0.0787  0.3732
  584TMC3    O2 8721   0.716   4.487  17.130 -0.5261 -0.3016 -0.0926
  585MPD2     C 8722   4.622   2.951   0.160  0.1340 -0.1507  0.1545
  585MPD2    C1 8723   4.689   2.983   0.047 -0.3776 -1.0105  0.0287
  585MPD2    C2 8724   0.040   2.898  17.763 -0.0219  0.6944  0.4669
  585MPD2    C3 8725   0.054   2.768   0.040 -0.2586  0.1447 -0.1383
  585MPD2    C4 8726   4.706   2.728   0.144  0.7478 -0.3307 -0.5171
  585MPD2    C5 8727   4.631   2.819   0.208  0.1391  0.4274  0.0207
  585MPD2     H 8728   0.090   2.926  17.671 -2.6884 -1.6836 -1.7059
  585MPD2    H1 8729   4.703   2.625   0.178 -0.1935  0.3807  1.5143
  585MPD2    H2 8730   4.550   3.013   0.213  2.1690 -0.4080  3.1812
  585MPD2    H3 8731   4.577   2.792   0.298  0.0879 -0.0469 -0.1507
  585MPD2     N 8732   0.120   2.664  17.739 -0.0710  0.0728 -0.6605
  585MPD2    H5 8733   0.088   2.572  17.767  0.8538  0.3079  1.1806
  585MPD2    N1 8734   4.663   3.109  17.762  0.5672 -0.3722 -0.3461
  585MPD2    H7 8735   4.612   3.175   0.050  1.0471 -0.0335 -0.3101
  586TMC3    C1 8736   0.195   2.593  17.527  0.0952 -0.4639 -0.0694
  586TMC3    C2 8737   0.293   2.603  17.429  0.9444  0.2236  0.1156
  586TMC3    C3 8738   0.275   2.523  17.327 -0.0230 -0.2177 -0.0609
  586TMC3    C4 8739   0.078   2.514  17.514  0.3803 -0.4805 -0.3251
  586TMC3    C5 8740   0.078   2.431  17.405 -0.2376 -0.2254  0.1713
  586TMC3    C6 8741   0.171   2.437  17.308 -0.7961 -0.4111  0.3937
  586TMC3     C 8742   0.195   2.692  17.628  0.7889  0.3611 -0.2802
  586TMC3     O 8743   0.265   2.789  17.609  0.2055  0.0361 -0.3282
  586TMC3     H 8744   0.387   2.656  17.440  1.0836  0.0780 -0.3980
  586TMC3    H1 8745   0.001   2.513  17.590 -0.3322 -1.6385 -1.0740
  586TMC3    H2 8746   0.158   2.388  17.212 -1.9115  0.8486 -0.1153
  586TMC3    C7 8747   4.732   2.312  17.413  0.0636 -0.2704 -0.0967
  586TMC3    C8 8748   0.386   2.487  17.246  0.0123 -0.5843  0.2030
  586TMC3    O1 8749   4.643   2.304  17.498  0.4750  0.0451 -0.2738
  586TMC3    O2 8750   0.500   2.494  17.291 -0.3870 -0.0171  0.0924
  587TMC3    C1 8751   2.137   1.347  16.503 -0.0754  0.2567  0.4097
  587TMC3    C2 8752   2.240   1.429  16.471 -0.5774 -0.1592  0.0898
  587TMC3    C3 8753   2.278   1.520  16.564  0.4781  0.8994 -0.3144
  587TMC3    C4 8754   2.055   1.367  16.610  0.5080  0.9942 -0.1122
  587TMC3    C5 8755   2.100   1.462  16.702 -0.0405  0.0222  0.7180
  587TMC3    C6 8756   2.211   1.532  16.684 -0.3002  0.5194 -0.0464
  587TMC3     C 8757   2.091   1.273  16.389 -0.3804  0.7114  0.4736
  587TMC3     O 8758   2.185   1.239  16.317 -0.3477 -0.4966  0.2782
  587TMC3     H 8759   2.284   1.421  16.372 -1.7592  2.4672 -0.6418
  587TMC3    H1 8760   1.966   1.310  16.635  1.7139 -0.3505  1.1045
  587TMC3    H2 8761   2.235   1.603  16.762 -0.5885  0.1501  0.3782
  587TMC3    C7 8762   2.048   1.459  16.835 -0.3275 -0.5732  0.4891
  587TMC3    C8 8763   2.354   1.629  16.509 -0.4193 -0.9757 -0.0412
  587TMC3    O1 8764   1.935   1.424  16.856  0.0440 -0.5569 -0.2337
  587TMC3    O2 8765   2.465   1.600  16.460  0.1370 -0.2374  0.7500
  588TMC3    C1 8766   4.479   3.861   9.977 -0.0655 -0.0400 -0.8731
  588TMC3    C2 8767   4.471   3.728   9.959 -0.0621  0.1239 -0.4594
  588TMC3    C3 8768   4.578   3.653   9.980 -0.4283 -0.2162  0.5289
  588TMC3    C4 8769   4.601   3.924  10.004 -0.4930  0.4008  0.4690
  588TMC3    C5 8770   4.714   3.849  10.017  0.3560 -0.0026  0.4834
  588TMC3    C6 8771   4.700   3.712  10.004  0.1811  0.0899 -0.5443
  588TMC3     C 8772   4.372   3.939   9.918  0.1423  0.2032 -0.4999
  588TMC3     O 8773   4.262   3.898   9.900 -0.9730 -0.2477 -0.1058
  588TMC3     H 8774   4.377   3.681   9.936  0.1626 -0.9392  0.8048
  588TMC3    H1 8775   4.607   4.032  10.016  0.8692  0.4080 -0.3175
  588TMC3    H2 8776   0.050   3.657   9.995 -0.7531 -1.3729 -1.2549
  588TMC3    C7 8777   0.096   3.902   9.972  1.0746  0.8279  0.1506
  588TMC3    C8 8778   4.560   3.514   9.996 -0.6272  0.4800  0.5965
  588TMC3    O1 8779   0.162   3.836   9.896 -0.3212 -0.6356  0.2320
  588TMC3    O2 8780   4.456   3.472   9.948  0.4326 -0.6066 -0.3938
  589TMC3    C1 8781   3.498   1.534   0.889 -0.7220 -0.5531 -0.5717
  589TMC3    C2 8782   3.593   1.533   0.988 -0.6804  0.2437  0.1059
  589TMC3    C3 8783   3.697   1.445   0.980  0.3133 -0.4899 -0.1035
  589TMC3    C4 8784   3.501   1.439   0.791 -0.4004  0.3763  0.3332
  589TMC3    C5 8785   3.608   1.353   0.781  0.0976 -0.0587 -0.4514
  589TMC3    C6 8786   3.709   1.349   0.880  0.5161 -0.4145 -0.5374
  589TMC3     C 8787   3.426   1.659   0.853 -0.3744 -0.6634 -0.8487
  589TMC3     O 8788   3.367   1.664   0.744 -0.2361 -0.0660 -0.1249
  589TMC3     H 8789   3.594   1.598   1.076  1.4871  0.3178  0.0330
  589TMC3    H1 8790   3.418   1.435   0.721 -0.8408 -0.7903  0.9267
  589TMC3    H2 8791   3.778   1.266   0.883  0.8038 -0.1107  1.5726
  589TMC3    C7 8792   3.603   1.248   0.682 -0.1776  0.4710  1.0521
  589TMC3    C8 8793   3.785   1.432   1.095  0.7869  0.2367 -0.4206
  589TMC3    O1 8794   3.672   1.153   0.715 -0.3048  0.4038 -0.0132
  589TMC3    O2 8795   3.749   1.473   1.204  0.3563 -0.3881 -0.3651
  590MPD2     C 8796   3.120   4.153  16.791  1.1391  0.4246 -0.0954
  590MPD2    C1 8797   3.068   4.277  16.776  0.4195 -0.5927  0.0118
  590MPD2    C2 8798   3.161   4.383  16.783 -0.7182  0.3020 -0.1607
  590MPD2    C3 8799   3.294   4.359  16.799 -0.3195  0.3997 -0.5972
  590MPD2    C4 8800   3.344   4.234  16.821  0.5733 -0.5286 -0.0387
  590MPD2    C5 8801   3.257   4.135  16.819 -0.0541  0.0689  0.4671
  590MPD2     H 8802   3.123   4.482  16.760  0.1945  0.1796 -2.1650
  590MPD2    H1 8803   3.451   4.227  16.833  0.5623 -1.7314 -0.5771
  590MPD2    H2 8804   3.055   4.067  16.791  2.3294 -0.4555 -1.7919
  590MPD2    H3 8805   3.293   4.036  16.843  2.2062  1.3239  2.2347
  590MPD2     N 8806   3.392   4.460  16.781  0.1764  0.5957  0.0686
  590MPD2    H5 8807   3.486   4.429  16.759  1.6955  2.3314  4.1260
  590MPD2    N1 8808   2.932   4.306  16.753 -0.4718  0.0535 -0.4857
  590MPD2    H7 8809   2.902   4.401  16.773  0.4920  0.2219  0.1784
  591TMC3    C1 8810   3.446   4.666  16.685 -0.6836 -0.2824  0.1348
  591TMC3    C2 8811   3.543   4.598  16.604  0.6326  0.7560 -0.0142
  591TMC3    C3 8812   3.570   4.670  16.487  0.0517  0.1067 -0.1743
  591TMC3    C4 8813   3.406   0.048  16.657 -0.4223 -0.3716 -0.0358
  591TMC3    C5 8814   3.450   0.113  16.545  0.2598 -0.0725 -0.0230
  591TMC3    C6 8815   3.535   0.057  16.455 -0.5908  0.3950  0.1126
  591TMC3     C 8816   3.355   4.592  16.772 -0.1487  0.5585 -0.1779
  591TMC3     O 8817   3.265   4.650  16.830 -0.2451 -0.1478  0.3509
  591TMC3     H 8818   3.554   4.490  16.601 -0.5922  0.6543 -0.8492
  591TMC3    H1 8819   3.327   0.088  16.719 -1.0064 -0.8141 -0.4957
  591TMC3    H2 8820   3.550   0.092  16.353  4.0922 -0.5222  0.4894
  591TMC3    C7 8821   3.355   0.210  16.493  0.2146  0.1676 -0.0974
  591TMC3    C8 8822   3.629   4.582  16.378 -0.7502 -0.8469 -0.1863
  591TMC3    O1 8823   3.239   0.188  16.531  0.0993  0.4551 -0.2382
  591TMC3    O2 8824   3.693   4.485  16.418  0.0347  0.2330 -0.1002
  592MPD2     C 8825   3.641   1.868  11.845 -0.2790  0.3007 -0.3421
  592MPD2    C1 8826   3.675   1.921  11.966 -0.3429  0.1783 -0.4027
  592MPD2    C2 8827   3.674   1.840  12.079  0.5521 -0.4483 -0.1176
  592MPD2    C3 8828   3.662   1.704  12.063 -0.4335 -0.9931 -0.7697
  592MPD2    C4 8829   3.631   1.656  11.941  0.3512 -0.2518 -0.4894
  592MPD2    C5 8830   3.607   1.737  11.837 -0.2452 -0.0448  0.5291
  592MPD2     H 8831   3.669   1.869  12.184  0.0560 -2.0998  0.3085
  592MPD2    H1 8832   3.609   1.554  11.913 -1.0683 -0.2980  0.7640
  592MPD2    H2 8833   3.644   1.929  11.756 -0.8746 -1.3011 -1.4524
  592MPD2    H3 8834   3.582   1.691  11.742  0.7541  2.0594 -0.7541
  592MPD2     N 8835   3.661   1.613  12.177  0.2476  0.8255  0.3209
  592MPD2    H5 8836   3.681   1.656  12.267  0.7165  0.8167  0.2236
  592MPD2    N1 8837   3.714   2.054  11.964 -0.6883 -0.3192 -0.0411
  592MPD2    H7 8838   3.713   2.103  11.875  0.6369  0.2648  0.2734
  593TMC3    C1 8839   3.782   2.262  12.058  0.2076 -0.7560 -0.0025
  593TMC3    C2 8840   3.781   2.332  12.173  0.3175  0.0915  0.2739
  593TMC3    C3 8841   3.804   2.462  12.159  0.3457  0.0820 -0.7984
  593TMC3    C4 8842   3.786   2.314  11.927 -0.2050  0.0563 -0.6615
  593TMC3    C5 8843   3.789   2.450  11.923  0.2624  0.6754  0.2642
  593TMC3    C6 8844   3.809   2.529  12.039 -0.0825 -0.3022 -0.6836
  593TMC3     C 8845   3.757   2.121  12.081 -0.9886  0.3072  0.4069
  593TMC3     O 8846   3.763   2.076  12.195  0.0408 -0.6768 -0.6655
  593TMC3     H 8847   3.795   2.290  12.272 -0.4931  0.8425  0.7039
  593TMC3    H1 8848   3.793   2.252  11.839  0.5630  0.5750 -0.9659
  593TMC3    H2 8849   3.837   2.634  12.036  2.2206 -0.9180 -0.9201
  593TMC3    C7 8850   3.831   2.511  11.799 -0.0724 -1.5538  0.4296
  593TMC3    C8 8851   3.850   2.529  12.278 -0.1796 -0.6930 -0.1959
  593TMC3    O1 8852   3.878   2.623  11.799  0.4458  0.3944 -0.8321
  593TMC3    O2 8853   3.790   2.513  12.383 -0.8153 -0.4599  0.2776
  594MPD2     C 8854   2.142   1.051  14.401  0.4379  0.4661  0.2105
  594MPD2    C1 8855   2.197   0.965  14.489 -0.2225 -0.2745 -0.0016
  594MPD2    C2 8856   2.330   0.985  14.521 -0.8732  0.1666  0.2875
  594MPD2    C3 8857   2.394   1.097  14.476  0.1989 -0.5658  0.3471
  594MPD2    C4 8858   2.326   1.200  14.408 -0.3237 -0.1514 -0.3450
  594MPD2    C5 8859   2.197   1.177  14.380 -0.6264  0.4034 -0.4911
  594MPD2     H 8860   2.378   0.911  14.584 -1.4565 -1.5266 -1.2757
  594MPD2    H1 8861   2.364   1.300  14.389  1.5504 -0.4548  1.8483
  594MPD2    H2 8862   2.037   1.046  14.378  0.9785 -2.5440 -1.5955
  594MPD2    H3 8863   2.137   1.252  14.330  0.0753 -0.3348 -2.4651
  594MPD2     N 8864   2.523   1.122  14.513 -0.7277 -0.5546 -0.7112
  594MPD2    H5 8865   2.556   1.066  14.591 -0.2691  2.3431  1.1779
  594MPD2    N1 8866   2.113   0.853  14.529 -0.3072  0.3358 -0.1786
  594MPD2    H7 8867   2.016   0.854  14.498 -0.4031  1.5254  0.1385
  595TMC3    C1 8868   2.938   1.340  14.510  0.0976 -0.0942 -0.1016
  595TMC3    C2 8869   2.837   1.271  14.444 -0.0578 -0.7169  0.2386
  595TMC3    C3 8870   2.726   1.237  14.525  0.3601  0.0981  0.7178
  595TMC3    C4 8871   2.927   1.382  14.637  0.2398 -0.5619 -0.2975
  595TMC3    C5 8872   2.820   1.344  14.710  0.3712 -0.4100 -0.3666
  595TMC3    C6 8873   2.717   1.275  14.656 -0.3898 -0.3171 -0.1775
  595TMC3     C 8874   3.077   1.305  14.492 -0.1614  0.5157  0.1052
  595TMC3     O 8875   3.163   1.390  14.518  0.0836 -0.9931 -0.3373
  595TMC3     H 8876   2.841   1.250  14.338 -2.6481 -0.2961  0.0635
  595TMC3    H1 8877   3.001   1.446  14.683  0.9023  0.1402 -2.3338
  595TMC3    H2 8878   2.621   1.261  14.703  0.0409 -0.3678  0.6895
  595TMC3    C7 8879   2.826   1.368  14.853  0.9546 -0.2692 -0.0776
  595TMC3    C8 8880   2.604   1.217  14.458  0.4349 -0.3499  0.3253
  595TMC3    O1 8881   2.934   1.380  14.912  0.4741 -0.3832 -0.6499
  595TMC3    O2 8882   2.595   1.277  14.353 -0.4119 -0.1659  0.6990
  596MPD2     C 8883   1.694   3.486  16.563  0.2348  0.4319  0.2735
  596MPD2    C1 8884   1.736   3.608  16.510 -0.6410 -0.0501  0.2914
  596MPD2    C2 8885   1.763   3.615  16.382 -0.3647  0.5941  0.0761
  596MPD2    C3 8886   1.744   3.509  16.300 -0.5840 -0.2780  0.2996
  596MPD2    C4 8887   1.695   3.389  16.341  0.5616 -0.6088  0.2367
  596MPD2    C5 8888   1.682   3.376  16.478  0.5821 -0.1269  0.2386
  596MPD2     H 8889   1.800   3.704  16.333 -0.0500 -0.5144 -1.7269
  596MPD2    H1 8890   1.669   3.307  16.276  0.5137  0.3159 -0.9040
  596MPD2    H2 8891   1.669   3.480  16.668  0.0597 -0.5980  0.1738
  596MPD2    H3 8892   1.645   3.283  16.520 -3.5303  0.1208 -2.9006
  596MPD2     N 8893   1.743   3.519  16.160  0.5092 -0.3485 -0.5240
  596MPD2    H5 8894   1.711   3.433  16.116 -0.7825 -0.2779  0.3078
  596MPD2    N1 8895   1.758   3.728  16.577 -0.1185 -0.2024 -0.2876
  596MPD2    H7 8896   1.770   3.809  16.517 -1.1882 -0.7552 -1.2442
  597TMC3    C1 8897   1.708   3.885  16.737 -0.4585 -0.0997  0.1564
  597TMC3    C2 8898   1.763   3.982  16.653 -0.4415 -0.3316 -0.1166
  597TMC3    C3 8899   1.713   4.108  16.670  0.5735 -0.0572  0.2286
  597TMC3    C4 8900   1.633   3.921  16.843  0.2923  0.3115 -0.1226
  597TMC3    C5 8901   1.607   4.049  16.875 -0.2100 -1.0263  0.2663
  597TMC3    C6 8902   1.639   4.148  16.781  0.6570 -0.0417  0.1516
  597TMC3     C 8903   1.727   3.748  16.708  0.1035  0.0961 -0.1660
  597TMC3     O 8904   1.709   3.664  16.796 -0.4358 -0.0666  0.0976
  597TMC3     H 8905   1.826   3.955  16.569 -0.5354 -0.4460 -0.1509
  597TMC3    H1 8906   1.595   3.839  16.904  3.0503 -0.4863  0.5444
  597TMC3    H2 8907   1.618   4.254  16.789  1.1358  0.1755 -1.4457
  597TMC3    C7 8908   1.512   4.072  16.979  0.4305 -0.4281 -0.8148
  597TMC3    C8 8909   1.757   4.215  16.582 -0.3024 -0.1022  0.5036
  597TMC3    O1 8910   1.476   3.976  17.043 -0.0236 -0.6221 -0.4188
  597TMC3    O2 8911   1.734   4.326  16.619  0.4510 -0.0905 -0.4391
  598TMC3    C1 8912   4.206   0.318  15.524  0.1423  0.1965 -0.5664
  598TMC3    C2 8913   4.106   0.230  15.524 -0.4038 -0.1601  0.0718
  598TMC3    C3 8914   4.039   0.215  15.402 -0.2045 -0.0183  0.3600
  598TMC3    C4 8915   4.252   0.380  15.414 -0.2603 -0.2851  0.3549
  598TMC3    C5 8916   4.187   0.362  15.298  0.3413 -0.2749 -0.2740
  598TMC3    C6 8917   4.072   0.287  15.289  0.3932  0.5803  0.0146
  598TMC3     C 8918   4.306   0.309  15.636 -0.0616 -0.4117 -0.0419
  598TMC3     O 8919   4.392   0.395  15.631  0.0277 -0.1458 -0.2018
  598TMC3     H 8920   4.070   0.173  15.609  0.2588 -1.9088 -0.8259
  598TMC3    H1 8921   4.338   0.445  15.415  0.7532 -1.6361  0.1706
  598TMC3    H2 8922   4.009   0.280  15.201  1.1874  0.7522 -0.5705
  598TMC3    C7 8923   4.239   0.412  15.169 -0.1785 -0.5041 -0.3294
  598TMC3    C8 8924   3.936   0.111  15.388 -0.2849  0.5335 -0.0083
  598TMC3    O1 8925   4.187   0.354  15.071  0.0111 -0.2309 -0.2138
  598TMC3    O2 8926   3.886   0.078  15.494  0.7441 -0.3724  0.2818
  599MPD2     C 8927   4.673   2.582  15.766  0.5940 -0.9341 -0.1605
  599MPD2    C1 8928   4.647   2.460  15.822  0.1796 -0.5410  0.2806
  599MPD2    C2 8929   4.550   2.452  15.917  0.4780 -0.4373  0.0310
  599MPD2    C3 8930   4.492   2.571  15.968 -0.2701 -1.0015 -0.3368
  599MPD2    C4 8931   4.524   2.690  15.913  0.3804  0.3385 -0.3415
  599MPD2    C5 8932   4.608   2.697  15.803 -0.1454  0.7235 -0.3569
  599MPD2     H 8933   4.537   2.357  15.968 -1.1559 -0.2130  0.0571
  599MPD2    H1 8934   4.483   2.784  15.948  0.0676  1.5049 -3.8593
  599MPD2    H2 8935   0.012   2.589  15.695 -1.0889 -1.5155 -2.1549
  599MPD2    H3 8936   4.641   2.793  15.765  3.8632 -0.7349 -0.6294
  599MPD2     N 8937   4.412   2.576  16.084 -0.1924  0.1698  0.2491
  599MPD2    H5 8938   4.389   2.669  16.118 -1.6787  0.9870 -2.9261
  599MPD2    N1 8939   4.742   2.358  15.788 -0.2512  0.1136 -0.2148
  599MPD2    H7 8940   0.084   2.385  15.739 -0.1797  0.2116 -0.0388
  600TMC3    C1 8941   4.285   2.500  16.275  0.2148 -0.0215  0.2730
  600TMC3    C2 8942   4.176   2.420  16.306 -0.8156 -0.1404  0.1586
  600TMC3    C3 8943   4.093   2.463  16.405 -0.0585 -0.3216 -0.0126
  600TMC3    C4 8944   4.319   2.607  16.343 -0.6443  0.5186 -0.1799
  600TMC3    C5 8945   4.244   2.637  16.453 -0.5291 -0.0467 -0.1546
  600TMC3    C6 8946   4.124   2.577  16.483 -0.1134 -0.3168 -0.9117
  600TMC3     C 8947   4.353   2.465  16.150  0.6920  0.7432  1.0215
  600TMC3     O 8948   4.350   2.342  16.125  0.6074  0.5386  0.3478
  600TMC3     H 8949   4.155   2.332  16.246  2.4920 -0.3757 -0.6604
  600TMC3    H1 8950   4.415   2.653  16.320  0.0982  0.1347  2.1562
  600TMC3    H2 8951   4.055   2.615  16.557  0.7252 -4.1359  1.7939
  600TMC3    C7 8952   4.273   2.756  16.532 -0.3389  0.7200 -0.3732
  600TMC3    C8 8953   3.986   2.378  16.449 -0.9745  0.4152  0.0190
  600TMC3    O1 8954   4.212   2.769  16.636  0.2604  0.0825  0.0759
  600TMC3    O2 8955   3.991   2.323  16.563 -1.3680 -0.4761  0.4671
  601MPD2     C 8956   2.216   1.368   0.421 -0.3536 -0.2534 -0.3272
  601MPD2    C1 8957   2.120   1.273   0.380 -0.7759  0.2576 -0.6325
  601MPD2    C2 8958   2.147   1.140   0.424  0.2259  0.0654 -0.7200
  601MPD2    C3 8959   2.261   1.107   0.496 -0.4763  0.8258 -0.1234
  601MPD2    C4 8960   2.352   1.201   0.519 -0.1570  0.1236 -0.2850
  601MPD2    C5 8961   2.330   1.329   0.486 -0.1068  0.3063 -0.1767
  601MPD2     H 8962   2.083   1.060   0.387  1.1870 -0.6900 -0.7530
  601MPD2    H1 8963   2.446   1.183   0.570  1.0014  1.3065 -2.0014
  601MPD2    H2 8964   2.203   1.475   0.405 -1.0925 -0.6058 -2.1712
  601MPD2    H3 8965   2.399   1.410   0.506 -1.2727  2.0215 -2.9855
  601MPD2     N 8966   2.301   0.976   0.534  0.4305  0.2000  0.0970
  601MPD2    H5 8967   2.399   0.959   0.552  0.5877  0.2850 -0.6822
  601MPD2    N1 8968   2.007   1.291   0.292 -0.8807 -0.6641  0.1249
  601MPD2    H7 8969   1.958   1.207   0.263 -0.7869 -0.0759 -1.6780
  602TMC3    C1 8970   1.836   1.424   0.180 -0.1729 -0.4072  0.2926
  602TMC3    C2 8971   1.787   1.552   0.170  0.1627 -0.3920 -0.3624
  602TMC3    C3 8972   1.692   1.577   0.085  0.4400 -0.5855 -0.0973
  602TMC3    C4 8973   1.782   1.318   0.113 -0.6520 -0.0735  0.2140
  602TMC3    C5 8974   1.685   1.355   0.023  0.1482  0.5512 -0.0738
  602TMC3    C6 8975   1.639   1.480   0.008  0.4325  0.6365 -0.1341
  602TMC3     C 8976   1.966   1.421   0.253  0.6768 -0.4741  0.0914
  602TMC3     O 8977   2.016   1.524   0.289 -0.8342  0.1724  0.2107
  602TMC3     H 8978   1.843   1.628   0.224 -1.6129  0.6230  0.0769
  602TMC3    H1 8979   1.833   1.223   0.102  0.6653  0.4666  1.6356
  602TMC3    H2 8980   1.584   1.513  17.691  2.5405  0.3019 -1.6069
  602TMC3    C7 8981   1.596   1.254  17.737 -0.1930 -0.0543  0.0368
  602TMC3    C8 8982   1.635   1.715   0.082  0.1299 -0.4631 -0.5718
  602TMC3    O1 8983   1.634   1.139  17.719 -0.8500 -0.1746 -0.2191
  602TMC3    O2 8984   1.719   1.805   0.095  0.7707 -0.4200  0.6518
  603TMC3    C1 8985   0.021   1.134  10.940 -0.6212  0.0636  0.2170
  603TMC3    C2 8986   0.073   1.080  11.053 -0.1115 -0.0258 -0.1016
  603TMC3    C3 8987   0.068   1.156  11.166  0.2771  0.0332 -0.2280
  603TMC3    C4 8988   4.734   1.266  10.930 -1.0241 -0.2610  0.6507
  603TMC3    C5 8989   0.001   1.344  11.045  0.2670  0.0074  0.7159
  603TMC3    C6 8990   0.027   1.290  11.163  0.5456 -0.0334 -0.0279
  603TMC3     C 8991   4.739   1.045  10.823  0.5655 -0.4092 -0.8410
  603TMC3     O 8992   4.720   1.103  10.712  0.0915  0.3195 -0.0062
  603TMC3     H 8993   0.112   0.979  11.062 -0.7680 -0.4552 -2.1237
  603TMC3    H1 8994   4.716   1.302  10.830  2.8480  1.2485  0.5313
  603TMC3    H2 8995   0.058   1.356  11.243 -0.1734  0.9863 -0.5908
  603TMC3    C7 8996   4.725   1.485  11.024  0.5297  0.1218  0.3066
  603TMC3    C8 8997   0.088   1.098  11.293  0.4147 -0.1050 -0.1783
  603TMC3    O1 8998   0.002   1.550  11.125 -0.2244 -0.2086 -1.2640
  603TMC3    O2 8999   0.108   0.979  11.286 -0.1413  0.0806  0.2064
  604MPD2     C 9000   0.946   0.284  16.483 -0.8709 -0.2633 -0.2491
  604MPD2    C1 9001   0.849   0.189  16.456 -0.2664  0.0639  0.4293
  604MPD2    C2 9002   0.833   0.149  16.322  0.7252  0.2507  0.8351
  604MPD2    C3 9003   0.929   0.196  16.229 -0.3450  0.0344  0.1170
  604MPD2    C4 9004   1.031   0.281  16.268  0.0277  0.1213  0.1421
  604MPD2    C5 9005   1.034   0.331  16.393 -0.8288  0.5383 -0.4975
  604MPD2     H 9006   0.758   0.079  16.285  0.0704  0.8622  1.0061
  604MPD2    H1 9007   1.100   0.317  16.192 -0.1220 -0.5706 -0.3187
  604MPD2    H2 9008   0.951   0.333  16.579 -0.0568 -1.7819  0.4894
  604MPD2    H3 9009   1.100   0.408  16.433 -0.8881  0.3163  0.0312
  604MPD2     N 9010   0.910   0.143  16.103  0.5278 -0.4599 -0.2936
  604MPD2    H5 9011   0.845   0.066  16.091 -2.1103  1.4524  1.5839
  604MPD2    N1 9012   0.756   0.155  16.561 -0.5645 -0.1493 -0.1754
  604MPD2    H7 9013   0.765   0.205  16.649 -2.0012 -0.9839  0.4419
  605TMC3    C1 9014   0.559   0.098  16.655  0.1680 -0.5784  0.2468
  605TMC3    C2 9015   0.633   0.147  16.760 -1.2367 -0.3099 -0.3311
  605TMC3    C3 9016   0.595   0.267  16.814  0.8553  0.4058  0.4706
  605TMC3    C4 9017   0.448   0.166  16.608  0.8473  0.0108 -0.2379
  605TMC3    C5 9018   0.418   0.282  16.667  0.3506  0.2783  0.9690
  605TMC3    C6 9019   0.487   0.336  16.776  0.7095  0.2106 -0.1713
  605TMC3     C 9020   0.650   0.075  16.546  0.1305 -0.2133 -0.5856
  605TMC3     O 9021   0.611   4.732  16.461  0.2065  0.0461  0.1511
  605TMC3     H 9022   0.724   0.099  16.795 -2.0117 -0.3268  1.6837
  605TMC3    H1 9023   0.416   0.129  16.511  0.9998 -2.8148  0.8004
  605TMC3    H2 9024   0.471   0.439  16.805 -0.9216 -0.5053  1.4190
  605TMC3    C7 9025   0.320   0.368  16.600 -0.1718 -0.6470  0.0125
  605TMC3    C8 9026   0.707   0.351  16.850 -0.1113  0.2482 -0.5139
  605TMC3    O1 9027   0.317   0.490  16.620 -0.1526  0.2240 -0.2377
  605TMC3    O2 9028   0.815   0.317  16.802  0.4361  0.0412  0.0892
  606TMC3    C1 9029   1.496   4.234  17.656  0.2248 -0.6245  0.0816
  606TMC3    C2 9030   1.544   4.200   0.017  0.4729 -0.5383 -0.1857
  606TMC3    C3 9031   1.627   4.087   0.020  0.5949  1.0446  0.2458
  606TMC3    C4 9032   1.534   4.165  17.539 -0.2231 -0.5129  0.0488
  606TMC3    C5 9033   1.600   4.048  17.558 -0.2278  0.9609  0.1256
  606TMC3    C6 9034   1.648   4.010  17.676 -0.3245 -0.2545  0.2292
  606TMC3     C 9035   1.421   4.356  17.648  0.4549 -0.6773 -0.2877
  606TMC3     O 9036   1.455   4.438  17.564  0.0401  0.2856 -0.6173
  606TMC3     H 9037   1.514   4.253   0.107  1.7562 -1.7331  0.9496
  606TMC3    H1 9038   1.487   4.190  17.445  1.5076  0.6299 -0.5105
  606TMC3    H2 9039   1.702   3.916  17.684  1.2872  0.8043  1.8317
  606TMC3    C7 9040   1.612   3.968  17.436  0.4683 -0.0833  0.1124
  606TMC3    C8 9041   1.713   4.062   0.136 -0.1525  0.0310  0.4729
  606TMC3    O1 9042   1.630   4.038  17.335 -0.6711  0.3512 -0.3146
  606TMC3    O2 9043   1.768   3.950   0.131 -0.4875 -0.0260 -0.4685
  607MPD2     C 9044   3.740   1.200  11.624  0.1434 -0.5219  0.9897
  607MPD2    C1 9045   3.733   1.237  11.755  0.3859 -0.2996  0.3746
  607MPD2    C2 9046   3.684   1.151  11.852 -0.1631 -0.8226 -0.1335
  607MPD2    C3 9047   3.649   1.025  11.814 -0.0546  0.2338 -0.1265
  607MPD2    C4 9048   3.641   0.993  11.681 -0.2812  0.7380 -0.0804
  607MPD2    C5 9049   3.683   1.082  11.589 -0.5151  0.4120 -0.1363
  607MPD2     H 9050   3.695   1.185  11.955  1.1248  1.0490 -0.9011
  607MPD2    H1 9051   3.603   0.898  11.644  2.4493  0.4151 -2.0469
  607MPD2    H2 9052   3.785   1.254  11.541  0.1018  0.6702  1.7404
  607MPD2    H3 9053   3.696   1.043  11.489 -1.6077  0.9371 -0.4806
  607MPD2     N 9054   3.613   0.928  11.911  0.2159  0.3679 -0.2117
  607MPD2    H5 9055   3.611   0.972  12.003  1.5319 -0.4263  0.2038
  607MPD2    N1 9056   3.786   1.356  11.812  0.8546  0.0184 -0.0624
  607MPD2    H7 9057   3.773   1.365  11.912  1.1563  0.9074 -0.1025
  608TMC3    C1 9058   3.923   1.540  11.845 -0.8669 -0.5166  0.5216
  608TMC3    C2 9059   3.956   1.478  11.965 -1.0843 -0.5330 -0.9586
  608TMC3    C3 9060   4.017   1.549  12.062  0.1128 -0.0142  0.1586
  608TMC3    C4 9061   3.951   1.671  11.819  0.4903 -0.4080 -0.5436
  608TMC3    C5 9062   4.007   1.740  11.920  0.1611  0.1843 -0.1110
  608TMC3    C6 9063   4.044   1.677  12.043  0.0952  0.0904  0.3000
  608TMC3     C 9064   3.847   1.458  11.749 -0.3746  0.1040 -0.0117
  608TMC3     O 9065   3.842   1.489  11.628 -0.1285 -0.9253 -0.2843
  608TMC3     H 9066   3.970   1.370  11.970 -1.2309 -0.5403 -0.7112
  608TMC3    H1 9067   3.892   1.726  11.746  0.8227  0.3223 -0.2597
  608TMC3    H2 9068   4.096   1.728  12.123  0.5613  1.8752 -1.1357
  608TMC3    C7 9069   4.052   1.870  11.872  0.2122 -0.7339  1.3386
  608TMC3    C8 9070   4.034   1.485  12.188  0.2729  0.6323  0.1908
  608TMC3    O1 9071   4.046   1.898  11.751 -0.2303  0.0050 -0.1082
  608TMC3    O2 9072   4.103   1.543  12.273  0.2086 -0.6234  0.9208
  609TMC3    C1 9073   1.987   0.145   9.958  0.3869 -0.3082  0.0951
  609TMC3    C2 9074   1.869   0.088   9.924 -0.2674 -0.2711  0.1849
  609TMC3    C3 9075   1.879   4.705   9.875  0.4601  0.7170 -0.0070
  609TMC3    C4 9076   2.109   0.092   9.939  0.1835 -0.3905 -0.3111
  609TMC3    C5 9077   2.115   4.709   9.884 -0.8530 -0.2752 -0.0140
  609TMC3    C6 9078   1.998   4.647   9.845 -0.6187 -0.4735  0.0487
  609TMC3     C 9079   1.976   0.275  10.013  0.3411  0.4227  0.1328
  609TMC3     O 9080   1.863   0.323  10.026 -0.3864 -0.0074  0.2961
  609TMC3     H 9081   1.771   0.135   9.929  0.0606  0.2960  1.4713
  609TMC3    H1 9082   2.202   0.128   9.979 -0.6131  1.0200  0.2549
  609TMC3    H2 9083   2.000   4.545   9.811  0.5040 -0.2560 -0.5244
  609TMC3    C7 9084   2.249   4.659   9.849 -0.1792 -0.3103 -0.5486
  609TMC3    C8 9085   1.757   4.633   9.835 -0.1275  0.0664 -0.0635
  609TMC3    O1 9086   2.345   4.711   9.900 -0.1235 -0.1511 -0.5666
  609TMC3    O2 9087   1.767   4.511   9.848 -0.9041  0.1970  0.4359
  610TMC3    C1 9088   4.274   1.730  12.561  0.6948  0.3533 -0.3663
  610TMC3    C2 9089   4.279   1.833  12.467 -1.3139  0.1758  0.2596
  610TMC3    C3 9090   4.352   1.807  12.349 -0.2631  0.1799  0.3949
  610TMC3    C4 9091   4.330   1.604  12.542  0.5009 -0.3138  0.3454
  610TMC3    C5 9092   4.379   1.577  12.410  0.1463 -0.3298  0.1980
  610TMC3    C6 9093   4.393   1.679  12.320 -0.6685 -0.2811 -0.1305
  610TMC3     C 9094   4.211   1.759  12.687 -0.0468  0.0339  0.1652
  610TMC3     O 9095   4.117   1.839  12.690  0.0888 -0.2460 -0.5539
  610TMC3     H 9096   4.244   1.932  12.490  0.1414  0.5417  0.8806
  610TMC3    H1 9097   4.317   1.529  12.620  0.5276  0.9447  1.5677
  610TMC3    H2 9098   4.434   1.656  12.222  0.8564 -0.7948  0.6286
  610TMC3    C7 9099   4.419   1.441  12.368  0.1150  0.0922 -0.4602
  610TMC3    C8 9100   4.380   1.912  12.256 -0.5387  1.1426  0.0385
  610TMC3    O1 9101   4.419   1.355  12.457  0.6538 -0.0411  0.1431
  610TMC3    O2 9102   4.333   2.025  12.256  0.2719  0.1849  0.6833
  611MPD2     C 9103   3.921   1.226  10.373 -0.8842 -0.8766 -0.1323
  611MPD2    C1 9104   3.851   1.347  10.374 -0.2447 -0.2912 -0.7326
  611MPD2    C2 9105   3.922   1.464  10.350 -0.1343 -0.2777  0.1029
  611MPD2    C3 9106   4.057   1.456  10.334 -0.3108  0.4689  0.6349
  611MPD2    C4 9107   4.123   1.331  10.337  0.0445  0.3336  0.0655
  611MPD2    C5 9108   4.052   1.219  10.353 -0.4115 -0.1412  0.5825
  611MPD2     H 9109   3.866   1.556  10.338 -0.9665 -0.8757 -0.6286
  611MPD2    H1 9110   4.231   1.321  10.327  0.1644  1.0228  0.6370
  611MPD2    H2 9111   3.870   1.132  10.392 -1.5939 -0.4923 -0.0977
  611MPD2    H3 9112   4.101   1.124  10.369 -1.3236 -1.0033 -1.6613
  611MPD2     N 9113   4.132   1.573  10.317  0.4280  0.4668  0.4670
  611MPD2    H5 9114   4.229   1.577  10.345  1.0651 -1.3724 -1.5136
  611MPD2    N1 9115   3.710   1.338  10.397 -0.0892  0.3601 -0.5350
  611MPD2    H7 9116   3.680   1.241  10.392  0.2664  0.3143 -1.7357
  612TMC3    C1 9117   4.192   1.784  10.267 -0.0730 -0.5066 -0.0949
  612TMC3    C2 9118   4.292   1.783  10.364 -0.8396  0.1077 -0.5237
  612TMC3    C3 9119   4.377   1.888  10.368  0.1180  0.4129  0.0251
  612TMC3    C4 9120   4.164   1.890  10.184  0.1506  0.0128  0.1427
  612TMC3    C5 9121   4.255   1.990  10.192 -0.2989 -0.0867 -0.5771
  612TMC3    C6 9122   4.361   1.992  10.278 -1.0566 -1.3125  0.1369
  612TMC3     C 9123   4.082   1.691  10.273 -0.1910 -0.3051  0.1366
  612TMC3     O 9124   3.975   1.721  10.220 -0.1300 -0.1183 -0.1316
  612TMC3     H 9125   4.287   1.718  10.451 -1.9341 -0.4958 -1.0401
  612TMC3    H1 9126   4.098   1.867  10.101 -0.9465 -1.5333  1.4285
  612TMC3    H2 9127   4.434   2.072  10.287 -1.5044 -1.0669  1.6165
  612TMC3    C7 9128   4.254   2.091  10.096  1.1445  0.0520  0.0702
  612TMC3    C8 9129   4.471   1.900  10.478  0.0272 -0.0379  0.0838
  612TMC3    O1 9130   4.312   2.193  10.131  0.0588  0.4205 -0.0473
  612TMC3    O2 9131   4.537   2.003  10.487  0.1048 -0.0278 -0.4014
  613MPD2     C 9132   3.500   3.936  15.696  0.3876  0.5559 -0.0956
  613MPD2    C1 9133   3.488   3.799  15.664  0.9309 -0.2277  0.4610
  613MPD2    C2 9134   3.402   3.728  15.745 -0.7686  0.1815  0.2745
  613MPD2    C3 9135   3.335   3.781  15.851 -0.2832  0.2578 -0.7810
  613MPD2    C4 9136   3.347   3.911  15.883  0.2147 -0.0196  0.4795
  613MPD2    C5 9137   3.439   3.985  15.813 -0.7510  0.2582  0.0590
  613MPD2     H 9138   3.370   3.626  15.728 -0.9998  0.3482 -0.2652
  613MPD2    H1 9139   3.306   3.956  15.973  0.2861  2.5287 -0.7819
  613MPD2    H2 9140   3.566   3.995  15.634  0.0005  2.8291  1.6469
  613MPD2    H3 9141   3.451   4.086  15.852 -2.5241  0.3208  0.4490
  613MPD2     N 9142   3.251   3.691  15.910  0.0853  0.3989 -0.7274
  613MPD2    H5 9143   3.244   3.601  15.863 -0.4382 -0.5919  1.2288
  613MPD2    N1 9144   3.545   3.743  15.542 -0.1378  0.8094  0.4287
  613MPD2    H7 9145   3.607   3.803  15.488 -0.5856  0.2339 -0.7133
  614TMC3    C1 9146   3.559   3.609  15.361  1.3831 -0.2472  0.0848
  614TMC3    C2 9147   3.538   3.482  15.314 -0.6196 -0.2828  0.6263
  614TMC3    C3 9148   3.459   3.463  15.212 -0.4444  0.1721 -0.0502
  614TMC3    C4 9149   3.513   3.714  15.285  0.5690 -0.5243  0.6603
  614TMC3    C5 9150   3.434   3.688  15.177  0.0008  0.4450 -0.7092
  614TMC3    C6 9151   3.401   3.561  15.136 -0.6941  0.6224  1.0093
  614TMC3     C 9152   3.525   3.618  15.501 -0.6277 -0.1117  0.5426
  614TMC3     O 9153   3.487   3.520  15.559 -0.2161 -0.3008 -0.8925
  614TMC3     H 9154   3.579   3.401  15.374  0.9303 -0.8577 -1.2257
  614TMC3    H1 9155   3.528   3.816  15.316 -1.6468 -0.3754  1.2525
  614TMC3    H2 9156   3.335   3.540  15.053  0.9676 -0.7661  0.0368
  614TMC3    C7 9157   3.361   3.808  15.142  0.0595  0.2855 -0.4805
  614TMC3    C8 9158   3.375   3.348  15.211 -0.0903 -0.1681 -0.4095
  614TMC3    O1 9159   3.421   3.912  15.141 -0.2752 -0.1529  0.4548
  614TMC3    O2 9160   3.301   3.334  15.114 -0.4376  0.2205 -0.0889
  615MPD2     C 9161   2.209   0.208  15.763 -0.3892 -0.8263  0.1731
  615MPD2    C1 9162   2.148   0.325  15.806  0.4433 -0.0916 -0.0484
  615MPD2    C2 9163   2.068   0.400  15.719 -0.3275 -0.5925 -0.3110
  615MPD2    C3 9164   2.040   0.358  15.590  0.3746  0.1449 -0.7745
  615MPD2    C4 9165   2.107   0.244  15.547 -0.5177  0.0536  0.1322
  615MPD2    C5 9166   2.183   0.163  15.630 -0.2520 -0.7266 -0.1002
  615MPD2     H 9167   2.025   0.495  15.747 -0.2322 -0.6505  0.0276
  615MPD2    H1 9168   2.087   0.213  15.445  2.6291  0.0644 -0.4890
  615MPD2    H2 9169   2.261   0.142  15.831  1.6106 -0.0022 -0.5647
  615MPD2    H3 9170   2.222   0.065  15.606  2.4613 -0.1381  1.8893
  615MPD2     N 9171   1.970   0.437  15.503  0.0767  0.1024 -0.4304
  615MPD2    H5 9172   1.971   0.421  15.403 -3.6953  1.6672 -0.7298
  615MPD2    N1 9173   2.170   0.366  15.929  0.5623  0.5275  0.8256
  615MPD2    H7 9174   2.113   0.448  15.945  0.3499  1.0587 -2.7021
  616TMC3    C1 9175   2.249   0.404  16.139  0.2311  0.5457  0.1272
  616TMC3    C2 9176   2.266   0.341  16.261  0.0293 -0.2389  0.2958
  616TMC3    C3 9177   2.289   0.419  16.365  0.4403 -0.0209  0.1060
  616TMC3    C4 9178   2.262   0.536  16.119 -0.3133 -0.2775  0.6019
  616TMC3    C5 9179   2.282   0.610  16.229  0.6576 -0.6434 -0.3400
  616TMC3    C6 9180   2.302   0.557  16.355  0.9308 -0.2310 -0.1099
  616TMC3     C 9181   2.248   0.314  16.027  0.0489  0.4514  0.1465
  616TMC3     O 9182   2.303   0.205  16.038 -0.5990  0.4856  0.2015
  616TMC3     H 9183   2.254   0.234  16.265 -0.5882 -0.1154  1.7240
  616TMC3    H1 9184   2.245   0.583  16.023  0.0974  0.0217  0.6794
  616TMC3    H2 9185   2.323   0.617  16.443  0.7010 -0.5798  0.1830
  616TMC3    C7 9186   2.311   0.752  16.220 -0.4124  0.4466  0.0718
  616TMC3    C8 9187   2.363   0.353  16.468 -0.5559 -0.5352 -0.0035
  616TMC3    O1 9188   2.307   0.816  16.326  0.6265  0.0612  0.8609
  616TMC3    O2 9189   2.331   0.239  16.504 -0.2875  0.4858 -0.4777
  617MPD2     C 9190   0.595   3.585  13.436  0.3149  0.3480 -0.1338
  617MPD2    C1 9191   0.609   3.559  13.572 -0.1740  0.0221  0.6221
  617MPD2    C2 9192   0.509   3.489  13.639  0.0673 -0.2590 -0.0083
  617MPD2    C3 9193   0.406   3.433  13.563  0.3679  0.0159  0.7868
  617MPD2    C4 9194   0.398   3.455  13.434 -0.8848 -0.4106 -0.1494
  617MPD2    C5 9195   0.487   3.538  13.367  0.5096 -0.0387  0.1776
  617MPD2     H 9196   0.514   3.472  13.746  2.2680  0.3966 -0.0010
  617MPD2    H1 9197   0.326   3.402  13.373 -0.4197 -0.1984 -0.8763
  617MPD2    H2 9198   0.660   3.653  13.382 -1.1279  0.2846 -1.9550
  617MPD2    H3 9199   0.477   3.549  13.259 -1.3081  0.2143  0.3706
  617MPD2     N 9200   0.307   3.342  13.603  0.4954 -0.3906  0.4211
  617MPD2    H5 9201   0.245   3.304  13.532  2.4332 -2.5496 -0.1008
  617MPD2    N1 9202   0.726   3.618  13.617  0.3495  0.2864 -0.1840
  617MPD2    H7 9203   0.788   3.650  13.543 -1.8426  1.3642 -1.5609
  618TMC3    C1 9204   0.882   3.697  13.777  0.4814 -0.5833 -0.9294
  618TMC3    C2 9205   0.966   3.654  13.878  0.2892 -0.5635  0.1005
  618TMC3    C3 9206   1.095   3.701  13.895 -0.3659 -0.2188  0.7585
  618TMC3    C4 9207   0.925   3.784  13.685  0.0199 -0.0842 -0.0983
  618TMC3    C5 9208   1.047   3.832  13.695  0.2839  0.3273 -0.6523
  618TMC3    C6 9209   1.136   3.789  13.794 -0.4241  1.0452 -0.1030
  618TMC3     C 9210   0.766   3.616  13.750 -0.1378  0.0940 -0.2531
  618TMC3     O 9211   0.712   3.570  13.852  0.7263 -0.3938  0.0495
  618TMC3     H 9212   0.926   3.571  13.936 -0.0571  0.1369  0.8546
  618TMC3    H1 9213   0.860   3.811  13.603 -1.3304  3.2034  2.0667
  618TMC3    H2 9214   1.237   3.828  13.791 -0.8191  2.1325  0.7333
  618TMC3    C7 9215   1.111   3.836  13.569  0.3533  0.2485 -0.5922
  618TMC3    C8 9216   1.194   3.603  13.928  0.0932 -0.7759 -0.1935
  618TMC3    O1 9217   1.048   3.889  13.484  0.5617  0.4249  0.2721
  618TMC3    O2 9218   1.293   3.595  13.867  0.5868 -0.1789  0.0403
  619MPD2     C 9219   1.494   4.494  13.396 -0.0942 -0.0299  0.1475
  619MPD2    C1 9220   1.428   4.613  13.423 -0.5628 -0.2734 -0.1536
  619MPD2    C2 9221   1.296   4.618  13.453  0.6993 -0.2288  0.3993
  619MPD2    C3 9222   1.227   4.495  13.463  0.7109  0.3777 -0.2719
  619MPD2    C4 9223   1.295   4.377  13.437 -0.1580 -0.5059  0.2888
  619MPD2    C5 9224   1.423   4.376  13.398  1.0962  0.1114 -0.3617
  619MPD2     H 9225   1.246   4.714  13.464  1.7934  0.4588 -0.5877
  619MPD2    H1 9226   1.242   4.283  13.425  4.5651 -2.7185 -3.5872
  619MPD2    H2 9227   1.599   4.492  13.369  0.5739  2.0343  2.6044
  619MPD2    H3 9228   1.473   4.284  13.372 -0.5652 -0.7108 -0.6884
  619MPD2     N 9229   1.086   4.486  13.478 -0.7072 -0.0471  0.1603
  619MPD2    H5 9230   1.048   4.392  13.476 -0.3214 -0.2302  1.3675
  619MPD2    N1 9231   1.500   4.737  13.414 -0.0162  0.0827 -0.7347
  619MPD2    H7 9232   1.457   0.081  13.444 -2.0685 -1.1641 -0.0447
  620TMC3    C1 9233   1.643   0.152  13.330  0.2470  0.1092 -0.3947
  620TMC3    C2 9234   1.623   0.209  13.209  0.0887  0.2842 -0.4116
  620TMC3    C3 9235   1.602   0.340  13.198 -0.3289  0.6038  1.8603
  620TMC3    C4 9236   1.652   0.224  13.441  0.1291  0.1763 -0.1742
  620TMC3    C5 9237   1.647   0.362  13.430 -0.3524  0.7250 -0.6948
  620TMC3    C6 9238   1.632   0.420  13.307 -0.3289 -0.4050 -0.0507
  620TMC3     C 9239   1.614   0.011  13.337 -0.2343  0.7815 -0.2496
  620TMC3     O 9240   1.660   4.672  13.257  0.3386  0.0996 -0.1600
  620TMC3     H 9241   1.595   0.146  13.126 -1.2202  1.4973 -0.8802
  620TMC3    H1 9242   1.653   0.178  13.539  0.6229  0.7667  0.0983
  620TMC3    H2 9243   1.628   0.526  13.287 -0.6198 -0.3294  0.4190
  620TMC3    C7 9244   1.585   0.432  13.536 -0.0517 -0.2482  0.3270
  620TMC3    C8 9245   1.465   0.374  13.157  1.2055 -0.7769  0.0558
  620TMC3    O1 9246   1.518   0.369  13.616  0.0565  0.3446 -0.1414
  620TMC3    O2 9247   1.417   0.465  13.218  0.2081  0.0852  0.3546
  621MPD2     C 9248   1.958   4.698  10.385 -0.4193  0.0292 -0.8018
  621MPD2    C1 9249   1.998   4.628  10.493  0.4268  0.2346  0.5068
  621MPD2    C2 9250   2.125   4.574  10.504  0.3658  0.0155  0.2309
  621MPD2    C3 9251   2.216   4.610  10.400 -0.3695 -0.2902  0.6922
  621MPD2    C4 9252   2.173   4.684  10.283  0.2642  0.1585 -0.0316
  621MPD2    C5 9253   2.043   4.735  10.284  0.5959  0.3389 -0.5190
  621MPD2     H 9254   2.160   4.522  10.592 -0.4664  0.6855  0.9677
  621MPD2    H1 9255   2.234   4.702  10.195 -3.0239 -1.7187 -2.6707
  621MPD2    H2 9256   1.854   4.728  10.374 -0.0783  2.0054  1.2889
  621MPD2    H3 9257   2.009   0.055  10.203  0.8083 -0.5772 -1.3218
  621MPD2     N 9258   2.353   4.573  10.417 -0.2095  0.1601 -0.2523
  621MPD2    H5 9259   2.371   4.503  10.488 -3.3200  0.4722  0.8372
  621MPD2    N1 9260   1.916   4.609  10.600 -0.7819  0.0239 -0.3079
  621MPD2    H7 9261   1.945   4.537  10.666 -1.2301  1.8153  1.8326
  622TMC3    C1 9262   1.732   4.620  10.733  0.0687  0.7079 -0.7036
  622TMC3    C2 9263   1.674   4.713  10.809 -0.3157 -0.1418 -0.7082
  622TMC3    C3 9264   1.546   4.677  10.839 -0.5127 -0.1774  0.1191
  622TMC3    C4 9265   1.682   4.496  10.701  0.3237  0.1471 -1.0697
  622TMC3    C5 9266   1.557   4.465  10.748  0.0439  0.4533  0.4303
  622TMC3    C6 9267   1.494   4.559  10.817  0.1240 -0.0161 -0.2204
  622TMC3     C 9268   1.804   4.678  10.621 -0.2313 -0.4958 -0.5724
  622TMC3     O 9269   1.777   0.052  10.599 -0.6341  0.1216 -0.8587
  622TMC3     H 9270   1.717   0.068  10.829 -0.6064  0.0885 -1.2042
  622TMC3    H1 9271   1.742   4.433  10.637  0.5211  2.2246 -2.9209
  622TMC3    H2 9272   1.390   4.536  10.837  0.9919 -1.6291  2.4158
  622TMC3    C7 9273   1.470   4.386  10.665  0.8649  0.3088  0.6542
  622TMC3    C8 9274   1.476   0.046  10.895 -0.0170  0.6976 -0.1588
  622TMC3    O1 9275   1.350   4.410  10.661 -0.0830  0.4586  0.1808
  622TMC3    O2 9276   1.534   0.124  10.973  0.7510  0.3284  0.1375
  623MPD2     C 9277   0.813   0.453  15.818 -1.0687  0.5709 -0.1608
  623MPD2    C1 9278   0.767   0.419  15.942  0.1765 -0.4615 -0.2106
  623MPD2    C2 9279   0.836   0.461  16.057 -0.9453  0.3053 -0.3678
  623MPD2    C3 9280   0.942   0.545  16.046  0.0520 -0.1346 -0.6101
  623MPD2    C4 9281   0.985   0.576  15.917  0.0623  0.2087  0.4820
  623MPD2    C5 9282   0.922   0.535  15.800 -0.0910 -0.3216  0.0116
  623MPD2     H 9283   0.794   0.439  16.154 -1.1083 -3.0609 -1.1703
  623MPD2    H1 9284   1.062   0.652  15.908 -1.1289  1.0595 -2.5700
  623MPD2    H2 9285   0.767   0.419  15.725  0.4102 -4.3737  0.9225
  623MPD2    H3 9286   0.961   0.562  15.702 -0.0926 -3.2948 -0.8178
  623MPD2     N 9287   1.009   0.591  16.168  0.9116 -0.4188  0.3931
  623MPD2    H5 9288   0.960   0.569  16.254 -1.3093  1.1638 -0.4767
  623MPD2    N1 9289   0.652   0.331  15.954 -0.2939 -0.3836  0.1267
  623MPD2    H7 9290   0.632   0.300  16.049  2.5100 -2.4108  0.0633
  624TMC3    C1 9291   1.347   0.752  16.445  0.1403 -0.6996  0.4154
  624TMC3    C2 9292   1.264   0.754  16.556  0.0356  0.2827 -0.2136
  624TMC3    C3 9293   1.137   0.718  16.531 -0.2496  0.2138 -0.8247
  624TMC3    C4 9294   1.310   0.713  16.322 -0.1321  0.3893 -0.0721
  624TMC3    C5 9295   1.175   0.687  16.301 -0.1834  0.4464 -0.9155
  624TMC3    C6 9296   1.089   0.690  16.403  0.1388  0.3599 -0.4725
  624TMC3     C 9297   1.472   0.698  16.487 -0.3161  0.1151  0.4394
  624TMC3     O 9298   1.468   0.623  16.582 -0.0794  0.5947 -0.2962
  624TMC3     H 9299   1.299   0.778  16.656  0.3763  2.2201 -0.7955
  624TMC3    H1 9300   1.380   0.709  16.239  0.8094 -1.1740  0.7870
  624TMC3    H2 9301   0.981   0.680  16.398 -0.0477  3.0474 -1.6716
  624TMC3    C7 9302   1.137   0.650  16.169  0.2955 -0.4796 -0.0071
  624TMC3    C8 9303   1.061   0.657  16.642  0.5004  0.7306 -0.5603
  624TMC3    O1 9304   1.223   0.652  16.084 -0.1250  0.2979 -0.3081
  624TMC3    O2 9305   1.016   0.546  16.618 -0.3258 -0.4641 -0.0826
  625MPD2     C 9306   1.570   1.915   0.756 -0.4175  0.5423 -0.4461
  625MPD2    C1 9307   1.578   2.044   0.723  1.2641 -0.7741 -0.1010
  625MPD2    C2 9308   1.701   2.109   0.724  0.1177  0.4503 -0.4687
  625MPD2    C3 9309   1.818   2.042   0.761 -0.9170  0.3480 -0.2647
  625MPD2    C4 9310   1.806   1.909   0.793  0.4904 -0.3857 -0.0793
  625MPD2    C5 9311   1.686   1.854   0.787  0.2539  0.3293  0.1163
  625MPD2     H 9312   1.717   2.214   0.703 -0.4432  0.6226 -0.0213
  625MPD2    H1 9313   1.890   1.845   0.821  0.5457 -1.2454 -2.1840
  625MPD2    H2 9314   1.476   1.861   0.763 -0.0408  0.0562  0.9412
  625MPD2    H3 9315   1.674   1.750   0.815  0.5808  0.2442 -0.0518
  625MPD2     N 9316   1.937   2.117   0.777 -0.1094  0.0040 -0.7309
  625MPD2    H5 9317   1.933   2.216   0.755 -0.8376  0.5363  1.8092
  625MPD2    N1 9318   1.465   2.125   0.690 -0.3766 -0.1591  0.2355
  625MPD2    H7 9319   1.469   2.226   0.696  1.0401 -0.2140  0.0357
  626TMC3    C1 9320   1.252   2.184   0.615 -0.2448  0.0912 -0.2272
  626TMC3    C2 9321   1.184   2.180   0.494  0.9545 -0.0526  0.3032
  626TMC3    C3 9322   1.107   2.294   0.468  1.1088  0.2166 -0.3753
  626TMC3    C4 9323   1.231   2.282   0.714 -0.4349 -0.5085  0.3067
  626TMC3    C5 9324   1.146   2.385   0.684 -0.9425 -0.3039 -0.0168
  626TMC3    C6 9325   1.101   2.395   0.557 -0.0761 -0.0561  0.0363
  626TMC3     C 9326   1.342   2.077   0.652 -0.3310 -0.3039 -0.1309
  626TMC3     O 9327   1.315   1.964   0.612  0.5857 -0.6794 -0.1615
  626TMC3     H 9328   1.188   2.103   0.417 -0.2153  2.0671 -1.8846
  626TMC3    H1 9329   1.277   2.264   0.811  1.7812  1.7329 -0.3231
  626TMC3    H2 9330   1.040   2.480   0.529  0.4570  0.3697  0.1681
  626TMC3    C7 9331   1.054   2.416   0.790  0.8945 -0.1148 -0.0770
  626TMC3    C8 9332   0.993   2.287   0.372 -0.8945 -0.3546  0.3241
  626TMC3    O1 9333   1.096   2.423   0.905 -0.3854  0.2808 -0.6067
  626TMC3    O2 9334   0.883   2.315   0.419 -0.6087 -0.4079 -0.5906
  627MPD2     C 9335   4.068   2.166  14.440 -0.1244  0.3931 -0.5340
  627MPD2    C1 9336   4.171   2.128  14.526  0.2094 -0.2215  0.2357
  627MPD2    C2 9337   4.161   2.003  14.589  0.2230 -0.1040 -0.2848
  627MPD2    C3 9338   4.053   1.914  14.566  0.3230 -0.3962  0.7377
  627MPD2    C4 9339   3.949   1.962  14.484  0.9732  0.3417 -0.0793
  627MPD2    C5 9340   3.964   2.081  14.417 -0.0908  0.3667  0.3645
  627MPD2     H 9341   4.242   1.971  14.654  1.0414 -0.8589 -1.6875
  627MPD2    H1 9342   3.859   1.906  14.461  2.1068 -1.2954 -0.5899
  627MPD2    H2 9343   4.080   2.249  14.371 -0.3823  0.9472  0.0858
  627MPD2    H3 9344   3.886   2.108  14.347 -1.4833  0.0517  1.8242
  627MPD2     N 9345   4.062   1.785  14.630 -0.2645 -0.0947 -0.9449
  627MPD2    H5 9346   4.132   1.766  14.701 -2.3783  1.1706  1.4530
  627MPD2    N1 9347   4.294   2.198  14.541  0.1811 -0.3639 -0.2329
  627MPD2    H7 9348   4.364   2.152  14.598  1.8541  1.1796 -1.0314
  628TMC3    C1 9349   4.462   2.369  14.499  0.0646  0.3030  0.4426
  628TMC3    C2 9350   4.572   2.279  14.526  0.2842  0.2108 -0.1609
  628TMC3    C3 9351   4.705   2.309  14.500  0.4841  0.2438  0.2251
  628TMC3    C4 9352   4.491   2.480  14.427 -0.0839 -0.3375 -0.1859
  628TMC3    C5 9353   4.623   2.500  14.394 -0.1805 -0.5496  0.0949
  628TMC3    C6 9354   4.726   2.421  14.423 -0.4153 -0.1328  0.0838
  628TMC3     C 9355   4.320   2.325  14.487  0.6378  0.5718 -0.0389
  628TMC3     O 9356   4.237   2.401  14.432  0.4055 -0.2133  0.6149
  628TMC3     H 9357   4.546   2.174  14.536  2.1180 -0.1178  1.1836
  628TMC3    H1 9358   4.418   2.555  14.397  0.7108  0.7556  0.6541
  628TMC3    H2 9359   0.078   2.451  14.381 -1.0680  0.3985 -1.0326
  628TMC3    C7 9360   4.661   2.634  14.336 -1.0937 -0.6054 -0.6394
  628TMC3    C8 9361   0.066   2.208  14.497  0.0072 -0.3949  0.1264
  628TMC3    O1 9362   0.003   2.631  14.248 -0.0645  0.1509 -0.1554
  628TMC3    O2 9363   0.139   2.213  14.400 -0.2481  0.0206 -0.5407
  629MPD2     C 9364   2.800   0.308  16.713  0.7749  0.6130  1.0015
  629MPD2    C1 9365   2.808   0.421  16.635  0.3182  0.1470  0.4779
  629MPD2    C2 9366   2.700   0.459  16.563  0.5373  0.4072 -0.1916
  629MPD2    C3 9367   2.586   0.386  16.565  0.1119 -0.6372 -0.3604
  629MPD2    C4 9368   2.568   0.283  16.657 -0.6802  0.8512 -0.5931
  629MPD2    C5 9369   2.682   0.247  16.728 -0.0029 -0.1562  0.0192
  629MPD2     H 9370   2.704   0.541  16.493 -1.7582  1.8894  1.3771
  629MPD2    H1 9371   2.476   0.227  16.674  0.8380 -1.8099 -1.0872
  629MPD2    H2 9372   2.886   0.274  16.768 -0.1183 -1.0543  1.3798
  629MPD2    H3 9373   2.688   0.169  16.803  2.8040  0.9377  0.8833
  629MPD2     N 9374   2.481   0.423  16.479 -0.0269 -1.3725 -0.0489
  629MPD2    H5 9375   2.482   0.510  16.426  0.4715 -1.4394 -0.1466
  629MPD2    N1 9376   2.933   0.484  16.641 -0.3786 -0.1290 -0.4842
  629MPD2    H7 9377   3.002   0.435  16.697 -1.5342  1.8380  2.6817
  630TMC3    C1 9378   3.107   0.613  16.595  0.1653 -0.1567  0.5225
  630TMC3    C2 9379   3.160   0.738  16.588  0.3310  0.6938 -0.1385
  630TMC3    C3 9380   3.283   0.770  16.638 -0.7177  0.2518  0.1802
  630TMC3    C4 9381   3.172   0.516  16.664  1.2144  0.3414 -0.8692
  630TMC3    C5 9382   3.298   0.556  16.708 -0.6991  0.0268  0.3112
  630TMC3    C6 9383   3.356   0.678  16.697 -0.3560  0.0182  0.8462
  630TMC3     C 9384   2.966   0.596  16.575  0.1583  0.8993  0.2450
  630TMC3     O 9385   2.902   0.670  16.498 -0.1978 -0.2663 -0.2008
  630TMC3     H 9386   3.093   0.817  16.555 -1.1840 -1.8475 -3.1589
  630TMC3    H1 9387   3.153   0.410  16.653 -1.8518  0.9022 -1.0811
  630TMC3    H2 9388   3.449   0.706  16.746  0.0532  0.7592 -0.3264
  630TMC3    C7 9389   3.366   0.451  16.784 -0.5234 -0.1899 -0.5680
  630TMC3    C8 9390   3.347   0.889  16.598  0.6097  0.2123 -0.6026
  630TMC3    O1 9391   3.295   0.370  16.846 -0.2340  0.0986 -0.2542
  630TMC3    O2 9392   3.465   0.898  16.629  0.2072  0.3720 -0.2480
  631MPD2     C 9393   0.980   0.838  15.388 -0.1319 -0.0851  0.0193
  631MPD2    C1 9394   1.092   0.900  15.438 -0.8879 -0.1642 -0.6694
  631MPD2    C2 9395   1.214   0.833  15.427  0.5939 -0.0568  0.4164
  631MPD2    C3 9396   1.225   0.716  15.350  1.1500 -0.3454  0.1752
  631MPD2    C4 9397   1.106   0.651  15.308 -0.1208 -0.0854 -0.6771
  631MPD2    C5 9398   0.984   0.715  15.329  0.5177 -0.2732 -0.0404
  631MPD2     H 9399   1.304   0.871  15.475  0.9182 -1.0515  0.6000
  631MPD2    H1 9400   1.106   0.551  15.268 -0.5556 -1.1302  1.9410
  631MPD2    H2 9401   0.887   0.892  15.392  0.6516  1.1704  1.1401
  631MPD2    H3 9402   0.888   0.674  15.300  0.2130 -0.8488  1.7730
  631MPD2     N 9403   1.343   0.652  15.342 -0.2388  0.2828 -0.1998
  631MPD2    H5 9404   1.354   0.583  15.268  0.0556 -0.8927  0.9174
  631MPD2    N1 9405   1.081   1.033  15.487 -0.3794  0.2417 -0.1928
  631MPD2    H7 9406   0.996   1.081  15.461 -1.6130 -1.5169  0.6675
  632TMC3    C1 9407   1.155   1.250  15.491 -0.6103 -0.6180  0.3279
  632TMC3    C2 9408   1.019   1.270  15.490  0.0460 -0.2389  0.2540
  632TMC3    C3 9409   0.966   1.356  15.393  0.5359  0.2582 -0.2024
  632TMC3    C4 9410   1.237   1.314  15.402 -0.0987 -0.3326  0.4657
  632TMC3    C5 9411   1.181   1.396  15.305 -1.0132 -0.7963 -0.4603
  632TMC3    C6 9412   1.048   1.412  15.292 -0.3196 -0.0294  0.4155
  632TMC3     C 9413   1.192   1.114  15.522  0.0990 -0.1934  0.0225
  632TMC3     O 9414   1.312   1.088  15.519  0.1951  0.1040 -0.3240
  632TMC3     H 9415   0.955   1.228  15.566 -0.5288  0.2708  0.0456
  632TMC3    H1 9416   1.342   1.289  15.408  0.0530  0.0475 -0.6465
  632TMC3    H2 9417   1.011   1.462  15.204 -0.8107 -0.0070  0.6338
  632TMC3    C7 9418   1.267   1.412  15.185 -0.1265  0.5298 -0.1820
  632TMC3    C8 9419   0.821   1.351  15.385 -0.4675  0.3635  0.2991
  632TMC3    O1 9420   1.211   1.419  15.077  0.2160 -0.7618  0.0508
  632TMC3    O2 9421   0.777   1.265  15.461 -0.6249  0.1729 -0.1762
  633MPD2     C 9422   1.284   3.706  17.413 -0.5653  0.7138  0.1153
  633MPD2    C1 9423   1.274   3.640  17.287  0.8157 -0.1347 -0.7575
  633MPD2    C2 9424   1.292   3.501  17.291  0.3304 -0.3735  0.9985
  633MPD2    C3 9425   1.319   3.438  17.409  0.3163 -0.5821  0.6066
  633MPD2    C4 9426   1.339   3.502  17.523  0.9540  0.4359  0.3855
  633MPD2    C5 9427   1.319   3.636  17.531  0.6627 -0.3354 -0.2831
  633MPD2     H 9428   1.281   3.447  17.197 -0.5640  0.9774  0.3270
  633MPD2    H1 9429   1.352   3.443  17.614  0.1799 -0.5448 -0.1466
  633MPD2    H2 9430   1.273   3.814  17.423  0.2985  0.8673 -0.5762
  633MPD2    H3 9431   1.326   3.692  17.624 -0.4101  0.9745 -0.9897
  633MPD2     N 9432   1.318   3.296  17.417 -0.0407 -0.0280 -0.4072
  633MPD2    H5 9433   1.349   3.251  17.503 -1.8239 -3.6629 -1.6435
  633MPD2    N1 9434   1.248   3.702  17.163 -0.6992 -0.2330 -0.0715
  633MPD2    H7 9435   1.263   3.647  17.079  1.8056  1.2137 -0.5812
  634TMC3    C1 9436   1.208   3.857  17.001  0.3012  1.1719  0.2204
  634TMC3    C2 9437   1.288   3.772  16.920 -0.0795 -0.0916  0.6434
  634TMC3    C3 9438   1.281   3.800  16.789 -0.3188  0.1822  0.7620
  634TMC3    C4 9439   1.137   3.965  16.964 -0.1766  0.5376  0.2472
  634TMC3    C5 9440   1.142   3.986  16.826 -0.0740 -0.1667 -0.6578
  634TMC3    C6 9441   1.208   3.901  16.739 -0.4030  0.6236  0.6164
  634TMC3     C 9442   1.205   3.831  17.144  0.2675  0.1265 -0.2935
  634TMC3     O 9443   1.170   3.917  17.227  0.8936  0.4557  0.1943
  634TMC3     H 9444   1.364   3.704  16.955  0.2971  0.1700  0.3390
  634TMC3    H1 9445   1.087   4.031  17.034 -1.2606 -2.6482  2.4727
  634TMC3    H2 9446   1.181   3.909  16.634  1.9490 -1.2451 -0.1417
  634TMC3    C7 9447   1.080   4.094  16.759  0.1316 -0.1000  0.3796
  634TMC3    C8 9448   1.348   3.707  16.701 -0.2240 -0.6389  0.2128
  634TMC3    O1 9449   1.073   4.097  16.638 -0.1128 -0.2983 -0.4921
  634TMC3    O2 9450   1.320   3.588  16.717  0.2568 -0.1037 -0.5464
  635TMC3    C1 9451   2.209   4.484   0.353  0.3206  0.3132  0.3008
  635TMC3    C2 9452   2.159   4.445   0.230  0.1722 -0.0044  0.4964
  635TMC3    C3 9453   2.158   4.311   0.206 -0.1198  0.1170 -0.5424
  635TMC3    C4 9454   2.288   4.406   0.432  0.1310 -0.8664  0.1544
  635TMC3    C5 9455   2.305   4.278   0.391  0.1339  0.4296  0.0523
  635TMC3    C6 9456   2.236   4.226   0.280 -0.1853 -0.1237 -0.3641
  635TMC3     C 9457   2.195   4.621   0.395 -0.0673 -0.1230 -1.1217
  635TMC3     O 9458   2.273   4.663   0.480  0.3240  0.0395 -0.4402
  635TMC3     H 9459   2.124   4.509   0.150 -0.0890 -1.2749 -0.4081
  635TMC3    H1 9460   2.326   4.448   0.524  1.6302 -1.2692 -0.2781
  635TMC3    H2 9461   2.254   4.127   0.241 -0.9056 -0.3006 -0.2540
  635TMC3    C7 9462   2.395   4.197   0.472 -0.1970  0.1151 -0.8698
  635TMC3    C8 9463   2.127   4.280   0.069  0.2484 -0.1768  0.3003
  635TMC3    O1 9464   2.417   4.245   0.581  0.4371  0.1532  0.4978
  635TMC3    O2 9465   2.147   4.366  17.749  0.3039 -0.7703  0.5806
  636MPD2     C 9466   2.349   3.934  15.916 -0.0633 -0.4794  0.0890
  636MPD2    C1 9467   2.415   3.935  16.041  0.5463 -0.0360 -0.3571
  636MPD2    C2 9468   2.524   3.864  16.053 -0.2482  0.0892 -0.0821
  636MPD2    C3 9469   2.560   3.771  15.963  0.3349 -0.1007  0.0013
  636MPD2    C4 9470   2.485   3.760  15.844  0.0785 -0.2656 -0.1384
  636MPD2    C5 9471   2.382   3.844  15.820  0.4201  0.5055 -0.4198
  636MPD2     H 9472   2.576   3.871  16.148  0.0653  4.4839 -0.5624
  636MPD2    H1 9473   2.518   3.690  15.768 -1.6569 -1.3835  0.1172
  636MPD2    H2 9474   2.260   3.991  15.892 -0.2677 -1.7312 -2.0849
  636MPD2    H3 9475   2.332   3.851  15.724 -0.6481 -1.9271 -0.0255
  636MPD2     N 9476   2.681   3.702  15.987  0.1518 -0.0775 -0.4228
  636MPD2    H5 9477   2.749   3.725  16.059  0.2178  0.6269 -0.7132
  636MPD2    N1 9478   2.371   4.026  16.144 -0.0631 -0.0949  0.7432
  636MPD2    H7 9479   2.429   4.027  16.227  1.0470 -0.1046 -0.0288
  637TMC3    C1 9480   2.847   3.555  15.948  0.3998 -0.7062 -0.0984
  637TMC3    C2 9481   2.930   3.652  15.999 -0.3639  0.3607  0.6595
  637TMC3    C3 9482   3.062   3.616  16.013 -0.0440 -0.4639 -0.3221
  637TMC3    C4 9483   2.897   3.447  15.881  0.3468 -0.3848  0.0188
  637TMC3    C5 9484   3.028   3.417  15.901 -0.0219 -0.4295 -0.1858
  637TMC3    C6 9485   3.114   3.503  15.962  0.1900  0.1249 -0.5820
  637TMC3     C 9486   2.711   3.582  15.931  0.3621  0.1036 -0.5729
  637TMC3     O 9487   2.642   3.516  15.856  0.3620  0.0314 -0.2611
  637TMC3     H 9488   2.902   3.753  16.025 -0.4734 -0.4432  3.6313
  637TMC3    H1 9489   2.841   3.387  15.810  0.3336  0.1992 -0.4652
  637TMC3    H2 9490   3.212   3.465  15.986  0.5910  0.9852 -0.8451
  637TMC3    C7 9491   3.099   3.366  15.785  0.4554 -0.2264 -0.0097
  637TMC3    C8 9492   3.159   3.724  16.007  0.1762  0.6293 -0.8303
  637TMC3    O1 9493   3.201   3.432  15.758 -0.1100 -0.5782 -0.0116
  637TMC3    O2 9494   3.150   3.817  16.089 -0.4076  0.9523  0.3155
  638MPD2     C 9495   2.250   2.705  15.001  0.0012  0.9459  0.0748
  638MPD2    C1 9496   2.264   2.569  14.998  0.0945  0.5790 -0.6486
  638MPD2    C2 9497   2.200   2.487  15.083  0.1332  0.4250 -0.4478
  638MPD2    C3 9498   2.114   2.543  15.176  1.1228  0.7074 -0.0087
  638MPD2    C4 9499   2.099   2.681  15.187  0.6341 -0.1001 -0.1267
  638MPD2    C5 9500   2.168   2.759  15.096  0.0966  0.3094 -0.5355
  638MPD2     H 9501   2.212   2.379  15.090  2.1012  0.5340 -2.1588
  638MPD2    H1 9502   2.034   2.719  15.265 -0.5664  0.7035 -1.5213
  638MPD2    H2 9503   2.297   2.770  14.928 -0.4307 -0.5453 -1.5359
  638MPD2    H3 9504   2.159   2.867  15.103  0.0105  0.3072 -0.6028
  638MPD2     N 9505   2.029   2.461  15.249  0.5897 -0.1142 -0.6471
  638MPD2    H5 9506   1.942   2.502  15.280  1.1906  0.8452 -0.2129
  638MPD2    N1 9507   2.341   2.517  14.891  0.5069 -0.6093 -0.6246
  638MPD2    H7 9508   2.376   2.590  14.830 -0.2666  0.2254 -0.0831
  639TMC3    C1 9509   1.983   2.279  15.382  0.7767 -0.0759 -1.0331
  639TMC3    C2 9510   1.852   2.270  15.346 -0.5447 -0.5660  0.1922
  639TMC3    C3 9511   1.767   2.179  15.402  0.7462  0.8185 -0.2313
  639TMC3    C4 9512   2.026   2.210  15.494  0.4514  0.3942 -0.1995
  639TMC3    C5 9513   1.938   2.123  15.555 -0.5105 -0.3151  0.7915
  639TMC3    C6 9514   1.810   2.106  15.507 -0.2144 -0.2079  0.2170
  639TMC3     C 9515   2.078   2.348  15.305 -0.7310  0.0748 -0.7657
  639TMC3     O 9516   2.188   2.302  15.291  0.1526 -0.0884 -0.1216
  639TMC3     H 9517   1.833   2.313  15.249  1.0967 -0.7719 -0.2167
  639TMC3    H1 9518   2.125   2.232  15.533 -1.1866  2.3682  2.7849
  639TMC3    H2 9519   1.740   2.041  15.558  1.1964 -1.6801  0.2465
  639TMC3    C7 9520   2.005   2.014  15.618 -0.3067 -0.8129 -0.1460
  639TMC3    C8 9521   1.714   2.094  15.301  0.2615  0.2021  0.3037
  639TMC3    O1 9522   1.948   1.944  15.698  0.3650  0.5236 -0.0398
  639TMC3    O2 9523   1.801   2.074  15.214 -0.0117  0.1011  0.0385
  640MPD2     C 9524   2.726   1.144   9.943  0.5083 -0.0203 -0.0181
  640MPD2    C1 9525   2.616   1.087  10.007  0.2629  0.5884 -0.0487
  640MPD2    C2 9526   2.531   1.170  10.084  0.1197 -0.9960  0.7454
  640MPD2    C3 9527   2.567   1.305  10.097 -0.2386  0.5957 -0.2745
  640MPD2    C4 9528   2.671   1.358  10.029  0.0965  0.0313  0.1368
  640MPD2    C5 9529   2.751   1.280   9.949 -0.1651  0.5036  0.2638
  640MPD2     H 9530   2.447   1.129  10.140 -2.1062  1.3970 -0.8714
  640MPD2    H1 9531   2.694   1.463  10.037 -0.1662  0.0858  0.1925
  640MPD2    H2 9532   2.800   1.078   9.898  0.2533  1.2030 -2.2418
  640MPD2    H3 9533   2.839   1.327   9.906 -1.5855  1.7369 -1.3190
  640MPD2     N 9534   2.494   1.396  10.170  0.0466 -0.4713 -0.0920
  640MPD2    H5 9535   2.541   1.486  10.170 -1.9202  0.5595 -3.7832
  640MPD2    N1 9536   2.602   0.947   9.987  0.2805  0.9047  0.6686
  640MPD2    H7 9537   2.681   0.901   9.943  0.8135  1.4324  1.0797
  641TMC3    C1 9538   2.481   0.750   9.949  0.6901  0.2024 -0.1347
  641TMC3    C2 9539   2.598   0.675   9.955  0.1738 -0.6425  0.1342
  641TMC3    C3 9540   2.602   0.572   9.868  0.0903  0.4462  0.0073
  641TMC3    C4 9541   2.377   0.710   9.869 -0.4101  0.2662 -0.2486
  641TMC3    C5 9542   2.388   0.603   9.785 -0.3026 -0.1191 -0.5343
  641TMC3    C6 9543   2.498   0.527   9.785  0.0170  0.1230  0.0669
  641TMC3     C 9544   2.481   0.886  10.001  0.2551 -0.5734  0.2393
  641TMC3     O 9545   2.370   0.924  10.030 -0.8069 -0.6533 -0.1567
  641TMC3     H 9546   2.678   0.693  10.026  2.6380 -0.8827 -2.5918
  641TMC3    H1 9547   2.306   0.791   9.857 -1.5516 -0.2912  2.8667
  641TMC3    H2 9548   2.502   0.435   9.729 -0.1536  1.0207 -1.4057
  641TMC3    C7 9549   2.273   0.574   9.706 -0.5062 -0.3046 -0.4722
  641TMC3    C8 9550   2.712   0.473   9.869  0.5369 -0.1539  0.2097
  641TMC3    O1 9551   2.197   0.668   9.682 -0.5225  0.0699  0.3860
  641TMC3    O2 9552   2.696   0.370   9.806  0.0943 -0.2702 -0.0417
  642TMC3    C1 9553   3.251   2.398  12.786 -0.4488  0.3351 -0.4491
  642TMC3    C2 9554   3.364   2.480  12.799 -0.6851 -0.2098  0.1657
  642TMC3    C3 9555   3.486   2.422  12.818 -0.3076 -0.0793  0.1109
  642TMC3    C4 9556   3.271   2.264  12.779 -0.5107  0.6195  0.2887
  642TMC3    C5 9557   3.399   2.211  12.785  0.0641  1.3219 -0.7968
  642TMC3    C6 9558   3.507   2.290  12.797 -1.0226  0.4174  0.5169
  642TMC3     C 9559   3.120   2.473  12.769  0.6133 -0.1948  0.0935
  642TMC3     O 9560   3.124   2.595  12.748  0.1296  0.0278  0.1948
  642TMC3     H 9561   3.348   2.584  12.823  3.6567  0.4367  0.2267
  642TMC3    H1 9562   3.190   2.192  12.782 -1.4522  1.7278  1.0875
  642TMC3    H2 9563   3.605   2.243  12.789 -1.7902 -0.8830 -1.3596
  642TMC3    C7 9564   3.425   2.075  12.748 -0.7405 -1.0545 -0.0288
  642TMC3    C8 9565   3.599   2.511  12.815  0.5824 -0.2754  0.0945
  642TMC3    O1 9566   3.531   2.047  12.694  0.2586  0.3262 -0.2005
  642TMC3    O2 9567   3.695   2.470  12.753  0.2994  0.2928 -0.1666
  643TMC3    C1 9568   3.023   1.966   0.140  0.0936 -0.5448  0.1642
  643TMC3    C2 9569   2.898   2.000   0.095  0.3458  0.2563 -0.3828
  643TMC3    C3 9570   2.816   1.916   0.029 -0.4921 -0.7123 -0.0290
  643TMC3    C4 9571   3.071   1.844   0.108  0.6961  1.1263 -1.3669
  643TMC3    C5 9572   2.991   1.755   0.039 -0.0858 -0.4960 -0.4808
  643TMC3    C6 9573   2.863   1.786   0.002  0.4997  0.2496 -0.2674
  643TMC3     C 9574   3.087   2.057   0.221  0.3808 -0.6410 -0.7285
  643TMC3     O 9575   3.044   2.173   0.224  0.8486  0.6057 -0.4263
  643TMC3     H 9576   2.856   2.098   0.115  0.8964  0.2666  0.7150
  643TMC3    H1 9577   3.169   1.816   0.143  1.1378  2.9934 -1.1051
  643TMC3    H2 9578   2.803   1.729  17.702  1.1086  1.6970 -1.9780
  643TMC3    C7 9579   3.072   1.692  17.703 -0.2915  0.1849  0.1464
  643TMC3    C8 9580   2.755   1.972  17.681  0.6360  0.5513  0.1561
  643TMC3    O1 9581   3.188   1.729  17.704 -0.3403 -0.2646 -0.5590
  643TMC3    O2 9582   2.673   1.907  17.617 -0.4310  0.5629  0.0012
  644MPD2     C 9583   2.675   1.621   9.519  0.5352 -0.2170  0.0840
  644MPD2    C1 9584   2.605   1.522   9.589 -0.0506  0.2585 -0.1427
  644MPD2    C2 9585   2.478   1.544   9.627  0.0894  0.7803  0.0516
  644MPD2    C3 9586   2.414   1.669   9.602 -0.4242 -0.4144  0.0377
  644MPD2    C4 9587   2.481   1.756   9.514  0.2215  0.3961  0.3754
  644MPD2    C5 9588   2.603   1.727   9.473 -0.2842  0.0797  0.0324
  644MPD2     H 9589   2.429   1.468   9.687 -0.9818  2.9981  2.0135
  644MPD2    H1 9590   2.433   1.842   9.468 -0.3981 -1.1236 -1.8458
  644MPD2    H2 9591   2.769   1.601   9.470 -0.2220 -1.8868 -0.6706
  644MPD2    H3 9592   2.651   1.798   9.406  0.6428 -1.1599 -0.6244
  644MPD2     N 9593   2.282   1.694   9.637  0.2891  0.2053 -0.0490
  644MPD2    H5 9594   2.230   1.624   9.689 -0.0305 -0.1733 -0.8892
  644MPD2    N1 9595   2.666   1.393   9.605 -0.0870 -0.4005 -0.1476
  644MPD2    H7 9596   2.764   1.387   9.578 -0.4687 -1.6083 -1.2639
  645TMC3    C1 9597   2.088   1.802   9.698 -0.5218  0.3294 -0.2696
  645TMC3    C2 9598   2.021   1.894   9.776  0.5247  0.6047 -0.3005
  645TMC3    C3 9599   1.893   1.873   9.808  0.3461  0.0102  0.4107
  645TMC3    C4 9600   2.017   1.699   9.635 -0.4742 -0.5444  0.1588
  645TMC3    C5 9601   1.882   1.684   9.663 -0.5661  0.3579  0.3150
  645TMC3    C6 9602   1.821   1.772   9.753  0.0841 -0.8628  0.0890
  645TMC3     C 9603   2.225   1.816   9.656  0.1755 -0.4314 -0.0221
  645TMC3     O 9604   2.257   1.920   9.603  0.0870 -0.3048 -0.0794
  645TMC3     H 9605   2.073   1.987   9.797  0.1602  0.3221  1.9050
  645TMC3    H1 9606   2.059   1.642   9.553  0.6554 -0.0460  0.3919
  645TMC3    H2 9607   1.718   1.763   9.786  0.0260  1.0370  0.4249
  645TMC3    C7 9608   1.805   1.588   9.594 -0.2693 -0.1512  0.8126
  645TMC3    C8 9609   1.835   1.963   9.911 -0.5256  0.4735  0.1093
  645TMC3    O1 9610   1.835   1.569   9.477 -0.6269  0.4296 -0.1361
  645TMC3    O2 9611   1.915   2.053   9.949  0.0230 -0.0086  0.0597
  646MPD2     C 9612   2.266   1.281  14.798 -0.1737  0.5494 -0.3719
  646MPD2    C1 9613   2.165   1.254  14.891 -0.1603 -0.8518  0.0293
  646MPD2    C2 9614   2.054   1.339  14.880  0.5111 -0.1017  1.1945
  646MPD2    C3 9615   2.038   1.434  14.784 -0.9693  0.0301 -0.6846
  646MPD2    C4 9616   2.147   1.460  14.707 -0.2208  0.0441  0.4172
  646MPD2    C5 9617   2.262   1.388  14.715  0.6252 -0.0138  0.6932
  646MPD2     H 9618   1.965   1.310  14.936  0.4974  0.3217  1.3855
  646MPD2    H1 9619   2.149   1.535  14.628 -1.0536 -0.1500  0.2182
  646MPD2    H2 9620   2.346   1.209  14.786 -1.0633 -0.7535  1.6598
  646MPD2    H3 9621   2.339   1.407  14.641  0.1499  1.8675  0.6861
  646MPD2     N 9622   1.918   1.498  14.753  0.0938  0.7406 -0.5425
  646MPD2    H5 9623   1.845   1.478  14.822  0.2680 -1.1486 -0.9184
  646MPD2    N1 9624   2.197   1.161  14.988  0.4071  0.3242  0.2747
  646MPD2    H7 9625   2.296   1.140  14.990 -0.0202 -1.8183 -2.2426
  647TMC3    C1 9626   2.187   1.026  15.179  0.3134  0.1748 -0.2565
  647TMC3    C2 9627   2.117   0.942  15.251 -0.6800 -0.0927 -0.1052
  647TMC3    C3 9628   2.183   0.876  15.354  0.0669 -0.8983  0.0895
  647TMC3    C4 9629   2.318   1.057  15.201  0.0450 -0.1938  0.1502
  647TMC3    C5 9630   2.379   0.995  15.303  0.4008  0.2177  0.1136
  647TMC3    C6 9631   2.315   0.901  15.382  0.4270  0.1197  0.5100
  647TMC3     C 9632   2.115   1.110  15.087 -0.0368 -0.7132 -0.1717
  647TMC3     O 9633   1.995   1.112  15.091  0.1648 -0.9773  0.3698
  647TMC3     H 9634   2.017   0.910  15.224 -0.3466 -1.2431  0.0567
  647TMC3    H1 9635   2.372   1.136  15.150  1.6250 -2.0206 -1.0335
  647TMC3    H2 9636   2.371   0.833  15.446 -1.1896 -1.1849  0.5416
  647TMC3    C7 9637   2.522   0.982  15.314 -0.2963  0.3506  0.3347
  647TMC3    C8 9638   2.162   0.735  15.362 -0.4236  0.0838  0.1256
  647TMC3    O1 9639   2.563   0.956  15.425 -0.2908 -0.0388  0.1998
  647TMC3    O2 9640   2.179   0.682  15.470  0.2792 -0.1798 -0.3141
  648TMC3    C1 9641   1.681   3.627  15.958 -0.3391  0.3949  0.5563
  648TMC3    C2 9642   1.681   3.508  15.889  0.3808 -0.0351 -0.2329
  648TMC3    C3 9643   1.595   3.490  15.787  0.0568  0.2978  0.2645
  648TMC3    C4 9644   1.596   3.732  15.909 -0.6253 -0.2280  0.5821
  648TMC3    C5 9645   1.512   3.704  15.802 -0.7776  0.8143  0.4364
  648TMC3    C6 9646   1.512   3.582  15.733 -0.5168  0.1605 -0.4995
  648TMC3     C 9647   1.751   3.638  16.084 -0.7043  0.1751 -0.3289
  648TMC3     O 9648   1.750   3.754  16.110  0.3294  0.0667  0.2019
  648TMC3     H 9649   1.725   3.416  15.927 -0.6654 -0.8299 -0.9632
  648TMC3    H1 9650   1.576   3.818  15.973 -1.4028 -1.6314  2.2258
  648TMC3    H2 9651   1.444   3.563  15.651  0.6354 -1.0177 -1.1788
  648TMC3    C7 9652   1.437   3.803  15.737  0.2380 -0.2888 -0.2707
  648TMC3    C8 9653   1.574   3.358  15.732  0.0976 -0.2457  0.3278
  648TMC3    O1 9654   1.400   3.777  15.624 -0.1104 -0.3487  0.4120
  648TMC3    O2 9655   1.471   3.339  15.663 -0.2958  0.2162  0.7296
  649TMC3    C1 9656   0.084   4.624  12.798 -0.3805  0.2775  0.1113
  649TMC3    C2 9657   0.182   4.694  12.865  0.5753  0.4253 -0.1722
  649TMC3    C3 9658   0.205   4.654  12.993  0.1978 -0.5851 -0.4221
  649TMC3    C4 9659   4.735   4.546  12.869  0.3991  0.0452  0.3617
  649TMC3    C5 9660   0.024   4.517  12.995 -0.3397 -0.4035 -0.8824
  649TMC3    C6 9661   0.135   4.562  13.060 -0.8315  0.0534  0.0495
  649TMC3     C 9662   0.046   4.656  12.660 -0.3170 -1.1946  0.8501
  649TMC3     O 9663   4.670   4.643  12.635  0.4516 -0.2150 -0.1059
  649TMC3     H 9664   0.242   0.022  12.809 -1.5563  1.7146 -0.7805
  649TMC3    H1 9665   4.654   4.498  12.815  0.8944  0.3747 -0.6920
  649TMC3    H2 9666   0.156   4.527  13.161 -0.0639  0.3564 -0.0068
  649TMC3    C7 9667   4.682   4.427  13.064 -0.1715 -0.2094 -0.1507
  649TMC3    C8 9668   0.330   4.696  13.053  0.1125  0.6055 -0.8858
  649TMC3    O1 9669   4.559   4.431  13.035  0.0926  0.2172 -0.8544
  649TMC3    O2 9670   0.389   4.610  13.120  0.3434 -0.2398  0.0761
  650TMC3    C1 9671   3.026   1.187  12.966 -1.1771 -0.3456  0.4170
  650TMC3    C2 9672   2.940   1.263  13.040 -0.4008  0.0077  0.1143
  650TMC3    C3 9673   2.941   1.401  13.007  0.4532 -0.7444  0.5776
  650TMC3    C4 9674   3.086   1.232  12.852  0.0026 -0.0197 -0.6458
  650TMC3    C5 9675   3.088   1.371  12.825  0.2639  0.0608  0.2343
  650TMC3    C6 9676   3.016   1.456  12.906  0.0845 -0.5619 -0.1551
  650TMC3     C 9677   3.030   1.051  13.006  0.4759  0.4156 -0.3007
  650TMC3     O 9678   2.930   1.013  13.069  0.1373 -0.3184 -0.2423
  650TMC3     H 9679   2.896   1.227  13.132  0.3428 -2.2998 -0.4182
  650TMC3    H1 9680   3.133   1.165  12.781  0.0189  1.0461 -1.6490
  650TMC3    H2 9681   3.033   1.563  12.900  2.1092 -0.9188 -0.7372
  650TMC3    C7 9682   3.138   1.416  12.698  0.6021 -0.3732  0.4956
  650TMC3    C8 9683   2.824   1.482  13.037  0.2216  0.1542  0.0838
  650TMC3    O1 9684   3.172   1.329  12.618  0.0773  0.0599  0.3281
  650TMC3    O2 9685   2.819   1.600  13.005 -0.1776  0.1129  0.6870
  651MPD2     C 9686   1.821   3.295  10.388 -0.8015  1.1050  1.0064
  651MPD2    C1 9687   1.813   3.309  10.522 -0.4145 -0.4620 -0.5710
  651MPD2    C2 9688   1.922   3.318  10.589 -0.3196 -0.5878  0.2085
  651MPD2    C3 9689   2.048   3.337  10.529  0.4232 -0.1603 -0.7440
  651MPD2    C4 9690   2.057   3.329  10.397 -0.5793 -0.4177  0.4365
  651MPD2    C5 9691   1.947   3.308  10.318 -0.2472 -0.2606 -0.0896
  651MPD2     H 9692   1.917   3.324  10.697 -2.0804  0.0420  0.0972
  651MPD2    H1 9693   2.153   3.325  10.346 -1.7890 -2.5758 -1.6703
  651MPD2    H2 9694   1.731   3.281  10.329 -1.8565  4.4728  1.8156
  651MPD2    H3 9695   1.945   3.277  10.215 -1.5794 -2.3750  0.5624
  651MPD2     N 9696   2.152   3.371  10.616  0.2623  0.5112 -0.2690
  651MPD2    H5 9697   2.121   3.365  10.712  0.2416  0.6227 -0.2689
  651MPD2    N1 9698   1.696   3.303  10.598 -0.4482 -0.0429 -0.2913
  651MPD2    H7 9699   1.713   3.316  10.697  2.1722  0.1547 -0.7565
  652TMC3    C1 9700   2.510   3.569  10.820  0.0010 -0.2292 -0.0143
  652TMC3    C2 9701   2.463   3.513  10.708  0.1839 -0.5485  0.5331
  652TMC3    C3 9702   2.324   3.508  10.698  0.1602 -0.8535  0.4513
  652TMC3    C4 9703   2.433   3.624  10.911  0.1720  0.1260  0.5255
  652TMC3    C5 9704   2.296   3.629  10.894 -0.0750 -0.7091  0.1826
  652TMC3    C6 9705   2.239   3.571  10.784 -0.2385 -0.1044 -0.0818
  652TMC3     C 9706   2.643   3.540  10.864  0.2360  0.2636  0.4617
  652TMC3     O 9707   2.646   3.502  10.982  0.1014 -0.2848  0.2795
  652TMC3     H 9708   2.525   3.455  10.641  0.2211  1.4355 -1.1198
  652TMC3    H1 9709   2.495   3.671  10.986  0.7252 -0.4150  0.4127
  652TMC3    H2 9710   2.131   3.571  10.778 -0.1557  0.7225 -1.5453
  652TMC3    C7 9711   2.219   3.687  11.008  0.1038  0.5821 -0.5879
  652TMC3    C8 9712   2.274   3.430  10.589  0.0573  0.0005  0.1314
  652TMC3    O1 9713   2.105   3.645  11.022 -0.3302  0.2444  0.6708
  652TMC3    O2 9714   2.328   3.438  10.481 -0.1437 -0.6072  0.0537
  653MPD2     C 9715   0.973   3.485  17.475 -0.5363  0.4423 -0.0015
  653MPD2    C1 9716   0.889   3.579  17.414 -0.2164 -0.2603  0.5209
  653MPD2    C2 9717   0.796   3.531  17.323  0.4258 -0.6943 -0.5643
  653MPD2    C3 9718   0.789   3.402  17.278  0.3421  0.0957 -0.8782
  653MPD2    C4 9719   0.864   3.309  17.350  0.4188  0.7594 -0.3699
  653MPD2    C5 9720   0.961   3.348  17.441 -0.5719 -0.1328  0.6674
  653MPD2     H 9721   0.737   3.601  17.265 -0.4825 -2.8694 -2.2708
  653MPD2    H1 9722   0.837   3.204  17.342 -0.4890  0.8290  1.7330
  653MPD2    H2 9723   1.047   3.516  17.548 -0.0584  0.0382 -0.3148
  653MPD2    H3 9724   1.024   3.277  17.491  2.1192  1.4170 -0.5379
  653MPD2     N 9725   0.693   3.372  17.178  0.3293 -0.1196 -0.3060
  653MPD2    H5 9726   0.627   3.445  17.153  0.9910  0.1822 -1.1789
  653MPD2    N1 9727   0.902   3.715  17.447  0.1339  0.2075 -0.4460
  653MPD2    H7 9728   0.856   3.784  17.388 -0.8299 -0.3830 -0.3989
  654TMC3    C1 9729   0.579   3.246  17.012 -1.1073  0.4155 -0.0462
  654TMC3    C2 9730   0.562   3.353  16.927 -0.4593 -0.8488 -0.4119
  654TMC3    C3 9731   0.531   3.334  16.797 -0.6704  1.2554  0.3647
  654TMC3    C4 9732   0.558   3.119  16.959 -0.1470 -0.3621 -0.0158
  654TMC3    C5 9733   0.537   3.103  16.822  0.3970  0.2683  0.1491
  654TMC3    C6 9734   0.520   3.211  16.738  0.3197 -0.0471  0.1518
  654TMC3     C 9735   0.675   3.247  17.123  0.1627  0.1517  0.1100
  654TMC3     O 9736   0.728   3.139  17.149 -0.0099 -0.5908 -0.0414
  654TMC3     H 9737   0.566   3.456  16.963  4.1669 -0.6952 -1.3742
  654TMC3    H1 9738   0.556   3.027  17.016  0.8637 -1.2860 -1.4967
  654TMC3    H2 9739   0.507   3.193  16.632  0.7584  1.4007 -0.1478
  654TMC3    C7 9740   0.593   2.984  16.753 -0.0856  0.0372 -0.5780
  654TMC3    C8 9741   0.486   3.447  16.725  0.6937  0.3668 -0.4144
  654TMC3    O1 9742   0.600   2.996  16.635  0.1041 -0.4413  0.1861
  654TMC3    O2 9743   0.432   3.536  16.788  0.6488  0.8439  0.0836
  655MPD2     C 9744   2.079   3.720  15.649  0.2690 -0.0433  0.2404
  655MPD2    C1 9745   1.985   3.803  15.583 -0.0415 -0.0567  0.6943
  655MPD2    C2 9746   1.965   3.784  15.449  0.0967  0.7893  0.1075
  655MPD2    C3 9747   2.018   3.676  15.378  0.0633 -0.2712 -0.3015
  655MPD2    C4 9748   2.112   3.599  15.441 -0.0269  0.9216 -0.6912
  655MPD2    C5 9749   2.137   3.616  15.576 -0.5919 -0.1005 -0.2721
  655MPD2     H 9750   1.896   3.847  15.394 -0.4443 -0.4227 -0.6178
  655MPD2    H1 9751   2.174   3.525  15.393 -1.1684 -0.8191  0.5000
  655MPD2    H2 9752   2.090   3.723  15.757  1.0017 -0.6727  0.1743
  655MPD2    H3 9753   2.211   3.555  15.626  0.3638  0.3605 -1.1401
  655MPD2     N 9754   1.987   3.638  15.246  0.2130 -0.5279 -0.2775
  655MPD2    H5 9755   2.022   3.551  15.205  1.3627  0.4808 -1.4322
  655MPD2    N1 9756   1.917   3.913  15.645 -0.1095 -0.1403 -0.0219
  655MPD2    H7 9757   1.856   3.967  15.585  1.1588 -0.9437 -2.0450
  656TMC3    C1 9758   1.859   4.066  15.818  0.2983 -0.1496 -0.3160
  656TMC3    C2 9759   1.782   4.050  15.933  0.3147 -0.8845 -0.3518
  656TMC3    C3 9760   1.667   4.129  15.938 -0.0443  0.7408 -0.3359
  656TMC3    C4 9761   1.836   4.166  15.727  0.5999  0.2114  0.0653
  656TMC3    C5 9762   1.732   4.251  15.752  0.2339 -0.2347  0.3410
  656TMC3    C6 9763   1.634   4.224  15.843 -0.2530  0.3142  0.9582
  656TMC3     C 9764   1.924   3.943  15.774 -0.0905 -0.1344 -0.2363
  656TMC3     O 9765   1.982   3.885  15.866 -0.6799 -0.1383 -0.7965
  656TMC3     H 9766   1.808   3.973  16.005 -1.7276 -1.7620 -0.5459
  656TMC3    H1 9767   1.896   4.171  15.637 -0.3563 -0.8543 -0.6333
  656TMC3    H2 9768   1.546   4.286  15.857 -1.2885 -1.1885  1.2233
  656TMC3    C7 9769   1.702   4.348  15.648  0.7566 -0.2611 -0.8006
  656TMC3    C8 9770   1.577   4.120  16.054  0.1291  0.4652  0.0698
  656TMC3    O1 9771   1.762   4.335  15.542  0.0669  0.0239 -0.2076
  656TMC3    O2 9772   1.559   4.010  16.098 -0.6303 -0.4237 -0.4311
  657TMC3    C1 9773   0.574   3.295  15.139 -0.2561  0.0348  0.6818
  657TMC3    C2 9774   0.661   3.396  15.159 -0.2789  0.7146 -0.0984
  657TMC3    C3 9775   0.604   3.514  15.204 -0.3148 -0.2828 -0.1346
  657TMC3    C4 9776   0.438   3.303  15.167  0.6547  0.0643 -0.5003
  657TMC3    C5 9777   0.383   3.426  15.200  0.2172 -0.1350 -0.1737
  657TMC3    C6 9778   0.469   3.534  15.226  0.3918 -0.3241  0.2952
  657TMC3     C 9779   0.621   3.169  15.093  0.2473  0.3861  0.5302
  657TMC3     O 9780   0.538   3.104  15.029  0.3674  0.4904 -0.0836
  657TMC3     H 9781   0.763   3.395  15.121  0.4541  1.0763  1.8217
  657TMC3    H1 9782   0.374   3.218  15.144 -0.9097  0.9555  0.5711
  657TMC3    H2 9783   0.427   3.630  15.256 -3.2591 -1.0419 -2.6473
  657TMC3    C7 9784   0.268   3.429  15.283 -0.1833 -0.4353  0.2167
  657TMC3    C8 9785   0.680   3.637  15.238  0.3272  0.1965  0.2005
  657TMC3    O1 9786   0.155   3.382  15.251  0.4639 -0.6338  0.1323
  657TMC3    O2 9787   0.619   3.741  15.264 -0.9763  0.3112  0.1583
  658MPD2     C 9788   2.230   3.141  14.945 -0.1817  0.0153  0.0831
  658MPD2    C1 9789   2.140   3.194  14.861  0.0270  0.3004  0.4647
  658MPD2    C2 9790   2.154   3.152  14.729  0.3581 -0.8613 -0.2295
  658MPD2    C3 9791   2.270   3.095  14.682  0.0390 -0.4836 -0.1431
  658MPD2    C4 9792   2.360   3.041  14.772  0.3100  0.0586 -0.1704
  658MPD2    C5 9793   2.338   3.062  14.905 -0.1920 -0.4142  0.1610
  658MPD2     H 9794   2.075   3.173  14.658  0.2513  1.3271  0.5086
  658MPD2    H1 9795   2.449   2.989  14.738  1.4775  2.3908 -0.7567
  658MPD2    H2 9796   2.231   3.165  15.051 -2.6852 -0.7537  0.2932
  658MPD2    H3 9797   2.404   3.027  14.983 -1.0168 -1.6663  0.3045
  658MPD2     N 9798   2.286   3.083  14.550 -0.0979  0.8370  0.0575
  658MPD2    H5 9799   2.201   3.107  14.500 -0.4568  0.4209  0.4634
  658MPD2    N1 9800   2.037   3.283  14.914  0.4054  0.2799 -0.0036
  658MPD2    H7 9801   2.037   3.290  15.015 -0.8473 -0.2736  0.0214
  659TMC3    C1 9802   1.868   3.459  14.899 -0.4148  0.2528 -0.5338
  659TMC3    C2 9803   1.924   3.532  14.998 -0.0520  0.9927 -0.0891
  659TMC3    C3 9804   1.866   3.651  15.039 -0.4295  0.1844  0.0339
  659TMC3    C4 9805   1.765   3.511  14.833 -0.3599  0.0797 -0.9257
  659TMC3    C5 9806   1.690   3.618  14.874 -0.2846 -0.3961 -0.3729
  659TMC3    C6 9807   1.747   3.687  14.977  0.2622  0.0095  0.2927
  659TMC3     C 9808   1.940   3.347  14.838 -0.5946 -0.6440  0.6168
  659TMC3     O 9809   1.886   3.306  14.734 -0.2640 -0.2084  0.2044
  659TMC3     H 9810   2.017   3.510  15.049  0.0686 -2.3840 -1.7308
  659TMC3    H1 9811   1.729   3.462  14.743  1.0107 -0.3770 -1.2286
  659TMC3    H2 9812   1.692   3.770  15.019 -2.7316 -0.9032 -1.8467
  659TMC3    C7 9813   1.551   3.639  14.833 -0.8287  0.2664 -0.5021
  659TMC3    C8 9814   1.893   3.702  15.172 -0.6856 -0.0166 -0.0671
  659TMC3    O1 9815   1.501   3.749  14.863  0.0247 -0.0480  0.0376
  659TMC3    O2 9816   1.827   3.801  15.190 -0.2090 -0.8346 -0.0866
  660MPD2     C 9817   0.252   2.184  12.647 -0.2022  0.4072 -0.4880
  660MPD2    C1 9818   0.143   2.265  12.672  0.1829  0.2598 -0.4584
  660MPD2    C2 9819   0.046   2.225  12.760  0.0202 -0.0028 -0.6781
  660MPD2    C3 9820   0.046   2.100  12.807 -0.2413  0.4252 -0.1078
  660MPD2    C4 9821   0.144   2.014  12.775  0.4007 -0.0322 -0.3270
  660MPD2    C5 9822   0.245   2.063  12.700 -0.1122 -0.0820  0.3039
  660MPD2     H 9823   4.711   2.295  12.787  0.6912  1.4769 -2.6378
  660MPD2    H1 9824   0.148   1.910  12.804  0.6649  0.0390 -0.0993
  660MPD2    H2 9825   0.327   2.203  12.571 -1.9012 -0.5193 -2.3870
  660MPD2    H3 9826   0.323   1.994  12.670 -1.0030 -1.0785  0.2566
  660MPD2     N 9827   4.689   2.058  12.899 -0.3332 -0.0420 -0.1933
  660MPD2    H5 9828   4.692   1.959  12.923 -1.7682  0.2583  1.1819
  660MPD2    N1 9829   0.136   2.395  12.615  0.3754 -0.5281 -0.5730
  660MPD2    H7 9830   0.215   2.432  12.563  1.8744  0.0495  2.1384
  661TMC3    C1 9831   0.043   2.602  12.554  1.2360 -0.4199 -0.0082
  661TMC3    C2 9832   0.098   2.601  12.426 -0.2981 -0.0769  0.9006
  661TMC3    C3 9833   0.032   2.670  12.329  0.3725 -0.1781 -0.2890
  661TMC3    C4 9834   4.677   2.680  12.584  0.5755  0.6442 -0.3126
  661TMC3    C5 9835   4.617   2.743  12.478  0.1901  0.3971  0.6966
  661TMC3    C6 9836   4.664   2.746  12.348 -0.4360  0.0674 -0.7493
  661TMC3     C 9837   0.022   2.469  12.604  0.2978 -0.1118 -0.3065
  661TMC3     O 9838   4.646   2.441  12.620 -0.0488  0.2188 -0.8585
  661TMC3     H 9839   0.179   2.534  12.400 -0.6181  0.1061 -0.5690
  661TMC3    H1 9840   4.623   2.677  12.678 -1.4719 -0.2378 -1.5163
  661TMC3    H2 9841   4.607   2.790  12.267  0.3387 -1.2299 -2.0075
  661TMC3    C7 9842   4.487   2.797  12.514  0.7425 -0.0482  0.0570
  661TMC3    C8 9843   0.097   2.670  12.200 -0.2569  0.1140  0.8025
  661TMC3    O1 9844   4.471   2.837  12.630  0.1492  0.0906  0.0953
  661TMC3    O2 9845   0.156   2.572  12.162  0.9561  0.2931 -0.3129
  662MPD2     C 9846   0.575   2.297  16.811 -0.1473 -0.3020 -0.2500
  662MPD2    C1 9847   0.588   2.253  16.943  0.6089  0.2991 -0.8708
  662MPD2    C2 9848   0.524   2.320  17.046  0.0484  0.1817  0.8277
  662MPD2    C3 9849   0.434   2.417  17.017 -0.3171  0.5624  0.0828
  662MPD2    C4 9850   0.415   2.454  16.887  0.1221 -0.3752  0.4949
  662MPD2    C5 9851   0.482   2.398  16.786 -0.4202  0.8861  0.4735
  662MPD2     H 9852   0.535   2.287  17.149  0.4387 -0.1944  0.6656
  662MPD2    H1 9853   0.340   2.528  16.859  2.0179  1.7671  1.0051
  662MPD2    H2 9854   0.604   2.239  16.724  0.2423 -0.3481 -0.0883
  662MPD2    H3 9855   0.459   2.425  16.683 -1.0473  0.6921  0.5606
  662MPD2     N 9856   0.353   2.480  17.113 -0.4046  0.1371 -0.0926
  662MPD2    H5 9857   0.268   2.525  17.081  1.1682  2.1019 -1.5439
  662MPD2    N1 9858   0.671   2.140  16.978  0.1646  1.0680 -0.0142
  662MPD2    H7 9859   0.672   2.119  17.077 -1.3328 -0.2932 -0.2926
  663TMC3    C1 9860   0.748   1.917  16.956 -0.1037  0.4819 -0.0755
  663TMC3    C2 9861   0.746   1.924  17.092  1.0763  0.8766 -0.9347
  663TMC3    C3 9862   0.649   1.867  17.163  0.3971  0.6039  0.1776
  663TMC3    C4 9863   0.664   1.826  16.891 -0.7877  0.6202 -0.3021
  663TMC3    C5 9864   0.575   1.757  16.963 -0.2625  0.1330 -0.2818
  663TMC3    C6 9865   0.554   1.795  17.093 -0.0979  0.1936 -0.9358
  663TMC3     C 9866   0.736   2.053  16.894 -0.3307 -0.8762 -0.4445
  663TMC3     O 9867   0.753   2.051  16.775 -0.2180 -0.4749  0.2294
  663TMC3     H 9868   0.813   1.998  17.134  0.7762  0.1165  0.8690
  663TMC3    H1 9869   0.664   1.839  16.783  3.6813 -0.7123 -0.4260
  663TMC3    H2 9870   0.490   1.736  17.158 -2.1127  1.9292 -1.3294
  663TMC3    C7 9871   0.501   1.647  16.905 -0.0767  0.3829 -0.2596
  663TMC3    C8 9872   0.590   1.965  17.251 -0.3849  0.2952 -1.0947
  663TMC3    O1 9873   0.505   1.648  16.783  0.3383  0.9223  0.4541
  663TMC3    O2 9874   0.624   2.082  17.243 -0.0019 -0.4019  0.1840
  664MPD2     C 9875   2.855   0.060  17.485  0.5165 -0.7498  0.0143
  664MPD2    C1 9876   2.960   0.136  17.524  0.0467  0.6827  0.1743
  664MPD2    C2 9877   2.983   0.170  17.655 -0.2615 -0.0959  0.3603
  664MPD2    C3 9878   2.894   0.127  17.749  0.3941 -0.6222 -0.2671
  664MPD2    C4 9879   2.791   0.047  17.711 -0.0341 -0.8162  0.1775
  664MPD2    C5 9880   2.771   0.011  17.582 -0.7601  0.3131 -0.5786
  664MPD2     H 9881   3.065   0.240  17.671  0.3932 -0.3804 -1.8227
  664MPD2    H1 9882   2.712   0.023   0.012  2.3606  1.8372  3.7575
  664MPD2    H2 9883   2.830   0.049  17.380  0.2994  1.7165 -0.2015
  664MPD2    H3 9884   2.685   4.694  17.554 -1.2125 -0.5964  2.8024
  664MPD2     N 9885   2.910   0.175   0.104  0.5190  0.3801 -0.1085
  664MPD2    H5 9886   2.987   0.240   0.106 -0.7993  2.0011 -1.2278
  664MPD2    N1 9887   3.047   0.203  17.433 -0.6168 -0.2508 -0.0297
  664MPD2    H7 9888   3.102   0.276  17.476  0.9689 -0.2073 -2.1421
  665TMC3    C1 9889   2.920   0.180   0.337  0.2610 -0.5053  0.4478
  665TMC3    C2 9890   2.953   0.104   0.448  0.5373 -0.5097 -0.1364
  665TMC3    C3 9891   3.014   0.167   0.557  0.3151 -0.2531 -0.3132
  665TMC3    C4 9892   2.981   0.310   0.316 -0.2594  0.1241  0.2332
  665TMC3    C5 9893   3.053   0.357   0.420 -0.1806 -0.4800  0.3076
  665TMC3    C6 9894   3.066   0.290   0.537 -0.1620 -0.3324 -0.3500
  665TMC3     C 9895   2.871   0.111   0.220  0.6311  0.5955  0.0962
  665TMC3     O 9896   2.789   0.019   0.227 -0.1000 -0.3102 -0.6166
  665TMC3     H 9897   2.925   4.743   0.457  0.7694 -0.6714 -1.2877
  665TMC3    H1 9898   2.967   0.368   0.226  1.1916  1.2034  0.7082
  665TMC3    H2 9899   3.122   0.331   0.621 -0.5527 -0.6618  0.0687
  665TMC3    C7 9900   3.069   0.501   0.417 -0.1718 -0.6294 -0.7602
  665TMC3    C8 9901   3.035   0.094   0.678 -0.3147  0.4433  0.9773
  665TMC3    O1 9902   3.021   0.558   0.324 -0.1256  0.0409  0.2161
  665TMC3    O2 9903   3.008   4.720   0.676  0.3922  0.0904  0.3797
  666TMC3    C1 9904   2.590   4.600  10.386 -0.0101  0.2522  0.9411
  666TMC3    C2 9905   2.605   4.548  10.508  0.5976 -0.0644 -0.1584
  666TMC3    C3 9906   2.720   4.583  10.577 -0.2389  0.0501 -0.1669
  666TMC3    C4 9907   2.681   4.685  10.331  0.4153 -0.5312  0.1042
  666TMC3    C5 9908   2.784   4.722  10.408  0.2664  0.2960 -0.2641
  666TMC3    C6 9909   2.812   4.677  10.528 -0.1093 -0.2660  1.3519
  666TMC3     C 9910   2.454   4.619  10.332 -0.4482  0.9178  0.2939
  666TMC3     O 9911   2.454   4.685  10.235 -0.1313 -0.6541 -0.2354
  666TMC3     H 9912   2.531   4.486  10.557 -1.9273  1.1658 -2.4652
  666TMC3    H1 9913   2.665   4.739  10.238 -2.3285 -0.7262  0.4595
  666TMC3    H2 9914   2.899   4.726  10.570  1.6959 -1.6851 -0.7334
  666TMC3    C7 9915   2.847   0.099  10.371  0.1481  0.0623  0.2498
  666TMC3    C8 9916   2.732   4.556  10.726  0.4067 -0.1429 -0.6267
  666TMC3    O1 9917   2.965   0.111  10.403 -0.6177  0.4192  0.0641
  666TMC3    O2 9918   2.638   4.499  10.781  0.3641  0.2501 -0.7445
  667MPD2     C 9919   3.983   0.287  14.592 -0.4321  0.2239 -0.6856
  667MPD2    C1 9920   3.896   0.311  14.699 -0.8079  0.8584  0.1731
  667MPD2    C2 9921   3.782   0.229  14.723 -0.0482 -0.5204 -0.4154
  667MPD2    C3 9922   3.761   0.118  14.640 -0.3644  0.5977  0.1874
  667MPD2    C4 9923   3.853   0.093  14.535  0.7387  0.3731 -0.4717
  667MPD2    C5 9924   3.956   0.179  14.515  0.3609 -0.4062 -0.7108
  667MPD2     H 9925   3.724   0.261  14.809  0.7335  0.1038 -0.1172
  667MPD2    H1 9926   3.842   0.001  14.478 -2.2471  1.8525 -2.2512
  667MPD2    H2 9927   4.066   0.352  14.568 -1.8810  1.6210 -1.8824
  667MPD2    H3 9928   4.029   0.166  14.435  1.1362 -0.4485  0.0044
  667MPD2     N 9929   3.652   0.024  14.657 -0.1807 -0.0070  0.2046
  667MPD2    H5 9930   3.648   4.684  14.598  0.7778 -0.6110  0.9901
  667MPD2    N1 9931   3.928   0.409  14.796 -0.3104 -0.3280  0.0677
  667MPD2    H7 9932   3.863   0.421  14.872  0.9040  1.9156  0.7521
  668TMC3    C1 9933   4.026   0.592  14.898  0.6540 -0.6106  0.0912
  668TMC3    C2 9934   4.086   0.715  14.888  0.3869  0.7845  0.2501
  668TMC3    C3 9935   4.080   0.798  14.994  0.2428  0.3816  0.2042
  668TMC3    C4 9936   3.975   0.545  15.017 -0.5388 -0.7069 -0.1661
  668TMC3    C5 9937   3.956   0.638  15.115  0.1729 -0.1450  0.5901
  668TMC3    C6 9938   4.006   0.766  15.105  0.8852 -0.6134 -0.1058
  668TMC3     C 9939   4.031   0.503  14.787 -1.1319  0.0374  0.1603
  668TMC3     O 9940   4.099   0.535  14.691 -0.6275  1.0779  0.5573
  668TMC3     H 9941   4.156   0.733  14.808 -0.1174  2.0323  0.0805
  668TMC3    H1 9942   3.940   0.443  15.034  0.2655 -0.5207  2.5499
  668TMC3    H2 9943   3.993   0.838  15.186 -2.8870 -0.2743 -1.0183
  668TMC3    C7 9944   3.919   0.594  15.242 -0.1810 -0.0458  0.8364
  668TMC3    C8 9945   4.130   0.929  14.999  0.1365  0.1468  0.0241
  668TMC3    O1 9946   3.993   0.644  15.330 -0.2261  0.2801  0.0603
  668TMC3    O2 9947   4.107   0.999  15.099  0.1245 -0.0925 -0.1799
  669TMC3    C1 9948   1.930   0.496  14.738  0.4505  0.0944 -0.1471
  669TMC3    C2 9949   1.842   0.470  14.631  1.1640  0.3936  0.8249
  669TMC3    C3 9950   1.862   0.542  14.512 -0.5182  0.5290 -0.3858
  669TMC3    C4 9951   2.045   0.561  14.725  0.3732 -0.1906 -0.1249
  669TMC3    C5 9952   2.069   0.627  14.608  0.3099  0.3952  0.7079
  669TMC3    C6 9953   1.978   0.623  14.505 -0.2297  0.0946 -0.2367
  669TMC3     C 9954   1.915   0.397  14.846 -0.8564  0.2002 -0.4235
  669TMC3     O 9955   1.801   0.383  14.882 -0.7661 -0.3081 -0.1513
  669TMC3     H 9956   1.746   0.420  14.642  0.3344  2.2656  2.1122
  669TMC3    H1 9957   2.129   0.546  14.792  0.6249  4.4468  0.6017
  669TMC3    H2 9958   2.000   0.682  14.417 -2.0675 -0.8676 -1.3600
  669TMC3    C7 9959   2.161   0.740  14.596 -0.4854  0.1935  0.0039
  669TMC3    C8 9960   1.770   0.533  14.403 -0.4987 -0.2713  0.4659
  669TMC3    O1 9961   2.269   0.729  14.655 -0.1839  0.5794 -0.1587
  669TMC3    O2 9962   1.694   0.440  14.415  0.4690 -0.1932  0.4916
  670MPD2     C 9963   0.955   2.749  13.447  0.1853 -0.0875 -0.4164
  670MPD2    C1 9964   0.995   2.783  13.570  0.0276  0.4751 -0.3032
  670MPD2    C2 9965   0.897   2.800  13.672  0.2219  0.0619  0.0699
  670MPD2    C3 9966   0.759   2.768  13.653 -1.1363  0.0253  0.1092
  670MPD2    C4 9967   0.731   2.712  13.529 -0.7672  0.5246 -0.1733
  670MPD2    C5 9968   0.826   2.706  13.428 -0.5500  0.2351 -0.1738
  670MPD2     H 9969   0.928   2.831  13.771  1.2634 -0.6350 -0.0386
  670MPD2    H1 9970   0.643   2.662  13.490 -0.8425  0.0247  0.6330
  670MPD2    H2 9971   1.018   2.728  13.361  1.0898  2.6142 -0.4444
  670MPD2    H3 9972   0.803   2.659  13.334  1.4819  0.4007 -0.7402
  670MPD2     N 9973   0.672   2.774  13.765  0.7575  0.1137  0.0202
  670MPD2    H5 9974   0.698   2.820  13.852 -0.4032 -0.7119  0.8172
  670MPD2    N1 9975   1.124   2.815  13.588  0.5673  0.6319 -0.0334
  670MPD2    H7 9976   1.139   2.856  13.680  1.5556 -0.6697  0.3876
  671TMC3    C1 9977   0.464   2.782  13.868 -0.1121 -0.3947 -0.4985
  671TMC3    C2 9978   0.512   2.750  13.994 -0.8228  0.3687  0.8053
  671TMC3    C3 9979   0.419   2.712  14.089 -0.1314 -0.5857  0.8686
  671TMC3    C4 9980   0.328   2.790  13.836 -0.1227 -1.0221  0.5072
  671TMC3    C5 9981   0.245   2.757  13.940  0.1692  0.2692  0.0630
  671TMC3    C6 9982   0.288   2.727  14.068  0.1495 -0.0983 -0.0219
  671TMC3     C 9983   0.535   2.745  13.754 -0.5454  0.0037 -0.0050
  671TMC3     O 9984   0.475   2.717  13.653  0.5535  0.3519  0.2279
  671TMC3     H 9985   0.610   2.714  14.022 -0.9817 -1.0204 -0.4403
  671TMC3    H1 9986   0.295   2.818  13.737 -1.4341 -0.3002  1.1446
  671TMC3    H2 9987   0.220   2.697  14.148 -0.7438  1.7406 -0.0862
  671TMC3    C7 9988   0.137   2.672  13.887 -0.3602 -0.9154 -0.9327
  671TMC3    C8 9989   0.444   2.589  14.151  0.2937  0.0258 -0.1291
  671TMC3    O1 9990   0.131   2.673  13.766  0.5587 -0.1232  0.3092
  671TMC3    O2 9991   0.531   2.522  14.102  0.5516 -0.3309 -0.2295
  672MPD2     C 9992   1.092   3.781   0.531 -0.3992 -0.2168 -0.2663
  672MPD2    C1 9993   1.171   3.670   0.508 -0.0801 -0.8481  0.5742
  672MPD2    C2 9994   1.303   3.682   0.549 -0.3619  0.6227  0.1060
  672MPD2    C3 9995   1.359   3.806   0.594  0.2994  0.3479  0.2212
  672MPD2    C4 9996   1.283   3.921   0.589  0.6023 -0.5834 -0.1001
  672MPD2    C5 9997   1.151   3.911   0.568 -0.3066 -0.0914  0.8090
  672MPD2     H 9998   1.369   3.597   0.533 -1.8412 -0.9742  2.5515
  672MPD2    H1 9999   1.327   4.017   0.617  1.7229 -1.0886 -0.1106
  672MPD2    H210000   0.983   3.779   0.525 -0.4599 -0.1602  0.8695
  672MPD2    H310001   1.085   3.993   0.591 -0.6336  0.0423 -0.6312
  672MPD2     N10002   1.494   3.825   0.624 -0.3063 -0.2153 -0.3435
  672MPD2    H510003   1.521   3.920   0.648 -0.3823 -0.0192 -1.0307
  672MPD2    N110004   1.109   3.542   0.490 -0.1279 -0.1806  0.4203
  672MPD2    H710005   1.170   3.461   0.495  1.6287  1.3161  2.9744
  673TMC3    C110006   0.933   3.383   0.448  0.1529 -0.0022  0.4101
  673TMC3    C210007   1.003   3.269   0.486 -0.3576  0.5436 -0.5084
  673TMC3    C310008   0.935   3.153   0.487  0.4018  0.0854  0.5576
  673TMC3    C410009   0.797   3.386   0.421  0.1598  0.7105  0.5079
  673TMC3    C510010   0.732   3.270   0.433 -0.2396 -1.0619  0.0464
  673TMC3    C610011   0.800   3.144   0.450  1.1892 -0.4486  0.5468
  673TMC3     C10012   0.978   3.524   0.466  0.1283 -0.3185  0.1749
  673TMC3     O10013   0.893   3.607   0.432  0.2953 -0.5479  0.2942
  673TMC3     H10014   1.101   3.272   0.534 -1.4035 -0.5622  1.6866
  673TMC3    H110015   0.753   3.471   0.371 -1.0874 -0.3561 -0.2193
  673TMC3    H210016   0.750   3.048   0.440  2.7130 -1.4188  2.1630
  673TMC3    C710017   0.610   3.260   0.357 -0.5683 -0.2880  0.2232
  673TMC3    C810018   1.004   3.030   0.511  0.1252  0.3157  0.0174
  673TMC3    O110019   0.590   3.154   0.299 -0.6121  0.3915 -0.0785
  673TMC3    O210020   0.940   2.927   0.504  0.7541 -0.2978  0.3368
  674MPD2     C10021   0.598   3.710  17.570 -0.4264 -0.0835 -0.2797
  674MPD2    C110022   0.578   3.580  17.608 -0.2626 -0.0498 -0.3921
  674MPD2    C210023   0.455   3.525  17.579 -0.2790 -0.0078 -0.2941
  674MPD2    C310024   0.349   3.587  17.521  0.1075  0.2093 -0.0123
  674MPD2    C410025   0.368   3.719  17.496  0.3280 -0.9646 -0.1275
  674MPD2    C510026   0.486   3.784  17.518 -0.2456 -0.0764 -0.0550
  674MPD2     H10027   0.430   3.422  17.600 -0.6853  0.7534  2.9443
  674MPD2    H110028   0.291   3.784  17.455  1.0410 -0.4811 -0.7122
  674MPD2    H210029   0.689   3.760  17.602 -0.1196 -0.4090 -0.6424
  674MPD2    H310030   0.494   3.889  17.492  0.6691 -0.2331 -0.4057
  674MPD2     N10031   0.233   3.514  17.496 -0.4815 -0.3938  0.0486
  674MPD2    H510032   0.232   3.417  17.527 -3.4740  0.2754  2.0034
  674MPD2    N110033   0.688   3.518  17.666  0.0404  0.5050  0.1407
  674MPD2    H710034   0.771   3.574  17.684 -0.4163  0.8453  1.1750
  675TMC3    C110035   0.804   3.335   0.011 -0.0538 -0.7595 -0.6832
  675TMC3    C210036   0.805   3.200   0.046  0.2537  0.5686  0.1021
  675TMC3    C310037   0.917   3.152   0.101  0.3220 -0.2031  0.0996
  675TMC3    C410038   0.910   3.422   0.031 -0.0851 -0.1989 -0.7868
  675TMC3    C510039   1.028   3.366   0.092 -0.0880  0.2806  0.1491
  675TMC3    C610040   1.031   3.227   0.122  0.0706 -0.0258 -0.1313
  675TMC3     C10041   0.684   3.387  17.712 -0.3773  0.1772 -0.2050
  675TMC3     O10042   0.599   3.298  17.696 -0.2311  0.2240 -0.0871
  675TMC3     H10043   0.721   3.134   0.026  1.3946 -1.5109  2.1828
  675TMC3    H110044   0.897   3.529   0.035 -0.1162 -0.1930 -1.0425
  675TMC3    H210045   1.127   3.184   0.149 -0.6791 -1.6645 -0.0694
  675TMC3    C710046   1.148   3.443   0.113  0.5760  0.3128 -0.2027
  675TMC3    C810047   0.926   3.014   0.117 -0.4582 -0.3590  0.1682
  675TMC3    O110048   1.247   3.382   0.149 -0.1640  0.2958  0.2327
  675TMC3    O210049   1.028   2.960   0.082 -0.1801  0.6296 -0.4793
  676MPD2     C10050   3.169   1.359  11.205 -0.0685 -0.6846 -0.1875
  676MPD2    C110051   3.048   1.339  11.262  0.4642 -0.6742  0.1313
  676MPD2    C210052   2.984   1.232  11.216  0.1496  0.2705 -0.2241
  676MPD2    C310053   3.037   1.154  11.116  0.0051  0.2215  0.1192
  676MPD2    C410054   3.166   1.174  11.069 -0.5754  0.3281  0.9990
  676MPD2    C510055   3.228   1.282  11.117  0.5299  0.4177 -0.5168
  676MPD2     H10056   2.886   1.209  11.255 -0.4084  2.2119 -0.4917
  676MPD2    H110057   3.212   1.117  10.989 -0.9362  1.7313 -0.2311
  676MPD2    H210058   3.231   1.440  11.242 -1.9376  0.1300  1.1559
  676MPD2    H310059   3.331   1.315  11.106 -0.2738  3.3146  0.6017
  676MPD2     N10060   2.970   1.056  11.052  0.6679  0.0918 -0.2511
  676MPD2    H510061   3.013   0.978  11.005 -0.4022 -1.1675  0.8788
  676MPD2    N110062   3.000   1.407  11.375 -0.3031 -0.7261 -0.1305
  676MPD2    H710063   2.917   1.369  11.420  0.1211 -2.3001 -0.6851
  677TMC3    C110064   2.995   1.562  11.546 -0.3798  0.1820 -0.0541
  677TMC3    C210065   2.990   1.452  11.628  0.6890 -0.2043  0.0987
  677TMC3    C310066   2.927   1.468  11.749  0.3709  0.6071 -0.3383
  677TMC3    C410067   2.933   1.674  11.580  0.0417  0.0740  0.0855
  677TMC3    C510068   2.873   1.682  11.701  0.5503 -1.0426 -0.4265
  677TMC3    C610069   2.855   1.581  11.783 -0.3944  0.0999 -0.5684
  677TMC3     C10070   3.036   1.532  11.412 -0.6663  0.2273 -0.4471
  677TMC3     O10071   3.106   1.615  11.360 -0.1668 -0.3050  0.4022
  677TMC3     H10072   3.062   1.372  11.618 -1.7103 -2.4571  0.6065
  677TMC3    H110073   2.947   1.761  11.517 -1.4008  1.0240  1.0775
  677TMC3    H210074   2.823   1.599  11.886 -1.6757  1.7691 -1.2542
  677TMC3    C710075   2.859   1.811  11.753 -0.2801  0.5226 -0.0431
  677TMC3    C810076   2.989   1.397  11.857  0.3537  0.4710 -0.4496
  677TMC3    O110077   2.777   1.818  11.846  0.3062  0.1404  0.0407
  677TMC3    O210078   3.106   1.364  11.843 -0.3852  0.5100  0.5951
  678MPD2     C10079   4.234   1.241   1.261  0.1718  0.5557 -0.6109
  678MPD2    C110080   4.216   1.225   1.121  0.2176  0.1718  0.1448
  678MPD2    C210081   4.106   1.268   1.053 -0.4747 -0.3162  0.3313
  678MPD2    C310082   4.008   1.341   1.126 -0.2551 -0.2548  1.1912
  678MPD2    C410083   4.025   1.372   1.264 -0.4868  0.0925 -0.9346
  678MPD2    C510084   4.136   1.318   1.331  0.5410 -0.4524 -0.0690
  678MPD2     H10085   4.083   1.242   0.950 -2.6490 -0.9121  0.9545
  678MPD2    H110086   3.948   1.436   1.306 -0.5186 -1.3254  1.1206
  678MPD2    H210087   4.308   1.197   1.326  0.3700 -2.9636 -3.2689
  678MPD2    H310088   4.145   1.340   1.437  0.6672 -0.1579 -0.1409
  678MPD2     N10089   3.902   1.380   1.048 -0.4205 -0.4874  0.0796
  678MPD2    H510090   3.906   1.371   0.947 -0.0913 -2.5381  0.2639
  678MPD2    N110091   4.307   1.150   1.040  0.5691 -0.3783 -0.0901
  678MPD2    H710092   4.275   1.131   0.946 -0.4057  1.2057 -0.0753
  679TMC3    C110093   4.641   0.861   0.893 -0.2007 -0.5164  0.7992
  679TMC3    C210094   4.579   0.931   0.999 -0.5052  0.5457 -1.0098
  679TMC3    C310095   4.489   1.032   0.973  0.0166 -0.2232  0.1495
  679TMC3    C410096   4.627   0.915   0.776  0.0465  0.6521 -0.4540
  679TMC3    C510097   4.562   1.037   0.752  0.4034  0.1551  0.1862
  679TMC3    C610098   4.490   1.098   0.849  0.4706 -0.2268 -0.0331
  679TMC3     C10099   4.739   0.759   0.910 -0.0136 -0.1539  1.1462
  679TMC3     O10100   0.042   0.702   0.810 -0.1413  0.0623 -0.4795
  679TMC3     H10101   4.586   0.897   1.101  0.8005 -0.3535 -1.4011
  679TMC3    H110102   4.649   0.860   0.685 -1.6326  2.3890 -1.9174
  679TMC3    H210103   4.440   1.192   0.830  0.0587 -0.2279  1.0331
  679TMC3    C710104   4.608   1.119   0.638  0.1436  0.5726 -0.1671
  679TMC3    C810105   4.427   1.098   1.084 -0.4405 -0.4707  0.0506
  679TMC3    O110106   4.534   1.212   0.607  0.3023 -0.2958 -0.2026
  679TMC3    O210107   4.483   1.107   1.190 -0.1041  0.2236 -0.3947
  680MPD2     C10108   4.025   0.166  13.348  0.7787 -0.2521  0.8495
  680MPD2    C110109   4.127   0.120  13.421  0.8821 -0.2768  0.0598
  680MPD2    C210110   4.237   0.197  13.445  0.6130 -0.1296  0.3709
  680MPD2    C310111   4.248   0.327  13.396 -0.2883 -0.6962 -0.1777
  680MPD2    C410112   4.137   0.378  13.321  0.2167 -0.8524 -0.4278
  680MPD2    C510113   4.031   0.295  13.302  0.3370 -0.1348  0.0933
  680MPD2     H10114   4.314   0.143  13.499  0.8945 -0.9766 -0.8827
  680MPD2    H110115   4.140   0.478  13.279 -0.7989  0.4196  2.5324
  680MPD2    H210116   3.949   0.099  13.309  2.1666  0.7494 -3.5389
  680MPD2    H310117   3.954   0.329  13.234 -1.6609  1.3581  3.1029
  680MPD2     N10118   4.367   0.409  13.411 -0.0568 -0.0021 -0.1794
  680MPD2    H510119   4.378   0.495  13.357 -0.7696  0.2812  0.1293
  680MPD2    N110120   4.123   4.741  13.486 -0.0599 -0.1267  0.0424
  680MPD2    H710121   4.211   4.711  13.526  0.2879 -2.3585 -2.4613
  681TMC3    C110122   4.027   4.539  13.580  0.2069  0.0751 -0.7970
  681TMC3    C210123   3.985   4.552  13.708 -0.2342  0.6485 -0.0303
  681TMC3    C310124   4.060   4.491  13.801  0.0881  0.2491 -0.0379
  681TMC3    C410125   4.137   4.472  13.549  0.5686  0.1839  0.0404
  681TMC3    C510126   4.213   4.416  13.647 -0.0871 -0.2318 -0.5260
  681TMC3    C610127   4.176   4.425  13.780 -1.0610 -0.0574 -0.0345
  681TMC3     C10128   4.008   4.670  13.509 -0.1042  0.0674  0.4301
  681TMC3     O10129   3.892   4.689  13.489 -0.0415  0.6063  0.5323
  681TMC3     H10130   3.890   4.603  13.727  0.6336  1.5033  2.0737
  681TMC3    H110131   4.173   4.473  13.446 -1.8210 -0.0352 -0.8022
  681TMC3    H210132   4.216   4.360  13.857  1.8646  1.2962 -0.4044
  681TMC3    C710133   4.338   4.348  13.629 -0.6402 -0.0541 -0.0059
  681TMC3    C810134   4.046   4.549  13.938 -0.2381  0.2978 -0.6059
  681TMC3    O110135   4.392   4.296  13.724 -0.3764 -0.6785 -0.5242
  681TMC3    O210136   3.937   4.561  13.981 -0.1821 -0.8436  0.1532
  682MPD2     C10137   2.211   1.377  10.680 -0.7817 -0.2057 -0.2054
  682MPD2    C110138   2.170   1.243  10.710 -0.0676  0.1833 -0.1706
  682MPD2    C210139   2.083   1.228  10.815  0.3055 -0.1261 -0.1139
  682MPD2    C310140   2.035   1.331  10.886  0.1965  0.3949  0.8256
  682MPD2    C410141   2.059   1.458  10.848  0.4149  0.2817 -0.1157
  682MPD2    C510142   2.145   1.482  10.747  0.2099  0.5583 -0.1808
  682MPD2     H10143   2.045   1.129  10.835 -1.3119  0.6151  0.4721
  682MPD2    H110144   2.013   1.539  10.904  0.4070  1.3812 -1.7250
  682MPD2    H210145   2.289   1.399  10.609 -1.0815  0.9192 -0.1912
  682MPD2    H310146   2.180   1.583  10.733 -1.1566  1.1580  0.6353
  682MPD2     N10147   1.952   1.310  10.996 -0.5555 -0.3787  0.1905
  682MPD2    H510148   1.886   1.381  11.025 -2.0414 -1.3139 -0.9142
  682MPD2    N110149   2.197   1.123  10.640 -0.3918  0.2127 -1.1429
  682MPD2    H710150   2.167   1.036  10.683 -1.5507  0.5469 -1.2826
  683TMC3    C110151   1.769   1.164  11.360  0.3119 -0.5640 -0.7984
  683TMC3    C210152   1.710   1.042  11.356  0.2376 -0.0250  0.0638
  683TMC3    C310153   1.705   0.983  11.228  0.4259 -0.1123  0.9264
  683TMC3    C410154   1.816   1.236  11.252 -0.1234 -0.0987 -0.1331
  683TMC3    C510155   1.808   1.176  11.132  0.4000 -0.9868  0.1569
  683TMC3    C610156   1.756   1.050  11.121 -0.0269  0.9318 -0.4605
  683TMC3     C10157   1.800   1.237  11.487  0.3437  1.0487  0.5138
  683TMC3     O10158   1.893   1.313  11.486  0.9425 -0.2565 -0.2471
  683TMC3     H10159   1.683   0.976  11.438 -1.6808 -2.2423 -2.3167
  683TMC3    H110160   1.851   1.337  11.269  2.0963 -0.2576 -3.7846
  683TMC3    H210161   1.779   0.998  11.029 -1.5745 -2.5040  1.0969
  683TMC3    C710162   1.922   1.190  11.050  0.0795  0.1760 -0.2280
  683TMC3    C810163   1.705   0.839  11.203  0.1214  0.1652  0.1434
  683TMC3    O110164   2.001   1.093  11.049 -0.0703 -0.1327 -0.6857
  683TMC3    O210165   1.661   0.797  11.095 -0.2636 -0.1428 -0.0366
  684MPD2     C10166   0.623   0.458  16.427 -0.1666 -0.5017  0.0303
  684MPD2    C110167   0.513   0.519  16.366  0.1025  0.0148 -0.5152
  684MPD2    C210168   0.488   0.653  16.395  0.2627 -0.0899  0.2263
  684MPD2    C310169   0.560   0.721  16.486 -0.6448 -0.5721 -0.8599
  684MPD2    C410170   0.661   0.659  16.546  0.3288  0.2390 -0.4651
  684MPD2    C510171   0.693   0.533  16.512 -0.1372 -0.0694  0.4591
  684MPD2     H10172   0.420   0.697  16.322  0.9010 -0.7686 -0.7720
  684MPD2    H110173   0.718   0.712  16.622  0.5026 -0.1504 -0.3267
  684MPD2    H210174   0.640   0.352  16.436 -0.9455 -0.5970  0.4447
  684MPD2    H310175   0.780   0.488  16.559 -0.1428 -2.6988 -2.0808
  684MPD2     N10176   0.553   0.865  16.504  0.1480 -0.6498  0.2005
  684MPD2    H510177   0.623   0.905  16.566 -0.3636 -0.3131  0.5614
  684MPD2    N110178   0.432   0.446  16.277  0.4891 -0.3129 -0.0928
  684MPD2    H710179   0.342   0.490  16.258  0.4780  1.2980  3.5935
  685TMC3    C110180   0.365   0.272  16.130 -0.7256  0.0397 -0.0286
  685TMC3    C210181   0.263   0.356  16.080 -0.0942  0.2571  0.0465
  685TMC3    C310182   0.240   0.356  15.943  0.3738 -0.3664  0.6875
  685TMC3    C410183   0.447   0.208  16.045 -0.0655 -0.3368  0.5678
  685TMC3    C510184   0.438   0.238  15.908  0.1889  0.5910 -0.5186
  685TMC3    C610185   0.333   0.307  15.857  0.9152  0.3779 -0.0374
  685TMC3     C10186   0.452   0.315  16.240  0.2410  0.6061 -0.1082
  685TMC3     O10187   0.535   0.232  16.279 -0.8156 -0.1987 -0.4213
  685TMC3     H10188   0.186   0.399  16.144 -0.0109 -1.4779  1.2952
  685TMC3    H110189   0.519   0.136  16.081  0.8002 -0.2824 -1.0839
  685TMC3    H210190   0.315   0.301  15.751 -0.8397 -4.0457  0.5051
  685TMC3    C710191   0.561   0.291  15.856  0.1500 -0.7807 -0.1538
  685TMC3    C810192   0.117   0.403  15.883 -0.6668  0.4291 -0.7050
  685TMC3    O110193   0.562   0.321  15.741 -0.3660  0.5361  0.3737
  685TMC3    O210194   0.100   0.370  15.763  0.0714  0.6326  0.4685
  686MPD2     C10195   1.530   1.064  15.279  0.3603  0.3671 -0.7085
  686MPD2    C110196   1.629   1.001  15.347 -1.0348 -0.8125  0.3315
  686MPD2    C210197   1.728   0.927  15.282 -0.1491 -0.1344  0.4101
  686MPD2    C310198   1.707   0.904  15.141 -0.4653  0.1329  0.6172
  686MPD2    C410199   1.612   0.972  15.068 -0.1761  0.2202 -0.1737
  686MPD2    C510200   1.522   1.049  15.141 -1.0876  0.3324  0.5152
  686MPD2     H10201   1.789   0.864  15.345  0.1063 -0.7603 -0.4540
  686MPD2    H110202   1.589   0.953  14.964  0.0112  1.1397 -0.3793
  686MPD2    H210203   1.462   1.129  15.333 -0.6816 -1.0234 -0.3435
  686MPD2    H310204   1.442   1.103  15.092 -2.4104 -0.9101  1.2960
  686MPD2     N10205   1.763   0.801  15.065 -0.6998 -0.2614  1.0198
  686MPD2    H510206   1.759   0.811  14.964 -0.1768  2.6988  1.2871
  686MPD2    N110207   1.609   0.996  15.484  0.2789 -0.1966  0.2989
  686MPD2    H710208   1.519   1.037  15.510  1.2987  1.7611  0.6789
  687TMC3    C110209   1.760   0.621  15.224 -0.3150 -0.2152  0.1760
  687TMC3    C210210   1.623   0.630  15.243  0.1350  0.7525 -0.5193
  687TMC3    C310211   1.583   0.619  15.378 -0.0222  0.6406  0.3779
  687TMC3    C410212   1.849   0.591  15.325 -0.2897  0.3581 -0.3548
  687TMC3    C510213   1.805   0.591  15.452  0.6346 -0.2946 -0.0693
  687TMC3    C610214   1.671   0.594  15.478  0.2587 -0.2601  0.4503
  687TMC3     C10215   1.827   0.689  15.115 -0.1125 -0.0990  0.1839
  687TMC3     O10216   1.918   0.627  15.060  0.0741 -0.2574 -0.2102
  687TMC3     H10217   1.557   0.657  15.161  0.7940  1.1482 -0.9279
  687TMC3    H110218   1.952   0.583  15.293  0.6080  2.4996  1.9181
  687TMC3    H210219   1.630   0.579  15.577  1.3442 -0.5944  0.8529
  687TMC3    C710220   1.877   0.532  15.549 -0.2795 -0.0711 -0.1918
  687TMC3    C810221   1.452   0.672  15.422 -0.0565  0.7920 -0.6829
  687TMC3    O110222   1.835   0.550  15.661  1.3308  0.2641 -1.0686
  687TMC3    O210223   1.444   0.682  15.546  0.3268 -0.3591 -0.2536
  688MPD2     C10224   1.210   4.388  17.260  0.3673 -0.1733  0.6829
  688MPD2    C110225   1.252   4.254  17.278 -0.1502 -0.0266 -0.1370
  688MPD2    C210226   1.350   4.197  17.194  0.0379 -0.3196 -0.0440
  688MPD2    C310227   1.391   4.266  17.084 -0.7412 -0.1360  0.3797
  688MPD2    C410228   1.344   4.395  17.061 -0.5933  0.5950  0.1974
  688MPD2    C510229   1.251   4.449  17.140 -0.2881  0.1292  0.1839
  688MPD2     H10230   1.372   4.093  17.216 -1.9968 -0.9013 -0.8059
  688MPD2    H110231   1.373   4.444  16.969 -0.6280  0.5842  0.1807
  688MPD2    H210232   1.136   4.439  17.321 -2.4802 -0.8706 -2.2047
  688MPD2    H310233   1.218   4.549  17.115  1.5653  0.3953 -1.2576
  688MPD2     N10234   1.468   4.205  16.983 -0.6145  0.3491 -0.5528
  688MPD2    H510235   1.467   4.248  16.891 -1.0118  0.7084 -0.3762
  688MPD2    N110236   1.189   4.168  17.380 -0.2121 -0.1949  0.3299
  688MPD2    H710237   1.214   4.070  17.373  0.8448  0.0874  0.1816
  689TMC3    C110238   1.036   4.108  17.557  0.3468 -0.2234  0.0615
  689TMC3    C210239   0.985   4.138  17.682  0.2785  0.2762 -0.7658
  689TMC3    C310240   0.916   4.054  17.756 -0.4481 -0.3607  0.0394
  689TMC3    C410241   1.001   3.991  17.497  0.0661 -0.4495 -0.0369
  689TMC3    C510242   0.931   3.903  17.575 -0.2310  0.8473 -0.2103
  689TMC3    C610243   0.899   3.931  17.704  0.7659 -0.2942  0.0387
  689TMC3     C10244   1.102   4.208  17.485 -0.0289  0.1275  0.0582
  689TMC3     O10245   1.083   4.324  17.523 -0.3116 -0.3756 -0.1415
  689TMC3     H10246   1.025   4.227  17.731 -1.1268 -0.6363  2.0618
  689TMC3    H110247   1.033   3.974  17.394  0.8816  0.3334  0.0853
  689TMC3    H210248   0.853   3.854  17.764  1.4830  0.5518  1.6654
  689TMC3    C710249   0.966   3.763  17.558 -0.6004  0.5268 -0.2603
  689TMC3    C810250   0.906   4.083   0.128  0.5629 -0.1850  0.2309
  689TMC3    O110251   1.010   3.704  17.654 -0.0092  0.2332  0.2638
  689TMC3    O210252   0.995   4.151   0.182  0.0760 -0.1909 -0.1011
  690MPD2     C10253   3.118   1.451  15.883 -0.2873  0.2924 -0.0641
  690MPD2    C110254   3.112   1.471  15.745 -0.0571 -0.2387 -0.4121
  690MPD2    C210255   3.231   1.484  15.676  0.1608 -0.3186 -1.0352
  690MPD2    C310256   3.351   1.471  15.740  0.5710 -0.0234  0.0071
  690MPD2    C410257   3.352   1.461  15.880  0.3486  0.7979 -0.8908
  690MPD2    C510258   3.239   1.455  15.950  1.0595  0.0695  0.0552
  690MPD2     H10259   3.221   1.487  15.568 -1.3625 -1.8056 -0.9464
  690MPD2    H110260   3.447   1.439  15.927 -2.2133  0.1005  3.9492
  690MPD2    H210261   3.031   1.408  15.933 -0.0377  2.0255  1.8343
  690MPD2    H310262   3.248   1.429  16.054 -0.5752 -1.2310 -0.1341
  690MPD2     N10263   3.464   1.479  15.653  0.4348  0.1233 -0.1049
  690MPD2    H510264   3.443   1.482  15.554 -1.0867 -0.3322  0.2004
  690MPD2    N110265   2.988   1.450  15.677 -0.1373 -0.4666 -0.1456
  690MPD2    H710266   2.998   1.431  15.578 -0.1453  2.0608 -0.6243
  691TMC3    C110267   2.777   1.355  15.631  0.1067  0.0330  0.4073
  691TMC3    C210268   2.644   1.380  15.654  0.3514 -0.8961  0.6272
  691TMC3    C310269   2.567   1.265  15.662  0.3668  0.5603 -0.0676
  691TMC3    C410270   2.828   1.233  15.585  0.2660 -0.2314  0.4643
  691TMC3    C510271   2.754   1.129  15.593 -0.0297 -0.0977 -0.1732
  691TMC3    C610272   2.625   1.143  15.636  0.0816  0.3469  0.3180
  691TMC3     C10273   2.868   1.413  15.736  0.3393 -0.5565  1.0653
  691TMC3     O10274   2.818   1.458  15.835 -0.0742  0.1585 -0.0507
  691TMC3     H10275   2.610   1.481  15.673 -0.3331 -1.0070 -0.0148
  691TMC3    H110276   2.929   1.223  15.546  0.4611  3.4218 -0.0335
  691TMC3    H210277   2.565   1.053  15.648  1.4682 -0.3122  2.3012
  691TMC3    C710278   2.828   1.011  15.634  0.0971  0.1803 -0.0829
  691TMC3    C810279   2.441   1.265  15.726  0.1293 -1.3579  0.0778
  691TMC3    O110280   2.944   1.026  15.669  0.6234  0.6679  1.0839
  691TMC3    O210281   2.369   1.167  15.711  0.0787 -0.8158  0.2704
  692TMC3    C110282   0.076   2.129  15.778  0.6942  0.2966  0.3500
  692TMC3    C210283   0.207   2.170  15.764 -0.0713 -0.1208 -0.3979
  692TMC3    C310284   0.315   2.079  15.741  0.6982 -0.6439 -0.7357
  692TMC3    C410285   0.052   1.996  15.794 -0.5514 -0.4867  0.1479
  692TMC3    C510286   0.160   1.914  15.790  0.1765 -0.9379  0.5262
  692TMC3    C610287   0.291   1.952  15.775  0.2360 -0.0787 -0.1692
  692TMC3     C10288   4.716   2.224  15.807 -0.3219 -0.1455 -0.1527
  692TMC3     O10289   4.607   2.175  15.819  1.2768  0.0063  0.0399
  692TMC3     H10290   0.220   2.277  15.752  0.6336 -0.0363  1.1013
  692TMC3    H110291   4.696   1.954  15.806 -1.3686 -0.0481 -4.9897
  692TMC3    H210292   0.371   1.880  15.761 -0.6225 -0.9050 -0.8231
  692TMC3    C710293   0.128   1.781  15.805 -0.2872 -0.0285  0.2744
  692TMC3    C810294   0.438   2.125  15.801  0.2902  0.0501 -0.4247
  692TMC3    O110295   0.020   1.747  15.753 -0.3837 -0.0650  0.4920
  692TMC3    O210296   0.508   2.055  15.865  0.7508 -0.2211  0.0804
  693MPD2     C10297   4.100   0.188  10.419  0.5946  0.2107 -0.3071
  693MPD2    C110298   4.015   0.087  10.466  0.2983  0.6998 -0.0717
  693MPD2    C210299   4.074   4.723  10.524  0.7883 -0.0653  0.3361
  693MPD2    C310300   4.215   4.722  10.543 -0.7568 -0.5721  0.0323
  693MPD2    C410301   4.288   0.082  10.488 -0.1779 -0.2723 -0.3586
  693MPD2    C510302   4.236   0.181  10.420  0.0270 -0.1341  0.1425
  693MPD2     H10303   4.011   4.639  10.548  0.3264  0.5473  1.2701
  693MPD2    H110304   4.395   0.081  10.503 -0.3296 -0.1381  0.7002
  693MPD2    H210305   4.066   0.277  10.367  1.2437  0.5194 -0.2081
  693MPD2    H310306   4.297   0.261  10.380 -1.3687  2.5932  3.4997
  693MPD2     N10307   4.284   4.636  10.634  0.1618  0.3598 -0.2848
  693MPD2    H510308   4.379   4.669  10.652 -0.3490  1.3265  0.6112
  693MPD2    N110309   3.875   0.101  10.452 -0.1580 -0.1604  0.7696
  693MPD2    H710310   3.834   0.172  10.392  1.6763 -1.8177 -2.4270
  694TMC3    C110311   3.650   0.059  10.512 -0.1492 -0.2581 -0.3993
  694TMC3    C210312   3.565   4.700  10.533 -0.0705  0.1351  0.0677
  694TMC3    C310313   3.473   4.704  10.632  0.3136  0.4434  0.3003
  694TMC3    C410314   3.636   0.175  10.589  0.0552 -0.0285  0.3842
  694TMC3    C510315   3.566   0.164  10.700  0.0312  0.6198 -0.0053
  694TMC3    C610316   3.479   0.056  10.727 -0.7153  0.4062  0.2481
  694TMC3     C10317   3.789   0.012  10.517 -0.5861 -0.1894 -0.7015
  694TMC3     O10318   3.806   4.654  10.582 -0.1900 -0.4170 -0.0881
  694TMC3     H10319   3.581   4.604  10.484  0.8760 -0.5543  1.7130
  694TMC3    H110320   3.713   0.251  10.588 -0.1981  0.2091 -0.9227
  694TMC3    H210321   3.417   0.066  10.815  0.4598  1.6719  0.9429
  694TMC3    C710322   3.622   0.245  10.808 -0.5440  0.3147  0.0055
  694TMC3    C810323   3.359   4.612  10.635  0.3200 -0.0877  0.3722
  694TMC3    O110324   3.673   0.353  10.778 -0.6539  0.6379  0.0302
  694TMC3    O210325   3.318   4.576  10.742 -0.6903 -0.0710 -0.0551
  695MPD2     C10326   0.471   1.710  13.642 -1.0323  0.5751 -0.0468
  695MPD2    C110327   0.434   1.810  13.724 -0.1921  0.3465 -0.7704
  695MPD2    C210328   0.341   1.900  13.681  0.1386 -0.0675  0.2479
  695MPD2    C310329   0.295   1.896  13.547  0.3606 -0.2052 -0.6577
  695MPD2    C410330   0.343   1.796  13.466 -0.0528 -0.4779 -0.0080
  695MPD2    C510331   0.425   1.707  13.516  0.7020 -0.7711  0.4542
  695MPD2     H10332   0.306   1.973  13.754  1.5764  0.0416  0.8332
  695MPD2    H110333   0.323   1.796  13.360 -1.1876 -3.1641  0.1969
  695MPD2    H210334   0.543   1.638  13.679  0.9159  2.5079 -0.0745
  695MPD2    H310335   0.465   1.642  13.439 -0.5243 -0.2573 -0.6136
  695MPD2     N10336   0.211   2.002  13.506  0.2999 -0.2483 -0.1672
  695MPD2    H510337   0.194   2.077  13.572  1.8536  1.9515 -2.3094
  695MPD2    N110338   0.477   1.822  13.860 -0.4626  0.4225 -0.7598
  695MPD2    H710339   0.427   1.889  13.917  0.0669  0.1394  0.0379
  696TMC3    C110340   0.073   2.129  13.366 -0.1365 -0.1508  0.9490
  696TMC3    C210341   4.724   2.162  13.463  0.2870  0.1165 -0.0838
  696TMC3    C310342   4.630   2.254  13.429 -0.5505 -0.7166 -0.4722
  696TMC3    C410343   0.074   2.189  13.243  0.2479 -0.0895  0.7217
  696TMC3    C510344   4.724   2.285  13.215  0.2525 -0.4297 -0.3879
  696TMC3    C610345   4.632   2.317  13.311 -0.0103  0.2172 -0.2034
  696TMC3     C10346   0.164   2.018  13.377  0.2583  0.4824 -0.3402
  696TMC3     O10347   0.178   1.940  13.286 -0.0429 -0.4775 -0.3344
  696TMC3     H10348   4.731   2.118  13.562 -1.3113 -1.5384 -0.6944
  696TMC3    H110349   0.148   2.175  13.165  0.7548 -2.9307  1.7298
  696TMC3    H210350   4.556   2.387  13.278  0.7852  2.1966  2.2063
  696TMC3    C710351   0.037   2.396  13.142  0.3450  0.2576 -0.0207
  696TMC3    C810352   4.614   2.351  13.539 -0.2410  0.1708 -0.0387
  696TMC3    O110353   0.115   2.383  13.055  0.4038 -0.2084 -0.1708
  696TMC3    O210354   4.645   2.467  13.518  0.2217 -0.2171 -0.2616
  697MPD2     C10355   4.038   4.151  15.553 -0.2015 -0.3426 -0.3053
  697MPD2    C110356   4.083   4.097  15.431 -0.1282 -0.6305  0.0215
  697MPD2    C210357   4.112   4.186  15.326  0.4068 -0.6223  0.2166
  697MPD2    C310358   4.090   4.317  15.340 -0.0537 -0.1820  0.2228
  697MPD2    C410359   4.035   4.370  15.450  0.7278 -0.2299  0.3703
  697MPD2    C510360   4.003   4.287  15.555  0.4134  0.3927  0.1156
  697MPD2     H10361   4.144   4.146  15.230 -2.1062  2.6436 -1.9577
  697MPD2    H110362   4.012   4.475  15.461  2.4572  0.0049  1.7390
  697MPD2    H210363   4.039   4.092  15.643 -1.9749  1.3537  0.8136
  697MPD2    H310364   3.957   4.329  15.644 -1.5709 -1.6401  0.0604
  697MPD2     N10365   4.124   4.406  15.234 -0.0555  0.4249 -0.7189
  697MPD2    H510366   4.159   4.358  15.151  0.4057  0.8675 -0.7829
  697MPD2    N110367   4.113   3.959  15.421  0.0594  0.2895  0.6151
  697MPD2    H710368   4.143   3.937  15.327 -2.7136  0.7897 -0.3738
  698TMC3    C110369   4.182   4.594  15.109  0.4618  0.8220 -0.5426
  698TMC3    C210370   4.264   4.705  15.128  0.6072 -0.5689  0.4436
  698TMC3    C310371   4.350   4.740  15.026  0.3172  0.5844  0.4968
  698TMC3    C410372   4.181   4.521  14.995 -0.3402 -0.1428 -0.3909
  698TMC3    C510373   4.271   4.555  14.897  0.6326 -0.0522  0.0678
  698TMC3    C610374   4.359   4.660  14.915  0.1908 -0.0213 -0.1219
  698TMC3     C10375   4.134   4.543  15.229  0.6816  0.8815  0.1916
  698TMC3     O10376   4.132   4.621  15.320 -0.3870 -0.7700  0.2366
  698TMC3     H10377   4.273   0.018  15.220 -2.4858 -0.3356  0.6165
  698TMC3    H110378   4.100   4.453  14.968  0.3030 -0.7765 -0.7127
  698TMC3    H210379   4.444   4.675  14.850 -0.5926 -0.3695 -1.2230
  698TMC3    C710380   4.278   4.467  14.776  0.1796 -0.5923  0.7529
  698TMC3    C810381   4.469   0.056  15.078 -0.0863 -0.0110 -0.3890
  698TMC3    O110382   4.178   4.396  14.764  0.5110 -0.0082  0.2879
  698TMC3    O210383   4.477   0.072  15.201 -0.3980  0.6201 -0.4131
  699TMC3    C110384   4.486   2.067  13.041 -0.3217 -0.3707  0.2596
  699TMC3    C210385   4.541   1.977  13.131 -0.1089  0.2859 -0.1726
  699TMC3    C310386   4.465   1.932  13.236  0.1203 -0.3433 -0.3037
  699TMC3    C410387   4.353   2.111  13.054  0.2884 -0.1251  0.1088
  699TMC3    C510388   4.285   2.068  13.165  0.3954 -1.0567 -0.2266
  699TMC3    C610389   4.337   1.978  13.258 -1.0249 -0.5425  0.2264
  699TMC3     C10390   4.577   2.128  12.943 -0.4515  0.1134  0.6404
  699TMC3     O10391   4.542   2.243  12.931  0.4739  0.3452 -0.0937
  699TMC3     H10392   4.647   1.953  13.124 -0.0224  0.8179 -0.7374
  699TMC3    H110393   4.316   2.190  12.989  0.5908  0.1634  0.2885
  699TMC3    H210394   4.286   1.962  13.352 -0.1953 -3.4786  0.2027
  699TMC3    C710395   4.144   2.102  13.180  1.0748  0.0646  0.4773
  699TMC3    C810396   4.510   1.840  13.336 -0.0302  0.6671  0.3151
  699TMC3    O110397   4.080   2.037  13.258 -0.2125  0.6581 -0.3933
  699TMC3    O210398   4.450   1.827  13.441 -0.1107 -0.2232 -0.6584
  700TMC3    C110399   3.947   4.165  17.303  0.2880 -0.0391 -0.0576
  700TMC3    C210400   4.049   4.141  17.214 -0.2080 -0.5031 -0.2592
  700TMC3    C310401   4.174   4.158  17.261  0.3196 -0.5726  0.5933
  700TMC3    C410402   3.967   4.217  17.430  0.1538  0.0185 -0.4466
  700TMC3    C510403   4.097   4.228  17.468  0.3673  0.7559 -0.7040
  700TMC3    C610404   4.203   4.211  17.384 -0.5810  0.2091  0.5182
  700TMC3     C10405   3.841   4.234  17.246  0.5233 -0.0127 -0.2694
  700TMC3     O10406   3.731   4.230  17.298 -0.4275  0.0021  0.0943
  700TMC3     H10407   4.030   4.097  17.116  0.2173 -1.1108 -0.0708
  700TMC3    H110408   3.887   4.242  17.499  0.4186  1.4890 -0.6642
  700TMC3    H210409   4.303   4.219  17.426  0.3628 -0.1986 -1.6661
  700TMC3    C710410   4.130   4.309  17.578 -0.3268  0.0675  0.7234
  700TMC3    C810411   4.276   4.121  17.167  0.5456  0.7640 -0.7100
  700TMC3    O110412   4.233   4.373  17.571 -0.3750  0.1193 -0.4642
  700TMC3    O210413   4.253   4.039  17.078 -0.1457 -0.4319 -0.0867
  701TMC3    C110414   3.784   3.598  14.931  0.5619 -0.2145  0.0939
  701TMC3    C210415   3.850   3.484  14.897  1.0813  0.6151 -0.9571
  701TMC3    C310416   3.959   3.447  14.967 -0.5658 -0.8750 -0.2518
  701TMC3    C410417   3.832   3.677  15.027 -0.8371 -0.0269  0.1379
  701TMC3    C510418   3.928   3.629  15.105 -0.2646 -0.0530  0.3916
  701TMC3    C610419   3.999   3.516  15.077  0.5820  0.5811 -0.4253
  701TMC3     C10420   3.644   3.633  14.883 -0.6444 -0.1564 -0.3690
  701TMC3     O10421   3.608   3.748  14.892  0.4984 -0.7089 -0.4832
  701TMC3     H10422   3.814   3.418  14.820 -1.7674  2.3389 -1.0930
  701TMC3    H110423   3.763   3.744  15.077 -0.9117  1.7347 -2.3721
  701TMC3    H210424   4.072   3.475  15.145  0.3589 -0.9017 -1.0988
  701TMC3    C710425   3.905   3.645  15.247 -0.1818  0.3478  0.5339
  701TMC3    C810426   4.013   3.315  14.941  0.3562  0.9216 -0.6497
  701TMC3    O110427   3.887   3.754  15.294  0.3379  0.1138 -0.5508
  701TMC3    O210428   4.124   3.297  14.989 -0.2606 -0.1829 -0.2672
  702MPD2     C10429   3.146   0.710  10.475 -0.3614  0.1160 -0.7333
  702MPD2    C110430   3.085   0.826  10.495 -0.2854 -0.4229 -0.0435
  702MPD2    C210431   3.132   0.940  10.437  0.4188 -0.9162 -0.0483
  702MPD2    C310432   3.247   0.946  10.366  0.6644 -0.1037  0.7059
  702MPD2    C410433   3.318   0.827  10.345  0.4491  0.1930  0.3505
  702MPD2    C510434   3.264   0.711  10.401 -0.1801 -0.6622  0.7138
  702MPD2     H10435   3.099   1.034  10.481 -1.6405 -1.3647 -0.6223
  702MPD2    H110436   3.414   0.829  10.295 -0.0256 -0.9795 -0.6118
  702MPD2    H210437   3.112   0.619  10.523  0.4220  1.2575  1.9447
  702MPD2    H310438   3.306   0.613  10.380  0.7541 -0.3024  0.8798
  702MPD2     N10439   3.298   1.075  10.324  0.3236  0.2388 -0.3461
  702MPD2    H510440   3.397   1.077  10.304  0.3219  1.3176 -0.2968
  702MPD2    N110441   2.988   0.849  10.597  0.1979 -0.2296  0.1192
  702MPD2    H710442   2.936   0.935  10.608  3.2812  1.7649 -0.7319
  703TMC3    C110443   3.293   1.316  10.318 -0.3957  0.0136  0.1810
  703TMC3    C210444   3.215   1.401  10.384 -0.6912  0.2749  0.1219
  703TMC3    C310445   3.273   1.489  10.477 -0.0097  0.7465 -0.9817
  703TMC3    C410446   3.425   1.312  10.338  0.2017  0.1587  0.4430
  703TMC3    C510447   3.483   1.409  10.416 -0.2376  0.0718 -1.5300
  703TMC3    C610448   3.412   1.491  10.491  0.4325  0.0686 -0.0731
  703TMC3     C10449   3.222   1.190  10.303 -0.1817 -0.2459  0.0778
  703TMC3     O10450   3.100   1.196  10.292  0.5948 -0.1679 -0.2469
  703TMC3     H10451   3.107   1.401  10.374 -0.9629  0.9288  3.0742
  703TMC3    H110452   3.491   1.261  10.269 -1.0431  0.4883 -0.9821
  703TMC3    H210453   3.455   1.554  10.568  0.6221 -0.3384  0.1538
  703TMC3    C710454   3.625   1.441  10.411  0.3086  0.3783 -0.8494
  703TMC3    C810455   3.205   1.507  10.606  0.1137  0.0517 -0.0326
  703TMC3    O110456   3.645   1.564  10.403  0.2370  0.1262 -0.3739
  703TMC3    O210457   3.269   1.585  10.681  0.3680  0.3050 -0.2975
  704TMC3    C110458   1.098   4.310  12.258 -0.5723 -0.3907  0.1019
  704TMC3    C210459   1.205   4.295  12.168 -0.3776 -0.2713 -0.1636
  704TMC3    C310460   1.323   4.257  12.227 -0.3870  0.3641 -0.0845
  704TMC3    C410461   1.114   4.302  12.394 -0.8098  0.2137 -0.2046
  704TMC3    C510462   1.238   4.286  12.452  0.4624 -0.2732  0.7872
  704TMC3    C610463   1.345   4.260  12.369  0.0895  0.5068  0.1141
  704TMC3     C10464   0.960   4.310  12.204  0.6440  0.1540  0.1572
  704TMC3     O10465   0.876   4.256  12.271 -0.1822  0.2905 -0.2019
  704TMC3     H10466   1.197   4.290  12.060  1.8370  1.6251 -0.4287
  704TMC3    H110467   1.023   4.309  12.453 -0.5821 -0.5803  0.2442
  704TMC3    H210468   1.428   4.205  12.412 -1.5369 -2.4623 -0.5979
  704TMC3    C710469   1.238   4.216  12.575 -0.8031 -0.2943  0.6638
  704TMC3    C810470   1.411   4.169  12.145  0.4728  0.3346  0.1384
  704TMC3    O110471   1.328   4.253  12.646 -0.0001 -0.3458  0.6906
  704TMC3    O210472   1.358   4.105  12.054 -0.1789 -0.2549 -0.0178
  705MPD2     C10473   0.726   1.876  16.405 -0.1674 -0.0530  0.6766
  705MPD2    C110474   0.685   1.990  16.337 -0.1702 -1.0697 -0.3215
  705MPD2    C210475   0.577   2.062  16.381  0.7727  0.1741 -0.2157
  705MPD2    C310476   0.506   2.007  16.487  1.2788 -0.6852 -0.1752
  705MPD2    C410477   0.544   1.897  16.550  0.9259  0.2404  0.2580
  705MPD2    C510478   0.649   1.827  16.506 -0.1468 -0.4808 -0.5271
  705MPD2     H10479   0.537   2.148  16.329  1.6010  1.7060  1.6745
  705MPD2    H110480   0.494   1.856  16.637  1.0064 -0.1422  0.1260
  705MPD2    H210481   0.818   1.825  16.377 -0.5458  1.8410 -3.8695
  705MPD2    H310482   0.690   1.750  16.571  0.0515  1.2438  1.3759
  705MPD2     N10483   0.392   2.075  16.541  0.4322 -0.0195 -0.6872
  705MPD2    H510484   0.336   2.013  16.599 -1.2601  2.7097  0.5754
  705MPD2    N110485   0.749   2.038  16.224  0.3883  0.1550 -0.4456
  705MPD2    H710486   0.707   2.121  16.183  0.4684 -0.6263 -2.1170
  706TMC3    C110487   0.868   2.047  15.809  0.0694 -0.3334 -0.1506
  706TMC3    C210488   0.924   2.174  15.810 -0.3819  0.0331  0.1164
  706TMC3    C310489   0.943   2.238  15.931  0.0425 -0.8418  0.8331
  706TMC3    C410490   0.843   1.987  15.925 -0.1083  0.2120  0.0164
  706TMC3    C510491   0.881   2.045  16.037  0.0740 -0.1296  0.1231
  706TMC3    C610492   0.921   2.173  16.047  0.2363  0.6726 -1.0731
  706TMC3     C10493   0.805   2.003  15.688 -0.5434 -0.1366 -0.4580
  706TMC3     O10494   0.715   1.917  15.701  0.5258  0.5892  0.6752
  706TMC3     H10495   0.933   2.234  15.721 -2.2931  2.3841  1.4847
  706TMC3    H110496   0.801   1.887  15.928 -0.7031  0.4680  0.3097
  706TMC3    H210497   0.954   2.209  16.144 -0.9553 -0.7411 -0.1530
  706TMC3    C710498   0.853   1.978  16.162 -0.2877 -0.3751 -0.6825
  706TMC3    C810499   0.930   2.382  15.930  0.3919  0.2609  0.2336
  706TMC3    O110500   0.897   1.863  16.170  0.5372  0.6204 -0.2510
  706TMC3    O210501   0.910   2.431  15.819 -0.7546  0.4026 -0.3316
  707TMC3    C110502   2.500   1.423   1.348 -0.9206 -0.3027  0.6671
  707TMC3    C210503   2.528   1.330   1.448 -0.3528  0.4290 -0.0271
  707TMC3    C310504   2.438   1.304   1.544 -0.5479  0.0608  0.5687
  707TMC3    C410505   2.377   1.485   1.343 -0.2554 -0.1865  0.1594
  707TMC3    C510506   2.287   1.445   1.437  0.3385  0.4255 -0.6621
  707TMC3    C610507   2.316   1.350   1.530  0.4689 -0.3727 -0.0398
  707TMC3     C10508   2.597   1.437   1.247 -0.4638  0.0107 -0.3734
  707TMC3     O10509   2.698   1.375   1.268  0.3895 -0.1435 -0.0266
  707TMC3     H10510   2.626   1.284   1.455 -0.0818  0.9562 -0.2978
  707TMC3    H110511   2.357   1.562   1.270  3.7528  0.5150 -0.2397
  707TMC3    H210512   2.244   1.330   1.609  1.2725  1.0364  1.0372
  707TMC3    C710513   2.169   1.518   1.453 -0.2881  0.3258  0.0125
  707TMC3    C810514   2.444   1.182   1.626 -0.3992 -0.2395 -0.6755
  707TMC3    O110515   2.123   1.517   1.563  0.2390 -0.2344 -0.1453
  707TMC3    O210516   2.353   1.153   1.704  0.3292  0.4675 -0.1656
  708MPD2     C10517   3.002   4.479  14.483 -0.2445  0.3588  0.1897
  708MPD2    C110518   3.084   4.546  14.397 -0.4859  0.3059  0.1066
  708MPD2    C210519   3.137   4.665  14.435 -0.0198 -0.4661  0.3441
  708MPD2    C310520   3.123   4.706  14.566  0.0723  0.0400  0.1881
  708MPD2    C410521   3.055   4.635  14.660 -0.9952 -0.4296 -0.0346
  708MPD2    C510522   2.984   4.526  14.614 -0.1382 -0.4779  0.1141
  708MPD2     H10523   3.193   4.735  14.373 -0.9988  0.6790  0.7500
  708MPD2    H110524   3.043   4.663  14.764  0.2966 -0.2768  0.0686
  708MPD2    H210525   2.945   4.395  14.443 -0.7617  0.1902  1.2741
  708MPD2    H310526   2.913   4.473  14.677  0.1128  0.1504  0.9372
  708MPD2     N10527   3.161   0.093  14.583  0.3604  0.1049 -0.4740
  708MPD2    H510528   3.186   0.150  14.502 -0.5378  1.7280  0.3802
  708MPD2    N110529   3.103   4.491  14.268  0.1523 -0.7426  0.2581
  708MPD2    H710530   3.052   4.407  14.243  0.7032 -1.1360  0.4367
  709TMC3    C110531   3.198   4.462  14.049  0.1243 -0.1708 -0.0010
  709TMC3    C210532   3.085   4.427  13.983 -0.0558 -0.2543 -0.2272
  709TMC3    C310533   3.082   4.460  13.853  1.1011  0.0054 -0.7913
  709TMC3    C410534   3.315   4.506  13.990 -0.3125 -0.0223  1.3425
  709TMC3    C510535   3.313   4.542  13.852 -0.0889 -0.7277 -0.2665
  709TMC3    C610536   3.195   4.514  13.786  0.1945 -0.3742 -0.2931
  709TMC3     C10537   3.186   4.549  14.170 -0.2048 -0.0182 -0.0118
  709TMC3     O10538   3.266   4.643  14.173 -0.5668  0.1195 -0.4734
  709TMC3     H10539   2.982   4.422  14.018 -0.2439 -2.0176 -1.0154
  709TMC3    H110540   3.409   4.508  14.044 -0.9556  1.5123  2.4191
  709TMC3    H210541   3.193   4.549  13.683 -0.1191  2.0126  0.5333
  709TMC3    C710542   3.365   4.677  13.823 -0.7754 -0.3205 -0.8094
  709TMC3    C810543   2.964   4.434  13.774 -0.1962  0.0346 -0.1853
  709TMC3    O110544   3.382   4.707  13.707 -0.0128  0.1741 -0.1106
  709TMC3    O210545   2.905   4.331  13.799 -0.1592  0.0110 -0.3270
  710TMC3    C110546   4.560   1.841   0.081  0.3543 -0.0481 -0.1413
  710TMC3    C210547   4.645   1.852  17.743 -0.0922  0.7037  0.1770
  710TMC3    C310548   4.741   1.762  17.741  0.3542 -0.2847 -0.4247
  710TMC3    C410549   4.573   1.739   0.178 -0.3832 -0.3590 -0.0237
  710TMC3    C510550   4.670   1.646   0.166 -0.0185 -0.2248  0.6231
  710TMC3    C610551   0.019   1.656   0.063 -0.6289 -0.4737  0.2984
  710TMC3     C10552   4.459   1.947   0.094  0.2726 -0.1836  0.1073
  710TMC3     O10553   4.436   2.011  17.762 -0.2103  0.3530  0.0217
  710TMC3     H10554   4.631   1.927  17.666 -0.8645  1.3354  0.9298
  710TMC3    H110555   4.491   1.726   0.248 -2.4622 -1.7061 -2.6691
  710TMC3    H210556   0.102   1.588   0.055  0.5654  1.3767 -3.1534
  710TMC3    C710557   4.665   1.530   0.261  0.2211 -0.1303  0.1371
  710TMC3    C810558   0.102   1.793  17.643  0.3065 -0.5049  0.0823
  710TMC3    O110559   4.606   1.541   0.366 -0.6733 -0.1722  0.6318
  710TMC3    O210560   0.169   1.701  17.604 -0.1288  0.3393 -0.4065
  711TMC3    C110561   4.420   3.243  14.942  0.7852 -0.5198  0.0290
  711TMC3    C210562   4.407   3.263  15.079 -0.4554 -0.0466 -1.0732
  711TMC3    C310563   4.509   3.317  15.146  0.2529  0.0833  0.5396
  711TMC3    C410564   4.520   3.295  14.874 -0.6259  0.5580 -0.1091
  711TMC3    C510565   4.623   3.350  14.946 -0.0484 -0.5461 -0.0719
  711TMC3    C610566   4.626   3.347  15.081  0.1997 -0.4445 -0.0126
  711TMC3     C10567   4.408   3.103  14.924  0.1275  0.6890  0.5710
  711TMC3     O10568   4.349   3.044  15.015 -0.4696  0.5826  0.2838
  711TMC3     H10569   4.316   3.231  15.128  0.3822  0.8321  1.0675
  711TMC3    H110570   4.526   3.287  14.766  0.3588 -0.9762  0.0631
  711TMC3    H210571   4.695   3.411  15.136  0.6484 -1.4190  0.5629
  711TMC3    C710572   4.741   3.310  14.885  0.4301  0.4935  0.3267
  711TMC3    C810573   4.518   3.260  15.280 -0.8502 -0.7249 -0.4045
  711TMC3    O110574   0.008   3.320  14.762  0.2267  0.0191  0.5920
  711TMC3    O210575   4.415   3.213  15.323  0.0651  0.0531 -0.4758
  712MPD2     C10576   0.498   3.890  13.602  0.4155  0.2910  0.0874
  712MPD2    C110577   0.451   3.936  13.478 -0.1041 -0.2287 -0.3814
  712MPD2    C210578   0.506   4.054  13.427  0.1729  0.2603 -0.4410
  712MPD2    C310579   0.617   4.116  13.484 -0.2377  0.6322  0.1449
  712MPD2    C410580   0.675   4.053  13.595  0.0885 -0.0679 -0.4263
  712MPD2    C510581   0.613   3.945  13.656 -0.4855 -0.1205  0.0512
  712MPD2     H10582   0.481   4.107  13.335 -0.4030  0.4532 -0.1727
  712MPD2    H110583   0.753   4.103  13.652 -2.0378  1.6126  1.0152
  712MPD2    H210584   0.455   3.806  13.655  0.5462  0.1146 -0.0842
  712MPD2    H310585   0.664   3.900  13.740 -0.9741 -1.3298 -0.3004
  712MPD2     N10586   0.674   4.238  13.455  0.7688  0.4546 -0.2108
  712MPD2    H510587   0.743   4.272  13.521  2.4996  2.0797 -2.8287
  712MPD2    N110588   0.335   3.881  13.412  0.3808  0.4861  0.3427
  712MPD2    H710589   0.310   3.933  13.329  1.1841  2.0373  1.0765
  713TMC3    C110590   0.689   4.460  13.385  0.8740 -0.3120 -0.0024
  713TMC3    C210591   0.820   4.456  13.421  0.2050  0.7163  0.1116
  713TMC3    C310592   0.863   4.567  13.482  0.3647 -0.7164  0.2254
  713TMC3    C410593   0.603   4.570  13.392 -0.4583 -0.1928 -0.3353
  713TMC3    C510594   0.654   4.673  13.462  0.7568 -0.3845 -0.2067
  713TMC3    C610595   0.778   4.672  13.510  0.2825  0.1669  0.9357
  713TMC3     C10596   0.630   4.330  13.362 -0.2979 -0.1598 -0.0723
  713TMC3     O10597   0.536   4.322  13.288 -0.6208 -0.1088 -0.3522
  713TMC3     H10598   0.885   4.377  13.385 -0.8911 -0.8858  1.6350
  713TMC3    H110599   0.500   4.574  13.361 -1.0451 -0.4215  1.5660
  713TMC3    H210600   0.809   0.016  13.566  0.9467 -1.1410  2.6092
  713TMC3    C710601   0.578   0.054  13.469  0.8018 -0.3266  1.3000
  713TMC3    C810602   0.999   4.590  13.504  0.2844  0.2081  0.3851
  713TMC3    O110603   0.623   0.130  13.558  0.1404 -0.3871 -0.1644
  713TMC3    O210604   1.032   4.698  13.557  0.6085 -0.7040  0.0828
  714MPD2     C10605   3.362   3.011   1.670  0.6982  0.2881 -0.4052
  714MPD2    C110606   3.349   2.964   1.541 -0.2349  0.1793  0.1486
  714MPD2    C210607   3.231   2.984   1.466  0.0388 -0.1587  0.9267
  714MPD2    C310608   3.120   3.047   1.528 -0.0262  0.1010  0.2998
  714MPD2    C410609   3.135   3.082   1.663 -0.0874  0.4879  0.3975
  714MPD2    C510610   3.250   3.061   1.734  0.2954  0.5464 -1.0163
  714MPD2     H10611   3.230   2.964   1.360 -0.5377 -2.1147  1.2895
  714MPD2    H110612   3.057   3.119   1.729 -1.1735  2.4482 -1.9800
  714MPD2    H210613   3.459   3.013   1.718  1.5130  0.1516 -2.0423
  714MPD2    H310614   3.253   3.086   1.840 -0.7446 -0.5752 -0.7187
  714MPD2     N10615   3.002   3.065   1.459  0.3220  0.5765 -0.5128
  714MPD2    H510616   3.006   3.050   1.359  0.0000 -1.8461 -0.1571
  714MPD2    N110617   3.470   2.901   1.484  0.0065 -0.0071  0.1614
  714MPD2    H710618   3.547   2.899   1.550  0.0888 -3.1324 -0.0453
  715TMC3    C110619   3.602   2.757   1.358  0.7314 -0.2525 -0.1666
  715TMC3    C210620   3.608   2.648   1.271  0.3258  0.1861  0.0138
  715TMC3    C310621   3.731   2.587   1.262 -0.1713  0.0476 -0.6386
  715TMC3    C410622   3.715   2.807   1.425  0.1000  0.1644 -0.0505
  715TMC3    C510623   3.829   2.729   1.419  0.3148  0.4898  0.0359
  715TMC3    C610624   3.838   2.619   1.343 -0.0952 -0.8175 -0.2195
  715TMC3     C10625   3.473   2.822   1.375  0.3379  0.8915 -0.7667
  715TMC3     O10626   3.382   2.779   1.302 -0.0158  0.0124 -0.2475
  715TMC3     H10627   3.518   2.611   1.225  1.0104 -2.1899  0.5706
  715TMC3    H110628   3.712   2.909   1.462  2.0495  0.2516 -0.1436
  715TMC3    H210629   3.921   2.550   1.350 -0.1811 -0.8841  0.1335
  715TMC3    C710630   3.947   2.760   1.504  0.7073 -0.0116 -0.0918
  715TMC3    C810631   3.720   2.460   1.191 -0.3446  0.1678 -0.3477
  715TMC3    O110632   4.061   2.727   1.479  0.0590 -0.9163  0.2459
  715TMC3    O210633   3.647   2.442   1.095  0.0304 -0.0304 -0.1802
  716MPD2     C10634   3.058   0.512  10.009  0.0879 -0.2548  0.8496
  716MPD2    C110635   2.950   0.451   9.949  1.0234  0.6121 -0.1743
  716MPD2    C210636   2.944   0.315   9.937 -0.4688  0.1020  0.3895
  716MPD2    C310637   3.054   0.237   9.977  0.3971  0.2077 -0.0235
  716MPD2    C410638   3.156   0.299  10.040 -0.1801  0.3495 -0.3026
  716MPD2    C510639   3.159   0.435  10.056 -0.7264 -0.0077 -0.0275
  716MPD2     H10640   2.860   0.264   9.892 -0.2085  0.1105 -0.1032
  716MPD2    H110641   3.247   0.245  10.065 -1.1329 -0.6601  0.9552
  716MPD2    H210642   3.064   0.620  10.013 -1.4783 -0.1173 -0.1413
  716MPD2    H310643   3.245   0.474  10.110 -2.4075 -0.4854  3.0478
  716MPD2     N10644   3.041   0.100   9.945 -0.4438  0.3918  0.2404
  716MPD2    H510645   2.950   0.070   9.912 -0.8350 -0.0864  1.7430
  716MPD2    N110646   2.834   0.529   9.915  0.1966  0.2100 -0.1559
  716MPD2    H710647   2.842   0.629   9.930  0.4645  0.1019  0.4501
  717TMC3    C110648   3.094   4.624   9.913  0.4834  0.4010  0.3164
  717TMC3    C210649   2.962   4.589   9.943 -0.1474 -0.4312  0.0826
  717TMC3    C310650   2.910   4.483   9.881  0.4306 -0.5492 -0.4613
  717TMC3    C410651   3.172   4.550   9.833  0.0650  0.2868  0.4930
  717TMC3    C510652   3.119   4.435   9.782 -0.2992 -0.4387  0.4217
  717TMC3    C610653   2.987   4.408   9.794  0.3403  0.5129 -0.3085
  717TMC3     C10654   3.146   0.009   9.955  0.7317  0.0246  0.1980
  717TMC3     O10655   3.262   0.022   9.990  0.1853  0.3392  0.0125
  717TMC3     H10656   2.900   4.650  10.008 -0.4688 -1.6604  0.9319
  717TMC3    H110657   3.274   4.577   9.810  0.8096 -0.9455  2.3672
  717TMC3    H210658   2.947   4.317   9.751 -0.5127  1.0761 -0.7058
  717TMC3    C710659   3.218   4.330   9.736 -0.3830  0.1577 -0.2314
  717TMC3    C810660   2.762   4.482   9.851  0.4842  0.7742  0.3368
  717TMC3    O110661   3.330   4.382   9.716 -0.0477  0.6959 -0.4402
  717TMC3    O210662   2.700   4.539   9.941 -0.1849 -0.0695  0.4511
  718MPD2     C10663   2.083   0.023  12.368 -0.5110  0.3121  0.1827
  718MPD2    C110664   2.075   4.627  12.369  0.1648  0.3910  0.0649
  718MPD2    C210665   1.975   4.568  12.447 -0.2711  0.4095  0.0433
  718MPD2    C310666   1.898   4.649  12.534 -0.3674  0.7434  0.2130
  718MPD2    C410667   1.912   0.039  12.535 -0.1411 -0.0054  0.5241
  718MPD2    C510668   2.007   0.095  12.449  1.2497 -0.2947 -0.3452
  718MPD2     H10669   1.965   4.460  12.450 -2.7123  0.5651 -2.1841
  718MPD2    H110670   1.856   0.104  12.601 -0.9592  1.0869 -1.2692
  718MPD2    H210671   2.152   0.080  12.308  0.7091 -0.6117  0.6976
  718MPD2    H310672   2.008   0.203  12.444  0.0444 -0.2742 -0.2100
  718MPD2     N10673   1.808   4.586  12.613 -0.3661 -0.5449  0.1248
  718MPD2    H510674   1.829   4.487  12.623  0.3028 -0.1298  3.0696
  718MPD2    N110675   2.188   4.557  12.318 -0.4858 -0.0028  0.0245
  718MPD2    H710676   2.268   4.619  12.309  0.0164 -0.5453  0.7265
  719TMC3    C110677   2.323   4.371  12.365  0.6795  0.0354  0.6323
  719TMC3    C210678   2.307   4.272  12.463  0.6483  0.1595  0.5252
  719TMC3    C310679   2.401   4.262  12.562  0.4979 -0.1768  0.3518
  719TMC3    C410680   2.422   4.465  12.385  0.7498 -0.1042 -0.0180
  719TMC3    C510681   2.514   4.452  12.481  0.0038 -0.2150  0.7474
  719TMC3    C610682   2.509   4.343  12.563  0.2015 -0.1175  0.6353
  719TMC3     C10683   2.197   4.420  12.319  0.0906  0.0788  0.0687
  719TMC3     O10684   2.102   4.338  12.320 -0.5323  0.0427  0.0545
  719TMC3     H10685   2.214   4.218  12.466  0.9470 -0.5289 -2.6840
  719TMC3    H110686   2.443   4.541  12.310 -0.0379 -1.8724 -2.0244
  719TMC3    H210687   2.589   4.339  12.637  1.6896  1.7762 -0.8561
  719TMC3    C710688   2.644   4.513  12.472 -0.1902 -0.7280  0.0945
  719TMC3    C810689   2.353   4.229  12.696  0.7020  0.5808  0.1606
  719TMC3    O110690   2.741   4.450  12.512 -0.4314 -0.0343 -0.0847
  719TMC3    O210691   2.403   4.278  12.797  0.0915  0.3862 -0.9384
  720MPD2     C10692   0.880   1.162  14.050 -0.5077  0.5093  0.4703
  720MPD2    C110693   0.990   1.180  13.972 -0.0917 -0.4860 -0.6241
  720MPD2    C210694   1.110   1.182  14.037  0.7410  1.1218  0.1607
  720MPD2    C310695   1.118   1.156  14.170  0.4599  0.1217 -0.3167
  720MPD2    C410696   1.010   1.106  14.234  0.4803 -0.0240 -0.7130
  720MPD2    C510697   0.885   1.111  14.173  0.5432 -0.5402 -0.1581
  720MPD2     H10698   1.204   1.208  13.990  0.6626  0.5040 -0.3466
  720MPD2    H110699   1.001   1.090  14.341  1.1473 -2.2781 -0.9965
  720MPD2    H210700   0.781   1.164  14.004 -0.4648  1.9462  0.4473
  720MPD2    H310701   0.799   1.092  14.237 -0.0500  0.2381 -0.7165
  720MPD2     N10702   1.244   1.181  14.232  0.8506 -0.4653  0.3887
  720MPD2    H510703   1.313   1.205  14.161  0.4739  0.2821  0.2700
  720MPD2    N110704   0.987   1.211  13.835  0.2136 -0.0038  0.9990
  720MPD2    H710705   1.074   1.212  13.783  0.0893  2.0536  0.8300
  721TMC3    C110706   1.423   1.201  14.393 -0.1103  0.0427  0.5576
  721TMC3    C210707   1.463   1.198  14.524  0.1182  0.3352 -0.6799
  721TMC3    C310708   1.596   1.191  14.555 -0.2122  0.1632 -0.7820
  721TMC3    C410709   1.519   1.204  14.293  0.0052 -0.4896 -0.2248
  721TMC3    C510710   1.647   1.194  14.328 -0.3342  0.0223  0.3478
  721TMC3    C610711   1.696   1.190  14.459  0.5608  0.7441 -0.4377
  721TMC3     C10712   1.280   1.160  14.365 -0.9849 -0.1791 -0.2566
  721TMC3     O10713   1.206   1.136  14.463  0.1610  0.2458 -0.1237
  721TMC3     H10714   1.388   1.188  14.601  0.7762 -1.1749 -0.2319
  721TMC3    H110715   1.493   1.205  14.188  0.4022 -1.5251 -0.3344
  721TMC3    H210716   1.801   1.180  14.486  0.5705  0.2151 -0.6685
  721TMC3    C710717   1.753   1.212  14.221  0.1021 -0.4843 -0.1301
  721TMC3    C810718   1.647   1.212  14.690 -0.3877 -0.1020  0.6135
  721TMC3    O110719   1.867   1.243  14.261 -0.2317 -0.5058 -0.0085
  721TMC3    O210720   1.757   1.164  14.715 -0.6520 -0.0665  0.1637
  722MPD2     C10721   4.221   4.515  13.160 -0.1720  0.3662 -0.4569
  722MPD2    C110722   4.182   4.643  13.127 -0.3139  0.0275  0.7336
  722MPD2    C210723   4.045   4.667  13.121  0.0469 -0.2954  0.2717
  722MPD2    C310724   3.952   4.570  13.139  0.0469 -0.3627  0.2016
  722MPD2    C410725   3.994   4.447  13.178  0.2994  0.1637 -0.0331
  722MPD2    C510726   4.129   4.422  13.186  0.2547 -0.8981 -0.2694
  722MPD2     H10727   4.011   0.021  13.085  2.7414  0.7283  0.4842
  722MPD2    H110728   3.925   4.369  13.205  2.2430 -1.5059  0.1107
  722MPD2    H210729   4.326   4.486  13.154 -0.7761 -1.9741  0.1357
  722MPD2    H310730   4.164   4.326  13.221 -0.1769 -1.0623 -0.2838
  722MPD2     N10731   3.818   4.601  13.104 -0.2805  0.5112 -0.9840
  722MPD2    H510732   3.809   4.700  13.082 -1.7257  0.5964  0.0027
  722MPD2    N110733   4.277   0.002  13.098  0.3424  0.0254  0.3977
  722MPD2    H710734   4.245   0.089  13.056 -0.4506 -1.2974 -1.7516
  723TMC3    C110735   3.624   4.576  13.001 -0.1319  0.0513 -0.1164
  723TMC3    C210736   3.583   4.497  12.898 -0.0381 -0.4991  0.1805
  723TMC3    C310737   3.477   4.542  12.827  0.1237  0.4780  0.6187
  723TMC3    C410738   3.578   4.698  13.037  0.7497 -0.6472  0.5266
  723TMC3    C510739   3.475   0.000  12.965  0.1252  0.5896  0.1255
  723TMC3    C610740   3.419   4.667  12.864 -0.0663 -0.1773  0.1218
  723TMC3     C10741   3.727   4.511  13.076 -0.7201  0.5172 -0.0163
  723TMC3     O10742   3.730   4.389  13.079  0.2421 -0.3445  0.5593
  723TMC3     H10743   3.641   4.408  12.878  0.4130 -0.0030 -0.6783
  723TMC3    H110744   3.620   0.007  13.123 -0.6694  2.1375 -0.4855
  723TMC3    H210745   3.330   4.708  12.817  0.1530 -2.3797 -2.2040
  723TMC3    C710746   3.378   0.081  13.040  0.5280  0.3540  0.3068
  723TMC3    C810747   3.422   4.473  12.712 -0.4649 -0.2390  0.1915
  723TMC3    O110748   3.263   0.043  13.030  0.7066 -0.2742  0.3497
  723TMC3    O210749   3.345   4.531  12.634 -1.3566 -0.4508  0.2804
  724TMC3    C110750   0.467   3.160  11.262  0.0809 -0.6426  0.4121
  724TMC3    C210751   0.405   3.042  11.223 -0.1173 -0.4192 -0.5626
  724TMC3    C310752   0.466   2.956  11.130 -0.3894 -1.1106 -0.2147
  724TMC3    C410753   0.578   3.208  11.195  0.7326 -0.3387 -0.1503
  724TMC3    C510754   0.625   3.135  11.093 -0.4589 -0.2276 -0.0627
  724TMC3    C610755   0.585   3.005  11.066  0.8619 -0.3280 -0.0244
  724TMC3     C10756   0.395   3.249  11.353  0.4748  0.2333 -0.4019
  724TMC3     O10757   0.338   3.197  11.448 -0.3298  0.1545  0.0399
  724TMC3     H10758   0.320   3.008  11.280 -1.0897 -0.5916 -2.1293
  724TMC3    H110759   0.628   3.299  11.226 -0.6219  0.6051 -0.7218
  724TMC3    H210760   0.637   2.952  10.987  1.4359  2.0695 -1.2496
  724TMC3    C710761   0.697   3.196  10.982 -0.9627  0.1110  0.4357
  724TMC3    C810762   0.382   2.878  11.047  0.4643  0.0828  0.0832
  724TMC3    O110763   0.694   3.133  10.879  0.1368 -0.1755 -0.2719
  724TMC3    O210764   0.274   2.840  11.096 -0.3654  0.3592 -0.0279
  725TMC3    C110765   1.901   1.386  13.197  0.7978  0.3872  0.2363
  725TMC3    C210766   1.789   1.464  13.171  0.7699 -0.2108 -0.1373
  725TMC3    C310767   1.715   1.425  13.058  0.2073  0.1596  0.0718
  725TMC3    C410768   1.932   1.275  13.124  0.2241  0.7752  0.2105
  725TMC3    C510769   1.840   1.235  13.031 -0.0527  0.3272 -0.5331
  725TMC3    C610770   1.740   1.315  12.989  0.5837 -0.1174 -0.0597
  725TMC3     C10771   1.983   1.423  13.308  0.3316 -0.2003  0.2629
  725TMC3     O10772   2.036   1.329  13.368  0.0106 -0.6883  0.9661
  725TMC3     H10773   1.773   1.564  13.210  0.4918 -0.2219 -0.2218
  725TMC3    H110774   2.012   1.211  13.161 -2.3656 -2.3450  0.4393
  725TMC3    H210775   1.675   1.294  12.904 -0.4919  1.3062  0.4120
  725TMC3    C710776   1.905   1.155  12.932  0.7945 -0.5042  0.0385
  725TMC3    C810777   1.616   1.521  13.015  0.1135  0.0949 -0.5469
  725TMC3    O110778   2.025   1.159  12.932 -0.4788  0.2271 -0.3187
  725TMC3    O210779   1.521   1.549  13.085  0.0141  0.0422  0.4024
  726MPD2     C10780   4.429   3.106  10.606 -0.0017  0.2764 -0.2621
  726MPD2    C110781   4.324   3.139  10.521  0.2837 -0.0944  0.1530
  726MPD2    C210782   4.219   3.051  10.517  0.2741  0.7735  0.2621
  726MPD2    C310783   4.210   2.943  10.603  0.6375  0.0392 -0.1115
  726MPD2    C410784   4.312   2.912  10.689 -0.3090  0.2126 -0.5955
  726MPD2    C510785   4.427   2.994  10.686 -0.3533  0.2338  0.2169
  726MPD2     H10786   4.141   3.080  10.447 -1.3469  2.3886  2.7364
  726MPD2    H110787   4.306   2.816  10.739  0.4113 -0.6653 -2.1835
  726MPD2    H210788   4.522   3.162  10.610 -0.1898  0.4680  1.6380
  726MPD2    H310789   4.516   2.979  10.747 -0.6004  0.1099  0.5482
  726MPD2     N10790   4.103   2.860  10.595  0.0810 -0.4324  0.1297
  726MPD2    H510791   4.097   2.800  10.677  0.3782 -1.7776 -0.8334
  726MPD2    N110792   4.314   3.251  10.439 -0.7145 -0.5540 -0.6428
  726MPD2    H710793   4.225   3.259  10.390 -1.4002 -1.3224  0.4869
  727TMC3    C110794   4.319   3.474  10.371 -0.3744 -0.5976 -0.1694
  727TMC3    C210795   4.344   3.601  10.412 -0.3275 -0.5689 -0.3266
  727TMC3    C310796   4.317   3.709  10.330  0.1831  0.1838 -0.1153
  727TMC3    C410797   4.259   3.444  10.250  0.2348 -0.1545 -0.1280
  727TMC3    C510798   4.223   3.556  10.177  0.0493 -0.3880 -0.1317
  727TMC3    C610799   4.244   3.687  10.219  0.3203 -1.4535 -0.2829
  727TMC3     C10800   4.387   3.369  10.445 -0.1570  0.1128 -0.1156
  727TMC3     O10801   4.487   3.395  10.512 -0.5055  0.3667 -0.3554
  727TMC3     H10802   4.404   3.613  10.501  2.0706  0.1855 -2.0532
  727TMC3    H110803   4.262   3.352  10.193 -1.1212  0.8990 -1.9210
  727TMC3    H210804   4.205   3.772  10.164 -2.7686 -3.0521 -0.5882
  727TMC3    C710805   4.131   3.539  10.066 -0.6041 -0.6832  0.6620
  727TMC3    C810806   4.423   3.806  10.335  0.4812  0.1900  0.3003
  727TMC3    O110807   4.129   3.630   9.981 -0.0566  0.1248  0.0387
  727TMC3    O210808   4.531   3.775  10.382  0.2754 -0.1498 -0.2826
  728TMC3    C110809   3.697   1.473  15.573  0.1212  0.1193 -0.0372
  728TMC3    C210810   3.829   1.451  15.603  0.4298 -0.5794 -0.6148
  728TMC3    C310811   3.923   1.465  15.505  0.1039  0.5311 -0.1331
  728TMC3    C410812   3.655   1.516  15.453  0.0615  0.4203 -0.6513
  728TMC3    C510813   3.755   1.544  15.357  0.2082  0.1980  0.3712
  728TMC3    C610814   3.887   1.514  15.376 -0.6043  0.1245 -0.2062
  728TMC3     C10815   3.600   1.469  15.687  0.4325 -0.5519  0.0934
  728TMC3     O10816   3.643   1.470  15.804  0.0250  0.3236 -0.0971
  728TMC3     H10817   3.859   1.399  15.693  1.3157  2.5236  0.9057
  728TMC3    H110818   3.550   1.516  15.426 -0.1445  2.3846  0.1098
  728TMC3    H210819   3.960   1.545  15.301 -0.7474  1.3624  0.1696
  728TMC3    C710820   3.723   1.588  15.227 -0.4177 -0.3855  0.0599
  728TMC3    C810821   4.063   1.454  15.539 -0.2974  0.2021 -0.0119
  728TMC3    O110822   3.623   1.544  15.174 -0.3055  0.0305  0.2949
  728TMC3    O210823   4.101   1.455  15.654 -0.1151  0.2446  0.2919
  729MPD2     C10824   1.024   2.986  16.648  0.0816 -0.7202  0.5486
  729MPD2    C110825   1.160   2.984  16.632 -0.2522  0.5085 -0.5187
  729MPD2    C210826   1.243   2.999  16.739 -0.6060 -0.2307  0.0218
  729MPD2    C310827   1.194   3.011  16.861 -0.0520  0.0259 -0.2992
  729MPD2    C410828   1.061   3.014  16.880  0.5012  0.1472 -0.2967
  729MPD2    C510829   0.974   3.000  16.779 -0.2917 -0.4758  0.1879
  729MPD2     H10830   1.350   3.001  16.718 -0.6881  2.1293 -0.1657
  729MPD2    H110831   1.021   3.017  16.981 -1.2413  1.4065 -1.0182
  729MPD2    H210832   0.954   2.984  16.565 -0.0008 -2.2215  0.6626
  729MPD2    H310833   0.868   2.990  16.799  0.0531 -3.9248  0.2172
  729MPD2     N10834   1.278   3.024  16.980 -0.6847  0.7159 -0.3986
  729MPD2    H510835   1.229   3.053  17.063  1.0793 -2.6307  1.8069
  729MPD2    N110836   1.206   2.982  16.492 -0.1547  0.5930 -0.1047
  729MPD2    H710837   1.135   3.009  16.425 -1.6268 -2.3054  0.3253
  730TMC3    C110838   1.466   3.014  17.130 -0.0584 -0.0327 -0.1485
  730TMC3    C210839   1.587   3.073  17.141 -0.6082 -0.0964 -0.9166
  730TMC3    C310840   1.610   3.150  17.252  0.1725  0.9015 -0.2281
  730TMC3    C410841   1.378   3.024  17.235  0.3596 -0.0929  0.4254
  730TMC3    C510842   1.400   3.095  17.344  0.1468 -0.7352 -0.8314
  730TMC3    C610843   1.519   3.163  17.358 -0.0790 -0.1223  0.1343
  730TMC3     C10844   1.415   2.999  16.991  0.0189  0.4204  0.3765
  730TMC3     O10845   1.493   2.960  16.906  0.5474 -0.1831 -0.4577
  730TMC3     H10846   1.650   3.081  17.053 -0.2321  0.8923 -0.5552
  730TMC3    H110847   1.292   2.960  17.225 -1.2297  1.6396  3.2191
  730TMC3    H210848   1.547   3.199  17.457 -0.3322 -0.0125  0.1665
  730TMC3    C710849   1.307   3.202  17.318 -0.0740  0.2346  0.7260
  730TMC3    C810850   1.683   3.279  17.225 -0.7862 -0.0022 -0.2557
  730TMC3    O110851   1.257   3.215  17.206 -0.3316 -0.2853 -0.0159
  730TMC3    O210852   1.767   3.266  17.140 -0.1780 -0.1221  1.3619
  731MPD2     C10853   1.711   1.189  12.514 -0.0180 -0.6165  0.3095
  731MPD2    C110854   1.644   1.131  12.407  0.0875  0.6088 -0.7084
  731MPD2    C210855   1.503   1.128  12.408  0.4015 -0.0791 -0.1674
  731MPD2    C310856   1.438   1.183  12.516 -0.3847 -0.6928 -0.7801
  731MPD2    C410857   1.506   1.245  12.620 -0.2725 -0.4830  0.4601
  731MPD2    C510858   1.643   1.259  12.615  0.2189  0.9374  0.3613
  731MPD2     H10859   1.447   1.090  12.324  0.1349  1.7412 -0.8093
  731MPD2    H110860   1.462   1.281  12.713  0.6926 -1.0028  1.1167
  731MPD2    H210861   1.819   1.196  12.515 -0.0137 -0.6530  0.1535
  731MPD2    H310862   1.700   1.302  12.696  1.3851 -1.9896  1.1089
  731MPD2     N10863   1.300   1.170  12.516  0.4151 -0.3258 -0.3123
  731MPD2    H510864   1.258   1.116  12.442 -0.2893  1.6055 -1.3355
  731MPD2    N110865   1.718   1.079  12.294  0.4534  0.1615 -0.4065
  731MPD2    H710866   1.818   1.095  12.302  0.4444  0.3107 -0.5955
  732TMC3    C110867   1.744   1.014  12.070  0.3843 -0.4233  0.3390
  732TMC3    C210868   1.697   0.931  11.972 -0.2030  0.0945 -0.8544
  732TMC3    C310869   1.782   0.906  11.867  0.6480 -0.1231  0.5817
  732TMC3    C410870   1.865   1.078  12.069  0.0222  0.7015 -0.2857
  732TMC3    C510871   1.938   1.064  11.952  0.3509 -0.3629  0.0610
  732TMC3    C610872   1.901   0.975  11.855  0.5959 -0.3977  0.1868
  732TMC3     C10873   1.663   1.017  12.189 -0.2603 -0.3519  0.2460
  732TMC3     O10874   1.563   0.949  12.188 -0.3155 -0.0155 -0.1280
  732TMC3     H10875   1.611   0.866  11.986  1.1690 -1.9422 -1.7538
  732TMC3    H110876   1.890   1.150  12.147 -1.3385  3.8880 -2.7609
  732TMC3    H210877   1.970   0.952  11.774 -0.5416  0.9602 -1.1726
  732TMC3    C710878   2.072   1.113  11.930  0.4157  0.4544  0.0132
  732TMC3    C810879   1.728   0.854  11.741 -0.9572  0.5115  0.2248
  732TMC3    O110880   2.118   1.111  11.817 -0.2603 -0.2223 -0.0854
  732TMC3    O210881   1.805   0.828  11.651  0.2913 -0.4949 -0.4059
  733TMC3    C110882   1.514   4.506  12.977 -0.0807 -0.1986  0.1054
  733TMC3    C210883   1.542   4.563  12.854 -0.6012 -0.1110 -0.3438
  733TMC3    C310884   1.667   4.550  12.803  1.1562 -0.5655 -0.5581
  733TMC3    C410885   1.609   4.435  13.050 -0.5774 -0.3609 -0.2895
  733TMC3    C510886   1.733   4.430  12.998  0.9588 -0.1562 -0.4232
  733TMC3    C610887   1.758   4.482  12.873 -0.2852 -0.3201  0.0425
  733TMC3     C10888   1.374   4.478  13.009  0.9515  0.0035 -0.0731
  733TMC3     O10889   1.291   4.552  12.961  0.3688  0.3989  0.0073
  733TMC3     H10890   1.465   4.615  12.798  0.2263  0.4645 -0.9621
  733TMC3    H110891   1.588   4.393  13.148 -1.5097  1.1020  0.1460
  733TMC3    H210892   1.861   4.488  12.839 -0.0962  0.6796  0.7761
  733TMC3    C710893   1.824   4.327  13.054 -0.1652 -0.2082 -0.2758
  733TMC3    C810894   1.709   4.639  12.695  0.6336 -0.2855  0.1480
  733TMC3    O110895   1.777   4.239  13.124 -0.1767 -0.1184 -0.5689
  733TMC3    O210896   1.651   0.004  12.681 -0.4207 -0.6408 -0.4404
  734MPD2     C10897   4.017   1.030  12.411  0.2203  0.7572 -0.0135
  734MPD2    C110898   3.901   1.042  12.343 -1.1704  0.4804 -0.2247
  734MPD2    C210899   3.893   1.156  12.270  0.4394  0.1857 -0.0707
  734MPD2    C310900   3.975   1.265  12.288  0.1842  0.5222 -0.0001
  734MPD2    C410901   4.083   1.258  12.366 -0.5446  0.6384 -0.1317
  734MPD2    C510902   4.105   1.140  12.431  0.1071  0.0309  0.6423
  734MPD2     H10903   3.810   1.167  12.201  1.8563  1.5227 -1.5279
  734MPD2    H110904   4.152   1.342  12.372 -1.3342  1.2574  0.3037
  734MPD2    H210905   4.044   0.939  12.464  1.9545  2.0619  1.3722
  734MPD2    H310906   4.189   1.120  12.496  0.5023 -0.6598 -0.0922
  734MPD2     N10907   3.950   1.377  12.212  0.3570 -0.3504 -0.0187
  734MPD2    H510908   3.871   1.373  12.148  0.4841  1.1607 -0.2652
  734MPD2    N110909   3.818   0.933  12.339 -0.2234  0.1372  0.5102
  734MPD2    H710910   3.847   0.853  12.394 -1.3287  1.0115  2.3839
  735TMC3    C110911   3.676   0.792  12.224  0.0867  0.2225  0.0075
  735TMC3    C210912   3.583   0.792  12.128 -0.8255 -0.0461  0.1751
  735TMC3    C310913   3.598   0.717  12.016 -0.5547 -0.2411  0.0489
  735TMC3    C410914   3.785   0.705  12.210  0.0898  0.5552  0.5341
  735TMC3    C510915   3.792   0.613  12.107 -0.0630 -0.5752  0.5098
  735TMC3    C610916   3.699   0.619  12.010  0.0117  0.2632 -0.6364
  735TMC3     C10917   3.703   0.928  12.262 -0.0091  0.2746  0.3820
  735TMC3     O10918   3.654   1.011  12.183  0.0144  0.4373  0.0418
  735TMC3     H10919   3.494   0.854  12.137 -0.9511 -0.1702 -0.2219
  735TMC3    H110920   3.852   0.694  12.294 -3.1217 -0.8270  2.9294
  735TMC3    H210921   3.702   0.556  11.922 -1.1772 -0.6329 -0.0413
  735TMC3    C710922   3.919   0.553  12.078  0.1700  0.4859  0.2127
  735TMC3    C810923   3.602   0.794  11.892 -0.1829  0.3611  0.0599
  735TMC3    O110924   4.014   0.626  12.109 -0.2334 -0.3472 -0.0225
  735TMC3    O210925   3.631   0.725  11.796  0.1606  0.1169  0.0630
  736MPD2     C10926   3.953   0.269  11.847  0.2031  0.1388  0.8717
  736MPD2    C110927   4.005   0.372  11.928 -0.0470 -1.0368 -0.5739
  736MPD2    C210928   4.139   0.415  11.918  0.0586 -0.1410  0.4080
  736MPD2    C310929   4.225   0.353  11.828 -0.2959  0.0797  0.5663
  736MPD2    C410930   4.172   0.251  11.751  0.5368  0.1876  0.1876
  736MPD2    C510931   4.043   0.208  11.763 -0.4051 -0.4838 -0.0332
  736MPD2     H10932   4.171   0.479  11.999 -2.1052 -0.8627  1.8318
  736MPD2    H110933   4.236   0.198  11.681 -1.5239 -0.4454 -1.1888
  736MPD2    H210934   3.851   0.234  11.847  0.9453 -1.9848 -0.2669
  736MPD2    H310935   4.009   0.133  11.692 -0.1474  0.3282 -1.0274
  736MPD2     N10936   4.363   0.376  11.817 -0.0903  0.0110 -0.1205
  736MPD2    H510937   4.425   0.320  11.760 -0.0596 -0.3053  0.2230
  736MPD2    N110938   3.901   0.439  12.005  0.4306 -0.6743  0.4200
  736MPD2    H710939   3.807   0.402  11.993  0.0973  0.4191 -0.3991
  737TMC3    C110940   4.570   0.491  11.861  0.9056  0.0526  0.8611
  737TMC3    C210941   4.621   0.614  11.893  1.0708 -0.1800  0.0210
  737TMC3    C310942   4.742   0.639  11.848 -0.0761 -0.0582  1.1054
  737TMC3    C410943   4.628   0.409  11.770  0.0023  0.5250 -0.0110
  737TMC3    C510944   0.017   0.440  11.735 -0.2133  0.2928  0.0276
  737TMC3    C610945   0.074   0.565  11.758  0.0482  0.3113  0.0781
  737TMC3     C10946   4.428   0.480  11.878 -0.4657 -0.6497 -0.2615
  737TMC3     O10947   4.375   0.581  11.929  0.2037  0.1110 -0.2212
  737TMC3     H10948   4.578   0.677  11.971  1.5414 -0.7248  0.7167
  737TMC3    H110949   4.584   0.312  11.751  1.8753 -0.1101 -1.1069
  737TMC3    H210950   0.180   0.588  11.749  0.0498  0.4234  0.3763
  737TMC3    C710951   0.086   0.338  11.665 -0.4035 -0.3463 -0.3759
  737TMC3    C810952   0.031   0.781  11.862  0.3358 -0.4224  0.5462
  737TMC3    O110953   0.031   0.229  11.648 -0.5475 -0.5100  0.3910
  737TMC3    O210954   0.010   0.834  11.970 -0.3636  0.0918 -0.0226
  738MPD2     C10955   0.010   0.097  15.098  0.1562 -0.3243 -0.3530
  738MPD2    C110956   4.687   0.120  14.979  0.1851  0.1693 -0.6232
  738MPD2    C210957   0.010   0.183  14.878 -0.1468  0.3852  0.4030
  738MPD2    C310958   0.144   0.219  14.895 -0.0523  0.1883  0.4232
  738MPD2    C410959   0.214   0.190  15.008 -0.3990  0.5529  1.2205
  738MPD2    C510960   0.144   0.128  15.106  0.4888 -0.3639 -0.0903
  738MPD2     H10961   4.699   0.196  14.785  0.1370  1.5972  0.4043
  738MPD2    H110962   0.316   0.223  15.023  0.4698 -2.4023  1.8311
  738MPD2    H210963   4.706   0.051  15.185  2.7217 -1.8771  0.2090
  738MPD2    H310964   0.195   0.122  15.201  2.0919 -2.2348 -1.0581
  738MPD2     N10965   0.223   0.278  14.792  0.0631 -0.3792  0.0893
  738MPD2    H510966   0.318   0.302  14.821 -0.3998 -0.2258  1.4918
  738MPD2    N110967   4.549   0.099  14.974 -0.2690 -1.0840 -0.1384
  738MPD2    H710968   4.492   0.125  14.894 -1.8824  2.0141  2.0210
  739TMC3    C110969   0.274   0.376  14.584  0.0024  0.2225  0.0149
  739TMC3    C210970   0.251   0.383  14.449 -0.1763  0.2163 -0.1457
  739TMC3    C310971   0.343   0.440  14.365 -0.0565  0.0731 -0.5587
  739TMC3    C410972   0.386   0.428  14.633 -0.2645  0.1313 -0.3739
  739TMC3    C510973   0.478   0.479  14.549 -0.0227 -0.1416  0.1187
  739TMC3    C610974   0.458   0.496  14.415  0.1046  0.4901  0.4063
  739TMC3     C10975   0.176   0.324  14.673 -0.0345  0.0649  0.3009
  739TMC3     O10976   0.061   0.330  14.636  0.2473 -0.7573  1.3539
  739TMC3     H10977   0.151   0.359  14.412 -0.2697  0.5802 -0.1305
  739TMC3    H110978   0.391   0.446  14.740 -0.6563 -2.0686  0.0252
  739TMC3    H210979   0.529   0.539  14.346  0.0729 -2.4047 -1.4355
  739TMC3    C710980   0.597   0.540  14.604  0.1276  0.0373  0.1507
  739TMC3    C810981   0.305   0.476  14.229 -0.1015 -0.5839 -0.3955
  739TMC3    O110982   0.645   0.495  14.707 -0.4552 -0.2262  0.1616
  739TMC3    O210983   0.186   0.507  14.222 -0.2367 -0.5392 -0.0252
  740TMC3    C110984   0.737   1.459  14.429 -0.5080  0.1777  0.0361
  740TMC3    C210985   0.765   1.380  14.536 -0.5254  1.4947 -0.8003
  740TMC3    C310986   0.889   1.338  14.557  0.3254 -0.2109 -0.2753
  740TMC3    C410987   0.837   1.483  14.334  0.0941  0.3971  0.1097
  740TMC3    C510988   0.964   1.458  14.368  0.3577  0.5065  0.1978
  740TMC3    C610989   0.990   1.392  14.481 -0.7108 -0.0176 -0.1377
  740TMC3     C10990   0.599   1.496  14.399  0.3883  0.1897 -0.4835
  740TMC3     O10991   0.579   1.540  14.289 -0.4601  0.1665 -0.9616
  740TMC3     H10992   0.689   1.328  14.593 -0.8097  3.1238  0.3160
  740TMC3    H110993   0.820   1.536  14.241  2.7137  1.2354  0.1054
  740TMC3    H210994   1.090   1.374  14.517  0.0096  0.7751 -1.7438
  740TMC3    C710995   1.068   1.474  14.270  0.3151  0.6180 -0.2571
  740TMC3    C810996   0.924   1.287  14.690  0.3123 -0.5045  0.3486
  740TMC3    O110997   1.180   1.482  14.318 -0.4899 -0.6072 -0.4799
  740TMC3    O210998   0.850   1.316  14.778 -0.1235  0.6237 -0.1552
  741TMC3    C110999   0.221   0.790  14.431  0.3567  0.4503  0.4668
  741TMC3    C211000   0.113   0.733  14.375 -0.3753  0.2292 -0.3758
  741TMC3    C311001   0.020   0.689  14.462 -0.0361 -0.2030 -0.4939
  741TMC3    C411002   0.254   0.789  14.561  0.0650 -0.7151 -0.1317
  741TMC3    C511003   0.162   0.732  14.644 -0.4074  0.2173  0.4290
  741TMC3    C611004   0.039   0.689  14.599 -0.1555  0.7564 -0.0938
  741TMC3     C11005   0.329   0.822  14.338  1.1312 -0.0747 -0.2250
  741TMC3     O11006   0.447   0.813  14.371 -0.3147  0.1609  0.0952
  741TMC3     H11007   0.100   0.721  14.268 -2.9803 -1.8420  0.1731
  741TMC3    H111008   0.349   0.827  14.597 -0.4328  1.2223 -0.8543
  741TMC3    H211009   4.709   0.645  14.665  0.3381 -1.1563 -0.8057
  741TMC3    C711010   0.173   0.744  14.787 -0.3126 -1.1530 -0.1102
  741TMC3    C811011   4.642   0.613  14.422 -0.0235 -0.4893 -0.0239
  741TMC3    O111012   0.152   0.641  14.848 -0.4233  0.5138 -0.2591
  741TMC3    O211013   4.547   0.605  14.498  0.0241  0.1975  0.3634
  742TMC3    C111014   0.292   4.461  15.146  0.6563 -0.2268 -0.0834
  742TMC3    C211015   0.212   4.423  15.040  0.9037  0.1385 -0.7828
  742TMC3    C311016   0.282   4.374  14.930  0.0749 -0.6499 -0.5946
  742TMC3    C411017   0.425   4.446  15.146  0.6080  0.0083 -0.4625
  742TMC3    C511018   0.488   4.398  15.037 -1.0276  0.0818  0.0675
  742TMC3    C611019   0.420   4.353  14.929  0.5114  0.0601 -0.4330
  742TMC3     C11020   0.219   4.523  15.252  0.2613 -0.2970  0.2401
  742TMC3     O11021   0.097   4.497  15.249  0.4031 -0.2263 -0.1791
  742TMC3     H11022   0.117   4.473  15.025 -0.3377 -2.2433 -0.7292
  742TMC3    H111023   0.475   4.458  15.242 -0.1938  1.0594 -0.1752
  742TMC3    H211024   0.464   4.317  14.838  0.0323 -1.2918 -0.1319
  742TMC3    C711025   0.629   4.350  15.047  0.2972 -0.6188  1.4849
  742TMC3    C811026   0.202   4.315  14.821  0.3975  0.4778 -0.5234
  742TMC3    O111027   0.662   4.270  14.958 -0.5723  0.1479  0.2631
  742TMC3    O211028   0.236   4.313  14.701  0.3250 -0.2555  0.0034
  743MPD2     C11029   3.508   0.688   1.888 -0.1551 -0.0505  0.2187
  743MPD2    C111030   3.510   0.634   1.760 -0.7758  0.0266  0.0080
  743MPD2    C211031   3.632   0.610   1.703 -0.0003 -0.3160  0.2505
  743MPD2    C311032   3.753   0.636   1.769  0.1509  0.4393 -0.5420
  743MPD2    C411033   3.747   0.674   1.902 -0.4744  0.2841 -0.1176
  743MPD2    C511034   3.625   0.698   1.956 -0.3091 -0.0757 -0.1655
  743MPD2     H11035   3.630   0.571   1.602 -2.1494  0.6216 -0.0550
  743MPD2    H111036   3.839   0.691   1.957 -0.0656  0.4761 -0.8760
  743MPD2    H211037   3.414   0.705   1.940  1.6503  1.4197  2.9732
  743MPD2    H311038   3.635   0.730   2.059 -0.5396  0.3574 -0.2781
  743MPD2     N11039   3.874   0.626   1.688 -0.5039  0.1681 -0.6727
  743MPD2    H511040   3.865   0.581   1.597 -0.6053  0.5399 -0.8443
  743MPD2    N111041   3.387   0.611   1.694 -0.5473 -0.3840  0.8537
  743MPD2    H711042   3.300   0.645   1.735 -0.2139 -0.9131  1.9773
  744TMC3    C111043   3.250   0.583   1.510 -0.8163 -0.0233  0.0767
  744TMC3    C211044   3.151   0.668   1.558 -0.0814 -0.6458  0.5258
  744TMC3    C311045   3.050   0.699   1.468 -0.1924 -0.5851 -0.3089
  744TMC3    C411046   3.244   0.528   1.387  0.3362 -0.8198 -0.0614
  744TMC3    C511047   3.130   0.537   1.319 -0.3391 -0.1280 -0.0030
  744TMC3    C611048   3.029   0.629   1.357  0.7474  0.2149 -0.2903
  744TMC3     C11049   3.378   0.554   1.573  0.4693  0.5727 -0.0391
  744TMC3     O11050   3.444   0.458   1.536  0.0238  0.4776  0.3574
  744TMC3     H11051   3.163   0.727   1.648  2.8023  2.0951 -1.6987
  744TMC3    H111052   3.321   0.467   1.341  0.8025 -0.4705  0.2523
  744TMC3    H211053   2.948   0.643   1.286 -0.6027  0.2558  1.2770
  744TMC3    C711054   3.104   0.446   1.209 -0.0296  0.1325 -0.1685
  744TMC3    C811055   2.948   0.791   1.500 -0.0814  0.0510 -0.4354
  744TMC3    O111056   3.015   0.473   1.134  0.8755  0.3073 -0.4919
  744TMC3    O211057   2.915   0.855   1.398 -0.2657  0.3760  0.0469
  745TMC3    C111058   0.136   3.741  13.381  0.4414  0.8087  0.0039
  745TMC3    C211059   0.042   3.675  13.461  0.4710 -0.2999 -0.1668
  745TMC3    C311060   4.656   3.732  13.455  0.1479  0.2984  0.2930
  745TMC3    C411061   0.103   3.809  13.265 -0.4147  0.0055 -0.5334
  745TMC3    C511062   4.712   3.838  13.242 -0.1530  0.5755 -0.2329
  745TMC3    C611063   4.616   3.799  13.337 -0.1325 -0.8310 -0.3394
  745TMC3     C11064   0.255   3.778  13.458 -0.7214  0.1699  0.5544
  745TMC3     O11065   0.256   3.729  13.569 -0.4056 -0.3728  0.5115
  745TMC3     H11066   0.061   3.606  13.543  0.5843 -0.5297 -0.3863
  745TMC3    H111067   0.190   3.851  13.215 -1.4060 -1.0723 -3.1605
  745TMC3    H211068   4.514   3.833  13.323 -0.4119 -1.9233 -0.9514
  745TMC3    C711069   4.680   3.935  13.136  0.3568 -0.1863 -1.2808
  745TMC3    C811070   4.623   3.819  13.565 -0.1794  0.2194  0.3852
  745TMC3    O111071   4.566   3.935  13.093  0.0518 -0.0403 -0.4117
  745TMC3    O211072   4.523   3.889  13.564 -0.5133  0.4494 -0.1335
  746TMC3    C111073   2.791   0.928  10.974  1.0488  0.3167  0.0879
  746TMC3    C211074   2.868   0.900  10.863 -0.0532  0.0452 -0.4740
  746TMC3    C311075   2.830   0.817  10.770  0.6395 -0.1307 -0.0328
  746TMC3    C411076   2.677   0.859  10.999 -0.1495  0.6077 -0.8027
  746TMC3    C511077   2.633   0.776  10.897  0.1992 -0.0292 -0.0667
  746TMC3    C611078   2.714   0.756  10.786 -0.5846 -0.5053 -0.0049
  746TMC3     C11079   2.833   1.034  11.064 -0.1079  0.4191 -0.4194
  746TMC3     O11080   2.750   1.098  11.123 -0.0706  0.2971  0.0151
  746TMC3     H11081   2.961   0.953  10.844 -0.6263  0.4066 -2.3233
  746TMC3    H111082   2.622   0.877  11.091 -0.3188 -0.4273 -0.7082
  746TMC3    H211083   2.685   0.693  10.702 -0.0267 -2.3208  1.1672
  746TMC3    C711084   2.530   0.675  10.916 -0.0727  0.6866  0.2065
  746TMC3    C811085   2.936   0.758  10.686 -0.5391  0.1322 -0.3158
  746TMC3    O111086   2.517   0.594  10.827  0.2672 -0.1445  0.2906
  746TMC3    O211087   2.962   0.641  10.705  0.2947 -0.3814  0.1923
  747TMC3    C111088   0.720   0.643  10.892 -0.0082 -0.0642  0.3903
  747TMC3    C211089   0.678   0.524  10.941  0.0338  0.7500  0.0629
  747TMC3    C311090   0.669   0.509  11.082  0.5027 -0.0084 -0.0087
  747TMC3    C411091   0.765   0.741  10.974 -0.1967  0.2106  0.4734
  747TMC3    C511092   0.764   0.723  11.113 -0.7456  0.2032 -0.4143
  747TMC3    C611093   0.716   0.606  11.170  0.0692  0.1683  0.6858
  747TMC3     C11094   0.732   0.656  10.750 -0.6546  0.2387 -0.1513
  747TMC3     O11095   0.793   0.759  10.711 -0.0933 -0.5061  0.2212
  747TMC3     H11096   0.641   0.446  10.875  2.4646 -0.8592  0.6208
  747TMC3    H111097   0.804   0.835  10.935 -2.0308  1.6173  2.0360
  747TMC3    H211098   0.710   0.601  11.278 -1.4592  0.9781  0.6494
  747TMC3    C711099   0.863   0.797  11.195  0.5741  0.3232 -0.9588
  747TMC3    C811100   0.594   0.391  11.126 -0.4130 -0.2044 -0.2783
  747TMC3    O111101   0.827   0.824  11.312 -0.3866  0.2975  0.4433
  747TMC3    O211102   0.607   0.287  11.060  0.2610 -0.0245  0.4938
  748MPD2     C11103   2.281   1.845   1.308 -1.0830  0.1094 -0.1424
  748MPD2    C111104   2.377   1.824   1.406  0.1485  0.3288  0.0174
  748MPD2    C211105   2.504   1.794   1.358  0.2760  0.6459 -0.2703
  748MPD2    C311106   2.536   1.800   1.226 -0.8827 -0.1714  0.5390
  748MPD2    C411107   2.435   1.819   1.128  0.2430  0.1672  0.2294
  748MPD2    C511108   2.302   1.827   1.172  0.5047 -0.1360  0.2991
  748MPD2     H11109   2.582   1.774   1.431  1.1214  1.9192 -0.8211
  748MPD2    H111110   2.455   1.816   1.022 -0.6134  0.8111  0.0432
  748MPD2    H211111   2.178   1.858   1.340 -1.4364 -1.2803 -0.7352
  748MPD2    H311112   2.211   1.836   1.114  0.9450 -1.4623 -0.5971
  748MPD2     N11113   2.670   1.801   1.190 -0.1582 -0.2430  0.5350
  748MPD2    H511114   2.738   1.821   1.263  1.9142 -0.1875 -1.4216
  748MPD2    N111115   2.351   1.817   1.546  0.2371  0.0319  0.6408
  748MPD2    H711116   2.252   1.831   1.566  0.3488  0.5622  0.8106
  749TMC3    C111117   2.855   1.864   1.063  0.3840  0.1180  0.2484
  749TMC3    C211118   2.937   1.812   1.156  0.2808  0.0092 -0.1911
  749TMC3    C311119   3.029   1.897   1.222 -0.1248  0.2265  0.3099
  749TMC3    C411120   2.878   1.984   1.011  0.0219  0.2973  0.2542
  749TMC3    C511121   2.973   2.069   1.061 -0.3938 -0.8510 -0.3017
  749TMC3    C611122   3.038   2.030   1.180 -0.2258  0.4504  0.8004
  749TMC3     C11123   2.718   1.817   1.059  0.4644  0.3002  0.4144
  749TMC3     O11124   2.665   1.812   0.948 -0.1460 -0.2955  0.0293
  749TMC3     H11125   2.930   1.708   1.185  2.6057  0.1457  0.9336
  749TMC3    H111126   2.804   2.025   0.942 -0.3828 -0.3299  0.3164
  749TMC3    H211127   3.124   2.084   1.219 -0.0842  0.6926  0.1449
  749TMC3    C711128   3.004   2.203   1.017  0.4455 -0.7385 -0.3050
  749TMC3    C811129   3.146   1.843   1.295 -0.0464 -0.2855  0.0020
  749TMC3    O111130   3.062   2.280   1.099 -0.1079  0.3928 -0.2389
  749TMC3    O211131   3.215   1.924   1.353 -0.4419 -0.2926  0.8222
  750MPD2     C11132   2.939   2.788  11.437 -0.2153 -0.8891  0.1734
  750MPD2    C111133   2.828   2.708  11.464  0.3224 -0.3623  0.4772
  750MPD2    C211134   2.838   2.570  11.433  0.1794  0.1902 -0.3981
  750MPD2    C311135   2.956   2.517  11.388 -0.4549 -0.2535 -0.2938
  750MPD2    C411136   3.071   2.598  11.370  0.5522 -0.3004  0.0517
  750MPD2    C511137   3.062   2.734  11.403 -0.1218 -0.0744 -0.0903
  750MPD2     H11138   2.742   2.520  11.435 -0.4218  1.2882 -1.7464
  750MPD2    H111139   3.165   2.556  11.336  2.5965  3.1237  1.5106
  750MPD2    H211140   2.934   2.894  11.458 -0.5859 -0.4937 -1.9602
  750MPD2    H311141   3.149   2.795  11.384 -0.7090  0.2109 -1.8878
  750MPD2     N11142   2.974   2.376  11.363  0.3109  0.2829 -0.0272
  750MPD2    H511143   3.069   2.349  11.342  0.9040  0.2761  2.7094
  750MPD2    N111144   2.713   2.778  11.502  0.7194 -0.1670 -0.6543
  750MPD2    H711145   2.718   2.880  11.506 -0.3844 -0.0393 -2.7185
  751TMC3    C111146   2.916   2.147  11.330 -0.1899  0.7094 -0.7088
  751TMC3    C211147   2.821   2.048  11.340 -0.0122 -0.4725 -0.2708
  751TMC3    C311148   2.860   1.917  11.327 -0.0740  0.0899  0.2570
  751TMC3    C411149   3.040   2.124  11.275  0.7317  0.3361 -0.2734
  751TMC3    C511150   3.060   1.996  11.238  0.5081  0.2336  0.4056
  751TMC3    C611151   2.981   1.891  11.263  0.3955  0.3470 -0.5713
  751TMC3     C11152   2.869   2.282  11.359 -0.4199  0.3524 -0.2540
  751TMC3     O11153   2.749   2.304  11.366 -0.0551 -0.4297 -0.0276
  751TMC3     H11154   2.725   2.071  11.384 -0.8838  0.1779 -2.5566
  751TMC3    H111155   3.121   2.196  11.268  2.2178 -1.4156 -1.0873
  751TMC3    H211156   2.991   1.796  11.211  1.8291 -0.8489  1.9093
  751TMC3    C711157   3.186   1.970  11.178  0.2381  0.1115  0.0559
  751TMC3    C811158   2.759   1.807  11.337 -0.0506 -0.1632  0.4574
  751TMC3    O111159   3.247   2.059  11.112 -0.1930  0.4154  0.3987
  751TMC3    O211160   2.770   1.707  11.264  0.0951 -0.5955 -0.1123
  752TMC3    C111161   1.874   2.798  17.025 -0.1295 -0.2187  0.3882
  752TMC3    C211162   1.956   2.740  17.111 -0.0161  0.3007 -0.1817
  752TMC3    C311163   1.905   2.671  17.216 -0.0746  0.0503  0.5944
  752TMC3    C411164   1.739   2.781  17.027  0.1385  0.3293 -0.5502
  752TMC3    C511165   1.694   2.712  17.135  0.1734 -0.5552  1.0003
  752TMC3    C611166   1.769   2.660  17.228  0.5535 -0.2956  0.1924
  752TMC3     C11167   1.939   2.866  16.916  0.5014 -0.0978  0.7632
  752TMC3     O11168   2.057   2.897  16.933  0.8188  0.1861  0.6708
  752TMC3     H11169   2.061   2.740  17.082 -0.2220  1.4974 -0.9065
  752TMC3    H111170   1.667   2.837  16.969 -0.3150 -1.4371 -1.7032
  752TMC3    H211171   1.723   2.598  17.305 -0.2582 -0.5883 -0.5229
  752TMC3    C711172   1.556   2.673  17.120  0.2153 -0.7870 -0.4667
  752TMC3    C811173   1.983   2.564  17.266  0.5954  0.4255 -0.1188
  752TMC3    O111174   1.522   2.638  17.006 -0.1191 -0.0376  0.0806
  752TMC3    O211175   2.093   2.539  17.229  0.0771 -0.0409 -0.3467
  753TMC3    C111176   3.444   3.561  13.287  0.0738  0.2737  0.6940
  753TMC3    C211177   3.557   3.572  13.362 -0.5731 -0.0381 -0.4009
  753TMC3    C311178   3.608   3.452  13.405  0.2712  0.0528  0.2361
  753TMC3    C411179   3.394   3.444  13.244 -0.8586  0.8815  0.4953
  753TMC3    C511180   3.444   3.320  13.287  0.0593  0.7237 -0.2045
  753TMC3    C611181   3.551   3.333  13.372 -0.5823 -0.3134 -0.1509
  753TMC3     C11182   3.391   3.678  13.224  0.1404 -0.2433  0.0129
  753TMC3     O11183   3.296   3.669  13.147  0.3663  0.0047 -0.0939
  753TMC3     H11184   3.606   3.668  13.376 -0.7992  0.1531 -0.9292
  753TMC3    H111185   3.313   3.433  13.173 -0.4538  0.4821  0.1003
  753TMC3    H211186   3.586   3.244  13.424 -1.6992 -2.2049 -2.6397
  753TMC3    C711187   3.371   3.199  13.266 -0.2391 -1.9264  0.1606
  753TMC3    C811188   3.719   3.449  13.492  0.4323 -0.4468 -0.0312
  753TMC3    O111189   3.256   3.210  13.233  0.3793  0.2848 -0.6529
  753TMC3    O211190   3.789   3.350  13.484 -0.5998 -0.4302 -0.1993
  754MPD2     C11191   3.007   2.546  13.102  0.5453 -0.0498  0.1378
  754MPD2    C111192   2.990   2.413  13.133  0.0435  0.0019  1.1591
  754MPD2    C211193   2.861   2.363  13.158 -0.2368 -0.0491  0.2584
  754MPD2    C311194   2.754   2.450  13.151 -0.5589 -0.1029  0.1502
  754MPD2    C411195   2.774   2.577  13.120 -0.1662  0.5609  0.5326
  754MPD2    C511196   2.899   2.630  13.095  0.2127 -0.5077 -0.7003
  754MPD2     H11197   2.841   2.257  13.170  1.2672 -0.6011 -2.1009
  754MPD2    H111198   2.693   2.648  13.132  0.7659  2.0427 -2.0279
  754MPD2    H211199   3.101   2.594  13.076  0.4501 -0.6466 -1.2969
  754MPD2    H311200   2.924   2.735  13.082 -0.0609  0.0071  2.8803
  754MPD2     N11201   2.625   2.426  13.200 -0.1656 -0.3962 -0.1517
  754MPD2    H511202   2.559   2.501  13.187  1.0385  0.2500 -2.5837
  754MPD2    N111203   3.110   2.337  13.120  0.6133  0.1139  0.1615
  754MPD2    H711204   3.191   2.388  13.087  0.7778 -0.3698 -0.1810
  755MPD2     C11205   2.070   3.010  13.378  0.5693  0.1088  0.2308
  755MPD2    C111206   2.018   2.902  13.446 -1.3055  0.3072 -0.2149
  755MPD2    C211207   2.055   2.774  13.412  0.0493  0.2324 -0.6760
  755MPD2    C311208   2.157   2.753  13.321 -0.1874 -0.3428 -0.5939
  755MPD2    C411209   2.210   2.865  13.255 -0.1866  0.2408 -0.0125
  755MPD2    C511210   2.170   2.992  13.280  0.2516  0.1449 -0.9247
  755MPD2     H11211   2.009   2.690  13.463  0.7810  0.0495 -0.3069
  755MPD2    H111212   2.272   2.849  13.168  1.4421 -2.0818  1.5669
  755MPD2    H211213   2.045   3.111  13.409 -1.6785 -0.6041  0.7195
  755MPD2    H311214   2.219   3.074  13.228  1.6119 -0.4686 -0.6099
  755MPD2     N11215   2.203   2.625  13.284 -0.0102  0.3471 -0.3593
  755MPD2    H511216   2.276   2.615  13.215  1.3699  1.9975  0.8640
  755MPD2    N111217   1.930   2.908  13.552 -0.0001  0.1364  0.1472
  755MPD2    H711218   1.930   2.822  13.606  0.4814 -0.3637 -0.6531
  756MPD2     C11219   2.390   3.271   9.785 -0.2310 -0.0590 -0.4364
  756MPD2    C111220   2.335   3.169   9.862  0.4027  0.4496 -0.0917
  756MPD2    C211221   2.262   3.067   9.803 -0.5809 -0.2977  0.0570
  756MPD2    C311222   2.236   3.078   9.666 -0.0528  0.1925  0.0013
  756MPD2    C411223   2.306   3.173   9.588 -0.0847  0.0780  0.6609
  756MPD2    C511224   2.375   3.267   9.652 -0.2510 -0.1151 -0.0781
  756MPD2     H11225   2.205   3.000   9.866 -0.2862 -0.0589  0.5774
  756MPD2    H111226   2.303   3.186   9.480  0.6420 -0.7380  0.5367
  756MPD2    H211227   2.454   3.346   9.828  0.7163 -0.3090 -1.4100
  756MPD2    H311228   2.424   3.349   9.601 -1.6616  2.2561  2.3514
  756MPD2     N11229   2.135   2.999   9.606  0.1323 -0.0856 -0.1477
  756MPD2    H511230   2.106   2.924   9.667  1.7826 -0.1206  0.5970
  756MPD2    N111231   2.340   3.177  10.006 -0.3264  0.4992 -0.0860
  756MPD2    H711232   2.289   3.100  10.047 -2.0480  0.2131 -2.7861
  757MPD2     C11233   1.829   2.335   9.989 -0.5067 -0.2827 -0.7148
  757MPD2    C111234   1.948   2.389   9.948 -0.3243 -0.7893  0.1581
  757MPD2    C211235   1.944   2.498   9.859  0.8996 -0.1489  1.0402
  757MPD2    C311236   1.821   2.545   9.818  0.1460 -0.4501 -0.1640
  757MPD2    C411237   1.704   2.479   9.850  0.4963 -0.3766  0.1914
  757MPD2    C511238   1.710   2.377   9.942  0.3839 -0.1994  0.3889
  757MPD2     H11239   2.033   2.548   9.822 -0.1189 -0.1942 -1.4580
  757MPD2    H111240   1.605   2.506   9.814  0.7748 -1.0874 -1.1060
  757MPD2    H211241   1.823   2.252  10.058 -1.4450  1.3169  1.1189
  757MPD2    H311242   1.622   2.318   9.964 -3.8191  4.8257 -2.8846
  757MPD2     N11243   1.828   2.661   9.737 -0.3126  0.0398 -0.1750
  757MPD2    H511244   1.921   2.701   9.737 -1.4421  2.6616  0.0473
  757MPD2    N111245   2.065   2.333  10.003  0.0461  0.3813  0.8638
  757MPD2    H711246   2.056   2.246  10.054  1.2742  0.7514  1.6988
  758MPD2     C11247   2.623   2.237  16.014  0.5084  0.1173 -0.4220
  758MPD2    C111248   2.737   2.226  16.085  0.7195 -0.4117  0.9139
  758MPD2    C211249   2.751   2.308  16.196 -0.0749  0.1993 -0.8653
  758MPD2    C311250   2.650   2.396  16.222  0.1429  0.2596  1.0762
  758MPD2    C411251   2.535   2.401  16.152  0.3389 -0.2441  0.3284
  758MPD2    C511252   2.515   2.317  16.049  0.2672 -0.3998  0.1727
  758MPD2     H11253   2.834   2.300  16.264 -0.5874  1.7722 -0.0645
  758MPD2    H111254   2.453   2.468  16.176  1.4416  0.7538  1.3423
  758MPD2    H211255   2.602   2.175  15.927 -0.8545 -1.4593  1.0076
  758MPD2    H311256   2.422   2.312  15.994  1.5414 -2.4799 -1.7995
  758MPD2     N11257   2.663   2.474  16.340  0.1666  0.1150  0.5003
  758MPD2    H511258   2.576   2.517  16.369  0.5270  0.2317  1.4115
  758MPD2    N111259   2.832   2.125  16.050 -0.4362 -0.1784  0.1737
  758MPD2    H711260   2.817   2.060  15.974  1.5682 -0.5551  0.0995
  759MPD2     C11261   1.091   0.761  10.047  0.1339 -0.0901 -0.8583
  759MPD2    C111262   1.127   0.695  10.162 -0.6728  0.1254 -0.2268
  759MPD2    C211263   1.247   0.725  10.228  0.2170 -0.8178  0.5905
  759MPD2    C311264   1.325   0.833  10.187 -0.1589  0.2624  0.4532
  759MPD2    C411265   1.279   0.900  10.075  0.2221  0.1701  0.3551
  759MPD2    C511266   1.169   0.860  10.002  0.1943 -0.5078  0.1441
  759MPD2     H11267   1.283   0.656  10.304  0.5197 -1.9465 -0.5726
  759MPD2    H111268   1.335   0.987  10.044 -1.5727  0.9941 -0.5440
  759MPD2    H211269   1.006   0.744   9.981 -0.6029 -0.4543  0.1728
  759MPD2    H311270   1.139   0.918   9.916  1.2101  1.8211  1.3817
  759MPD2     N11271   1.444   0.881  10.247 -0.0598  0.3970 -0.2503
  759MPD2    H511272   1.504   0.946  10.197 -1.7050  1.0445 -1.3428
  759MPD2    N111273   1.059   0.583  10.209  0.6596  0.4086 -0.2007
  759MPD2    H711274   1.086   0.538  10.296  0.4441 -2.0285 -1.4145
  760MPD2     C11275   1.005   2.429  11.982  0.3370 -0.3506  0.1885
  760MPD2    C111276   1.134   2.471  11.955  0.1285  0.2260  0.0738
  760MPD2    C211277   1.242   2.390  11.991  0.4518  0.6777  0.1997
  760MPD2    C311278   1.219   2.271  12.068 -0.6364  0.0564 -0.1764
  760MPD2    C411279   1.088   2.227  12.088  0.5686 -0.2091 -0.3024
  760MPD2    C511280   0.984   2.317  12.061 -1.1528 -0.4538  0.5064
  760MPD2     H11281   1.341   2.418  11.957 -0.5741 -2.2847 -5.4355
  760MPD2    H111282   1.065   2.133  12.136 -1.4874  0.5793  0.2641
  760MPD2    H211283   0.914   2.484  11.963 -0.0290 -1.0245 -0.0175
  760MPD2    H311284   0.888   2.285  12.099 -2.1706  4.0824  1.7222
  760MPD2     N11285   1.328   2.187  12.107  0.5101 -0.1853  0.5070
  760MPD2    H511286   1.310   2.096  12.147  0.2842  0.1367  1.1317
  760MPD2    N111287   1.167   2.591  11.886  0.2706 -0.8064  0.1502
  760MPD2    H711288   1.268   2.594  11.876 -0.0208  1.0629 -2.1399
  761MPD2     C11289   2.334   1.575  11.507 -0.0497 -0.2019  0.0778
  761MPD2    C111290   2.390   1.583  11.380  0.0516 -0.6418  0.2636
  761MPD2    C211291   2.495   1.669  11.354 -0.2197  0.0861 -0.7977
  761MPD2    C311292   2.542   1.754  11.443  0.1295  0.3573  0.3459
  761MPD2    C411293   2.488   1.750  11.575 -0.4104  0.1779 -0.0972
  761MPD2    C511294   2.380   1.667  11.599  0.3558  0.4008 -0.6544
  761MPD2     H11295   2.545   1.639  11.263  1.6889  0.8225  0.0178
  761MPD2    H111296   2.521   1.811  11.658 -1.7235  2.6519 -1.3863
  761MPD2    H211297   2.252   1.509  11.531 -0.8908  0.9233  0.2868
  761MPD2    H311298   2.344   1.661  11.701  0.1156 -2.3504 -0.8859
  761MPD2     N11299   2.659   1.828  11.426 -0.6962  0.2343  0.2244
  761MPD2    H511300   2.690   1.888  11.502  0.4931 -1.5635  1.1380
  761MPD2    N111301   2.341   1.497  11.273  0.5821 -0.4847 -0.4712
  761MPD2    H711302   2.288   1.412  11.295 -0.0087  0.6461  2.4621
  762MPD2     C11303   2.856   1.516  10.974  1.1587  0.5609  0.1428
  762MPD2    C111304   2.791   1.461  10.867  0.2936 -0.1722 -0.5355
  762MPD2    C211305   2.866   1.440  10.753  0.5148  0.5822 -0.3219
  762MPD2    C311306   3.003   1.467  10.742  0.1724  0.5466 -0.2659
  762MPD2    C411307   3.062   1.509  10.865  0.5738 -0.5190  0.3817
  762MPD2    C511308   2.987   1.539  10.970 -0.0474 -0.0520 -0.0958
  762MPD2     H11309   2.805   1.417  10.666 -2.4436  1.7534  1.4501
  762MPD2    H111310   3.169   1.517  10.879  0.5792  0.3821 -0.1324
  762MPD2    H211311   2.799   1.535  11.065  3.7743 -0.1861  1.9213
  762MPD2    H311312   3.031   1.577  11.062 -1.3616  0.0742  0.4805
  762MPD2     N11313   3.078   1.460  10.622  0.2336 -0.5389 -0.0105
  762MPD2    H511314   3.036   1.425  10.536 -0.6410 -1.2422  0.6959
  762MPD2    N111315   2.655   1.423  10.896 -0.0716 -0.0525 -0.3641
  762MPD2    H711316   2.623   1.451  10.988  0.2312  0.7077 -0.4966
  763MPD2     C11317   0.179   2.018  16.166  0.6196 -0.0522 -0.4099
  763MPD2    C111318   0.049   2.069  16.160 -0.9631  0.4819 -0.6519
  763MPD2    C211319   0.028   2.203  16.169 -0.5210  0.6420  0.2772
  763MPD2    C311320   0.138   2.292  16.171  1.0379 -1.1740  0.2458
  763MPD2    C411321   0.268   2.248  16.176  0.3411  0.1206  0.9509
  763MPD2    C511322   0.281   2.111  16.175  0.5162  0.0281 -0.0458
  763MPD2     H11323   4.668   2.234  16.169 -0.0334  2.2405  1.9550
  763MPD2    H111324   0.354   2.314  16.171 -0.0162  0.7007  2.6301
  763MPD2    H211325   0.212   1.915  16.164 -0.8150 -0.5146  0.1145
  763MPD2    H311326   0.378   2.065  16.177  2.0409  3.2836  1.0975
  763MPD2     N11327   0.132   2.428  16.173  0.3253 -0.4300 -0.2974
  763MPD2    H511328   0.217   2.484  16.171 -0.2780  0.5118  0.7299
  763MPD2    N111329   4.685   1.982  16.140  0.0583 -0.1186  0.0011
  763MPD2    H711330   4.599   2.025  16.107  1.1281  0.9992 -1.3637
  764MPD2     C11331   2.573   3.375  17.529 -0.2018 -0.3463  0.1870
  764MPD2    C111332   2.447   3.446  17.526  0.8774  0.8911  0.1874
  764MPD2    C211333   2.388   3.477  17.646 -0.0211  1.1036 -0.2920
  764MPD2    C311334   2.447   3.452  17.766  0.3255  0.3155  0.2058
  764MPD2    C411335   2.562   3.376   0.003 -0.2097 -0.6986 -0.2105
  764MPD2    C511336   2.626   3.351  17.650 -0.0979 -0.5017 -0.4554
  764MPD2     H11337   2.295   3.533  17.640  0.1391  1.3623 -0.3167
  764MPD2    H111338   2.618   3.348   0.092 -0.8627  2.1651  1.1192
  764MPD2    H211339   2.619   3.346  17.435 -0.7492  0.0623 -0.2115
  764MPD2    H311340   2.728   3.314  17.654  0.4044  1.0082  0.4665
  764MPD2     N11341   2.384   3.512   0.107 -0.0359  0.4612 -0.5890
  764MPD2    H511342   2.306   3.572   0.085 -2.7584 -2.7284  0.3914
  764MPD2    N111343   2.380   3.473  17.404 -0.3018  0.2881  0.0533
  764MPD2    H711344   2.290   3.520  17.413 -1.1855 -1.4970  0.6691
  765MPD2     C11345   2.103   1.422  16.073  0.8117 -0.9953 -0.8345
  765MPD2    C111346   2.197   1.519  16.062  0.4423  0.2514 -0.1634
  765MPD2    C211347   2.299   1.504  15.969 -0.8154 -0.4607 -0.9441
  765MPD2    C311348   2.311   1.380  15.902 -0.1240 -0.0953 -0.2235
  765MPD2    C411349   2.219   1.282  15.918 -1.3654 -0.6765 -0.0863
  765MPD2    C511350   2.107   1.307  16.000  0.1690  0.1716  0.6163
  765MPD2     H11351   2.368   1.585  15.949 -1.6489  0.4072 -0.3085
  765MPD2    H111352   2.225   1.188  15.865  0.7156 -2.0560  2.5892
  765MPD2    H211353   2.027   1.447  16.146  1.6251  0.4128 -0.4746
  765MPD2    H311354   2.024   1.237  16.005 -0.7770  1.1709 -0.9424
  765MPD2     N11355   2.422   1.370  15.815 -0.9905 -0.2200  0.2406
  765MPD2    H511356   2.500   1.435  15.817 -0.3218 -1.0344  0.8578
  765MPD2    N111357   2.177   1.635  16.137 -0.4976 -0.3449 -0.5209
  765MPD2    H711358   2.090   1.632  16.188 -1.2478  0.4626 -1.7357
  766MPD2     C11359   1.778   1.557  15.957 -0.2406  0.2823 -0.0328
  766MPD2    C111360   1.826   1.663  15.878  0.1126 -0.1195 -0.1612
  766MPD2    C211361   1.837   1.644  15.741  0.4552 -0.5443  0.2101
  766MPD2    C311362   1.820   1.520  15.683 -0.4096 -0.7842 -0.1307
  766MPD2    C411363   1.789   1.412  15.762 -0.0967  0.0639  0.5905
  766MPD2    C511364   1.764   1.433  15.899  0.0478 -0.1199 -0.2060
  766MPD2     H11365   1.858   1.725  15.673  0.7902  1.0433  2.1888
  766MPD2    H111366   1.784   1.317  15.710 -2.2773  0.5999 -0.1762
  766MPD2    H211367   1.755   1.571  16.063 -0.1532 -2.0400  0.2947
  766MPD2    H311368   1.713   1.352  15.950  0.2895 -0.2227 -0.1311
  766MPD2     N11369   1.846   1.505  15.541  0.1852  0.4792 -0.9286
  766MPD2    H511370   1.850   1.412  15.502  0.2139  0.5841 -1.1725
  766MPD2    N111371   1.852   1.794  15.921 -0.2380 -1.2076  0.2273
  766MPD2    H711372   1.890   1.853  15.847 -0.2797  0.6082  1.6401
  767MPD2     C11373   1.384   1.936  15.295 -0.0764 -0.7981  0.4280
  767MPD2    C111374   1.517   1.953  15.258  0.2096  0.2443  0.2112
  767MPD2    C211375   1.574   1.879  15.149  0.0430 -0.1636 -0.3600
  767MPD2    C311376   1.495   1.794  15.076 -0.0030  0.2583 -0.1710
  767MPD2    C411377   1.361   1.792  15.111 -1.0205  0.1317  0.0261
  767MPD2    C511378   1.307   1.851  15.222  0.0483  0.2318  0.3558
  767MPD2     H11379   1.676   1.902  15.121  0.3302 -1.1625 -0.1133
  767MPD2    H111380   1.293   1.728  15.057 -0.0344 -0.5188 -0.4408
  767MPD2    H211381   1.333   1.987  15.375 -0.0479 -1.2126  0.7132
  767MPD2    H311382   1.202   1.841  15.247 -0.2284  0.1695 -0.8134
  767MPD2     N11383   1.546   1.743  14.958  0.3878  0.5502  0.2807
  767MPD2    H511384   1.648   1.740  14.964  0.6084 -0.2482 -3.9886
  767MPD2    N111385   1.589   2.044  15.331  0.5039  0.7518  0.2142
  767MPD2    H711386   1.547   2.094  15.409  1.7238  1.5349  0.3817
  768MPD2     C11387   2.729   0.229  10.740  0.0861  1.3736  0.1750
  768MPD2    C111388   2.706   0.179  10.869 -0.5561  0.0434  0.3865
  768MPD2    C211389   2.807   0.184  10.964  0.4459  0.0456  0.3262
  768MPD2    C311390   2.930   0.245  10.934 -0.2032  0.3963 -0.3239
  768MPD2    C411391   2.952   0.291  10.803 -0.3643  0.0698 -0.0956
  768MPD2    C511392   2.852   0.280  10.711 -0.1776 -0.3419 -0.6341
  768MPD2     H11393   2.771   0.140  11.056  0.9535 -1.8861 -0.3976
  768MPD2    H111394   3.046   0.329  10.765  0.5300 -0.5554  1.4810
  768MPD2    H211395   2.650   0.236  10.667 -0.9440  0.0491  1.1680
  768MPD2    H311396   2.867   0.322  10.613  0.3015  0.9007 -0.0279
  768MPD2     N11397   3.038   0.241  11.028 -0.1910 -0.3168  0.4647
  768MPD2    H511398   3.132   0.268  10.999  0.3338 -1.1724  1.3627
  768MPD2    N111399   2.583   0.121  10.902 -1.1963 -0.0613  0.4683
  768MPD2    H711400   2.569   0.094  10.999  0.8015  0.6888  0.9638
  769MPD2     C11401   3.987   2.831  14.789  0.3314  0.5604  0.3990
  769MPD2    C111402   3.863   2.867  14.821 -0.0170  0.8862 -0.8552
  769MPD2    C211403   3.844   3.004  14.858 -0.0711  0.4553  0.2966
  769MPD2    C311404   3.950   3.090  14.868 -0.7370 -0.2084 -0.1473
  769MPD2    C411405   4.077   3.048  14.833 -0.4971 -0.6782 -0.3475
  769MPD2    C511406   4.089   2.925  14.787 -0.3955  0.5069  0.3004
  769MPD2     H11407   3.742   3.040  14.864 -0.8642 -1.6515 -0.4917
  769MPD2    H111408   4.166   3.110  14.836 -1.1774  0.3019 -0.2616
  769MPD2    H211409   3.999   2.735  14.740 -1.6139  0.1160  0.7946
  769MPD2    H311410   4.187   2.895  14.751 -0.5643 -0.7164  0.8481
  769MPD2     N11411   3.920   3.227  14.898 -0.1277 -0.0468  0.3627
  769MPD2    H511412   3.824   3.255  14.913 -0.8025 -1.8685 -0.6492
  769MPD2    N111413   3.762   2.773  14.832  0.7940  0.6650 -0.2573
  769MPD2    H711414   3.777   2.679  14.799 -2.5229 -0.6831  2.0502
  770MPD2     C11415   2.887   2.323  15.356 -0.0278 -0.7883  0.1757
  770MPD2    C111416   2.901   2.272  15.228 -0.0532 -0.4117  0.4600
  770MPD2    C211417   2.996   2.329  15.147  0.5001  0.1827 -0.1702
  770MPD2    C311418   3.093   2.421  15.193  0.1926 -0.6174 -0.7221
  770MPD2    C411419   3.074   2.472  15.318 -0.3097 -0.1934  0.3384
  770MPD2    C511420   2.974   2.422  15.404  0.8178 -0.2490  0.3430
  770MPD2     H11421   3.002   2.288  15.047  1.1478 -0.4429  0.1264
  770MPD2    H111422   3.144   2.540  15.365 -0.7858 -0.6941  1.7787
  770MPD2    H211423   2.820   2.273  15.425 -0.4893  1.1115  1.1202
  770MPD2    H311424   2.973   2.459  15.506 -2.5684 -0.6650  0.4656
  770MPD2     N11425   3.196   2.462  15.104  0.3323 -0.4185  0.6787
  770MPD2    H511426   3.191   2.408  15.018  1.4674 -0.5150  0.6815
  770MPD2    N111427   2.814   2.167  15.186  0.2361  0.4454  0.1347
  770MPD2    H711428   2.745   2.141  15.255  0.0141 -1.6944 -0.8987
  771MPD2     C11429   4.335   0.702  13.891 -0.4812  0.2607 -0.0982
  771MPD2    C111430   4.271   0.821  13.873 -0.2483 -0.6837  0.6340
  771MPD2    C211431   4.139   0.823  13.842 -0.8081 -0.0165 -0.0796
  771MPD2    C311432   4.071   0.709  13.829 -0.2126 -0.0330 -0.3600
  771MPD2    C411433   4.136   0.591  13.843 -0.0466 -0.5278 -0.1666
  771MPD2    C511434   4.265   0.585  13.882  0.1694  0.3097 -0.3070
  771MPD2     H11435   4.089   0.917  13.821  1.0041  0.6531 -1.3677
  771MPD2    H111436   4.078   0.501  13.830  0.4476 -0.4989 -2.5872
  771MPD2    H211437   4.436   0.703  13.932  0.1066 -0.6723 -1.5280
  771MPD2    H311438   4.314   0.489  13.896 -2.1686 -0.7445  0.6458
  771MPD2     N11439   3.948   0.720  13.771 -0.3183 -0.3050 -0.2481
  771MPD2    H511440   3.895   0.805  13.783  1.5973  1.0401 -1.3135
  771MPD2    N111441   4.339   0.938  13.885  0.3909  0.1787 -0.5125
  771MPD2    H711442   4.280   1.020  13.899  0.8010  0.5092 -0.6939
  772MPD2     C11443   4.156   1.553  14.167 -0.3273 -0.4771  0.6627
  772MPD2    C111444   4.136   1.451  14.077 -0.9140 -0.5206 -0.1471
  772MPD2    C211445   4.006   1.405  14.062 -0.1807 -0.1857 -0.2352
  772MPD2    C311446   3.896   1.483  14.105  0.3299 -0.7106  0.0078
  772MPD2    C411447   3.918   1.585  14.197 -0.6163  0.0359  0.2910
  772MPD2    C511448   4.048   1.615  14.229  0.5291  0.9512 -0.4064
  772MPD2     H11449   3.991   1.311  14.009  1.9131 -0.9090  0.4632
  772MPD2    H111450   3.842   1.647  14.242 -1.4815 -0.9281  0.1601
  772MPD2    H211451   4.252   1.587  14.205 -0.8853 -0.8024  2.3845
  772MPD2    H311452   4.059   1.693  14.303  0.1991  0.6795 -0.0726
  772MPD2     N11453   3.764   1.442  14.086  0.2185 -0.3927 -0.0663
  772MPD2    H511454   3.684   1.502  14.107  0.6764 -0.3484  1.5860
  772MPD2    N111455   4.243   1.374  14.026 -0.7142 -0.0808  0.7245
  772MPD2    H711456   4.214   1.296  13.967 -0.9503 -1.5266  2.7613
  773MPD2     C11457   3.502   2.759  17.687 -0.2008 -0.1346  0.0843
  773MPD2    C111458   3.444   2.641  17.645 -0.0167 -0.0024 -0.3543
  773MPD2    C211459   3.471   2.528  17.720 -0.5387  0.7017  0.2187
  773MPD2    C311460   3.558   2.528   0.052  0.0221 -0.2163  0.0975
  773MPD2    C411461   3.622   2.646   0.086 -0.3516 -0.2462  0.0586
  773MPD2    C511462   3.593   2.758   0.019 -0.0078 -0.3438  0.6341
  773MPD2     H11463   3.431   2.436  17.679  1.3277  0.5633 -1.3073
  773MPD2    H111464   3.678   2.649   0.179  0.5336  1.4913 -0.5360
  773MPD2    H211465   3.489   2.854  17.637  0.4831 -0.0319  0.0928
  773MPD2    H311466   3.633   2.855   0.048  0.1869  0.8158 -3.5434
  773MPD2     N11467   3.598   2.404   0.108 -0.6955 -0.3914  0.2424
  773MPD2    H511468   3.561   2.316   0.074 -0.9009 -0.2833  0.1909
  773MPD2    N111469   3.365   2.625  17.535  0.0480 -0.5509  0.6366
  773MPD2    H711470   3.330   2.531  17.523  2.6559 -1.5843  1.2244
  774MPD2     C11471   2.928   1.280  13.403  0.2434  1.0155 -0.0367
  774MPD2    C111472   2.832   1.361  13.455 -0.1627  0.2745 -0.6680
  774MPD2    C211473   2.842   1.500  13.446 -0.6191  0.1612  0.5673
  774MPD2    C311474   2.949   1.557  13.382 -0.3285 -0.7243 -0.6550
  774MPD2    C411475   3.051   1.478  13.328  0.0507 -0.0585 -0.5370
  774MPD2    C511476   3.034   1.342  13.339  1.2873 -0.0678 -0.4231
  774MPD2     H11477   2.769   1.570  13.486  1.6180  2.1447  1.2185
  774MPD2    H111478   3.148   1.516  13.296  0.1886 -0.4652 -0.5920
  774MPD2    H211479   2.917   1.173  13.407 -0.0529  1.0372 -0.2378
  774MPD2    H311480   3.105   1.274  13.293  1.3415 -0.8475  0.8014
  774MPD2     N11481   2.940   1.694  13.361 -0.3816 -0.4197  0.3782
  774MPD2    H511482   2.852   1.742  13.374 -0.3110  0.0126 -0.7636
  774MPD2    N111483   2.719   1.303  13.511  0.5998 -0.3494  1.0530
  774MPD2    H711484   2.719   1.204  13.529  1.8612  0.0673  3.2448
  775MPD2     C11485   4.624   3.345  16.102 -0.4185  0.4340 -0.2629
  775MPD2    C111486   4.488   3.337  16.083  0.7610 -0.6701 -1.0221
  775MPD2    C211487   4.430   3.352  15.956 -0.7366 -0.3457 -1.0017
  775MPD2    C311488   4.512   3.403  15.852 -0.1485 -0.4121 -0.7161
  775MPD2    C411489   4.651   3.404  15.873  0.0080 -0.1329 -0.2316
  775MPD2    C511490   4.704   3.367  15.993 -0.5709 -0.1274  0.3889
  775MPD2     H11491   4.325   3.334  15.935 -1.3678  1.4551  0.6588
  775MPD2    H111492   4.706   3.455  15.795 -0.1463  2.1033  1.1247
  775MPD2    H211493   4.669   3.345  16.201  2.3926  2.1500 -1.5277
  775MPD2    H311494   0.065   3.396  16.008  0.3966 -2.2960 -2.1449
  775MPD2     N11495   4.465   3.455  15.729 -0.5087 -0.5758 -0.0278
  775MPD2    H511496   4.537   3.497  15.671  0.2945 -2.7944 -0.6524
  775MPD2    N111497   4.403   3.300  16.195 -0.6405 -0.2556 -0.0110
  775MPD2    H711498   4.438   3.309  16.290  0.4137 -0.7589 -0.3545
  776MPD2     C11499   2.236   3.457  11.638  0.1145  0.4987 -0.4724
  776MPD2    C111500   2.354   3.383  11.626 -0.3524 -0.7060 -0.1492
  776MPD2    C211501   2.473   3.448  11.589  0.0049  0.3075 -0.0631
  776MPD2    C311502   2.472   3.593  11.573 -0.2476  0.4809  0.4492
  776MPD2    C411503   2.355   3.662  11.591  1.0564 -0.2252 -0.1551
  776MPD2    C511504   2.235   3.594  11.625  0.3359  0.4985  0.0221
  776MPD2     H11505   2.570   3.401  11.577 -0.9748 -1.8407  0.4387
  776MPD2    H111506   2.351   3.768  11.570  0.1285 -0.1875  0.2219
  776MPD2    H211507   2.149   3.404  11.674 -0.4974  0.6004 -1.8211
  776MPD2    H311508   2.141   3.646  11.638  0.1724  0.1072  0.4075
  776MPD2     N11509   2.583   3.670  11.524 -0.1306  0.1625 -0.0599
  776MPD2    H511510   2.565   3.767  11.501 -2.4477  0.4915  3.1345
  776MPD2    N111511   2.345   3.243  11.640  0.0151 -0.2657 -0.4872
  776MPD2    H711512   2.261   3.200  11.677  0.1464 -3.1414 -3.5803
  777MPD2     C11513   3.169   0.979   0.587  0.3482  0.3889 -0.6625
  777MPD2    C111514   3.247   0.898   0.663 -0.5098 -0.8414  0.0755
  777MPD2    C211515   3.238   0.761   0.634 -0.8148 -0.8634  0.5595
  777MPD2    C311516   3.147   0.704   0.543 -0.0329  0.5982 -0.7584
  777MPD2    C411517   3.064   0.795   0.473 -0.0147  0.1564 -0.3742
  777MPD2    C511518   3.083   0.933   0.491 -0.1639  0.5246  0.0396
  777MPD2     H11519   3.299   0.690   0.689  1.5485  0.4906 -0.3514
  777MPD2    H111520   2.988   0.768   0.401 -0.4850 -0.8372  0.4987
  777MPD2    H211521   3.168   1.087   0.576 -0.2318  0.3777 -0.6876
  777MPD2    H311522   3.038   0.999   0.419  0.4985 -0.2735 -1.1064
  777MPD2     N11523   3.135   0.561   0.523  0.1170  0.1970  0.1880
  777MPD2    H511524   3.184   0.504   0.590  2.0677 -0.5488 -1.8590
  777MPD2    N111525   3.321   0.958   0.772  0.0958 -1.2367 -0.1581
  777MPD2    H711526   3.317   1.058   0.788 -0.2563 -1.2399 -0.2341
  778MPD2     C11527   4.273   1.186  14.937 -0.1320  0.2858  0.0124
  778MPD2    C111528   4.253   1.083  14.846  0.6345 -0.1955  0.2260
  778MPD2    C211529   4.315   1.094  14.719  0.2396  0.0981 -0.3469
  778MPD2    C311530   4.389   1.208  14.685 -0.2763 -0.2335  0.8808
  778MPD2    C411531   4.407   1.312  14.772  0.0113 -0.2170  0.0666
  778MPD2    C511532   4.342   1.299  14.900  0.0554  0.0641 -0.6995
  778MPD2     H11533   4.314   1.011  14.651 -1.8499  1.4509 -1.9760
  778MPD2    H111534   4.450   1.408  14.744 -0.3270 -0.3548 -0.9161
  778MPD2    H211535   4.233   1.181  15.037  0.2020 -0.6875  0.1016
  778MPD2    H311536   4.354   1.376  14.975  0.1051 -0.9280  0.3114
  778MPD2     N11537   4.473   1.184  14.574  0.2487 -0.4551 -0.1355
  778MPD2    H511538   4.478   1.093  14.531 -1.8203 -0.9103  0.5694
  778MPD2    N111539   4.189   0.963  14.879  0.7118  0.5766 -0.3826
  778MPD2    H711540   4.200   0.885  14.815  3.1412 -1.2661  2.2586
  779MPD2     C11541   3.559   4.566  14.281  0.3487 -0.0615 -0.0145
  779MPD2    C111542   3.661   4.580  14.193 -0.2820  0.0431 -0.6385
  779MPD2    C211543   3.703   4.708  14.163  0.1767  0.1131 -0.5747
  779MPD2    C311544   3.644   0.068  14.220  0.2983 -0.5957 -0.3823
  779MPD2    C411545   3.543   0.057  14.311 -0.1334 -0.2452  0.4401
  779MPD2    C511546   3.504   4.675  14.345 -0.4118 -0.2306  0.2182
  779MPD2     H11547   3.780   4.725  14.088 -0.5796  0.3708 -1.2959
  779MPD2    H111548   3.510   0.146  14.363 -0.7660 -0.3427  0.2072
  779MPD2    H211549   3.537   4.464  14.310 -0.3220  0.0612 -0.0967
  779MPD2    H311550   3.433   4.655  14.425  0.3792  0.3781  1.0872
  779MPD2     N11551   3.713   0.191  14.189 -0.5288  0.9281  0.2832
  779MPD2    H511552   3.777   0.183  14.111 -0.4131  2.5841  0.2122
  779MPD2    N111553   3.734   4.475  14.131  0.2469 -0.0892  0.2160
  779MPD2    H711554   3.817   4.508  14.085  0.5369  0.7351  1.3319
  780MPD2     C11555   4.287   4.535   1.263 -0.0757 -0.5258 -0.0425
  780MPD2    C111556   4.248   4.444   1.166 -0.0533  0.1149  0.7108
  780MPD2    C211557   4.269   4.481   1.035 -0.1517  0.0474 -0.2257
  780MPD2    C311558   4.353   4.592   1.003  0.4256 -0.0645  0.3685
  780MPD2    C411559   4.411   4.664   1.109  0.1637  0.7581 -0.1603
  780MPD2    C511560   4.374   4.641   1.240 -0.1486  0.0076 -0.5207
  780MPD2     H11561   4.239   4.412   0.957 -2.5772  1.9478 -0.9608
  780MPD2    H111562   4.476   0.005   1.087  0.5160  0.6330  0.3859
  780MPD2    H211563   4.262   4.510   1.365 -0.7772  2.5667  0.5250
  780MPD2    H311564   4.415   4.692   1.327 -0.5676 -0.4529 -0.0490
  780MPD2     N11565   4.395   4.611   0.869 -0.0382 -0.4980 -0.6161
  780MPD2    H511566   4.361   4.549   0.796  1.1967 -0.5129 -1.1775
  780MPD2    N111567   4.174   4.332   1.203  0.8685  0.0548  0.2205
  780MPD2    H711568   4.129   4.334   1.294  2.7075  2.9349  1.0768
  781MPD2     C11569   0.941   1.979  11.904 -0.3086 -0.1974 -0.2471
  781MPD2    C111570   0.980   1.856  11.946  0.2442  0.3969  0.4358
  781MPD2    C211571   1.036   1.769  11.857  0.6332  0.0553  0.4336
  781MPD2    C311572   1.081   1.803  11.733  0.4843 -0.0198  0.6278
  781MPD2    C411573   1.053   1.933  11.692 -0.2999 -0.1000  0.1077
  781MPD2    C511574   0.982   2.019  11.778  0.5719 -0.2045  0.8005
  781MPD2     H11575   1.056   1.673  11.901 -0.5066 -0.6634 -0.6124
  781MPD2    H111576   1.084   1.976  11.598  0.3300 -2.0758 -0.5697
  781MPD2    H211577   0.870   2.034  11.963 -0.1954 -0.6285  0.2893
  781MPD2    H311578   0.946   2.113  11.737 -0.2294 -0.3054  1.2672
  781MPD2     N11579   1.146   1.713  11.642 -0.3610  0.5050  0.3819
  781MPD2    H511580   1.162   1.746  11.548  3.1562 -0.8339  0.4997
  781MPD2    N111581   0.941   1.796  12.070 -0.0098  0.0203  0.0029
  781MPD2    H711582   0.978   1.703  12.087 -0.3100  0.1522  1.3431
  782MPD2     C11583   3.565   2.136  10.202  0.0176  0.1050 -0.6339
  782MPD2    C111584   3.597   2.136  10.338 -0.4224 -0.2046 -0.3915
  782MPD2    C211585   3.614   2.250  10.417  0.3366 -0.4457  0.0795
  782MPD2    C311586   3.596   2.372  10.352 -0.0309  0.0209 -0.2291
  782MPD2    C411587   3.570   2.377  10.215  0.1405  0.3218  0.4346
  782MPD2    C511588   3.552   2.257  10.141  0.1358  0.2037 -0.7478
  782MPD2     H11589   3.641   2.250  10.522  2.1364  0.4844 -0.3753
  782MPD2    H111590   3.553   2.467  10.157 -0.2471 -0.1343 -0.1656
  782MPD2    H211591   3.543   2.047  10.146 -0.7182  0.9842 -1.7381
  782MPD2    H311592   3.525   2.267  10.036 -0.3255 -0.4622 -0.6972
  782MPD2     N11593   3.625   2.488  10.429  0.6657  0.9389 -0.5013
  782MPD2    H511594   3.637   2.472  10.528  2.4599 -1.4398 -1.0721
  782MPD2    N111595   3.624   2.008  10.403 -0.0118  0.5022 -0.4512
  782MPD2    H711596   3.655   1.945  10.329 -1.7631  0.6244 -1.2926
  783MPD2     C11597   3.409   1.695  11.279  0.0269 -0.1305 -0.0694
  783MPD2    C111598   3.365   1.792  11.196  0.3715 -0.4621 -0.2511
  783MPD2    C211599   3.449   1.827  11.089 -0.3437  0.0585  0.1482
  783MPD2    C311600   3.579   1.776  11.077  0.1380  0.3588  0.6316
  783MPD2    C411601   3.621   1.690  11.169  0.1242  0.1044  0.4038
  783MPD2    C511602   3.536   1.650  11.269 -0.3968 -0.3350  0.4276
  783MPD2     H11603   3.410   1.891  11.011 -2.1398 -1.7372 -0.4096
  783MPD2    H111604   3.720   1.648  11.160 -0.2603 -0.8556  0.5769
  783MPD2    H211605   3.353   1.672  11.369 -1.9006  0.4112 -1.1236
  783MPD2    H311606   3.560   1.593  11.358  1.6049 -0.7896 -0.4104
  783MPD2     N11607   3.648   1.806  10.951 -0.3809 -0.1130 -0.6530
  783MPD2    H511608   3.599   1.865  10.885 -1.6822 -0.7363 -0.2496
  783MPD2    N111609   3.237   1.848  11.227 -0.5194  0.3787  0.0001
  783MPD2    H711610   3.182   1.799  11.296  0.4118  2.8676  2.4995
  784MPD2     C11611   1.376   2.715   0.675  0.1250  0.0039  0.4783
  784MPD2    C111612   1.383   2.836   0.741  0.1819 -0.7442  0.5042
  784MPD2    C211613   1.297   2.942   0.707  0.3096  0.1997 -0.5199
  784MPD2    C311614   1.201   2.924   0.610 -0.7466 -0.6856 -0.0568
  784MPD2    C411615   1.189   2.792   0.557  0.2569 -0.3241  0.1346
  784MPD2    C511616   1.277   2.696   0.584 -0.1088  0.0071  0.4537
  784MPD2     H11617   1.302   3.036   0.761 -2.4323  1.1584 -1.9626
  784MPD2    H111618   1.114   2.774   0.481  0.3023 -0.2353  0.0692
  784MPD2    H211619   1.455   2.640   0.681  1.9323  1.8696  0.0753
  784MPD2    H311620   1.271   2.605   0.526  3.3993 -0.6747  1.1664
  784MPD2     N11621   1.124   3.037   0.571 -0.3014  0.2831  0.0808
  784MPD2    H511622   1.149   3.131   0.602 -0.2184 -0.3085  1.7947
  784MPD2    N111623   1.480   2.864   0.834 -0.3699 -0.0998  0.6483
  784MPD2    H711624   1.485   2.961   0.862 -0.3351 -0.2598  1.1905
  785MPD2     C11625   1.244   1.123  10.946  0.4034  0.0493  0.3102
  785MPD2    C111626   1.132   1.201  10.979  0.0335  0.1063 -0.1665
  785MPD2    C211627   1.015   1.194  10.908  0.9156  0.2058 -0.5988
  785MPD2    C311628   1.003   1.106  10.805  0.8817  0.3973 -0.6110
  785MPD2    C411629   1.100   1.012  10.788  0.1276  0.6017  0.7701
  785MPD2    C511630   1.222   1.022  10.859  0.4055 -0.5462 -0.5887
  785MPD2     H11631   0.940   1.271  10.914  0.2458 -0.5765  1.0942
  785MPD2    H111632   1.097   0.943  10.704  3.4849  1.3333  0.0487
  785MPD2    H211633   1.337   1.131  11.001  1.1270 -0.7150 -0.7843
  785MPD2    H311634   1.297   0.948  10.832 -1.0910 -1.9187 -0.9883
  785MPD2     N11635   0.894   1.111  10.716 -0.3928 -0.4047 -0.3183
  785MPD2    H511636   0.819   1.172  10.744 -1.4588 -1.7061 -0.3420
  785MPD2    N111637   1.146   1.305  11.074  0.9175 -0.5887  0.3226
  785MPD2    H711638   1.237   1.327  11.112  0.1783  3.7851 -0.3181
  786MPD2     C11639   4.515   4.060  14.702 -0.1153  0.2372  0.4863
  786MPD2    C111640   4.624   4.108  14.619  0.1400  0.3022 -0.4733
  786MPD2    C211641   4.728   4.191  14.670  0.3384 -0.1399 -0.6270
  786MPD2    C311642   4.724   4.223  14.801  0.4238 -0.4169  0.1511
  786MPD2    C411643   4.614   4.187  14.879 -0.5036  0.3461  0.5173
  786MPD2    C511644   4.510   4.109  14.830  0.3371 -0.6613  0.0899
  786MPD2     H11645   0.070   4.203  14.604  2.9896  0.2037  2.8956
  786MPD2    H111646   4.603   4.217  14.983 -1.1791  0.8976  0.2839
  786MPD2    H211647   4.443   3.988  14.665 -0.3265  1.7228 -2.0460
  786MPD2    H311648   4.427   4.092  14.898  1.0573  3.3714  1.9881
  786MPD2     N11649   0.087   4.282  14.873  0.2377 -0.2795 -0.0790
  786MPD2    H511650   0.073   4.276  14.973 -0.9584  0.8211 -0.1835
  786MPD2    N111651   4.635   4.071  14.482  0.7616 -0.4958  0.1917
  786MPD2    H711652   4.727   4.080  14.440  0.4057  3.1551  0.1516
  787MPD2     C11653   0.126   3.388  14.434 -0.2738 -0.2762  0.3183
  787MPD2    C111654   0.129   3.464  14.315 -0.5373 -0.7805  0.2182
  787MPD2    C211655   0.213   3.407  14.213 -1.1537  0.3507 -0.0375
  787MPD2    C311656   0.277   3.285  14.223 -0.6301  0.2290  0.5532
  787MPD2    C411657   0.266   3.218  14.339 -0.1746 -0.4777 -0.4455
  787MPD2    C511658   0.183   3.263  14.433 -0.2956 -0.2424  0.0654
  787MPD2     H11659   0.218   3.455  14.116  2.6575 -0.0833 -0.0562
  787MPD2    H111660   0.301   3.119  14.362 -0.2849 -0.5250 -0.4792
  787MPD2    H211661   0.069   3.424  14.519 -0.4784  0.4908 -0.1357
  787MPD2    H311662   0.166   3.209  14.525 -2.0309  0.4463  0.1468
  787MPD2     N11663   0.361   3.245  14.121  0.8343  0.5885  0.1832
  787MPD2    H511664   0.382   3.305  14.042 -0.7540  1.3564  0.3593
  787MPD2    N111665   0.065   3.591  14.308  0.8815  0.0177  0.2944
  787MPD2    H711666   0.008   3.619  14.387  1.3881 -0.0635  0.6896
  788MPD2     C11667   2.113   2.831   0.907  0.1706  0.3440 -0.2290
  788MPD2    C111668   2.036   2.743   0.835  0.6152  0.0444 -0.7937
  788MPD2    C211669   1.944   2.796   0.749  0.1977 -0.1530 -0.0203
  788MPD2    C311670   1.918   2.931   0.730  0.2787  0.8296  0.2285
  788MPD2    C411671   2.004   3.021   0.793  0.2131 -0.6012 -0.5957
  788MPD2    C511672   2.096   2.969   0.894 -0.6965  0.0202  0.0060
  788MPD2     H11673   1.889   2.729   0.684 -1.0796  0.5165  0.3812
  788MPD2    H111674   1.984   3.127   0.782 -1.2876 -1.0455 -2.0790
  788MPD2    H211675   2.196   2.807   0.972  0.3193  0.5850 -0.3311
  788MPD2    H311676   2.155   3.042   0.948 -0.7425  0.5263 -0.6361
  788MPD2     N11677   1.830   2.979   0.635  0.3397 -0.3741  0.0849
  788MPD2    H511678   1.836   3.079   0.618 -0.2858 -0.3111  0.2147
  788MPD2    N111679   2.065   2.603   0.831  0.0009 -1.0642  0.1252
  788MPD2    H711680   2.011   2.546   0.766 -0.7479 -2.1373  1.6754
  789MPD2     C11681   2.448   1.898  16.398 -0.6123 -0.2743 -0.2587
  789MPD2    C111682   2.350   1.877  16.493 -0.4474  0.0526 -0.1445
  789MPD2    C211683   2.287   1.987  16.546 -0.5055  1.2291 -0.8777
  789MPD2    C311684   2.327   2.117  16.503 -0.7254 -0.2986 -0.3676
  789MPD2    C411685   2.434   2.130  16.415  0.4447  0.0332  0.0498
  789MPD2    C511686   2.494   2.021  16.361  0.5407  0.0332  0.4512
  789MPD2     H11687   2.200   1.980  16.610  0.8967  1.1949  1.0104
  789MPD2    H111688   2.478   2.227  16.392  0.3320  0.4220  1.4604
  789MPD2    H211689   2.486   1.802  16.363 -2.4866  0.7131 -5.0280
  789MPD2    H311690   2.574   2.038  16.289 -0.2841  0.3606 -0.3937
  789MPD2     N11691   2.258   2.230  16.562  0.1447  0.0380 -0.4851
  789MPD2    H511692   2.194   2.212  16.638  2.2307  0.1961  1.3108
  789MPD2    N111693   2.294   1.752  16.531  0.4107  0.4916 -0.5236
  789MPD2    H711694   2.214   1.759  16.593  1.1446 -2.5364  0.7859
  790MPD2     C11695   3.275   3.571  13.684 -0.8673  0.2946  0.6685
  790MPD2    C111696   3.285   3.446  13.627 -0.2398 -0.0380  0.5789
  790MPD2    C211697   3.207   3.411  13.519  0.0067  0.8491 -0.2012
  790MPD2    C311698   3.105   3.495  13.472  0.2907 -0.0737 -0.6294
  790MPD2    C411699   3.099   3.623  13.531 -0.0504  0.1391  0.4464
  790MPD2    C511700   3.189   3.660  13.627 -0.0789 -0.3050  0.0210
  790MPD2     H11701   3.208   3.310  13.479  0.3266  1.0306 -0.6519
  790MPD2    H111702   3.036   3.703  13.494  0.0608  0.5569  1.1589
  790MPD2    H211703   3.341   3.610  13.760  0.2220  1.6349 -0.9625
  790MPD2    H311704   3.184   3.759  13.672  0.0713 -1.1542  1.9048
  790MPD2     N11705   3.015   3.458  13.369 -1.1479  0.0031 -0.4496
  790MPD2    H511706   3.040   3.368  13.327 -0.5428  0.6151 -1.4045
  790MPD2    N111707   3.392   3.366  13.677 -0.6775 -0.0063  0.0103
  790MPD2    H711708   3.454   3.411  13.744 -0.1660 -1.3599  0.4356
  791MPD2     C11709   2.207   3.491  13.311 -0.1441 -0.3786  0.0418
  791MPD2    C111710   2.283   3.424  13.216  0.0551 -0.5814  0.0423
  791MPD2    C211711   2.222   3.331  13.138 -0.3775 -0.8215  0.1670
  791MPD2    C311712   2.083   3.317  13.143  0.1208  0.6636 -0.0419
  791MPD2    C411713   2.009   3.384  13.238 -0.4213 -0.1532 -0.1158
  791MPD2    C511714   2.070   3.471  13.320 -0.3388 -0.2648 -0.3537
  791MPD2     H11715   2.278   3.263  13.076 -1.2657 -1.3707 -0.0344
  791MPD2    H111716   1.907   3.363  13.266 -1.6350  2.8044 -2.4450
  791MPD2    H211717   2.261   3.564  13.371  0.0538 -0.9332  0.5340
  791MPD2    H311718   2.023   3.513  13.408  0.3665  0.4427 -0.3059
  791MPD2     N11719   2.026   3.213  13.061 -0.0821 -0.3147 -0.2025
  791MPD2    H511720   2.096   3.161  13.010  1.4232  1.5808 -0.0798
  791MPD2    N111721   2.423   3.453  13.201  0.2356 -0.5495 -0.0128
  791MPD2    H711722   2.458   3.516  13.273 -1.7481 -1.2273  1.5345
  792MPD2     C11723   3.326   2.852  10.993 -0.3766  0.0810 -0.2063
  792MPD2    C111724   3.228   2.909  11.072  0.0242  0.0688 -1.0378
  792MPD2    C211725   3.110   2.847  11.073  1.4606  0.4186  0.4896
  792MPD2    C311726   3.084   2.732  11.001 -0.0748  0.0272  0.6347
  792MPD2    C411727   3.174   2.687  10.912  0.3903 -0.4554 -0.1429
  792MPD2    C511728   3.298   2.739  10.910  0.0365 -0.0827 -0.0915
  792MPD2     H11729   3.024   2.891  11.122  0.6619 -1.3648  0.6821
  792MPD2    H111730   3.161   2.604  10.844  0.9411  0.1259 -0.9498
  792MPD2    H211731   3.424   2.898  10.987 -0.6276  0.3967 -1.7895
  792MPD2    H311732   3.377   2.705  10.846 -0.1299 -0.2260 -0.2199
  792MPD2     N11733   2.962   2.670  11.001 -0.0885  0.0096  0.1075
  792MPD2    H511734   2.966   2.576  10.964 -4.1807  0.0966 -0.5803
  792MPD2    N111735   3.264   3.021  11.143 -0.3174 -0.1311 -0.3169
  792MPD2    H711736   3.357   3.057  11.124  0.2547 -2.4485 -1.9428
  793MPD2     C11737   2.150   2.727  10.595  0.2018  0.1611 -0.5816
  793MPD2    C111738   2.270   2.792  10.611  0.2666 -0.2871 -0.3810
  793MPD2    C211739   2.353   2.733  10.705 -0.1400  0.4777  0.4804
  793MPD2    C311740   2.326   2.634  10.787  0.2823 -0.5502 -0.5157
  793MPD2    C411741   2.203   2.578  10.782  0.3298 -0.3042 -0.2658
  793MPD2    C511742   2.111   2.632  10.688  0.0703 -0.5915 -0.2108
  793MPD2     H11743   2.447   2.788  10.711  0.4093 -0.3823 -0.2897
  793MPD2    H111744   2.171   2.505  10.856  0.5784  0.9729  1.0910
  793MPD2    H211745   2.078   2.752  10.517 -0.8831 -1.5901 -0.1588
  793MPD2    H311746   2.019   2.575  10.682  1.0314 -2.4308  2.5922
  793MPD2     N11747   2.432   2.594  10.873 -0.4574 -0.5712  0.4627
  793MPD2    H511748   2.525   2.635  10.872 -0.6676 -0.1177 -0.7712
  793MPD2    N111749   2.328   2.892  10.521 -0.3705  0.2933  0.0631
  793MPD2    H711750   2.418   2.935  10.543 -0.3088 -0.6358  1.6374
  794MPD2     C11751   3.355   2.759  16.680 -0.6278 -0.5770 -0.7031
  794MPD2    C111752   3.233   2.793  16.741  0.0182 -0.4013  0.5121
  794MPD2    C211753   3.124   2.832  16.661 -0.3475  0.0547 -0.0298
  794MPD2    C311754   3.137   2.837  16.528  0.2161  0.5335  0.3619
  794MPD2    C411755   3.249   2.781  16.471  0.8932 -0.0557 -0.7839
  794MPD2    C511756   3.354   2.742  16.544  0.7676 -0.0407  0.2392
  794MPD2     H11757   3.030   2.846  16.713 -0.8439 -0.7116 -0.7148
  794MPD2    H111758   3.259   2.769  16.363  0.9821 -0.1058 -0.7702
  794MPD2    H211759   3.434   2.708  16.733 -2.6874  0.1521  3.0717
  794MPD2    H311760   3.434   2.696  16.488  0.0347 -1.5574  0.4358
  794MPD2     N11761   3.036   2.889  16.443  0.4238  0.4456 -0.0217
  794MPD2    H511762   3.049   2.895  16.343  1.2247  0.9106  0.1134
  794MPD2    N111763   3.203   2.774  16.880 -0.5563 -0.3272  0.0906
  794MPD2    H711764   3.106   2.794  16.903 -0.3774  1.0514 -0.3138
  795MPD2     C11765   0.202   0.393  13.360  0.3429 -0.1132 -0.4531
  795MPD2    C111766   0.178   0.269  13.303  0.2746  0.3188 -0.3823
  795MPD2    C211767   0.261   0.164  13.317  0.4484  0.1858  0.1342
  795MPD2    C311768   0.376   0.169  13.391  0.4087  0.5947 -0.3273
  795MPD2    C411769   0.403   0.286  13.464 -0.9315  0.4084 -0.2061
  795MPD2    C511770   0.319   0.392  13.438  0.0520 -0.5471 -0.5546
  795MPD2     H11771   0.231   0.069  13.274  0.2156  0.6065 -0.6245
  795MPD2    H111772   0.493   0.308  13.520 -0.6412 -2.6713  0.5126
  795MPD2    H211773   0.148   0.483  13.336  0.6329 -0.3519 -1.9927
  795MPD2    H311774   0.339   0.485  13.489 -0.2911 -1.1701  0.7236
  795MPD2     N11775   0.466   0.058  13.393  0.1732 -0.0900  0.1053
  795MPD2    H511776   0.436   4.717  13.346 -1.2837 -0.0209  0.9188
  795MPD2    N111777   0.062   0.251  13.232 -0.4992 -0.0074 -0.7787
  795MPD2    H711778   0.033   0.158  13.206 -3.5527  0.3003  1.4269
  796MPD2     C11779   0.214   1.311  15.986  0.3410 -0.5205  0.6168
  796MPD2    C111780   0.287   1.403  16.057 -0.2070 -0.0025 -0.2789
  796MPD2    C211781   0.304   1.535  16.012  0.5568 -0.0773 -0.0592
  796MPD2    C311782   0.219   1.578  15.909  0.9511 -0.2711  0.1156
  796MPD2    C411783   0.138   1.491  15.838 -0.3264 -0.1904 -0.3531
  796MPD2    C511784   0.129   1.355  15.883 -0.0652  0.6914 -0.5149
  796MPD2     H11785   0.356   1.614  16.064 -1.2841  0.6349  0.7008
  796MPD2    H111786   0.084   1.522  15.750 -0.2050 -1.4348 -0.8638
  796MPD2    H211787   0.206   1.207  16.013  2.1155 -0.7106  0.4584
  796MPD2    H311788   0.070   1.285  15.825 -0.4252  1.8611 -1.5656
  796MPD2     N11789   0.218   1.716  15.882  0.1131  0.8545 -0.6817
  796MPD2    H511790   0.280   1.781  15.928  2.2913  0.0862 -2.5648
  796MPD2    N111791   0.350   1.348  16.170  0.2691 -0.4969 -0.3079
  796MPD2    H711792   0.310   1.258  16.192 -1.1945  0.3855  0.6046
  797MPD2     C11793   1.362   1.117  17.579 -0.0964  0.1407 -0.5333
  797MPD2    C111794   1.366   1.245  17.633 -0.3755  0.3760  0.3585
  797MPD2    C211795   1.254   1.323  17.613 -0.1838 -0.0993 -0.3220
  797MPD2    C311796   1.136   1.273  17.565 -0.5792  0.5405 -0.1483
  797MPD2    C411797   1.134   1.144  17.513  0.2739 -0.0792 -0.0011
  797MPD2    C511798   1.249   1.074  17.522  0.8769 -0.8910 -0.2267
  797MPD2     H11799   1.254   1.426  17.646  0.2132 -0.5715  1.1632
  797MPD2    H111800   1.048   1.098  17.465  1.4090 -0.0868 -2.0371
  797MPD2    H211801   1.455   1.061  17.582  0.3810  1.0654  2.4254
  797MPD2    H311802   1.243   0.973  17.482  0.7338 -0.3658 -1.5388
  797MPD2     N11803   1.026   1.359  17.538  0.2630 -0.8771 -0.1960
  797MPD2    H511804   0.959   1.317  17.475 -1.6569 -1.5355  2.2696
  797MPD2    N111805   1.478   1.310  17.695  0.2217  0.5096 -0.1715
  797MPD2    H711806   1.455   1.402  17.733  0.8666  1.3607 -1.8598
  798MPD2     C11807   1.261   2.017  17.668 -0.0454  0.1356 -0.2950
  798MPD2    C111808   1.223   1.887  17.672 -0.1755 -0.3703  0.0438
  798MPD2    C211809   1.296   1.788  17.739  0.1524 -0.3618  0.8823
  798MPD2    C311810   1.422   1.821   0.010  0.3445  0.2462  0.0989
  798MPD2    C411811   1.475   1.945  17.762  0.7451 -0.0922 -0.1624
  798MPD2    C511812   1.387   2.038  17.713  0.3048 -0.2560 -0.2672
  798MPD2     H11813   1.258   1.687  17.746 -0.5185 -0.3131 -1.8829
  798MPD2    H111814   1.579   1.970   0.011  0.5311 -0.1825  1.1821
  798MPD2    H211815   1.204   2.101  17.630  1.4167  0.5655 -1.5054
  798MPD2    H311816   1.432   2.136  17.697 -1.4657  0.2724 -2.0592
  798MPD2     N11817   1.502   1.712   0.052  0.0393  0.1825  0.4038
  798MPD2    H511818   1.459   1.620   0.059 -1.9536  0.9937 -1.2862
  798MPD2    N111819   1.104   1.835  17.614 -0.0594 -0.4529  0.6627
  798MPD2    H711820   1.086   1.736  17.628  1.0760 -0.6731  0.5582
  799MPD2     C11821   4.545   2.967  14.457 -0.5701  0.4587  0.2152
  799MPD2    C111822   4.596   2.878  14.363 -0.6116  0.5685 -0.3507
  799MPD2    C211823   4.646   2.924  14.243  0.4531  0.0686 -0.0199
  799MPD2    C311824   4.666   3.060  14.216 -0.2340  0.1184 -0.4677
  799MPD2    C411825   4.630   3.150  14.313  0.9624  0.2122 -0.8818
  799MPD2    C511826   4.570   3.099  14.430  1.1663  0.8101 -0.5505
  799MPD2     H11827   4.673   2.854  14.166  2.0006  0.5107  0.1129
  799MPD2    H111828   4.632   3.258  14.308 -0.3956  0.2544 -0.4342
  799MPD2    H211829   4.494   2.937  14.548  0.6347 -0.4556  0.5917
  799MPD2    H311830   4.538   3.169  14.506 -2.9937 -2.1810  0.4406
  799MPD2     N11831   4.710   3.101  14.089 -0.0074 -0.0176 -0.1595
  799MPD2    H511832   4.725   3.200  14.074 -1.6252  0.4889  1.4738
  799MPD2    N111833   4.587   2.739  14.393  0.0557 -0.3072 -0.0287
  799MPD2    H711834   4.532   2.733  14.478  1.9337  0.3208  1.2245
  800MPD2     C11835   0.038   4.079  13.981  0.2515  0.2471  0.0683
  800MPD2    C111836   0.130   3.984  13.945  0.5480  0.0679  0.8646
  800MPD2    C211837   0.099   3.901  13.836 -0.4894  0.3812 -0.5704
  800MPD2    C311838   4.726   3.906  13.767 -0.2342 -0.7923  0.2591
  800MPD2    C411839   4.639   3.997  13.808  0.4578 -0.2142 -0.1037
  800MPD2    C511840   4.667   4.092  13.905  0.0149  0.4295 -0.1681
  800MPD2     H11841   0.174   3.832  13.799 -2.3488 -1.1711 -1.4801
  800MPD2    H111842   4.543   4.006  13.760  1.6732  1.2112 -2.2604
  800MPD2    H211843   0.062   4.152  14.058 -1.6551  1.8279 -0.8330
  800MPD2    H311844   4.582   4.155  13.929 -0.4657 -0.2430 -0.1100
  800MPD2     N11845   4.715   3.814  13.658 -1.4701  0.5560 -0.4212
  800MPD2    H511846   0.056   3.760  13.642 -0.5602  1.0663  2.5909
  800MPD2    N111847   0.266   3.995  13.987  0.0472  0.9282  0.2941
  800MPD2    H711848   0.291   4.073  14.048 -1.1250  0.8785  0.8309
  801MPD2     C11849   0.486   4.606  13.823  0.7165 -0.5293  0.4411
  801MPD2    C111850   0.443   4.524  13.927  0.1811 -0.0476 -0.1459
  801MPD2    C211851   0.365   4.566  14.029  0.0939  0.0159  0.7559
  801MPD2    C311852   0.313   4.697  14.027  0.2268 -0.4841  0.3478
  801MPD2    C411853   0.333   0.034  13.910  0.0229  0.9636 -1.5382
  801MPD2    C511854   0.423   4.735  13.816  0.4680  0.0146 -0.1973
  801MPD2     H11855   0.340   4.502  14.113 -0.4693 -0.5496  0.1584
  801MPD2    H111856   0.295   0.136  13.903  0.2558  1.1573  0.1824
  801MPD2    H211857   0.541   4.564  13.740  0.4668  0.9761 -0.4944
  801MPD2    H311858   0.448   0.055  13.732  2.4087 -0.7037 -0.1524
  801MPD2     N11859   0.236   4.740  14.130 -0.5430  0.6535 -0.0647
  801MPD2    H511860   0.212   4.677  14.205 -0.5963 -0.0059 -0.6367
  801MPD2    N111861   0.483   4.387  13.934  0.8306 -0.0002  0.6987
  801MPD2    H711862   0.438   4.335  14.009 -0.3607 -2.0027 -1.4240
  802MPD2     C11863   4.570   0.522  17.605  0.7093 -0.1309  0.5076
  802MPD2    C111864   4.689   0.549  17.664 -0.2374 -0.3174 -0.1732
  802MPD2    C211865   0.041   0.445  17.667  0.1142  0.4101 -0.6447
  802MPD2    C311866   0.016   0.327  17.601  0.0396  0.2546 -0.1343
  802MPD2    C411867   4.634   0.311  17.527  0.3432 -0.0401  0.2086
  802MPD2    C511868   4.547   0.409  17.531  0.1150  0.1355 -0.4387
  802MPD2     H11869   0.136   0.458  17.719 -0.0242 -2.2268  0.2609
  802MPD2    H111870   4.623   0.221  17.468  2.3836  0.3933 -0.8446
  802MPD2    H211871   4.495   0.599  17.591  0.5596 -0.3985 -0.1830
  802MPD2    H311872   4.465   0.398  17.460  1.2835  0.1764 -1.8078
  802MPD2     N11873   0.113   0.226  17.611  0.4403 -0.3525 -0.7635
  802MPD2    H511874   0.201   0.256  17.652  0.2874 -0.6225 -0.2293
  802MPD2    N111875   4.714   0.669  17.740 -1.0017  0.2074  0.2424
  802MPD2    H711876   0.061   0.677   0.016 -0.8501  1.3263 -0.2603
  803MPD2     C11877   1.085   3.516  11.939 -0.8528 -0.0544  0.8461
  803MPD2    C111878   1.165   3.435  12.019 -0.4262 -0.2728  0.6872
  803MPD2    C211879   1.122   3.409  12.149 -0.6755 -0.2156 -1.0057
  803MPD2    C311880   0.995   3.436  12.187 -0.1601  0.3420  0.8759
  803MPD2    C411881   0.906   3.499  12.094  0.5989  0.2579  0.4459
  803MPD2    C511882   0.953   3.538  11.972  0.3876 -0.3204  0.4738
  803MPD2     H11883   1.189   3.364  12.222  1.2824  2.0830 -1.3740
  803MPD2    H111884   0.810   3.539  12.123 -0.7312 -3.0210  0.5530
  803MPD2    H211885   1.113   3.544  11.838 -1.1643  1.1447  1.0960
  803MPD2    H311886   0.892   3.591  11.900  0.8096  0.0218  0.3664
  803MPD2     N11887   0.951   3.423  12.321 -0.1145 -0.3499 -0.2575
  803MPD2    H511888   0.862   3.468  12.340 -0.3165 -0.2006 -1.5259
  803MPD2    N111889   1.298   3.416  11.980  0.3082  0.2974  0.5056
  803MPD2    H711890   1.369   3.379  12.042  1.9130 -1.0931 -2.1749
  804MPD2     C11891   0.724   0.037  17.176 -0.6794 -0.3651 -0.6564
  804MPD2    C111892   0.816   4.731  17.267  0.2847  0.6238 -0.2223
  804MPD2    C211893   0.898   0.080  17.339 -0.6083  0.3341  0.6414
  804MPD2    C311894   0.898   0.220  17.312 -0.0911 -0.2929 -0.3292
  804MPD2    C411895   0.808   0.264  17.217  0.3065 -0.6705 -0.0303
  804MPD2    C511896   0.729   0.169  17.149 -0.3615  0.5818 -0.3139
  804MPD2     H11897   0.966   0.048  17.417 -0.2309 -0.2409  0.0718
  804MPD2    H111898   0.788   0.370  17.203  1.9768 -0.1287  1.5267
  804MPD2    H211899   0.654   4.725  17.115 -1.2602 -0.8232  0.4292
  804MPD2    H311900   0.660   0.202  17.072  1.0242  0.9271 -1.4303
  804MPD2     N11901   0.980   0.308  17.383  0.8823  0.4747  0.4327
  804MPD2    H511902   1.023   0.264  17.464  1.4698  1.8674  0.8786
  804MPD2    N111903   0.817   4.595  17.306  0.6556 -0.0567 -0.6459
  804MPD2    H711904   0.865   4.570  17.392 -1.2174 -2.8466 -0.4244
  805MPD2     C11905   4.588   3.154  15.550 -0.4958 -0.2402 -1.0832
  805MPD2    C111906   4.679   3.182  15.450  0.1162  0.3408  0.6527
  805MPD2    C211907   0.067   3.153  15.472  0.5282  0.6676 -0.3976
  805MPD2    C311908   0.113   3.089  15.586 -0.0715  0.3381  0.0805
  805MPD2    C411909   0.027   3.050  15.676 -0.0260  0.2219 -0.6944
  805MPD2    C511910   4.635   3.084  15.663  0.1499 -0.1322 -0.1054
  805MPD2     H11911   0.140   3.165  15.393  0.9681  0.9951  0.0629
  805MPD2    H111912   0.050   3.005  15.772 -3.1172 -0.0348 -0.0805
  805MPD2    H211913   4.481   3.170  15.550 -0.4172  0.2528 -2.4069
  805MPD2    H311914   4.562   3.063  15.741 -1.4327  1.2044 -1.2215
  805MPD2     N11915   0.250   3.072  15.596  0.1291 -0.5879  0.6228
  805MPD2    H511916   0.298   3.105  15.513 -1.6198  1.1814  0.3209
  805MPD2    N111917   4.643   3.248  15.329  0.0510  0.6980 -0.3991
  805MPD2    H711918   4.719   3.298  15.283 -0.9448  2.8772  0.2940
  806MPD2     C11919   0.689   2.568   0.177 -0.1984 -0.2300  0.2904
  806MPD2    C111920   0.604   2.662   0.228 -0.8468 -0.0056 -0.8298
  806MPD2    C211921   0.646   2.797   0.222 -0.8571  0.0721  0.7059
  806MPD2    C311922   0.771   2.833   0.175 -0.4577 -0.2079  0.6942
  806MPD2    C411923   0.856   2.729   0.130  0.9566 -1.2237  0.0748
  806MPD2    C511924   0.813   2.600   0.131 -0.2347 -0.0049  0.3679
  806MPD2     H11925   0.592   2.881   0.264  1.3797  1.2748  1.1796
  806MPD2    H111926   0.948   2.747   0.076  1.5488 -1.3548  1.0383
  806MPD2    H211927   0.659   2.466   0.158 -3.0244  0.2671  2.1794
  806MPD2    H311928   0.886   2.526   0.100  1.8466  2.5169 -0.7460
  806MPD2     N11929   0.810   2.966   0.168  0.0559  0.2754  0.3682
  806MPD2    H511930   0.737   3.032   0.191  0.2195 -0.1210  1.9906
  806MPD2    N111931   0.478   2.624   0.278 -0.3937 -0.2781 -0.1589
  806MPD2    H711932   0.469   2.524   0.292 -1.3948 -0.2910 -0.8912
  807MPD2     C11933   0.281   1.982   0.183  0.7274  0.2565  0.1868
  807MPD2    C111934   0.219   2.016   0.302 -0.8431 -0.3352 -1.0429
  807MPD2    C211935   0.190   1.918   0.394 -0.6000  0.7695  0.5796
  807MPD2    C311936   0.224   1.791   0.374 -0.0603 -0.0156 -0.3266
  807MPD2    C411937   0.292   1.752   0.262 -0.1070 -0.0860  1.0564
  807MPD2    C511938   0.317   1.846   0.165 -0.2760 -0.0486  0.4675
  807MPD2     H11939   0.132   1.951   0.480  1.6810 -1.5449  3.0249
  807MPD2    H111940   0.321   1.649   0.244  0.9186  0.5096 -0.6693
  807MPD2    H211941   0.290   2.042   0.094 -1.9091  0.2823 -0.0740
  807MPD2    H311942   0.378   1.811   0.082  0.5081  0.8427  0.6647
  807MPD2     N11943   0.189   1.707   0.480 -0.4095 -0.0958 -0.3937
  807MPD2    H511944   0.138   1.738   0.563  1.4585  0.1665  0.6438
  807MPD2    N111945   0.199   2.147   0.349 -0.3454  0.0819  0.2308
  807MPD2    H711946   0.146   2.154   0.435 -1.9976 -0.7825 -0.7130
  808MPD2     C11947   0.307   3.703  10.212  0.0117  1.0695  0.0676
  808MPD2    C111948   0.418   3.627  10.185  0.4891 -0.3695 -0.9428
  808MPD2    C211949   0.533   3.696  10.161 -0.0989  0.5161 -0.6256
  808MPD2    C311950   0.545   3.834  10.173 -0.3734 -0.2508 -0.0697
  808MPD2    C411951   0.430   3.902  10.204 -0.0608 -0.2164 -0.1721
  808MPD2    C511952   0.314   3.841  10.227  0.5564  0.4310 -0.4185
  808MPD2     H11953   0.622   3.639  10.138  0.2783  0.1890  1.6808
  808MPD2    H111954   0.435   4.009  10.224 -0.5558 -0.2542  0.1482
  808MPD2    H211955   0.208   3.661  10.227  0.6662  0.3456  2.5159
  808MPD2    H311956   0.221   3.894  10.241  0.7391  0.4901  0.5636
  808MPD2     N11957   0.664   3.905  10.134  0.1031  0.2591  0.0727
  808MPD2    H511958   0.668   4.003  10.159 -0.7479  0.3392 -0.1130
  808MPD2    N111959   0.403   3.487  10.171  0.3535  0.8004 -0.4901
  808MPD2    H711960   0.490   3.435  10.166 -0.1788 -0.1569  0.3810
  809MPD2     C11961   1.542   3.658   9.660  0.6174 -0.2362  0.4902
  809MPD2    C111962   1.542   3.751   9.756 -0.2694 -0.2193 -0.6852
  809MPD2    C211963   1.423   3.816   9.791 -0.0287  0.5660 -0.6553
  809MPD2    C311964   1.307   3.774   9.736  0.0012 -0.4803 -0.2847
  809MPD2    C411965   1.303   3.673   9.644  0.2967 -0.3633  0.5716
  809MPD2    C511966   1.422   3.618   9.604  0.0662 -0.8667  0.1336
  809MPD2     H11967   1.430   3.892   9.868  0.2109  0.1261 -0.2473
  809MPD2    H111968   1.216   3.636   9.593  1.2588  0.3391 -1.6064
  809MPD2    H211969   1.633   3.606   9.635  0.5083  1.1752 -2.8763
  809MPD2    H311970   1.410   3.529   9.544 -3.7942  0.0284 -0.3803
  809MPD2     N11971   1.186   3.835   9.774 -0.0325 -0.1823  0.3983
  809MPD2    H511972   1.104   3.788   9.737  0.6661 -0.1710 -1.1547
  809MPD2    N111973   1.657   3.788   9.835  0.2964  0.4164  0.2134
  809MPD2    H711974   1.649   3.870   9.893 -2.2763 -0.0178  0.4950
  810MPD2     C11975   0.495   3.621  10.994  0.3388  0.0589  0.4537
  810MPD2    C111976   0.405   3.616  10.891  0.6304 -0.9044  0.2920
  810MPD2    C211977   0.370   3.730  10.826  0.1626 -0.4619  0.1090
  810MPD2    C311978   0.428   3.853  10.860  0.4356  0.8205  0.1862
  810MPD2    C411979   0.523   3.858  10.961  0.6399  0.2105 -0.1921
  810MPD2    C511980   0.556   3.743  11.023  0.3199  0.1932 -0.2577
  810MPD2     H11981   0.301   3.719  10.744  0.9375 -0.6191 -0.5187
  810MPD2    H111982   0.572   3.944  11.005 -1.8370  1.7212 -0.3699
  810MPD2    H211983   0.522   3.530  11.045  1.7038 -0.2766 -0.8686
  810MPD2    H311984   0.641   3.745  11.089 -0.0813  2.0085  0.2150
  810MPD2     N11985   0.396   3.978  10.801 -0.3304 -0.4270 -0.2493
  810MPD2    H511986   0.457   4.057  10.823 -1.1443  0.3356 -0.7461
  810MPD2    N111987   0.343   3.493  10.856  0.7238 -0.0631 -0.3859
  810MPD2    H711988   0.276   3.501  10.780  0.5634  4.3234  0.2148
  811MPD2     C11989   4.612   3.087  10.283 -0.1514  0.0554 -0.7249
  811MPD2    C111990   4.685   3.189  10.342 -0.6479  0.3861 -0.3548
  811MPD2    C211991   4.676   3.308  10.275  0.0590  0.7093  0.3487
  811MPD2    C311992   4.609   3.326  10.157 -0.1743 -0.1332  0.1259
  811MPD2    C411993   4.537   3.226  10.108 -0.5338  0.1058  0.1509
  811MPD2    C511994   4.527   3.112  10.181 -0.0603 -0.1652 -0.2574
  811MPD2     H11995   4.733   3.396  10.303  0.5537 -0.2515  2.3444
  811MPD2    H111996   4.476   3.225  10.018 -0.6752  1.2278  0.2375
  811MPD2    H211997   4.614   2.985  10.320  0.3045  0.1371 -0.5188
  811MPD2    H311998   4.466   3.030  10.146 -0.1275 -0.4505  0.5452
  811MPD2     N11999   4.637   3.452  10.088 -0.6060  0.1300  0.4013
  811MPD2    H512000   4.719   3.498  10.125  0.5503 -1.6960  0.1049
  811MPD2    N112001   0.006   3.161  10.462 -0.1175 -0.0474  0.5546
  811MPD2    H712002   4.738   3.070  10.506  1.0068 -0.2698  0.3752
  812MPD2     C12003   3.731   3.016  12.150 -0.0826  0.0673  0.0229
  812MPD2    C112004   3.701   3.130  12.223 -0.1666  0.1657  0.3447
  812MPD2    C212005   3.661   3.116  12.357  0.1007  0.1425 -0.2293
  812MPD2    C312006   3.633   2.991  12.406 -0.2826 -0.1342 -0.4897
  812MPD2    C412007   3.666   2.878  12.332 -0.5874  0.0284 -0.2307
  812MPD2    C512008   3.712   2.889  12.200 -0.0237 -0.2988 -0.6997
  812MPD2     H12009   3.639   3.206  12.414  0.0977  0.6852 -1.0880
  812MPD2    H112010   3.656   2.779  12.374  0.4409 -0.2078 -0.5355
  812MPD2    H212011   3.771   3.024  12.049  1.0152  0.2016  0.4657
  812MPD2    H312012   3.726   2.801  12.139  0.2285 -1.6933  1.3480
  812MPD2     N12013   3.570   2.993  12.533 -0.0236 -0.5017 -0.1441
  812MPD2    H512014   3.569   3.082  12.581  0.3284 -0.6810  0.1968
  812MPD2    N112015   3.697   3.259  12.162 -0.6046 -0.2423  0.1386
  812MPD2    H712016   3.708   3.263  12.061  1.0474  1.3940  0.3723
  813MPD2     C12017   2.153   0.319  13.139  0.4862  0.0770  0.3194
  813MPD2    C112018   2.258   0.410  13.164 -0.9527  0.6340 -0.3679
  813MPD2    C212019   2.223   0.515  13.238  0.4941  0.2558 -0.2273
  813MPD2    C312020   2.099   0.532  13.294  0.5295  0.6223  0.5813
  813MPD2    C412021   1.999   0.433  13.285  0.2114  0.7353  0.3769
  813MPD2    C512022   2.029   0.324  13.204  0.0832  0.6428  0.0738
  813MPD2     H12023   2.294   0.593  13.260  0.4742  0.2286 -0.0691
  813MPD2    H112024   1.898   0.447  13.322  0.6469  0.0003  1.8327
  813MPD2    H212025   2.166   0.231  13.077 -1.3140  0.8984 -1.2456
  813MPD2    H312026   1.955   0.246  13.203 -0.2388  0.9833 -1.4983
  813MPD2     N12027   2.083   0.647  13.384 -0.0711 -0.3176  0.2509
  813MPD2    H512028   2.167   0.701  13.404  0.8688 -1.2602 -1.2475
  813MPD2    N112029   2.391   0.398  13.121  0.4809  0.7292  0.0894
  813MPD2    H712030   2.449   0.475  13.152  0.5683 -0.6605  3.2928
  814MPD2     C12031   3.409   1.576  12.868  0.2056  1.0146 -0.0384
  814MPD2    C112032   3.452   1.636  12.749 -0.5088 -0.3559 -0.4209
  814MPD2    C212033   3.436   1.772  12.735  0.4633 -0.1239  0.2680
  814MPD2    C312034   3.352   1.843  12.820 -0.5993  0.6735 -0.3559
  814MPD2    C412035   3.285   1.777  12.922 -0.0605 -0.0385  0.4763
  814MPD2    C512036   3.334   1.653  12.953 -0.2082 -0.3599 -0.2788
  814MPD2     H12037   3.480   1.815  12.646 -0.4400 -0.8979 -0.5575
  814MPD2    H112038   3.215   1.821  12.992 -3.0753 -1.0635 -1.9385
  814MPD2    H212039   3.432   1.473  12.894  1.5823  1.5867  1.0448
  814MPD2    H312040   3.286   1.603  13.036 -2.8730  1.8009 -0.5131
  814MPD2     N12041   3.343   1.989  12.816 -0.6535 -0.1687  0.3319
  814MPD2    H512042   3.294   2.023  12.898  1.8012  1.3299  1.1946
  814MPD2    N112043   3.501   1.556  12.637 -0.3826  0.5504  0.3744
  814MPD2    H712044   3.548   1.604  12.562 -1.2543 -0.4959 -0.8381
  815MPD2     C12045   4.014   4.383  12.402  0.0683  0.9924 -0.8639
  815MPD2    C112046   3.979   4.441  12.282 -0.4639 -0.1911 -0.8413
  815MPD2    C212047   3.898   4.549  12.284  0.4194 -0.4254 -0.0811
  815MPD2    C312048   3.841   4.606  12.393  0.0503  0.6968 -0.2076
  815MPD2    C412049   3.884   4.548  12.514 -0.5724  0.2558  0.3883
  815MPD2    C512050   3.966   4.439  12.522 -0.2721 -0.2666  0.2725
  815MPD2     H12051   3.866   4.596  12.192  1.8139  0.8745  0.0902
  815MPD2    H112052   3.845   4.590  12.606 -1.2875  1.2802 -0.3648
  815MPD2    H212053   4.081   4.298  12.408  1.2820  1.8335 -2.6147
  815MPD2    H312054   3.999   4.405  12.619 -0.2535  0.8116  0.6411
  815MPD2     N12055   3.737   4.690  12.364  0.2709 -0.3373  0.3045
  815MPD2    H512056   3.717   4.710  12.267  1.5827 -0.3020  0.0329
  815MPD2    N112057   4.016   4.368  12.164 -0.3992 -1.0759 -0.0441
  815MPD2    H712058   4.035   4.269  12.176 -2.0327 -1.5846 -1.6771
  816MPD2     C12059   4.616   4.259  17.171  0.7257  0.0844 -0.0395
  816MPD2    C112060   4.505   4.204  17.116  0.3059 -0.4434 -0.0290
  816MPD2    C212061   4.511   4.143  16.992 -0.4792 -0.3741 -0.1235
  816MPD2    C312062   4.628   4.148  16.921 -0.0943 -0.3022  0.0876
  816MPD2    C412063   4.741   4.201  16.978  0.3216 -0.2658 -0.4093
  816MPD2    C512064   4.739   4.251  17.103 -0.1477 -0.1436  0.1293
  816MPD2     H12065   4.417   4.108  16.952 -0.6125 -0.5440  0.3355
  816MPD2    H112066   0.095   4.208  16.930  0.6310  1.0635  0.4215
  816MPD2    H212067   4.601   4.294  17.273 -0.1599  0.2572 -0.2274
  816MPD2    H312068   0.082   4.294  17.154 -1.1860  0.3826  1.4311
  816MPD2     N12069   4.630   4.090  16.795 -0.4515 -0.2283  0.2766
  816MPD2    H512070   4.541   4.096  16.747 -0.5952 -2.5847  0.2620
  816MPD2    N112071   4.386   4.198  17.193  0.4950  0.9433  0.3338
  816MPD2    H712072   4.381   4.261  17.273  3.5762  2.7246 -0.8680
  817MPD2     C12073   3.390   0.831   9.953 -0.4929  0.4287  0.6293
  817MPD2    C112074   3.350   0.752   9.854  0.3128 -0.6309 -0.5502
  817MPD2    C212075   3.255   0.798   9.764 -0.1019 -0.0855  0.7943
  817MPD2    C312076   3.208   0.928   9.765  0.6676  0.3332 -0.1170
  817MPD2    C412077   3.260   1.016   9.863 -0.3196 -0.0465 -0.5564
  817MPD2    C512078   3.358   0.972   9.949  0.3748  0.0862  0.7749
  817MPD2     H12079   3.205   0.731   9.694  1.3003 -0.8027  0.4775
  817MPD2    H112080   3.237   1.122   9.869  0.5055  0.0441  1.2647
  817MPD2    H212081   3.451   0.796  10.035 -0.2894 -0.8499 -0.0749
  817MPD2    H312082   3.408   1.043  10.013 -0.6996 -0.1639  1.9103
  817MPD2     N12083   3.103   0.959   9.683 -0.2069  0.4250  0.4592
  817MPD2    H512084   3.095   0.885   9.614 -3.0152  2.2670 -1.1376
  817MPD2    N112085   3.391   0.620   9.826 -0.3166  0.1830 -0.4099
  817MPD2    H712086   3.353   0.578   9.742 -0.7812 -1.0269  0.4039
  818MPD2     C12087   2.817   0.593  10.308  0.4319  0.1320  0.1441
  818MPD2    C112088   2.683   0.548  10.311 -0.1379 -0.7670 -0.0751
  818MPD2    C212089   2.671   0.410  10.314  0.5122  0.3396 -0.1670
  818MPD2    C312090   2.782   0.332  10.318  0.1144  0.6432 -0.2823
  818MPD2    C412091   2.908   0.378  10.303 -0.3608  0.1922  0.0899
  818MPD2    C512092   2.928   0.511  10.306 -0.0440 -0.1700 -0.3147
  818MPD2     H12093   2.574   0.362  10.313  0.5689  0.1933  2.7373
  818MPD2    H112094   2.998   0.318  10.307 -1.9866 -2.1494  1.3260
  818MPD2    H212095   2.829   0.701  10.309 -1.4867  0.3615 -2.2014
  818MPD2    H312096   3.027   0.552  10.287  0.2778 -0.1563  1.3666
  818MPD2     N12097   2.756   0.196  10.340 -0.5515  0.1446  0.3373
  818MPD2    H512098   2.661   0.166  10.360 -0.9727  0.8422 -0.6733
  818MPD2    N112099   2.571   0.633  10.329 -0.2029  0.0770  0.4492
  818MPD2    H712100   2.489   0.578  10.353  0.6434 -2.2131 -1.8664
  819MPD2     C12101   0.988   2.948  15.536  0.1223  0.6928 -0.3045
  819MPD2    C112102   0.897   2.856  15.589 -0.3745  0.3306 -0.1503
  819MPD2    C212103   0.946   2.768  15.687 -0.2666  0.3339 -0.2517
  819MPD2    C312104   1.072   2.770  15.737 -0.5563 -0.4885 -0.1870
  819MPD2    C412105   1.161   2.859  15.683 -0.4649 -0.4767 -0.1678
  819MPD2    C512106   1.114   2.946  15.583  0.2834 -0.3498  0.2416
  819MPD2     H12107   0.883   2.688  15.726 -1.4627 -0.2329 -3.3410
  819MPD2    H112108   1.260   2.869  15.725  0.1462 -1.9312 -1.2570
  819MPD2    H212109   0.971   3.027  15.463  0.3520  1.6929  0.7307
  819MPD2    H312110   1.193   3.015  15.553  0.4748 -0.9507 -0.6555
  819MPD2     N12111   1.107   2.678  15.839 -0.0075 -0.0602  0.5831
  819MPD2    H512112   1.032   2.616  15.867 -0.8960  1.4162  1.4575
  819MPD2    N112113   0.762   2.847  15.532 -0.1226  0.0462 -0.7848
  819MPD2    H712114   0.744   2.896  15.445  1.5717 -0.7736 -1.5825
  820MPD2     C12115   0.165   3.081  14.825  0.8978  0.3817  0.6161
  820MPD2    C112116   0.139   3.126  14.951 -0.5898 -0.3936  0.4235
  820MPD2    C212117   0.183   3.053  15.054  0.1454 -0.0739  0.3935
  820MPD2    C312118   0.246   2.930  15.033  0.0940 -0.3400 -0.3414
  820MPD2    C412119   0.273   2.882  14.906  0.8640  0.5457 -0.4247
  820MPD2    C512120   0.232   2.965  14.803 -0.4013 -0.0420 -0.1306
  820MPD2     H12121   0.161   3.091  15.153  1.3083  0.2782  0.5253
  820MPD2    H112122   0.337   2.799  14.880 -0.1392  0.3599 -2.3360
  820MPD2    H212123   0.133   3.143  14.742 -0.4995 -0.2643  0.6722
  820MPD2    H312124   0.255   2.927  14.705 -1.0842  0.0647 -0.3316
  820MPD2     N12125   0.297   2.852  15.140  0.6300 -0.5727  0.2380
  820MPD2    H512126   0.340   2.767  15.105 -0.8551 -0.8462 -0.9517
  820MPD2    N112127   0.065   3.239  14.979 -0.8172  0.1745 -0.3126
  820MPD2    H712128   0.033   3.249  15.075  1.0266  0.2725  0.2791
  821MPD2     C12129   4.694   4.062  12.856  0.0089  0.3759  0.6196
  821MPD2    C112130   0.049   4.068  12.954  0.1250  0.4202 -0.0283
  821MPD2    C212131   0.168   4.140  12.929  0.0333  0.4574 -0.6112
  821MPD2    C312132   0.189   4.208  12.812  0.4755 -0.1972  0.2584
  821MPD2    C412133   0.084   4.214  12.721 -0.2650 -0.5674  0.2797
  821MPD2    C512134   4.712   4.133  12.740  0.3819 -0.1544 -0.2490
  821MPD2     H12135   0.241   4.148  13.009  0.1777  0.4741 -0.7456
  821MPD2    H112136   0.087   4.277  12.633  0.3112  2.0005  2.1321
  821MPD2    H212137   4.595   4.019  12.868 -0.4531  1.4152  0.4931
  821MPD2    H312138   4.638   4.115  12.663 -0.0421  0.0364  0.1114
  821MPD2     N12139   0.307   4.282  12.786  0.1258  0.3429  0.3432
  821MPD2    H512140   0.315   4.341  12.704 -0.9897  1.4235  1.0012
  821MPD2    N112141   0.046   4.000  13.080 -0.4898 -0.6794  0.1715
  821MPD2    H712142   0.139   3.983  13.115  0.2080  3.1247  0.1562
  822MPD2     C12143   1.327   4.056  15.643  0.2751  0.3666  0.8396
  822MPD2    C112144   1.330   4.023  15.778  0.8455 -0.0387 -0.3154
  822MPD2    C212145   1.272   4.109  15.874 -0.1937 -0.0921 -0.2683
  822MPD2    C312146   1.226   4.236  15.840  0.5435  0.7243 -0.0419
  822MPD2    C412147   1.225   4.269  15.703  0.4339  0.6911  0.1940
  822MPD2    C512148   1.276   4.181  15.610 -0.3346  1.0049  0.4086
  822MPD2     H12149   1.269   4.072  15.976  2.3064 -0.3165 -0.2950
  822MPD2    H112150   1.188   4.364  15.664  0.6087 -0.3867 -2.5992
  822MPD2    H212151   1.378   4.005  15.562 -0.5502  2.9533 -1.2846
  822MPD2    H312152   1.288   4.224  15.511 -0.4568  0.2461  0.0648
  822MPD2     N12153   1.180   4.323  15.946  0.9386  0.5266 -0.0298
  822MPD2    H512154   1.188   4.294  16.043  1.5023  2.7986  0.5946
  822MPD2    N112155   1.396   3.906  15.822  0.1401 -0.0535  0.1398
  822MPD2    H712156   1.407   3.904  15.923 -5.0173  1.0059  0.7023
  823MPD2     C12157   0.971   4.593  16.746  0.7068 -0.5993 -0.5103
  823MPD2    C112158   0.986   4.505  16.648  0.1801  0.3947  0.6829
  823MPD2    C212159   0.992   4.373  16.681 -0.1814  0.3275 -0.6260
  823MPD2    C312160   1.009   4.329  16.807 -0.1432 -0.3837  0.0246
  823MPD2    C412161   0.997   4.424  16.907 -0.2541  0.1935  0.5843
  823MPD2    C512162   0.972   4.559  16.873  1.2408 -0.0772 -0.1690
  823MPD2     H12163   0.987   4.304  16.598  0.6464  0.5386 -0.8520
  823MPD2    H112164   1.003   4.402  17.013 -1.1961  1.7993  0.9746
  823MPD2    H212165   0.955   4.697  16.722  0.4348 -0.1003  1.8088
  823MPD2    H312166   0.967   4.637  16.947  0.0203  0.0584 -0.3967
  823MPD2     N12167   1.055   4.200  16.842  0.0700 -0.2089 -0.7179
  823MPD2    H512168   1.080   4.174  16.937  0.0704  1.9562 -0.1296
  823MPD2    N112169   0.994   4.547  16.512 -0.4794  0.4657  0.9397
  823MPD2    H712170   1.025   4.644  16.507 -1.6444  0.7997  0.2512
  824MPD2     C12171   1.578   3.069  15.708 -0.0402  0.2624  0.8509
  824MPD2    C112172   1.694   3.146  15.719  0.9833 -0.4513  0.1905
  824MPD2    C212173   1.819   3.088  15.715 -0.1469 -0.2042  0.0579
  824MPD2    C312174   1.830   2.956  15.687 -0.5355 -0.2659  0.6248
  824MPD2    C412175   1.718   2.877  15.689  0.2523 -0.6628  0.7743
  824MPD2    C512176   1.594   2.931  15.707 -0.4590 -0.4811 -0.0942
  824MPD2     H12177   1.907   3.148  15.735 -0.8525  1.1451 -0.8656
  824MPD2    H112178   1.729   2.771  15.670 -1.1685 -0.2998 -2.1623
  824MPD2    H212179   1.477   3.107  15.716 -0.0183  0.5673 -0.3061
  824MPD2    H312180   1.511   2.861  15.708  0.4121 -1.4899  1.5415
  824MPD2     N12181   1.961   2.905  15.665 -0.4266  0.1378  0.7481
  824MPD2    H512182   2.035   2.970  15.690 -0.0402  0.7196 -1.9591
  824MPD2    N112183   1.687   3.285  15.744  0.6700 -0.9370 -0.0385
  824MPD2    H712184   1.773   3.335  15.764 -0.3848  0.5675  0.7959
  825MPD2     C12185   2.654   3.059  15.179 -0.3901  0.9007  0.5344
  825MPD2    C112186   2.530   3.095  15.225  0.2872  0.2271  0.3110
  825MPD2    C212187   2.500   3.228  15.235  0.3148 -0.0113  0.3255
  825MPD2    C312188   2.579   3.321  15.173 -0.1899  0.6336  0.0616
  825MPD2    C412189   2.689   3.280  15.107 -0.2188  0.4826  0.4966
  825MPD2    C512190   2.737   3.151  15.110  0.1928 -0.5866  0.6084
  825MPD2     H12191   2.414   3.265  15.290 -0.2046  1.7275 -1.6829
  825MPD2    H112192   2.740   3.357  15.051  1.5470 -0.3344  0.9942
  825MPD2    H212193   2.681   2.954  15.177 -2.8269  0.2958 -1.0129
  825MPD2    H312194   2.834   3.125  15.068 -0.7294 -2.0480 -0.5976
  825MPD2     N12195   2.543   3.454  15.165 -0.4960  0.4498  0.4184
  825MPD2    H512196   2.598   3.521  15.113  1.1166  0.0239  1.5907
  825MPD2    N112197   2.449   2.991  15.278  0.1784 -0.2590 -0.0623
  825MPD2    H712198   2.463   2.897  15.241 -1.7857 -0.4834 -0.2020
  826MPD2     C12199   2.115   2.861  14.033 -0.0793 -0.3925 -0.2689
  826MPD2    C112200   2.106   2.947  13.930 -0.2754 -0.2899  0.0367
  826MPD2    C212201   2.025   3.068  13.948  0.0437 -0.7259 -0.3637
  826MPD2    C312202   1.938   3.078  14.053 -0.0524 -0.0259 -0.2858
  826MPD2    C412203   1.936   2.974  14.142 -0.0277  0.2799 -0.2630
  826MPD2    C512204   2.030   2.873  14.138  0.0027  0.3571  0.7499
  826MPD2     H12205   2.009   3.137  13.867 -1.8932 -2.2727 -1.2828
  826MPD2    H112206   1.866   2.973  14.225 -0.3390  0.4682 -0.5285
  826MPD2    H212207   2.170   2.769  14.017  2.3879  0.7537  1.6815
  826MPD2    H312208   2.025   2.790  14.207  0.4784  0.6551  1.1420
  826MPD2     N12209   1.853   3.187  14.071  0.3797  0.0601  0.1122
  826MPD2    H512210   1.790   3.179  14.151  0.0993  0.6769 -0.0451
  826MPD2    N112211   2.202   2.926  13.830 -0.0646 -0.3209 -0.4317
  826MPD2    H712212   2.259   2.843  13.829  0.6656  0.1744 -0.1124
  827MPD2     C12213   2.595   3.797  10.438  0.8391 -0.6304  0.1178
  827MPD2    C112214   2.525   3.850  10.549 -0.2787  0.0551  0.0812
  827MPD2    C212215   2.391   3.826  10.568  0.3992  0.5504 -0.5106
  827MPD2    C312216   2.326   3.756  10.470 -0.6633  0.1971 -1.0228
  827MPD2    C412217   2.387   3.708  10.360 -0.3765  0.0472 -0.0544
  827MPD2    C512218   2.519   3.717  10.351  0.0285 -0.0802 -0.7900
  827MPD2     H12219   2.334   3.849  10.657  2.0878  1.1342  0.4312
  827MPD2    H112220   2.349   3.639  10.286  0.1944 -0.7935  0.4466
  827MPD2    H212221   2.703   3.805  10.428  1.1927 -1.4763  3.0487
  827MPD2    H312222   2.563   3.683  10.258 -0.2996 -1.5299 -0.4186
  827MPD2     N12223   2.186   3.740  10.483 -0.2268  0.1394 -0.8441
  827MPD2    H512224   2.140   3.767  10.569  0.4344 -0.1855 -0.3850
  827MPD2    N112225   2.601   3.909  10.656  0.1741  0.4589  0.2870
  827MPD2    H712226   2.702   3.918  10.652  0.1202  0.3943 -1.0980
  828MPD2     C12227   1.528   4.677  12.266  0.3179 -0.0499 -0.0719
  828MPD2    C112228   1.441   4.608  12.184 -0.3489  0.2898  0.6708
  828MPD2    C212229   1.484   4.526  12.086 -0.1608  0.0794  0.4757
  828MPD2    C312230   1.618   4.494  12.077 -0.1430  0.5289  0.2434
  828MPD2    C412231   1.702   4.553  12.164 -0.1174 -0.1543 -0.4840
  828MPD2    C512232   1.657   4.641  12.255  0.3689  0.5762 -0.9592
  828MPD2     H12233   1.401   4.490  12.027 -0.4245  1.7730 -0.1754
  828MPD2    H112234   1.805   4.524  12.179 -0.5964 -0.8475  1.4846
  828MPD2    H212235   1.499   0.004  12.343 -0.6514 -1.6142  1.0068
  828MPD2    H312236   1.727   4.688  12.324 -2.1561  0.0340  1.9859
  828MPD2     N12237   1.668   4.407  11.979  0.2762  0.3361  0.3837
  828MPD2    H512238   1.766   4.382  11.973 -0.3674 -1.6588 -2.3023
  828MPD2    N112239   1.298   4.621  12.198 -0.5271  1.1307 -0.5280
  828MPD2    H712240   1.241   4.582  12.124  1.0772 -1.6465 -0.2953
  829MPD2     C12241   0.454   4.691  11.738  0.4155 -0.0909  0.2126
  829MPD2    C112242   0.434   4.628  11.864  0.0653 -0.4096  0.1106
  829MPD2    C212243   0.532   4.652  11.960 -0.1413 -0.4109  0.6368
  829MPD2    C312244   0.644   4.726  11.942 -0.1615 -0.4736 -0.5171
  829MPD2    C412245   0.662   0.047  11.824  0.2560  0.2316  0.5876
  829MPD2    C512246   0.572   0.024  11.724  0.0449  0.3367 -0.7862
  829MPD2     H12247   0.521   4.612  12.060  2.0204  1.0461  1.4523
  829MPD2    H112248   0.737   0.123  11.805  1.7878 -1.2204  0.7316
  829MPD2    H212249   0.384   4.680  11.656  0.1783  2.3949  0.0847
  829MPD2    H312250   0.594   0.071  11.629  1.1021  0.0465 -0.6847
  829MPD2     N12251   0.729   0.008  12.054  0.5263  0.1598 -0.5795
  829MPD2    H512252   0.693   4.738  12.148 -1.5203 -0.7161 -1.4798
  829MPD2    N112253   0.308   4.557  11.879 -0.1414  0.0412  0.1336
  829MPD2    H712254   0.251   4.558  11.795  0.5062 -0.5342 -0.3097
  830MPD2     C12255   1.745   2.309  15.812  0.4536  0.5878  0.1477
  830MPD2    C112256   1.610   2.325  15.785  0.7171 -0.8886  0.5203
  830MPD2    C212257   1.573   2.413  15.683 -0.0299  0.7795  0.6449
  830MPD2    C312258   1.670   2.475  15.600  0.4291  0.4792 -0.3104
  830MPD2    C412259   1.795   2.435  15.615  0.2706 -0.9658 -0.4259
  830MPD2    C512260   1.831   2.360  15.724  0.3194  0.3018  0.2136
  830MPD2     H12261   1.469   2.441  15.677 -0.7010 -1.4752  1.7245
  830MPD2    H112262   1.885   2.473  15.567  0.9634 -0.3706  1.3641
  830MPD2    H212263   1.791   2.238  15.880  0.2120  0.8564  0.5897
  830MPD2    H312264   1.938   2.346  15.738  0.2012  1.4560  2.2911
  830MPD2     N12265   1.632   2.571  15.505  0.5738 -0.1004 -0.2979
  830MPD2    H512266   1.703   2.611  15.446 -0.6212 -0.9087 -2.2726
  830MPD2    N112267   1.514   2.267  15.871 -0.1887  0.0637  0.4795
  830MPD2    H712268   1.554   2.224  15.954  0.4764 -0.6946 -0.2272
  831MPD2     C12269   1.430   4.370  16.281 -0.6812 -0.9972 -0.1143
  831MPD2    C112270   1.438   4.253  16.207  0.1464  0.9081  0.0723
  831MPD2    C212271   1.348   4.147  16.235 -0.2304  0.2542  0.3274
  831MPD2    C312272   1.246   4.164  16.331  0.1361 -0.6933 -0.0825
  831MPD2    C412273   1.257   4.269  16.418 -0.5534 -0.4042 -0.0252
  831MPD2    C512274   1.348   4.373  16.392  0.2089 -0.6549 -0.0820
  831MPD2     H12275   1.365   4.058  16.175 -0.6465  0.6262 -0.3362
  831MPD2    H112276   1.199   4.278  16.510 -1.3579  1.0759 -0.6866
  831MPD2    H212277   1.487   4.456  16.248  2.3566 -1.5943  3.6315
  831MPD2    H312278   1.358   4.459  16.457 -1.4226  0.1016 -0.8287
  831MPD2     N12279   1.135   4.069  16.348  0.0678 -0.6461  0.5708
  831MPD2    H512280   1.082   4.074  16.435 -2.7306 -0.1180 -1.1548
  831MPD2    N112281   1.537   4.239  16.104  0.4864  0.4622 -0.4509
  831MPD2    H712282   1.590   4.320  16.075  0.3274  0.3390 -1.0990
  832MPD2     C12283   0.082   0.342  17.249 -0.0307 -0.9272 -0.3077
  832MPD2    C112284   0.011   0.454  17.213 -0.4543 -0.2700  0.3647
  832MPD2    C212285   4.637   0.436  17.134  0.5056 -0.0295  0.1097
  832MPD2    C312286   4.576   0.311  17.121 -0.0663  0.5051  0.0660
  832MPD2    C412287   4.647   0.203  17.169 -0.1086 -0.4305  0.1012
  832MPD2    C512288   0.032   0.217  17.222  0.1534 -0.4616  0.3113
  832MPD2     H12289   4.588   0.527  17.101 -1.0089 -0.5508  0.9386
  832MPD2    H112290   4.605   0.103  17.171  0.8951 -0.9355 -2.5223
  832MPD2    H212291   0.170   0.351  17.312 -1.9546 -2.0837  2.5261
  832MPD2    H312292   0.080   0.123  17.247  0.0509 -0.6879 -0.3298
  832MPD2     N12293   4.447   0.278  17.065 -0.3745  0.1327 -0.9923
  832MPD2    H512294   4.416   0.183  17.078 -0.1680 -0.0058 -1.5013
  832MPD2    N112295   0.057   0.575  17.259 -0.3941 -0.6348 -0.6074
  832MPD2    H712296   0.137   0.566  17.320 -0.2329 -0.9700 -0.8689
  833MPD2     C12297   1.783   1.931  12.749  0.2829 -0.2273 -0.1178
  833MPD2    C112298   1.809   2.001  12.631 -0.1980 -0.3487  0.2157
  833MPD2    C212299   1.896   1.945  12.541 -0.3083 -0.0670 -0.0065
  833MPD2    C312300   1.959   1.822  12.574  0.6601  0.1042 -0.1827
  833MPD2    C412301   1.945   1.766  12.702  0.3612 -0.1381 -0.1776
  833MPD2    C512302   1.849   1.817  12.785  0.7999  0.5363  0.1442
  833MPD2     H12303   1.924   1.995  12.449 -2.8875  1.5661  0.1074
  833MPD2    H112304   2.005   1.680  12.731 -0.8222 -0.7477  0.4823
  833MPD2    H212305   1.710   1.967  12.821 -0.4287 -1.2029 -0.3489
  833MPD2    H312306   1.815   1.760  12.871  0.5733  1.0825  0.4190
  833MPD2     N12307   2.045   1.764  12.479  0.7808  0.3786  0.2105
  833MPD2    H512308   2.056   1.820  12.395  0.0790  1.6002  0.9309
  833MPD2    N112309   1.750   2.125  12.617 -0.4316 -0.6860 -0.2963
  833MPD2    H712310   1.697   2.162  12.695  0.5970 -0.5460  0.3459
  834MPD2     C12311   1.605   1.227  11.802  0.6664  0.1123  0.0061
  834MPD2    C112312   1.716   1.255  11.722 -0.6919 -0.4984 -0.6060
  834MPD2    C212313   1.818   1.332  11.779 -0.8362  0.2310  0.8089
  834MPD2    C312314   1.806   1.379  11.910  0.0369  0.3794  0.3660
  834MPD2    C412315   1.689   1.358  11.984  0.2949 -1.1545 -0.4108
  834MPD2    C512316   1.588   1.283  11.925 -0.5502 -0.4030 -0.1280
  834MPD2     H12317   1.902   1.341  11.711 -1.5193  0.6083  0.0153
  834MPD2    H112318   1.683   1.396  12.085 -3.5308  0.1051 -1.0912
  834MPD2    H212319   1.520   1.169  11.770  1.2150 -1.1555  0.8447
  834MPD2    H312320   1.496   1.253  11.974  0.1517 -2.4959 -0.0779
  834MPD2     N12321   1.927   1.431  11.971 -0.3084  0.9161  0.1779
  834MPD2    H512322   2.007   1.463  11.918 -0.1180  0.1773  0.0217
  834MPD2    N112323   1.715   1.205  11.586  0.2639 -0.3638 -0.3125
  834MPD2    H712324   1.639   1.143  11.559 -0.2505  0.9260 -1.8418
  835MPD2     C12325   1.916   4.400  11.144  0.8682 -0.2971 -0.1315
  835MPD2    C112326   1.822   4.396  11.242  1.0491 -0.3202 -0.3910
  835MPD2    C212327   1.866   4.407  11.374  0.1912  0.1059  0.1641
  835MPD2    C312328   2.000   4.432  11.402 -0.0726 -0.0454 -0.4349
  835MPD2    C412329   2.092   4.435  11.300 -0.0221  0.2575 -0.4421
  835MPD2    C512330   2.050   4.415  11.171 -1.1788  0.2042 -0.0117
  835MPD2     H12331   1.785   4.410  11.446 -0.7720  0.6534 -0.9635
  835MPD2    H112332   2.197   4.461  11.311 -0.2746  1.1089 -0.0586
  835MPD2    H212333   1.886   4.397  11.040 -0.2954 -0.8373  0.2246
  835MPD2    H312334   2.122   4.410  11.090 -1.2809  0.1605 -0.0993
  835MPD2     N12335   2.050   4.454  11.532  0.1902 -0.0520 -0.0990
  835MPD2    H512336   2.143   4.493  11.544  1.8469 -3.2185 -2.7181
  835MPD2    N112337   1.687   4.380  11.228  0.1759  0.4591  0.4029
  835MPD2    H712338   1.625   4.389  11.307 -0.4377  1.1991 -0.1578
  836MPD2     C12339   1.530   0.033  11.805  0.2000  0.7766 -0.5932
  836MPD2    C112340   1.621   0.097  11.887 -0.0376  0.0597  0.4398
  836MPD2    C212341   1.575   0.161  12.004  0.3503  0.1589  0.2546
  836MPD2    C312342   1.441   0.168  12.025  0.0233  0.0928 -0.3593
  836MPD2    C412343   1.349   0.110  11.935 -0.5308  0.1674  0.1797
  836MPD2    C512344   1.398   0.031  11.837  0.4043 -0.8213 -0.3403
  836MPD2     H12345   1.644   0.219  12.063  0.1354 -1.4192  2.0815
  836MPD2    H112346   1.244   0.131  11.952 -0.0179  1.4506  1.7578
  836MPD2    H212347   1.552   4.725  11.712 -0.2044  0.9342 -0.7739
  836MPD2    H312348   1.325   4.725  11.775  0.8571 -2.6570  0.5728
  836MPD2     N12349   1.380   0.256  12.119 -0.0950  0.9320  0.1210
  836MPD2    H512350   1.279   0.259  12.120 -0.0635  2.5111 -0.7341
  836MPD2    N112351   1.761   0.081  11.853  0.1823  0.7942 -0.2608
  836MPD2    H712352   1.789   0.044  11.762  0.3534  1.1682 -0.3614
  837MPD2     C12353   0.204   4.079   9.768 -0.6994  0.1725 -0.3665
  837MPD2    C112354   0.143   4.132   9.884 -0.0820  0.2395  0.7619
  837MPD2    C212355   0.116   4.266   9.899 -0.9248 -0.0317 -0.8824
  837MPD2    C312356   0.134   4.351   9.787 -0.2165 -0.0992 -0.0255
  837MPD2    C412357   0.195   4.301   9.675  0.3684  0.1836  0.4532
  837MPD2    C512358   0.226   4.167   9.667  0.0000  0.4597 -0.5682
  837MPD2     H12359   0.065   4.293   9.991 -1.7842 -0.8479 -1.1256
  837MPD2    H112360   0.207   4.369   9.591  2.1444 -1.7047 -0.8171
  837MPD2    H212361   0.231   3.974   9.760 -1.1589  0.2562 -2.8799
  837MPD2    H312362   0.271   4.122   9.579  1.6239 -1.8891  1.4501
  837MPD2     N12363   0.108   4.493   9.803 -0.7827  0.1350 -0.5178
  837MPD2    H512364   0.075   4.521   9.895 -0.5086  0.1868 -0.4342
  837MPD2    N112365   0.092   4.041   9.977 -0.0786  0.2834 -0.5357
  837MPD2    H712366   0.024   4.076  10.044  0.3500 -0.4345  0.2748
  838MPD2     C12367   3.429   2.717  12.118 -0.0944 -0.2328  0.2080
  838MPD2    C112368   3.403   2.589  12.071 -0.0961  0.8089  0.4185
  838MPD2    C212369   3.340   2.499  12.152 -0.5508 -0.4105 -0.4412
  838MPD2    C312370   3.279   2.538  12.269  0.5473 -0.0050 -0.5997
  838MPD2    C412371   3.300   2.669  12.311  0.8640  0.7564  0.3396
  838MPD2    C512372   3.377   2.753  12.238  0.2344  0.1837  0.0512
  838MPD2     H12373   3.316   2.397  12.122  0.0081  0.2217 -2.9925
  838MPD2    H112374   3.268   2.697  12.411 -0.2512  1.6187 -0.2532
  838MPD2    H212375   3.493   2.788  12.067  0.5182 -0.2836  0.9082
  838MPD2    H312376   3.408   2.845  12.285 -0.8598 -0.5946  2.2995
  838MPD2     N12377   3.180   2.454  12.319 -0.0310  0.0440 -0.0762
  838MPD2    H512378   3.187   2.362  12.276  4.5717  0.9166 -1.1990
  838MPD2    N112379   3.437   2.545  11.941 -0.4155 -0.2952  0.0681
  838MPD2    H712380   3.412   2.448  11.920  0.2817 -0.2229 -1.1003
  839MPD2     C12381   2.805   2.107  11.762  0.0793  0.0868 -0.7170
  839MPD2    C112382   2.914   2.055  11.698 -0.2948 -0.8075 -0.2960
  839MPD2    C212383   3.023   2.136  11.655 -0.4832 -0.6314  0.0856
  839MPD2    C312384   3.017   2.271  11.689  0.0099  0.1850 -0.4641
  839MPD2    C412385   2.908   2.322  11.757  0.0508 -0.6652  0.4369
  839MPD2    C512386   2.806   2.240  11.787  0.8268  0.3470  0.6278
  839MPD2     H12387   3.109   2.089  11.610  0.7856  1.3196  0.4752
  839MPD2    H112388   2.895   2.426  11.787 -0.6355 -0.9437  1.0993
  839MPD2    H212389   2.723   2.044  11.793  1.4184 -0.4274  1.7508
  839MPD2    H312390   2.719   2.286  11.832 -0.2202 -1.1913  0.1535
  839MPD2     N12391   3.119   2.366  11.651  0.4449 -0.6386 -0.1085
  839MPD2    H512392   3.092   2.462  11.671 -0.5371 -0.9807  0.2124
  839MPD2    N112393   2.930   1.915  11.685  0.3976  0.3282 -0.6113
  839MPD2    H712394   3.009   1.891  11.627  0.0177 -0.8220 -0.6590
  840MPD2     C12395   2.977   4.377  10.391 -0.8446 -0.7308 -0.2576
  840MPD2    C112396   3.017   4.361  10.519 -0.2419  0.0144  0.3451
  840MPD2    C212397   3.125   4.436  10.560 -0.5674  0.2102 -0.2075
  840MPD2    C312398   3.193   4.521  10.471 -0.5895 -0.5232 -0.5524
  840MPD2    C412399   3.154   4.533  10.340  0.0183 -0.4406 -0.7236
  840MPD2    C512400   3.045   4.461  10.308  0.6156  0.1544 -0.3122
  840MPD2     H12401   3.159   4.429  10.663 -0.0687  0.5661 -0.3484
  840MPD2    H112402   3.198   4.595  10.263  4.1920 -2.2990  0.1529
  840MPD2    H212403   2.891   4.325  10.352 -0.1994 -1.5415 -0.6106
  840MPD2    H312404   3.017   4.464  10.204 -1.4801 -3.5796  0.1416
  840MPD2     N12405   3.299   4.602  10.514  0.1298  0.3691 -0.6465
  840MPD2    H512406   3.338   4.665  10.445 -0.5878 -1.6716 -2.9096
  840MPD2    N112407   2.934   4.279  10.605  0.2603 -0.0665 -0.4666
  840MPD2    H712408   2.849   4.237  10.568 -0.7764  1.4406  0.2020
  841MPD2     C12409   3.109   3.946  14.471 -0.1283 -0.9121  0.4429
  841MPD2    C112410   3.024   4.052  14.497 -0.0803 -0.3580  0.1192
  841MPD2    C212411   3.082   4.167  14.551 -0.2724  0.2886 -0.6690
  841MPD2    C312412   3.214   4.176  14.563  0.7300 -0.0376 -0.3764
  841MPD2    C412413   3.297   4.069  14.538  0.3700 -0.4589 -0.1046
  841MPD2    C512414   3.246   3.953  14.494 -0.3079 -0.2859  0.3285
  841MPD2     H12415   3.017   4.246  14.587 -1.2091 -0.2705 -1.1436
  841MPD2    H112416   3.405   4.074  14.554  0.1280  2.3499  0.6075
  841MPD2    H212417   3.067   3.850  14.445 -1.3203 -0.1382 -0.4626
  841MPD2    H312418   3.304   3.863  14.480 -3.3399 -2.2497  0.4148
  841MPD2     N12419   3.259   4.297  14.622 -0.1166 -0.5121 -0.4012
  841MPD2    H512420   3.187   4.361  14.654 -0.9321 -1.3357 -0.5753
  841MPD2    N112421   2.882   4.023  14.490  0.1632  0.1288 -0.5443
  841MPD2    H712422   2.858   3.935  14.446 -1.3950  0.6538 -0.7359
  842MPD2     C12423   3.722   0.457  16.847  0.1988  0.0607  0.2522
  842MPD2    C112424   3.592   0.421  16.869  0.6250 -0.3345  0.1130
  842MPD2    C212425   3.565   0.326  16.972 -0.5929 -0.6415  0.4030
  842MPD2    C312426   3.668   0.272  17.049  0.2666  0.2838 -0.1448
  842MPD2    C412427   3.796   0.320  17.028 -0.5766 -1.0158 -0.3234
  842MPD2    C512428   3.821   0.412  16.923 -0.9798  0.6710  0.3519
  842MPD2     H12429   3.468   0.279  16.965 -0.7120 -0.1608 -1.0126
  842MPD2    H112430   3.878   0.292  17.093 -0.9810 -1.0814  0.1587
  842MPD2    H212431   3.745   0.531  16.771 -0.8052 -1.1791 -1.2562
  842MPD2    H312432   3.918   0.460  16.920 -0.2324 -0.6832  2.2865
  842MPD2     N12433   3.644   0.169  17.141 -0.3607  0.1279  0.6983
  842MPD2    H512434   3.720   0.118  17.185  1.2987 -1.5681 -4.0615
  842MPD2    N112435   3.494   0.486  16.792  0.0215 -0.0687 -0.8991
  842MPD2    H712436   3.519   0.555  16.723 -0.6310  1.8020  0.7469
  843MPD2     C12437   1.098   1.444   0.500  0.2293 -0.1820  0.2334
  843MPD2    C112438   1.217   1.409   0.434  0.0329  0.3404 -0.9141
  843MPD2    C212439   1.323   1.508   0.435  0.4196 -0.4261  0.3137
  843MPD2    C312440   1.294   1.631   0.485  0.3142  0.2731  0.7947
  843MPD2    C412441   1.169   1.663   0.542 -0.3963 -0.4615  0.2300
  843MPD2    C512442   1.076   1.567   0.556 -0.4642 -0.3204 -0.1907
  843MPD2     H12443   1.414   1.479   0.383  0.0683 -0.6566 -0.1665
  843MPD2    H112444   1.139   1.759   0.582 -0.3781 -0.4568  0.2321
  843MPD2    H212445   1.024   1.365   0.510  0.3645 -0.3633 -0.1876
  843MPD2    H312446   0.982   1.584   0.607 -0.0039 -1.4866  1.0533
  843MPD2     N12447   1.381   1.734   0.468 -0.6911 -0.0940  0.1602
  843MPD2    H512448   1.341   1.824   0.493  1.0057  0.9131 -0.7673
  843MPD2    N112449   1.224   1.270   0.390 -0.4524 -0.2726 -0.3328
  843MPD2    H712450   1.137   1.219   0.404 -1.3890  1.0827 -1.1123
  844MPD2     C12451   4.208   4.686  16.586 -0.1904  0.4069 -0.1363
  844MPD2    C112452   4.220   0.052  16.500 -0.7710  0.2184 -0.2186
  844MPD2    C212453   4.307   0.152  16.527  0.6052 -0.3112 -0.5321
  844MPD2    C312454   4.386   0.147  16.645 -0.3426 -0.0186 -0.6160
  844MPD2    C412455   4.360   0.037  16.728  0.5936 -0.3348 -0.4947
  844MPD2    C512456   4.282   4.676  16.699 -0.0732  0.4756 -0.3692
  844MPD2     H12457   4.320   0.233  16.455  1.0201  0.8255  0.8273
  844MPD2    H112458   4.431   0.025  16.808 -0.6948  1.9446  0.9693
  844MPD2    H212459   4.133   4.609  16.576  2.4184 -2.2474  0.8169
  844MPD2    H312460   4.289   4.588  16.763 -1.2701 -0.3476 -1.3591
  844MPD2     N12461   4.489   0.244  16.682  0.0901 -0.1431  0.3823
  844MPD2    H512462   4.550   0.211  16.756  0.5122  2.1944  1.1014
  844MPD2    N112463   4.142   0.067  16.384  0.8907 -0.3823 -0.0650
  844MPD2    H712464   4.171   0.136  16.316  2.0756 -1.6516 -0.8506
  845MPD2     C12465   4.640   1.282  16.927 -0.2521  0.6609  0.1266
  845MPD2    C112466   4.614   1.195  17.027  0.3642  0.6402 -0.6858
  845MPD2    C212467   4.617   1.055  17.006 -0.2036 -0.6743  0.7180
  845MPD2    C312468   4.636   1.011  16.877 -0.2026 -0.5153  0.9253
  845MPD2    C412469   4.643   1.102  16.771 -0.8870 -0.4956 -0.0189
  845MPD2    C512470   4.651   1.237  16.802 -0.1642  0.4030  0.1369
  845MPD2     H12471   4.603   0.981  17.084 -0.8523  0.5709  1.7830
  845MPD2    H112472   4.666   1.073  16.669  0.4419 -0.1455  0.1736
  845MPD2    H212473   4.649   1.389  16.942  0.4202  0.6819 -0.3804
  845MPD2    H312474   4.678   1.308  16.725  0.1736 -1.6994 -1.7012
  845MPD2     N12475   4.657   0.872  16.866 -0.5214  0.5016 -0.2919
  845MPD2    H512476   4.663   0.825  16.955 -0.1537  1.5930  0.2620
  845MPD2    N112477   4.591   1.253  17.157 -1.0402  0.0113 -0.5392
  845MPD2    H712478   4.579   1.354  17.156  0.0893  0.1678  3.3647
  846MPD2     C12479   1.280   1.566  13.813 -1.0529  0.3957 -0.0857
  846MPD2    C112480   1.148   1.608  13.809  0.2607  1.0070 -0.1364
  846MPD2    C212481   1.067   1.580  13.921 -0.1505 -0.0511  0.1632
  846MPD2    C312482   1.118   1.523  14.037 -0.7827  0.3440 -0.2841
  846MPD2    C412483   1.253   1.491  14.040  0.4230  0.5828 -0.4975
  846MPD2    C512484   1.337   1.505  13.925 -0.4657 -0.4434  0.2818
  846MPD2     H12485   0.964   1.612  13.916 -0.1665  0.1102  1.6763
  846MPD2    H112486   1.305   1.456  14.128 -0.0163  1.2082  0.0184
  846MPD2    H212487   1.345   1.575  13.726  0.1794 -4.4696  0.3513
  846MPD2    H312488   1.441   1.475  13.927 -0.1848  0.4976 -0.3350
  846MPD2     N12489   1.029   1.500  14.141  0.0884  0.5396  0.0019
  846MPD2    H512490   0.930   1.507  14.120  0.1725  1.5385 -0.0566
  846MPD2    N112491   1.096   1.685  13.700 -0.0697  0.2492 -0.0315
  846MPD2    H712492   1.007   1.731  13.718  0.6273  2.2094 -1.6123
  847MPD2     C12493   1.093   2.585  14.629 -0.0845 -0.5635  0.1918
  847MPD2    C112494   1.161   2.691  14.680  1.0088 -0.0075  0.3503
  847MPD2    C212495   1.295   2.697  14.680  0.0585  0.6951 -0.2995
  847MPD2    C312496   1.372   2.595  14.636 -0.4568 -0.4705  0.2533
  847MPD2    C412497   1.309   2.477  14.598 -0.5484 -0.5753 -0.4259
  847MPD2    C512498   1.169   2.474  14.599  0.5619  0.5696  0.4005
  847MPD2     H12499   1.343   2.789  14.711 -0.3032  0.9484 -0.4942
  847MPD2    H112500   1.363   2.387  14.569  0.2224  0.1467 -1.2419
  847MPD2    H212501   0.985   2.581  14.620 -0.3040  0.8383  2.1634
  847MPD2    H312502   1.110   2.387  14.571  0.2801  0.8418  0.1575
  847MPD2     N12503   1.514   2.600  14.636 -0.1978  0.1699 -0.5992
  847MPD2    H512504   1.571   2.518  14.622 -2.9789 -1.8425 -0.0284
  847MPD2    N112505   1.094   2.804  14.736 -0.1621  0.0739  0.1324
  847MPD2    H712506   1.162   2.874  14.766  0.5668 -0.0202 -1.3147
  848MPD2     C12507   4.001   0.499  16.387  0.1779 -0.0343 -0.2637
  848MPD2    C112508   4.034   0.573  16.503 -0.0332 -0.1412  0.2583
  848MPD2    C212509   4.038   0.709  16.495  0.1502  0.1420  0.0133
  848MPD2    C312510   4.010   0.778  16.383 -0.8428  0.7952  0.8946
  848MPD2    C412511   3.972   0.702  16.267 -0.0403 -0.2192 -0.0791
  848MPD2    C512512   3.973   0.565  16.272  0.0982 -0.4470 -0.5234
  848MPD2     H12513   4.077   0.764  16.580 -2.3057  1.2603  0.4335
  848MPD2    H112514   3.964   0.752  16.172 -2.1259 -1.2074 -0.4005
  848MPD2    H212515   4.003   0.391  16.385 -3.3101 -0.1206  1.2221
  848MPD2    H312516   3.956   0.515  16.177  1.0016 -2.1181  0.1978
  848MPD2     N12517   4.026   0.923  16.361 -1.0009 -0.0912  0.3294
  848MPD2    H512518   4.008   0.955  16.267 -1.1590 -0.0665  0.3696
  848MPD2    N112519   4.070   0.509  16.619  0.1738  0.1226 -0.6645
  848MPD2    H712520   4.117   0.559  16.694 -2.4107  0.0776  0.9699
  849MPD2     C12521   3.440   0.222  13.855 -0.0249  0.0836 -0.0259
  849MPD2    C112522   3.400   0.142  13.957 -0.4646  0.2078  0.7027
  849MPD2    C212523   3.371   0.203  14.080 -0.0960 -0.3970  0.2149
  849MPD2    C312524   3.379   0.343  14.101 -0.1638  0.0063  0.2460
  849MPD2    C412525   3.443   0.421  13.993 -0.4246 -0.0643 -0.0288
  849MPD2    C512526   3.470   0.359  13.874  1.0111 -0.2130 -0.6188
  849MPD2     H12527   3.335   0.134  14.156  1.9323  0.4187  1.9196
  849MPD2    H112528   3.455   0.529  14.001 -1.8639  0.1593 -0.8087
  849MPD2    H212529   3.458   0.185  13.754  0.6940 -2.9736  1.2372
  849MPD2    H312530   3.509   0.416  13.791  0.6678  1.2502  0.2267
  849MPD2     N12531   3.344   0.413  14.225  0.3273 -0.0820  0.3949
  849MPD2    H512532   3.373   0.509  14.237  1.9316 -0.3503 -1.3579
  849MPD2    N112533   3.369   0.007  13.941  0.0954  0.2906  0.8132
  849MPD2    H712534   3.350   4.700  14.027 -1.8141  0.5773  0.5536
  850MPD2     C12535   1.107   3.450  14.672 -0.0399  0.2400 -0.0881
  850MPD2    C112536   1.135   3.550  14.766  0.3209  0.2200  0.7016
  850MPD2    C212537   1.265   3.583  14.789  0.6215  0.0570  1.0254
  850MPD2    C312538   1.368   3.508  14.737  0.2416  0.2790  0.0143
  850MPD2    C412539   1.336   3.394  14.672  0.5372  0.0671 -0.0021
  850MPD2    C512540   1.206   3.369  14.629 -0.3660 -0.1579  0.0393
  850MPD2     H12541   1.294   3.678  14.833 -0.4643  0.6654  0.4094
  850MPD2    H112542   1.410   3.322  14.640 -0.4970 -0.5129 -1.0991
  850MPD2    H212543   1.005   3.428  14.641 -0.0921  0.6497 -0.2081
  850MPD2    H312544   1.187   3.285  14.564  1.7069  0.3387 -1.2117
  850MPD2     N12545   1.505   3.527  14.771  0.9844  0.3200 -0.0562
  850MPD2    H512546   1.565   3.450  14.746 -0.1012 -0.0046 -1.6581
  850MPD2    N112547   1.024   3.622  14.822 -0.4408  0.0462  0.6497
  850MPD2    H712548   0.940   3.594  14.771  1.5390 -1.3761 -1.8577
  851MPD2     C12549   1.638   3.542  15.394  0.3547  0.1968  0.0900
  851MPD2    C112550   1.520   3.506  15.342 -0.0043 -0.4061  0.0226
  851MPD2    C212551   1.496   3.370  15.326  0.1707 -0.4319  0.2660
  851MPD2    C312552   1.586   3.274  15.359 -0.1367  0.3628  0.3426
  851MPD2    C412553   1.710   3.316  15.408  0.1238  0.1923 -0.1611
  851MPD2    C512554   1.737   3.450  15.421  0.1560  0.6620 -0.7119
  851MPD2     H12555   1.398   3.341  15.289  0.9307 -2.7148  0.0193
  851MPD2    H112556   1.791   3.250  15.437 -2.0137 -1.5135  1.9776
  851MPD2    H212557   1.670   3.645  15.399  0.1663  0.1632  1.9560
  851MPD2    H312558   1.831   3.491  15.454  0.8544  0.2426 -2.1474
  851MPD2     N12559   1.554   3.141  15.324  0.1636  0.2111  0.3240
  851MPD2    H512560   1.461   3.124  15.287 -0.1683 -0.4642  1.4623
  851MPD2    N112561   1.432   3.608  15.300 -0.4686 -0.2567  0.2018
  851MPD2    H712562   1.457   3.707  15.299  2.6596 -1.0444 -0.2273
  852MPD2     C12563   0.752   1.397  10.065  0.4366 -0.2955  0.4307
  852MPD2    C112564   0.810   1.388  10.190 -0.5020 -0.5712 -0.4010
  852MPD2    C212565   0.935   1.439  10.199 -0.1776 -0.2967 -0.2408
  852MPD2    C312566   0.988   1.512  10.099  0.0392  0.6001  0.0326
  852MPD2    C412567   0.937   1.521   9.973  0.4627 -0.1820 -0.3967
  852MPD2    C512568   0.815   1.459   9.959 -0.3274 -0.5111 -1.0205
  852MPD2     H12569   0.980   1.422  10.296 -0.3459 -0.2181 -0.1482
  852MPD2    H112570   0.980   1.585   9.897  0.2245 -0.1310 -0.4869
  852MPD2    H212571   0.649   1.373  10.043  0.8268 -1.5637 -0.0240
  852MPD2    H312572   0.758   1.473   9.868  0.6171 -0.3332 -1.5842
  852MPD2     N12573   1.113   1.575  10.141  0.1010 -0.2305 -0.2069
  852MPD2    H512574   1.144   1.584  10.237 -1.1398 -1.4844  0.3041
  852MPD2    N112575   0.760   1.324  10.302 -0.3283  0.2554 -0.7615
  852MPD2    H712576   0.815   1.316  10.387 -0.3534  0.0496 -0.7624
  853MPD2     C12577   3.101   0.821  12.524  0.6118  1.0478  0.2270
  853MPD2    C112578   3.015   0.926  12.475 -0.1632 -0.7493 -0.1204
  853MPD2    C212579   3.026   0.956  12.343 -0.3946 -0.3089 -0.0789
  853MPD2    C312580   3.104   0.883  12.252  0.3233  0.1628  0.0107
  853MPD2    C412581   3.174   0.782  12.300 -0.2476  0.1545  0.2724
  853MPD2    C512582   3.181   0.764  12.434  0.2724  0.3732  0.1997
  853MPD2     H12583   2.982   1.047  12.305 -2.2359 -0.9139  0.6138
  853MPD2    H112584   3.241   0.737  12.227 -1.8573 -0.7136 -0.6941
  853MPD2    H212585   3.123   0.797  12.627 -1.4770 -1.6046  0.0516
  853MPD2    H312586   3.254   0.688  12.460 -0.7532  0.5973  3.6487
  853MPD2     N12587   3.106   0.919  12.120  0.1064  0.6474 -0.3833
  853MPD2    H512588   3.181   0.871  12.070 -0.4598  1.0911 -1.6406
  853MPD2    N112589   2.936   1.005  12.556  0.7566  0.2503 -0.1268
  853MPD2    H712590   2.895   1.088  12.513 -1.1060 -0.8063 -0.3994
  854MPD2     C12591   4.534   1.329  12.037  0.1857 -0.0644  0.1662
  854MPD2    C112592   4.491   1.317  12.166 -0.5816 -0.3875 -1.0670
  854MPD2    C212593   4.488   1.187  12.222 -0.3248 -0.2119 -0.4007
  854MPD2    C312594   4.531   1.079  12.143 -0.2318 -0.5612 -0.0796
  854MPD2    C412595   4.562   1.099  12.012 -0.3495  0.6844  0.4314
  854MPD2    C512596   4.558   1.221  11.956  0.0212 -0.0029 -0.0835
  854MPD2     H12597   4.460   1.171  12.326 -0.5602 -0.6059 -0.5232
  854MPD2    H112598   4.578   1.011  11.950 -2.0088  0.8084 -0.1785
  854MPD2    H212599   4.550   1.427  11.994 -2.8202  0.3048 -0.1250
  854MPD2    H312600   4.577   1.236  11.850 -0.1056  1.3576  0.0789
  854MPD2     N12601   4.539   0.946  12.198 -0.9355  0.5234  0.4508
  854MPD2    H512602   4.571   0.880  12.128 -0.9054 -0.3786  1.3119
  854MPD2    N112603   4.458   1.432  12.235 -0.0343 -0.0793  0.2478
  854MPD2    H712604   4.453   1.518  12.181 -1.9504  0.6416  1.5936
  855MPD2     C12605   4.676   0.945  13.091 -0.4723 -0.8513 -0.1901
  855MPD2    C112606   4.682   0.806  13.095 -0.1438 -0.1847  0.1365
  855MPD2    C212607   4.693   0.743  12.968 -0.7993 -0.3035  0.1161
  855MPD2    C312608   4.690   0.811  12.847 -0.0010 -0.2535 -0.2750
  855MPD2    C412609   4.691   0.945  12.863  0.1145 -0.3084  0.4847
  855MPD2    C512610   4.681   1.012  12.975  0.1620  0.3432  0.1138
  855MPD2     H12611   4.708   0.636  12.975  0.9481 -0.3247 -4.0024
  855MPD2    H112612   4.697   1.004  12.773  1.7397 -1.4571 -0.1677
  855MPD2    H212613   4.663   1.006  13.180 -1.7972  1.4702 -1.9514
  855MPD2    H312614   4.677   1.120  12.965 -0.5688  0.3511  0.5032
  855MPD2     N12615   4.663   0.758  12.717 -0.6969 -0.3175 -0.0686
  855MPD2    H512616   4.648   0.820  12.638  1.7394  0.6150  0.1962
  855MPD2    N112617   4.682   0.729  13.213  0.2840 -0.6884  0.7152
  855MPD2    H712618   4.687   0.629  13.202  0.4971 -0.4791 -1.2021
  856MPD2     C12619   2.087   1.617  13.973 -0.4028 -0.8126  0.5286
  856MPD2    C112620   2.137   1.748  13.965 -0.2967 -0.3852 -0.1811
  856MPD2    C212621   2.062   1.856  14.000 -0.7780  0.1342 -0.7905
  856MPD2    C312622   1.928   1.839  14.041  0.4110  0.1553 -0.0957
  856MPD2    C412623   1.879   1.712  14.038 -0.0150 -0.2142  0.1232
  856MPD2    C512624   1.953   1.604  13.989 -0.3091  0.3716 -0.1048
  856MPD2     H12625   2.118   1.949  14.000 -0.5810  0.0151 -0.8709
  856MPD2    H112626   1.780   1.688  14.074 -0.1721 -0.6005 -0.5515
  856MPD2    H212627   2.140   1.528  13.940 -1.1316 -0.8425 -0.5801
  856MPD2    H312628   1.909   1.505  13.993  1.1984 -0.2755  0.2455
  856MPD2     N12629   1.847   1.937  14.113  0.1178  0.3112  0.4064
  856MPD2    H512630   1.762   1.901  14.156 -0.2986  1.3982  0.4730
  856MPD2    N112631   2.275   1.763  13.934  0.1873  0.4584 -0.1905
  856MPD2    H712632   2.307   1.859  13.943  2.7550 -0.1679 -2.8090
  857MPD2     C12633   3.419   4.045  12.420 -0.3717  0.0701 -0.0931
  857MPD2    C112634   3.520   4.033  12.507  0.1937 -0.1865  0.1580
  857MPD2    C212635   3.536   4.142  12.594 -0.0371  0.2669  0.9915
  857MPD2    C312636   3.454   4.254  12.597 -0.9627 -0.1096  0.8028
  857MPD2    C412637   3.353   4.261  12.505 -0.6944  0.5037 -0.0437
  857MPD2    C512638   3.343   4.158  12.416  0.6182 -0.8492 -0.2840
  857MPD2     H12639   3.596   4.140  12.684 -0.1232 -2.0897  0.9972
  857MPD2    H112640   3.279   4.340  12.503 -1.6469 -0.3829  0.2385
  857MPD2    H212641   3.393   3.966  12.349 -1.4987  0.0817  0.2981
  857MPD2    H312642   3.258   4.161  12.350  1.9307  1.8206 -1.8265
  857MPD2     N12643   3.484   4.352  12.694  0.3842  0.0669  0.0196
  857MPD2    H512644   3.546   4.320  12.768  0.8756  2.2806  0.5784
  857MPD2    N112645   3.595   3.906  12.512  0.7401  0.0249  0.1987
  857MPD2    H712646   3.563   3.835  12.447  0.8342  0.0152  0.1626
  858MPD2     C12647   0.182   3.279  16.358 -0.2106 -0.4530  0.2618
  858MPD2    C112648   0.207   3.152  16.412  0.0674 -0.2194 -0.0736
  858MPD2    C212649   0.210   3.154  16.555 -0.0199  0.3105 -0.3380
  858MPD2    C312650   0.179   3.258  16.633 -0.4829 -0.1407 -0.6539
  858MPD2    C412651   0.141   3.371  16.575  0.5336 -0.0411  0.6286
  858MPD2    C512652   0.141   3.381  16.440 -0.0294 -0.1200 -0.0054
  858MPD2     H12653   0.251   3.067  16.605  0.9835  1.9869  1.7950
  858MPD2    H112654   0.114   3.461  16.630 -0.9065  0.6491 -1.2210
  858MPD2    H212655   0.175   3.296  16.252 -0.7281  2.2743  0.7152
  858MPD2    H312656   0.121   3.478  16.397 -1.2106 -0.6866 -0.7508
  858MPD2     N12657   0.176   3.258  16.775  0.5106  0.0879 -0.6515
  858MPD2    H512658   0.147   3.342  16.823  0.0298  0.3188 -1.3481
  858MPD2    N112659   0.215   3.042  16.329  0.1711 -0.5620 -0.7291
  858MPD2    H712660   0.223   3.047  16.227  1.2153  3.0254 -0.4780
  859MPD2     C12661   2.902   0.323  15.358  0.0505  0.7328  0.4148
  859MPD2    C112662   2.990   0.326  15.463 -1.2292 -0.2505  0.0544
  859MPD2    C212663   2.969   0.231  15.560  0.6296 -0.7640 -0.6112
  859MPD2    C312664   2.886   0.127  15.537  0.1397 -0.0432  0.3970
  859MPD2    C412665   2.822   0.113  15.422 -0.5709  0.6545 -0.6130
  859MPD2    C512666   2.826   0.216  15.331  0.1479 -0.1831  0.4083
  859MPD2     H12667   3.027   0.234  15.652 -0.6656 -0.6576  0.2018
  859MPD2    H112668   2.764   0.023  15.407  0.3687 -0.6401  3.4188
  859MPD2    H212669   2.906   0.404  15.287  1.3220  0.0195 -0.3415
  859MPD2    H312670   2.764   0.214  15.242  0.1079 -0.9571  0.4496
  859MPD2     N12671   2.880   0.004  15.614 -0.5223 -0.2658  0.2265
  859MPD2    H512672   2.824   4.666  15.590 -1.0684  0.0073  0.5852
  859MPD2    N112673   3.075   0.438  15.474  0.4232  0.0414 -0.5073
  859MPD2    H712674   3.065   0.501  15.395  1.8841  1.8292  0.7546
  860MPD2     C12675   1.541   0.739  11.551  0.6479  0.1637 -0.4208
  860MPD2    C112676   1.496   0.820  11.647  0.1622 -0.2061  0.0537
  860MPD2    C212677   1.366   0.849  11.664  0.2612 -0.3581  0.0520
  860MPD2    C312678   1.265   0.780  11.596 -0.0462 -0.6956  0.4001
  860MPD2    C412679   1.310   0.680  11.510  0.0499  0.1871  0.5454
  860MPD2    C512680   1.450   0.662  11.492  0.7283 -0.0843 -0.1741
  860MPD2     H12681   1.333   0.923  11.736  0.9794 -0.4774  0.5000
  860MPD2    H112682   1.234   0.629  11.451 -1.4446  3.7141 -0.5601
  860MPD2    H212683   1.645   0.714  11.533  0.3973 -1.9722  1.1217
  860MPD2    H312684   1.485   0.596  11.413  2.8126 -0.2456  0.8981
  860MPD2     N12685   1.127   0.816  11.623  0.2519  1.2716 -0.2174
  860MPD2    H512686   1.113   0.888  11.693 -0.2180  1.9584 -1.0247
  860MPD2    N112687   1.588   0.873  11.742  0.4548 -0.5759 -0.2886
  860MPD2    H712688   1.550   0.936  11.812  0.4718 -0.4623 -0.3813
  861MPD2     C12689   4.644   3.619  11.330 -0.2574 -0.1326 -0.5649
  861MPD2    C112690   4.532   3.551  11.370  0.6405 -0.8176 -0.1284
  861MPD2    C212691   4.423   3.538  11.285  0.0832 -0.1908 -0.0615
  861MPD2    C312692   4.431   3.595  11.152  0.8146  0.5579  0.3922
  861MPD2    C412693   4.549   3.654  11.107 -0.1671 -0.6355 -0.0155
  861MPD2    C512694   4.654   3.666  11.195  0.4282  0.1797 -0.6487
  861MPD2     H12695   4.336   3.486  11.323  1.5993 -1.7453  1.3343
  861MPD2    H112696   4.563   3.690  11.006 -1.6052  0.3456  0.1280
  861MPD2    H212697   4.728   3.645  11.392 -0.3022  0.3207 -0.6901
  861MPD2    H312698   4.736   3.730  11.165  0.2484  0.2041 -1.0881
  861MPD2     N12699   4.320   3.596  11.060  0.6329  0.0333  0.1631
  861MPD2    H512700   4.341   3.632  10.967  0.0964  0.5617  0.2514
  861MPD2    N112701   4.510   3.495  11.499 -0.2456 -0.3254 -0.7948
  861MPD2    H712702   4.426   3.439  11.510 -0.0112 -0.4279  0.4624
  862MPD2     C12703   3.965   3.749  10.413 -0.3919  0.1068  0.3054
  862MPD2    C112704   3.885   3.732  10.519 -0.7104 -0.3492  0.0463
  862MPD2    C212705   3.762   3.678  10.504  0.3712 -0.3245 -0.1096
  862MPD2    C312706   3.725   3.621  10.389  0.2661  0.6234 -0.6439
  862MPD2    C412707   3.798   3.648  10.277 -0.1939 -1.1334 -0.0342
  862MPD2    C512708   3.917   3.709  10.283 -0.2706 -0.5691 -0.2634
  862MPD2     H12709   3.694   3.669  10.588  0.2567  3.0745  0.1748
  862MPD2    H112710   3.761   3.596  10.190 -0.5549  0.3586 -0.7798
  862MPD2    H212711   4.059   3.801  10.426 -0.8614  0.8465  0.7322
  862MPD2    H312712   3.973   3.722  10.191 -1.0094 -0.2654 -0.6702
  862MPD2     N12713   3.620   3.518  10.383 -0.4725  0.5495  0.1138
  862MPD2    H512714   3.619   3.459  10.300  0.0203  1.0483 -0.2465
  862MPD2    N112715   3.919   3.776  10.649  0.2942  0.1594  0.2703
  862MPD2    H712716   3.842   3.772  10.714  1.5204 -2.5685  1.5521
  863MPD2     C12717   3.321   2.409  16.521 -0.3376 -0.0957  0.3664
  863MPD2    C112718   3.239   2.382  16.630  0.8368 -0.2741 -0.2152
  863MPD2    C212719   3.285   2.295  16.730  0.4711  1.0388  0.4174
  863MPD2    C312720   3.399   2.227  16.711  1.0157 -0.2320  0.7064
  863MPD2    C412721   3.476   2.249  16.601  0.6139  0.5043  0.1445
  863MPD2    C512722   3.438   2.341  16.510  0.1142 -0.0405 -0.4293
  863MPD2     H12723   3.224   2.264  16.814  1.7781  0.5714  1.1963
  863MPD2    H112724   3.575   2.205  16.594 -0.5117 -1.8071 -1.3125
  863MPD2    H212725   3.287   2.468  16.437 -1.9837  0.0617  1.1369
  863MPD2    H312726   3.493   2.363  16.419 -0.7962 -1.9354 -1.4607
  863MPD2     N12727   3.449   2.134  16.807 -0.2783  0.0398 -0.3935
  863MPD2    H512728   3.538   2.086  16.798 -0.0991 -0.1504  2.5068
  863MPD2    N112729   3.112   2.451  16.635 -0.4099 -0.4043 -0.4189
  863MPD2    H712730   3.079   2.500  16.553 -1.8532 -1.8522 -0.7002
  864MPD2     C12731   3.830   2.978  17.591  0.0727  0.2037  0.7658
  864MPD2    C112732   3.829   2.954  17.461 -0.0677 -0.0581  0.3035
  864MPD2    C212733   3.905   3.026  17.379  0.4138  0.6123 -0.0383
  864MPD2    C312734   3.962   3.139  17.421  0.4037 -0.0090  0.7346
  864MPD2    C412735   3.944   3.189  17.542 -0.7100  0.0427  0.1611
  864MPD2    C512736   3.875   3.105  17.629 -0.3089 -0.3050  0.5780
  864MPD2     H12737   3.918   2.991  17.278  0.2124 -1.1737  0.5576
  864MPD2    H112738   3.997   3.274  17.584  0.5903 -0.7004  0.0323
  864MPD2    H212739   3.776   2.910  17.657  0.0529  0.7706  1.3377
  864MPD2    H312740   3.867   3.132  17.734 -1.2183  0.1819  0.3857
  864MPD2     N12741   4.046   3.214  17.339 -0.7371 -0.3276  0.0184
  864MPD2    H512742   4.088   3.297  17.381  0.2620 -0.6997 -0.2348
  864MPD2    N112743   3.768   2.835  17.422 -0.4437 -0.0915 -0.7635
  864MPD2    H712744   3.745   2.761  17.487  2.2453  1.4521  1.9002
  865MPD2     C12745   4.223   3.734  16.591 -0.6413  1.3005  0.2860
  865MPD2    C112746   4.174   3.623  16.659 -0.0085 -0.4819  0.3066
  865MPD2    C212747   4.167   3.621  16.797  0.3215  0.6973  0.0670
  865MPD2    C312748   4.222   3.726  16.866  0.5600 -0.5741 -0.9840
  865MPD2    C412749   4.269   3.832  16.798  0.8541 -0.2180 -0.3832
  865MPD2    C512750   4.263   3.844  16.663  0.0214 -0.2284  0.5370
  865MPD2     H12751   4.116   3.539  16.846 -0.7313  0.8128 -0.8461
  865MPD2    H112752   4.318   3.910  16.856  0.0601 -0.6273  0.8198
  865MPD2    H212753   4.239   3.734  16.484  0.6230 -0.0243  0.4735
  865MPD2    H312754   4.295   3.933  16.610  0.6295 -2.3191 -2.6148
  865MPD2     N12755   4.222   3.732  17.005  0.4985 -1.0845 -0.4626
  865MPD2    H512756   4.238   3.819  17.054  0.5964 -0.8156 -0.9779
  865MPD2    N112757   4.142   3.515  16.574 -0.0682 -0.2943 -0.2496
  865MPD2    H712758   4.152   3.528  16.474  0.8759 -0.3123 -0.1604
  866MPD2     C12759   0.115   4.052  11.938  0.5545 -0.5782  0.6599
  866MPD2    C112760   0.162   4.046  11.812 -0.4852 -0.1252 -0.8432
  866MPD2    C212761   0.067   4.027  11.714  0.3589  0.2873 -0.2401
  866MPD2    C312762   4.680   3.999  11.745 -0.4071  0.2596 -0.0002
  866MPD2    C412763   4.635   4.007  11.873 -0.2363 -0.0610 -0.2399
  866MPD2    C512764   4.725   4.035  11.971  0.1370 -0.6368 -0.1268
  866MPD2     H12765   0.108   4.032  11.614  0.1423 -1.1694 -0.4116
  866MPD2    H112766   4.529   3.990  11.885 -0.2516  1.8810  2.2531
  866MPD2    H212767   0.181   4.043  12.024 -0.6263 -2.9895  1.3100
  866MPD2    H312768   4.705   4.055  12.076 -0.3274  0.4733 -0.4223
  866MPD2     N12769   4.585   3.952  11.653 -0.5472  0.0345 -0.4041
  866MPD2    H512770   4.492   3.940  11.691 -0.9894  0.2660 -1.4181
  866MPD2    N112771   0.300   4.052  11.799  0.0625  0.2663  0.0506
  866MPD2    H712772   0.348   4.039  11.888 -0.4138  1.6376  0.5031
  867MPD2     C12773   2.189   3.306  16.332  0.6304 -0.6490 -0.0375
  867MPD2    C112774   2.308   3.296  16.400  0.9164 -0.3652  0.0814
  867MPD2    C212775   2.311   3.336  16.535  0.1578 -0.3659  0.2793
  867MPD2    C312776   2.189   3.390  16.596  0.3572 -0.4721  0.2491
  867MPD2    C412777   2.079   3.408  16.519 -0.0647  0.0825  0.3695
  867MPD2    C512778   2.076   3.362  16.390 -0.0907 -0.6978  0.1879
  867MPD2     H12779   2.397   3.332  16.600  0.6357 -0.2824 -0.3437
  867MPD2    H112780   1.983   3.442  16.555  0.5089  1.8331  0.2751
  867MPD2    H212781   2.175   3.273  16.230  1.6408  0.6540 -0.5909
  867MPD2    H312782   1.982   3.361  16.336  1.8076 -1.2002 -3.0918
  867MPD2     N12783   2.181   3.433  16.733  0.2179  0.0669 -0.1702
  867MPD2    H512784   2.100   3.489  16.757 -1.9391 -2.1811 -2.3073
  867MPD2    N112785   2.416   3.229  16.341  0.1297  0.8886  0.5569
  867MPD2    H712786   2.400   3.188  16.250 -2.1425  0.7265  1.0261
  868MPD2     C12787   3.971   2.404  13.089 -0.2671 -0.1938 -0.5609
  868MPD2    C112788   3.982   2.275  13.123  0.4886 -0.0393 -0.0598
  868MPD2    C212789   3.871   2.202  13.129  0.3722 -0.0347  0.4468
  868MPD2    C312790   3.750   2.266  13.148  0.3297 -0.4156  0.6095
  868MPD2    C412791   3.740   2.401  13.132 -0.0953  0.2312  0.4268
  868MPD2    C512792   3.852   2.470  13.095  0.6132 -0.2271 -0.5223
  868MPD2     H12793   3.879   2.094  13.136 -4.0331 -0.4161 -0.2176
  868MPD2    H112794   3.644   2.451  13.138  0.5508  1.2174  2.6186
  868MPD2    H212795   4.059   2.461  13.062  1.8525 -2.0035  2.4503
  868MPD2    H312796   3.837   2.573  13.063  1.8171 -0.3180 -1.3859
  868MPD2     N12797   3.646   2.180  13.185 -0.3414  0.5505  0.5250
  868MPD2    H512798   3.674   2.083  13.187 -0.4932  0.4447 -3.2004
  868MPD2    N112799   4.110   2.219  13.124  0.4885  0.0829 -0.4378
  868MPD2    H712800   4.183   2.271  13.076  0.6332 -0.8607 -1.2309
  869MPD2     C12801   0.510   4.672   0.002 -0.6965  0.2230  0.4180
  869MPD2    C112802   0.428   4.634   0.108 -0.3541 -0.0001  0.0363
  869MPD2    C212803   0.446   4.695   0.232 -0.1414 -0.2131 -0.4654
  869MPD2    C312804   0.547   0.033   0.256 -0.1812  0.5007  0.2603
  869MPD2    C412805   0.626   0.070   0.148  0.5901  0.9000  0.3331
  869MPD2    C512806   0.601   0.026   0.026 -1.0001  1.0496  0.0916
  869MPD2     H12807   0.403   4.640   0.315  1.7400 -2.0089 -0.6734
  869MPD2    H112808   0.705   0.144   0.157  1.9543 -0.4899 -0.1602
  869MPD2    H212809   0.503   4.626  17.674 -1.3866  2.4717 -0.5909
  869MPD2    H312810   0.666   0.059  17.715 -1.5731  0.5876 -0.5641
  869MPD2     N12811   0.566   0.084   0.387 -0.0710 -0.5307  0.0385
  869MPD2    H512812   0.641   0.151   0.401 -1.3290  0.6362  1.0958
  869MPD2    N112813   0.335   4.531   0.085  0.3545  0.2748  0.1416
  869MPD2    H712814   0.340   4.478  17.768 -0.0621  1.0649 -0.3665
  870MPD2     C12815   1.225   4.108   1.178 -0.8194 -0.3361  1.0321
  870MPD2    C112816   1.122   4.020   1.145  0.1969  0.0361  0.1425
  870MPD2    C212817   0.994   4.043   1.197  0.3340  0.6166 -0.6561
  870MPD2    C312818   0.974   4.141   1.291 -0.7519  0.1912 -0.4411
  870MPD2    C412819   1.082   4.224   1.328  0.1518  0.0221 -0.9577
  870MPD2    C512820   1.203   4.216   1.262 -0.2462  0.5992 -0.1300
  870MPD2     H12821   0.916   3.968   1.192  1.7571 -1.0043  2.0951
  870MPD2    H112822   1.072   4.293   1.410  1.9493  0.2582 -0.9236
  870MPD2    H212823   1.325   4.093   1.139 -0.5231 -1.1740  2.1298
  870MPD2    H312824   1.284   4.280   1.294  0.1434  0.2975 -0.5172
  870MPD2     N12825   0.848   4.141   1.351 -0.0965 -0.7656  0.0708
  870MPD2    H512826   0.780   4.075   1.314  1.0669 -1.7941 -0.2162
  870MPD2    N112827   1.154   3.913   1.063 -0.3918 -0.5731  0.1172
  870MPD2    H712828   1.252   3.915   1.038 -0.1696  0.4373  1.0455
  871MPD2     C12829   1.421   3.800  16.354  0.5212 -0.0087  1.8855
  871MPD2    C112830   1.407   3.708  16.453 -0.7321  1.0354 -0.4621
  871MPD2    C212831   1.400   3.573  16.419  0.4418  0.5835 -0.5101
  871MPD2    C312832   1.386   3.529  16.293 -0.2723 -0.7032  0.2313
  871MPD2    C412833   1.391   3.624  16.189 -0.0630  0.4505 -0.2015
  871MPD2    C512834   1.416   3.760  16.221  0.1481 -0.0307 -0.8010
  871MPD2     H12835   1.389   3.501  16.499 -3.1734  0.9293 -0.6878
  871MPD2    H112836   1.396   3.608  16.082 -0.3521  0.9547 -0.2921
  871MPD2    H212837   1.442   3.905  16.373 -0.1084  0.4298  0.0972
  871MPD2    H312838   1.429   3.827  16.137  1.4571  0.0887 -0.5038
  871MPD2     N12839   1.381   3.390  16.275 -0.1862  0.0940  0.1169
  871MPD2    H512840   1.382   3.341  16.364  0.4418 -0.2576 -0.0823
  871MPD2    N112841   1.385   3.770  16.580  0.0807  0.0671  0.4199
  871MPD2    H712842   1.385   3.871  16.588  1.1823  0.0081  1.1843
  872MPD2     C12843   1.924   1.130  13.753  0.1661  0.8327 -0.2246
  872MPD2    C112844   1.998   1.175  13.857  0.3194 -0.1975 -0.2369
  872MPD2    C212845   1.933   1.186  13.976  0.3494 -0.3908 -0.1151
  872MPD2    C312846   1.799   1.151  13.986 -0.0799 -0.0893 -0.0196
  872MPD2    C412847   1.732   1.100  13.879  0.2156 -0.5143 -0.0829
  872MPD2    C512848   1.799   1.083  13.762 -0.8047 -0.1102  0.1106
  872MPD2     H12849   1.981   1.238  14.058 -1.6895 -0.5320  1.1623
  872MPD2    H112850   1.628   1.071  13.876  0.0660  0.2613 -2.1174
  872MPD2    H212851   1.969   1.119  13.655 -0.3702  0.3642 -0.4166
  872MPD2    H312852   1.753   1.031  13.679  1.5133 -1.3196 -0.4212
  872MPD2     N12853   1.714   1.178  14.097  0.4563 -0.1722  0.4937
  872MPD2    H512854   1.619   1.142  14.091  0.8618 -1.3188  0.8341
  872MPD2    N112855   2.133   1.224  13.851 -0.2995 -0.1740  0.1635
  872MPD2    H712856   2.184   1.243  13.936 -0.0149 -0.7639  0.1262
  873MPD2     C12857   3.412   1.189   0.371 -0.8200  0.1086  0.3188
  873MPD2    C112858   3.492   1.159   0.479 -0.0630 -0.1950 -0.2066
  873MPD2    C212859   3.522   1.025   0.498 -0.0459 -0.5806 -0.4356
  873MPD2    C312860   3.480   0.932   0.409 -0.1203  0.0660 -0.0518
  873MPD2    C412861   3.398   0.966   0.303  0.2582 -0.0003 -0.5979
  873MPD2    C512862   3.375   1.095   0.278 -0.1976 -0.3005  0.3034
  873MPD2     H12863   3.580   0.988   0.582  0.1507  0.4637 -0.1058
  873MPD2    H112864   3.370   0.894   0.227 -2.4025  1.1106 -0.6749
  873MPD2    H212865   3.386   1.291   0.343  1.1604  0.5756  0.1856
  873MPD2    H312866   3.311   1.123   0.195 -1.6450 -1.0646  1.1637
  873MPD2     N12867   3.522   0.793   0.411  0.3158 -0.3915 -0.4343
  873MPD2    H512868   3.485   0.724   0.347 -0.3487  1.2354 -1.7689
  873MPD2    N112869   3.517   1.265   0.572  0.1394  0.1623  0.1324
  873MPD2    H712870   3.483   1.358   0.551 -0.2651 -0.2841 -1.1896
  874MPD2     C12871   3.245   1.132  16.343 -0.3581  0.3676  0.0398
  874MPD2    C112872   3.326   1.065  16.431 -0.4131 -0.4091 -0.5783
  874MPD2    C212873   3.460   1.105  16.421  0.7563 -0.1395 -0.0228
  874MPD2    C312874   3.508   1.204  16.343  0.4184  0.4894  0.2106
  874MPD2    C412875   3.428   1.264  16.255 -1.0047 -0.9439 -0.2516
  874MPD2    C512876   3.292   1.229  16.260 -0.3391 -0.2291 -0.2723
  874MPD2     H12877   3.527   1.048  16.485 -1.8693 -2.1313  0.9489
  874MPD2    H112878   3.460   1.346  16.192  2.7857 -0.1496  2.7238
  874MPD2    H212879   3.141   1.106  16.327 -1.0255  1.9125  1.8687
  874MPD2    H312880   3.223   1.277  16.192  0.7030  0.5354 -0.8061
  874MPD2     N12881   3.650   1.239  16.354  0.3203 -0.4177  0.5509
  874MPD2    H512882   3.694   1.189  16.430  0.3508  1.4011  1.7474
  874MPD2    N112883   3.276   0.971  16.518 -0.2799  0.5955  0.0148
  874MPD2    H712884   3.176   0.959  16.507 -0.1662 -0.1949 -0.1995
  875MPD2     C12885   4.404   4.355  14.291 -0.7526 -0.3081 -0.0464
  875MPD2    C112886   4.280   4.346  14.351  0.0062  0.5067 -0.7524
  875MPD2    C212887   4.268   4.384  14.484  0.3935 -0.2384 -0.3297
  875MPD2    C312888   4.376   4.436  14.555 -0.2266  0.1330 -0.8377
  875MPD2    C412889   4.491   4.440  14.492  0.8167  0.3428 -0.3908
  875MPD2    C512890   4.510   4.388  14.367 -0.0855 -0.6094 -0.1579
  875MPD2     H12891   4.172   4.389  14.534  0.6994 -2.2271  0.4508
  875MPD2    H112892   4.581   4.482  14.535 -0.5711  1.8486  1.0173
  875MPD2    H212893   4.431   4.326  14.190  1.0763  0.4673  0.2254
  875MPD2    H312894   4.603   4.407  14.314 -0.4456 -0.5152 -0.7543
  875MPD2     N12895   4.379   4.491  14.687  0.0471  0.2182  0.3755
  875MPD2    H512896   4.465   4.532  14.720 -0.2862  2.0238 -1.0277
  875MPD2    N112897   4.163   4.286  14.294 -0.3789  0.4813 -0.0045
  875MPD2    H712898   4.078   4.272  14.348 -0.3145 -1.1499 -0.3254
  876MPD2     C12899   3.197   0.626  16.254 -0.5353 -0.1787 -0.5168
  876MPD2    C112900   3.333   0.637  16.268 -0.6856 -1.0713  0.8111
  876MPD2    C212901   3.400   0.533  16.331 -0.0507  0.3421  0.0866
  876MPD2    C312902   3.333   0.423  16.376 -0.1340 -0.0365 -0.2928
  876MPD2    C412903   3.200   0.407  16.343 -0.9473  0.7183  0.0038
  876MPD2    C512904   3.129   0.513  16.285 -0.0782 -0.3596  0.4663
  876MPD2     H12905   3.507   0.543  16.338 -0.0754  0.9119 -0.3679
  876MPD2    H112906   3.141   0.320  16.371  0.6179 -0.0178  1.0312
  876MPD2    H212907   3.146   0.713  16.215  1.5645  1.1102 -0.3915
  876MPD2    H312908   3.024   0.509  16.255  0.0622 -2.4973  0.2754
  876MPD2     N12909   3.412   0.325  16.440  0.2048 -0.0156  0.2922
  876MPD2    H512910   3.512   0.338  16.453  0.5388 -0.6722 -1.5628
  876MPD2    N112911   3.392   0.767  16.229  0.4979 -0.2512 -0.3104
  876MPD2    H712912   3.324   0.835  16.196 -1.2552 -2.8923 -2.1589
  877MPD2     C12913   3.281   1.164  15.604 -0.2822 -0.1093 -0.1389
  877MPD2    C112914   3.421   1.164  15.616 -0.1792 -0.3143 -0.5302
  877MPD2    C212915   3.494   1.196  15.504  0.3046 -0.1460  0.4511
  877MPD2    C312916   3.432   1.228  15.383  0.3356 -0.4594 -0.0974
  877MPD2    C412917   3.293   1.227  15.376 -0.2678 -0.3565 -0.7211
  877MPD2    C512918   3.217   1.195  15.486  0.2588  0.1271 -0.9463
  877MPD2     H12919   3.602   1.191  15.516  0.4296  1.8429  0.1515
  877MPD2    H112920   3.248   1.256  15.282 -0.1505  0.1577 -0.6206
  877MPD2    H212921   3.213   1.130  15.681 -0.6675  2.4499  0.6481
  877MPD2    H312922   3.109   1.202  15.477  0.2998  0.2821 -1.3589
  877MPD2     N12923   3.495   1.245  15.260 -0.7486  0.0488  0.4952
  877MPD2    H512924   3.433   1.251  15.180  1.7991 -1.7896 -1.6076
  877MPD2    N112925   3.485   1.119  15.737  0.1761  0.3500 -0.4223
  877MPD2    H712926   3.586   1.125  15.735  0.1235  1.2907 -0.4388
  878MPD2     C12927   2.675   4.480  13.350 -0.8107 -0.8840 -0.0037
  878MPD2    C112928   2.757   4.596  13.371 -0.2998  0.3563  0.0236
  878MPD2    C212929   2.852   4.599  13.469  0.0322  0.3940  0.0385
  878MPD2    C312930   2.862   4.492  13.551 -0.4307 -0.2926 -0.3710
  878MPD2    C412931   2.782   4.379  13.533 -0.0779 -0.5701 -0.3437
  878MPD2    C512932   2.694   4.370  13.426 -0.0631 -0.4002  0.2540
  878MPD2     H12933   2.914   4.687  13.472  0.4488  0.1161 -0.3149
  878MPD2    H112934   2.805   4.288  13.586 -1.2518 -0.3630  0.5219
  878MPD2    H212935   2.586   4.480  13.289 -2.2133 -0.6148  2.0307
  878MPD2    H312936   2.647   4.276  13.400 -2.7579  0.5999  1.5398
  878MPD2     N12937   2.958   4.510  13.655 -0.1899  0.0943  0.0435
  878MPD2    H512938   3.017   4.591  13.668  1.6899 -1.4393  1.1742
  878MPD2    N112939   2.732   4.709  13.293 -0.2154  0.2341 -0.6777
  878MPD2    H712940   2.644   4.704  13.243 -0.6041  2.6540 -0.2309
  879MPD2     C12941   3.776   1.335  17.513  0.0242 -0.5144 -0.2049
  879MPD2    C112942   3.783   1.442  17.420  0.2119 -0.1732  0.0997
  879MPD2    C212943   3.704   1.435  17.309  0.4384  0.0640  0.4922
  879MPD2    C312944   3.622   1.319  17.286  0.1446 -0.5804 -0.0999
  879MPD2    C412945   3.618   1.218  17.380 -0.5461  0.2149 -0.3151
  879MPD2    C512946   3.691   1.228  17.490  0.1931 -0.5527 -0.2524
  879MPD2     H12947   3.713   1.520  17.241 -1.1629 -0.4847 -0.4189
  879MPD2    H112948   3.552   1.132  17.378  0.6477 -0.7283  0.5706
  879MPD2    H212949   3.822   1.352  17.609 -0.6655 -0.6179  0.1437
  879MPD2    H312950   3.687   1.151  17.566 -1.6528  0.3849  0.6054
  879MPD2     N12951   3.539   1.303  17.171 -0.1963 -0.0909 -0.2076
  879MPD2    H512952   3.497   1.211  17.165 -0.2856 -0.0231 -0.6217
  879MPD2    N112953   3.859   1.558  17.451 -0.0093 -0.3803 -0.0153
  879MPD2    H712954   3.903   1.560  17.542  1.8746 -0.6431 -0.9123
  880MPD2     C12955   0.190   3.506   0.193 -0.1843  0.1002 -0.4898
  880MPD2    C112956   0.227   3.568   0.314  0.6229 -0.5629  0.3112
  880MPD2    C212957   0.333   3.512   0.385  0.4444 -0.8191 -0.1728
  880MPD2    C312958   0.403   3.400   0.338 -0.2395 -0.0503 -0.1301
  880MPD2    C412959   0.350   3.331   0.235  0.6791 -0.1854  0.1375
  880MPD2    C512960   0.251   3.391   0.163 -0.6744 -0.4060 -0.7760
  880MPD2     H12961   0.381   3.565   0.467 -1.7660  0.8708  0.0022
  880MPD2    H112962   0.383   3.234   0.200 -1.5243 -0.9184  0.0610
  880MPD2    H212963   0.103   3.542   0.140  0.3957 -1.3962 -2.4524
  880MPD2    H312964   0.213   3.337   0.077 -0.5393 -1.9699  0.1287
  880MPD2     N12965   0.529   3.363   0.392 -0.1083 -0.5717  0.6499
  880MPD2    H512966   0.564   3.427   0.463  1.5012 -0.2176 -0.4719
  880MPD2    N112967   0.170   3.695   0.341  0.3954  0.3955 -0.0311
  880MPD2    H712968   0.099   3.727   0.276 -0.3838  0.9500  1.0941
  881MPD2     C12969   0.732   4.448   0.175  0.1394 -0.3656 -0.0820
  881MPD2    C112970   0.664   4.351   0.107  0.2318  0.1762  0.3270
  881MPD2    C212971   0.550   4.296   0.165 -0.3685 -0.6979 -0.1094
  881MPD2    C312972   0.527   4.314   0.298 -0.5045  0.0233  0.3675
  881MPD2    C412973   0.602   4.403   0.365 -0.2646 -0.8401  0.8105
  881MPD2    C512974   0.691   4.477   0.300 -0.0083  0.0877 -0.0580
  881MPD2     H12975   0.494   4.221   0.112  2.7666 -2.0238 -1.5437
  881MPD2    H112976   0.581   4.431   0.467 -0.3344 -0.4401  0.6857
  881MPD2    H212977   0.806   4.514   0.130  1.2631 -1.2316  0.4892
  881MPD2    H312978   0.737   4.562   0.349 -1.2855  1.0317 -0.5195
  881MPD2     N12979   0.423   4.245   0.374  0.4526 -0.3687  0.6518
  881MPD2    H512980   0.430   4.265   0.473  1.2941 -0.2058  0.5611
  881MPD2    N112981   0.697   4.334  17.732 -0.6740 -0.2531  0.2368
  881MPD2    H712982   0.776   4.389  17.700 -0.7572  0.5262  1.3717
  882MPD2     C12983   3.424   0.949  14.619  0.0776  0.4203 -0.0096
  882MPD2    C112984   3.414   1.074  14.657 -0.3295 -0.3026  0.5169
  882MPD2    C212985   3.309   1.150  14.602  0.0159 -0.3515 -0.1172
  882MPD2    C312986   3.205   1.093  14.521 -0.1618 -0.0917 -0.8224
  882MPD2    C412987   3.211   0.958  14.497  1.2219  0.1966  0.2065
  882MPD2    C512988   3.325   0.897  14.542  0.0222 -0.2062 -0.3102
  882MPD2     H12989   3.291   1.248  14.643 -0.3691 -0.8360  0.8706
  882MPD2    H112990   3.143   0.896  14.439  0.7120  1.2453 -0.3240
  882MPD2    H212991   3.495   0.877  14.658  0.8107  1.0939 -0.1189
  882MPD2    H312992   3.341   0.791  14.526  0.3053 -0.3787  1.1390
  882MPD2     N12993   3.095   1.167  14.476  0.6647 -0.3118  0.0167
  882MPD2    H512994   3.020   1.111  14.436  0.8888 -1.9550  1.9104
  882MPD2    N112995   3.510   1.129  14.746 -0.2295  0.4896  0.6944
  882MPD2    H712996   3.583   1.068  14.781 -0.8808 -0.3908  0.5224
  883MPD2     C12997   0.503   0.798  16.022  0.2063 -0.2438  0.4372
  883MPD2    C112998   0.500   0.924  15.975  0.5151 -0.1887  0.1934
  883MPD2    C212999   0.604   1.004  16.004  0.0576  0.1941  0.0466
  883MPD2    C313000   0.712   0.973  16.083 -0.2189  0.8000 -0.1378
  883MPD2    C413001   0.717   0.846  16.134 -0.4505 -0.5846  0.0144
  883MPD2    C513002   0.605   0.764  16.113 -0.2817 -0.2327 -0.6998
  883MPD2     H13003   0.610   1.107  15.972 -0.4852 -0.2432 -1.4456
  883MPD2    H113004   0.781   0.818  16.217 -1.2517 -4.1855 -0.5913
  883MPD2    H213005   0.429   0.725  15.991 -0.9103  1.0946 -0.0325
  883MPD2    H313006   0.590   0.674  16.172  1.0488 -0.1651 -0.2681
  883MPD2     N13007   0.813   1.068  16.112  0.3710 -0.0848  0.2297
  883MPD2    H513008   0.798   1.165  16.086  1.6018  0.4697  1.6139
  883MPD2    N113009   0.399   0.971  15.893  0.2829 -0.0764  0.4613
  883MPD2    H713010   0.414   1.063  15.854 -0.9533  0.4605  1.2332
  884MPD2     C13011   2.412   1.694  15.537  0.2952  0.3291  0.8941
  884MPD2    C113012   2.408   1.797  15.445 -0.3992  0.6263 -0.2239
  884MPD2    C213013   2.300   1.882  15.437  0.1345 -0.1939 -0.3633
  884MPD2    C313014   2.206   1.882  15.540  0.4400 -0.0633  0.1161
  884MPD2    C413015   2.219   1.793  15.646 -0.0954 -0.2487  0.1831
  884MPD2    C513016   2.320   1.698  15.638  0.7473 -0.1272  0.6009
  884MPD2     H13017   2.302   1.962  15.364 -3.1010 -0.4512 -0.7766
  884MPD2    H113018   2.146   1.776  15.724  0.0730  0.7544  0.5658
  884MPD2    H213019   2.488   1.617  15.524 -1.3368 -1.0408 -0.5274
  884MPD2    H313020   2.326   1.617  15.710  1.2804 -0.1272  0.5586
  884MPD2     N13021   2.116   1.991  15.544  0.3209 -0.4596 -0.7565
  884MPD2    H513022   2.131   2.065  15.476 -0.4749  1.3809  1.0867
  884MPD2    N113023   2.507   1.821  15.347  0.2857 -0.1871 -0.6117
  884MPD2    H713024   2.487   1.878  15.266  0.8248 -1.2583 -1.4911
  885MPD2     C13025   0.803   2.233   0.144 -0.4060  0.0636 -0.3098
  885MPD2    C113026   0.934   2.261   0.127  0.5418  0.7834  0.5371
  885MPD2    C213027   0.987   2.269  17.767  0.1539  0.4454 -0.2713
  885MPD2    C313028   0.906   2.265  17.658 -0.0820 -0.3627  0.3266
  885MPD2    C413029   0.770   2.228  17.678  1.0633 -0.2259  0.4736
  885MPD2    C513030   0.720   2.211   0.037  0.0332 -1.0648  0.1136
  885MPD2     H13031   1.094   2.285  17.754 -0.0362  0.4776 -1.7634
  885MPD2    H113032   0.701   2.211  17.596  1.7006 -0.7854  0.0584
  885MPD2    H213033   0.772   2.222   0.247 -0.1997  0.7002 -0.1825
  885MPD2    H313034   0.617   2.191   0.063  0.0353  0.6102  1.4894
  885MPD2     N13035   0.959   2.289  17.534 -0.0991 -0.3094  0.3887
  885MPD2    H513036   1.060   2.305  17.535 -0.3018  0.9676 -1.4611
  885MPD2    N113037   1.025   2.269   0.242  0.8118  0.1191  0.7278
  885MPD2    H713038   1.123   2.266   0.216  1.2347  0.4242  2.2819
  886MPD2     C13039   2.331   0.333  15.135  0.5646 -0.0817 -0.3481
  886MPD2    C113040   2.310   0.357  15.269 -0.0570 -0.0311 -0.8656
  886MPD2    C213041   2.239   0.473  15.292  0.2131 -0.0410  0.4839
  886MPD2    C313042   2.206   0.568  15.198 -0.5411  0.5856  0.3779
  886MPD2    C413043   2.216   0.533  15.070  0.3840 -0.1910 -0.0510
  886MPD2    C513044   2.288   0.423  15.042  0.5326  0.0872  0.5387
  886MPD2     H13045   2.221   0.486  15.398  2.5230  2.2428  0.5974
  886MPD2    H113046   2.175   0.594  14.990  0.3852 -1.2153 -0.8268
  886MPD2    H213047   2.371   0.237  15.104  3.0649  0.4979  1.0842
  886MPD2    H313048   2.311   0.409  14.937 -1.7282 -0.1505  0.0761
  886MPD2     N13049   2.156   0.691  15.237 -0.4052  0.2838 -0.7492
  886MPD2    H513050   2.145   0.763  15.166 -0.2037 -0.2039 -1.2722
  886MPD2    N113051   2.364   0.286  15.378  0.6823 -0.0110 -0.0033
  886MPD2    H713052   2.355   0.339  15.465 -0.3650 -1.0339  0.5059
  887MPD2     C13053   2.824   0.542  15.845 -0.3251 -0.7478  0.8917
  887MPD2    C113054   2.725   0.550  15.749 -0.1264 -0.5028  0.2061
  887MPD2    C213055   2.712   0.664  15.670 -0.6387 -0.0305  0.7983
  887MPD2    C313056   2.792   0.772  15.688 -0.2566 -0.3482  0.2223
  887MPD2    C413057   2.898   0.759  15.782 -0.5561  0.4960  0.2848
  887MPD2    C513058   2.904   0.646  15.861  0.7610 -0.1680 -0.3968
  887MPD2     H13059   2.630   0.675  15.600 -0.9573 -3.5236  0.6401
  887MPD2    H113060   2.966   0.840  15.805 -0.0847 -0.1597  1.1985
  887MPD2    H213061   2.835   0.464  15.919 -0.3708  0.4641  2.1937
  887MPD2    H313062   2.979   0.642  15.939 -0.2780  0.5465  0.6428
  887MPD2     N13063   2.760   0.892  15.625 -0.2306  0.3214 -0.0573
  887MPD2    H513064   2.672   0.893  15.574 -0.7408 -2.6592  0.8016
  887MPD2    N113065   2.629   0.451  15.733  0.0770 -0.6428  0.0896
  887MPD2    H713066   2.567   0.465  15.653 -0.8793  1.4592  1.1981
  888MPD2     C13067   4.370   0.526  14.942  0.5543  0.1127  0.1323
  888MPD2    C113068   4.367   0.587  15.059  0.3521  0.1666 -0.6849
  888MPD2    C213069   4.400   0.722  15.072 -0.3779  0.0391 -0.2274
  888MPD2    C313070   4.469   0.783  14.969 -0.1519  0.4944  0.2803
  888MPD2    C413071   4.476   0.725  14.846 -0.7676 -0.2496  0.3385
  888MPD2    C513072   4.426   0.596  14.831  0.0865  0.4724  0.1698
  888MPD2     H13073   4.397   0.769  15.170  0.9836  0.5673 -0.4328
  888MPD2    H113074   4.526   0.773  14.763 -0.2178  0.7989  1.2893
  888MPD2    H213075   4.355   0.419  14.933 -0.5890  0.0088  3.3180
  888MPD2    H313076   4.449   0.540  14.741 -1.3604 -0.1653  0.2109
  888MPD2     N13077   4.534   0.912  14.999 -0.4979  0.2702 -0.0968
  888MPD2    H513078   4.526   0.945  15.094 -2.1543  0.0184 -0.1521
  888MPD2    N113079   4.309   0.527  15.178 -0.2869 -0.1081  0.0100
  888MPD2    H713080   4.310   0.577  15.266 -0.5643 -1.3249  0.6915
  889MPD2     C13081   3.248   0.244  13.235  0.1778  0.0484 -0.2579
  889MPD2    C113082   3.372   0.273  13.192 -0.4918 -0.1441 -0.4072
  889MPD2    C213083   3.442   0.348  13.290 -0.5158 -0.1635  0.8363
  889MPD2    C313084   3.395   0.406  13.404  0.2606  0.0021 -0.1501
  889MPD2    C413085   3.268   0.365  13.441  0.3491 -0.1866  0.5130
  889MPD2    C513086   3.198   0.282  13.358  0.2967 -0.4413 -0.0570
  889MPD2     H13087   3.539   0.375  13.251 -1.3291  1.9756  0.3127
  889MPD2    H113088   3.226   0.378  13.540  0.4737  1.0015  0.4148
  889MPD2    H213089   3.193   0.157  13.202  0.6422 -0.5428  0.5064
  889MPD2    H313090   3.103   0.235  13.384  0.0833 -0.3999 -0.7699
  889MPD2     N13091   3.480   0.484  13.483 -0.5463  0.3576  0.1774
  889MPD2    H513092   3.580   0.477  13.469 -0.9672 -1.2407 -2.2382
  889MPD2    N113093   3.444   0.183  13.107  0.3967 -0.7025 -0.3679
  889MPD2    H713094   3.542   0.197  13.088  0.3111  0.7372  0.2771
  890MPD2     C13095   3.771   1.880  14.802 -0.5498 -0.7904 -0.2378
  890MPD2    C113096   3.865   1.927  14.895  0.0745 -0.3010 -0.1400
  890MPD2    C213097   3.882   1.863  15.013 -0.5209  0.2127 -0.3433
  890MPD2    C313098   3.804   1.753  15.050 -0.5437 -0.4496 -0.2821
  890MPD2    C413099   3.707   1.707  14.959 -0.5333  0.2456  0.4596
  890MPD2    C513100   3.697   1.766  14.835 -0.3471  0.2036  0.4380
  890MPD2     H13101   3.959   1.903  15.078 -1.2092 -0.7145  1.0575
  890MPD2    H113102   3.636   1.626  14.960  0.3630 -0.5303  1.0984
  890MPD2    H213103   3.758   1.942  14.714 -2.0541  0.1573  0.6454
  890MPD2    H313104   3.613   1.726  14.780  0.4411  0.5405 -0.9925
  890MPD2     N13105   3.808   1.691  15.175  0.2647  0.2962 -0.1371
  890MPD2    H513106   3.891   1.724  15.223  0.5357 -2.0453  1.0071
  890MPD2    N113107   3.924   2.053  14.860  0.3313  0.5564 -0.7681
  890MPD2    H713108   3.877   2.103  14.785  2.0740  2.8971 -0.2709
  891MPD2     C13109   1.799   0.715  16.318  0.6091 -0.2404  0.5381
  891MPD2    C113110   1.719   0.706  16.425  0.3659  0.1050  0.0228
  891MPD2    C213111   1.767   0.675  16.552  0.3862 -0.0122  0.0507
  891MPD2    C313112   1.899   0.653  16.568 -0.3661  0.1032 -0.8460
  891MPD2    C413113   1.983   0.666  16.459 -0.2789 -0.3964  0.4293
  891MPD2    C513114   1.936   0.702  16.334  0.2781 -0.3070  0.2719
  891MPD2     H13115   1.693   0.663  16.630  0.6906 -2.5517 -0.0446
  891MPD2    H113116   2.090   0.664  16.477 -0.1996 -0.0036  0.0189
  891MPD2    H213117   1.771   0.748  16.219 -1.0009 -1.7874  0.4879
  891MPD2    H313118   2.001   0.723  16.250  1.3056  1.7013  1.5529
  891MPD2     N13119   1.950   0.620  16.696 -0.5954  0.6925  0.4243
  891MPD2    H513120   1.880   0.634  16.769  0.8159 -1.4784  2.2223
  891MPD2    N113121   1.582   0.726  16.407  0.5552  0.4061  0.2930
  891MPD2    H713122   1.555   0.763  16.316  0.4918  0.5281  0.3613
  892MPD2     C13123   2.522   1.377  15.274 -0.4838  0.0219  0.2981
  892MPD2    C113124   2.455   1.405  15.161  0.3097  0.5688  1.0022
  892MPD2    C213125   2.518   1.423  15.041  0.0168  0.0706  0.0706
  892MPD2    C313126   2.654   1.395  15.036 -0.4213 -0.2943  0.0245
  892MPD2    C413127   2.727   1.360  15.147 -0.0657 -0.3959 -0.0751
  892MPD2    C513128   2.650   1.355  15.265 -0.7021 -0.0768  0.4205
  892MPD2     H13129   2.470   1.469  14.956 -1.7701  0.5617  1.3325
  892MPD2    H113130   2.829   1.325  15.136  0.7067  2.0299 -0.5968
  892MPD2    H213131   2.479   1.372  15.373 -1.1586 -0.9017 -0.0458
  892MPD2    H313132   2.705   1.316  15.350 -2.9506  1.0261  2.3892
  892MPD2     N13133   2.699   1.395  14.901  0.6658  1.0745 -0.3424
  892MPD2    H513134   2.634   1.420  14.827  1.0775  0.3548 -0.9567
  892MPD2    N113135   2.318   1.431  15.154 -0.5869 -0.6220 -0.9419
  892MPD2    H713136   2.284   1.481  15.072  0.1744  0.1414 -0.7883
  893MPD2     C13137   4.427   4.248   1.750 -0.0056  0.2804 -0.1258
  893MPD2    C113138   4.387   4.231   1.619 -0.3645  0.3385 -0.2475
  893MPD2    C213139   4.269   4.157   1.594 -0.5061  0.9725 -0.3845
  893MPD2    C313140   4.185   4.134   1.700 -0.1628 -0.2216  0.1195
  893MPD2    C413141   4.232   4.150   1.831  0.7507  0.0050  1.1952
  893MPD2    C513142   4.351   4.206   1.856  0.3860 -0.4662  0.3422
  893MPD2     H13143   4.237   4.132   1.494  0.3589 -1.6608 -0.0168
  893MPD2    H113144   4.167   4.141   1.916  1.6061 -0.3882  1.8102
  893MPD2    H213145   4.519   4.299   1.776 -1.5632  3.1873 -0.3623
  893MPD2    H313146   4.387   4.232   1.955  2.0307  0.3189 -0.4566
  893MPD2     N13147   4.055   4.090   1.687  0.9744 -0.3594 -0.3851
  893MPD2    H513148   3.992   4.078   1.765  2.4009  0.5482  0.9104
  893MPD2    N113149   4.480   4.258   1.516  0.9078  0.3529  0.2080
  893MPD2    H713150   4.565   4.308   1.538  0.9305  0.1211  0.6540
  894MPD2     C13151   2.707   2.547   0.939  0.5366 -0.4738 -0.5005
  894MPD2    C113152   2.638   2.552   1.055 -0.3043  0.6167  0.1679
  894MPD2    C213153   2.621   2.681   1.113 -0.1611 -0.1068  0.3739
  894MPD2    C313154   2.683   2.796   1.061 -0.5704 -1.0622 -0.4145
  894MPD2    C413155   2.750   2.786   0.942 -0.6663 -0.1190  0.6731
  894MPD2    C513156   2.761   2.663   0.885  0.1330  0.0487  0.5438
  894MPD2     H13157   2.572   2.697   1.208  1.0599  2.0355  0.6383
  894MPD2    H113158   2.806   2.867   0.897 -1.6843 -0.2174 -0.7732
  894MPD2    H213159   2.718   2.452   0.888 -1.8521 -0.5255 -0.9240
  894MPD2    H313160   2.806   2.657   0.787  0.7767 -0.5069  0.8779
  894MPD2     N13161   2.665   2.914   1.126 -0.3231 -0.3492 -0.2193
  894MPD2    H513162   2.610   2.912   1.211  0.5468  0.4870  0.3650
  894MPD2    N113163   2.580   2.434   1.113 -0.8372  0.7019 -0.2749
  894MPD2    H713164   2.525   2.454   1.195  1.5484  1.9068  1.0312
  895MPD2     C13165   1.362   0.873  13.638 -0.6754  0.2920 -0.3542
  895MPD2    C113166   1.309   0.746  13.609  0.0016  0.1042 -0.1089
  895MPD2    C213167   1.391   0.644  13.578 -0.2048 -0.5846 -0.0312
  895MPD2    C313168   1.528   0.667  13.581  0.4565 -0.2020 -0.2158
  895MPD2    C413169   1.580   0.789  13.615  0.2273 -0.1543  0.3876
  895MPD2    C513170   1.500   0.890  13.643  0.1810  0.5897 -0.6836
  895MPD2     H13171   1.354   0.556  13.526 -0.8914 -0.7147  0.6817
  895MPD2    H113172   1.687   0.803  13.616 -0.1766  3.0235 -1.2304
  895MPD2    H213173   1.309   0.966  13.655 -1.1171 -0.0691  0.2582
  895MPD2    H313174   1.540   0.985  13.676  0.3921  0.0312  0.6764
  895MPD2     N13175   1.613   0.562  13.542  0.1546 -0.7747 -0.3818
  895MPD2    H513176   1.698   0.588  13.493  0.1907 -0.3707 -0.1016
  895MPD2    N113177   1.178   0.726  13.575  0.2712  0.1607  0.0639
  895MPD2    H713178   1.152   0.634  13.540 -0.5243  0.3783  0.0698
  896MPD2     C13179   4.729   3.702   1.405  0.0560 -0.0781  0.1571
  896MPD2    C113180   4.660   3.641   1.305 -0.4175 -0.8425 -0.0954
  896MPD2    C213181   4.569   3.542   1.339  0.0549  0.7367  0.0632
  896MPD2    C313182   4.524   3.525   1.469  0.5077 -0.3528 -0.0404
  896MPD2    C413183   4.588   3.608   1.565 -0.0396 -0.3973 -0.1192
  896MPD2    C513184   4.692   3.685   1.537 -0.1873  1.0344 -0.5307
  896MPD2     H13185   4.516   3.488   1.262  1.9644  1.9914 -2.1075
  896MPD2    H113186   4.567   3.589   1.670  0.2806 -0.8589 -0.1398
  896MPD2    H213187   0.072   3.757   1.371 -0.4980  1.1813  0.7988
  896MPD2    H313188   0.011   3.722   1.618  1.6384 -0.8202 -1.0873
  896MPD2     N13189   4.406   3.455   1.499 -0.4950  0.2243 -0.2591
  896MPD2    H513190   4.355   3.404   1.427 -2.6552  0.8908  0.7817
  896MPD2    N113191   4.716   3.659   1.174 -0.1754 -0.6592 -0.4412
  896MPD2    H713192   0.069   3.686   1.157  0.5891 -2.8114  0.3630
  897MPD2     C13193   0.390   4.482  10.676  0.2361  1.2251  0.1961
  897MPD2    C113194   0.293   4.536  10.590  0.5799 -0.3285 -0.6183
  897MPD2    C213195   0.156   4.529  10.623  0.4108  0.6681 -0.6168
  897MPD2    C313196   0.122   4.455  10.734  0.6838  0.1541  0.0874
  897MPD2    C413197   0.211   4.402  10.812 -1.3851  0.3697 -0.4375
  897MPD2    C513198   0.349   4.404  10.786  0.0148  0.1406  0.0320
  897MPD2     H13199   0.069   4.555  10.564  0.3859  1.8433 -0.0597
  897MPD2    H113200   0.187   4.345  10.900  1.4806 -1.6168 -0.9511
  897MPD2    H213201   0.496   4.495  10.661  0.6624  0.4233  2.5335
  897MPD2    H313202   0.419   4.351  10.850  0.7369  2.7267  1.3733
  897MPD2     N13203   4.724   4.454  10.763  0.2324  0.4842 -0.3107
  897MPD2    H513204   4.671   4.523  10.711  0.9155 -0.6579 -2.5240
  897MPD2    N113205   0.339   4.591  10.467 -0.4506 -0.3318  0.7703
  897MPD2    H713206   0.440   4.591  10.453 -0.7979 -1.1240 -1.8153
  898MPD2     C13207   2.064   0.779   0.056  0.3887  0.3016  0.3924
  898MPD2    C113208   2.200   0.781   0.098  0.7374 -0.3626  0.4724
  898MPD2    C213209   2.258   0.908   0.101  0.2957 -0.7112 -0.7907
  898MPD2    C313210   2.198   1.028   0.060 -0.4304  0.2822 -0.4260
  898MPD2    C413211   2.071   1.016   0.008 -0.6356 -0.0838 -0.1747
  898MPD2    C513212   2.003   0.893   0.018  0.1512 -0.1371 -0.3144
  898MPD2     H13213   2.357   0.916   0.144 -1.3608  2.0262  2.4865
  898MPD2    H113214   2.022   1.106  17.741  0.1458  1.0533  1.6060
  898MPD2    H213215   2.001   0.691   0.062  0.3406  0.3257  0.2303
  898MPD2    H313216   1.897   0.882  17.766 -0.3678  0.7487  1.7429
  898MPD2     N13217   2.285   1.136   0.067 -0.5618 -0.0188  0.7382
  898MPD2    H513218   2.370   1.123   0.121  0.2838  0.9280 -0.3708
  898MPD2    N113219   2.285   0.675   0.137 -0.3628  0.1965 -0.2998
  898MPD2    H713220   2.384   0.692   0.153 -0.6539  0.7733  0.9136
  899MPD2     C13221   3.099   1.565  17.198 -0.5840 -0.0050  0.1534
  899MPD2    C113222   3.182   1.642  17.281 -0.0508  0.3204 -0.0028
  899MPD2    C213223   3.149   1.659  17.411  0.4127  0.1702 -0.5555
  899MPD2    C313224   3.036   1.606  17.464  0.3108  0.3019  0.2456
  899MPD2    C413225   2.956   1.526  17.380  0.1162  0.2755 -0.8336
  899MPD2    C513226   2.985   1.510  17.246 -0.9736  0.4967  0.1288
  899MPD2     H13227   3.223   1.713  17.468 -0.2269  0.6019 -0.1359
  899MPD2    H113228   2.864   1.478  17.411  0.7203  0.2243  0.8564
  899MPD2    H213229   3.122   1.545  17.094 -1.5170  1.1646 -0.2778
  899MPD2    H313230   2.927   1.446  17.180 -1.5296  0.7247  0.3918
  899MPD2     N13231   3.000   1.623  17.603 -0.2655 -0.4355 -0.5717
  899MPD2    H513232   2.915   1.575  17.633 -1.2623  1.2049 -0.7511
  899MPD2    N113233   3.292   1.702  17.209 -0.0103 -0.7953 -0.1036
  899MPD2    H713234   3.291   1.696  17.108  0.7693 -0.6533 -0.1146
  900MPD2     C13235   2.039   2.532  12.690 -0.0659  0.0073 -0.8182
  900MPD2    C113236   1.984   2.444  12.773 -0.2707 -0.6769 -0.0521
  900MPD2    C213237   1.848   2.440  12.804 -0.1000  0.2569 -0.3513
  900MPD2    C313238   1.769   2.538  12.748  0.5563  0.1202 -0.5010
  900MPD2    C413239   1.832   2.642  12.671 -0.3932  0.3039  0.2560
  900MPD2    C513240   1.968   2.638  12.643  0.1374 -0.0500  0.4002
  900MPD2     H13241   1.796   2.377  12.875  1.3865 -0.9515 -0.3282
  900MPD2    H113242   1.780   2.733  12.646  0.2184 -0.1525 -2.6699
  900MPD2    H213243   2.142   2.526  12.656  0.1338  0.4742 -0.2753
  900MPD2    H313244   2.012   2.708  12.573 -1.5113 -0.6646 -1.2441
  900MPD2     N13245   1.631   2.530  12.777  0.4905 -0.6438  0.4078
  900MPD2    H513246   1.606   2.441  12.820 -0.5365 -0.2763  0.5632
  900MPD2    N113247   2.070   2.338  12.811 -0.4435 -0.0885  0.0815
  900MPD2    H713248   2.158   2.341  12.760  0.6923 -3.6312  1.7957
  901MPD2     C13249   2.496   1.380  13.196 -0.2271 -0.2492  0.2136
  901MPD2    C113250   2.593   1.462  13.136 -0.7338  0.1972  0.4211
  901MPD2    C213251   2.551   1.581  13.079 -0.4671  0.2708  0.9064
  901MPD2    C313252   2.414   1.619  13.089  0.1648  0.7095  0.3160
  901MPD2    C413253   2.324   1.531  13.144 -0.1217  1.2598  0.5520
  901MPD2    C513254   2.365   1.415  13.204 -0.2571  0.2285  0.1308
  901MPD2     H13255   2.612   1.639  13.010 -3.3204  0.5927 -1.3347
  901MPD2    H113256   2.222   1.565  13.154 -1.0486 -0.9274 -1.5077
  901MPD2    H213257   2.521   1.287  13.245 -0.4741 -0.5868 -0.3151
  901MPD2    H313258   2.291   1.350  13.249  1.3455 -0.5942  1.5507
  901MPD2     N13259   2.378   1.749  13.044 -0.3337  0.1443  0.0499
  901MPD2    H513260   2.462   1.804  13.026  0.3514 -0.5974  0.9604
  901MPD2    N113261   2.724   1.415  13.114  0.3659 -0.1835 -0.8611
  901MPD2    H713262   2.737   1.319  13.144  0.9738  0.0689 -0.3218
  902MPD2     C13263   1.756   0.899  12.714  0.8058  0.2531  0.3939
  902MPD2    C113264   1.864   0.982  12.758  1.1441 -0.6927 -0.4648
  902MPD2    C213265   1.995   0.945  12.732  0.4512  0.3096  0.4577
  902MPD2    C313266   2.023   0.833  12.656  0.8102 -0.6840 -0.5340
  902MPD2    C413267   1.920   0.769  12.605 -0.0069  0.0245  1.3523
  902MPD2    C513268   1.793   0.797  12.630  0.2928  0.1449 -1.3552
  902MPD2     H13269   2.075   0.992  12.787  1.4772  0.3165 -1.0406
  902MPD2    H113270   1.943   0.677  12.553  1.7674  0.6203  1.0601
  902MPD2    H213271   1.652   0.921  12.735  0.2426 -2.0487 -0.0257
  902MPD2    H313272   1.722   0.717  12.610 -0.1472  0.8413 -2.5790
  902MPD2     N13273   2.156   0.801  12.619 -0.1153 -0.0213 -0.5230
  902MPD2    H513274   2.167   0.728  12.549  0.0376  1.3603 -1.9322
  902MPD2    N113275   1.820   1.087  12.852 -0.0359  0.1273 -0.9735
  902MPD2    H713276   1.722   1.109  12.862  0.5969  1.0473  3.1640
  903MPD2     C13277   2.535   1.130  12.134 -0.0954 -0.1462 -0.0692
  903MPD2    C113278   2.441   1.092  12.236  0.1042 -0.0992  0.4258
  903MPD2    C213279   2.312   1.089  12.205 -0.5939  0.2945 -0.0770
  903MPD2    C313280   2.266   1.121  12.074 -0.6785 -0.6770  0.2149
  903MPD2    C413281   2.363   1.159  11.978 -0.5894  0.3850  0.8437
  903MPD2    C513282   2.493   1.155  12.009 -0.1046  0.8247 -0.3693
  903MPD2     H13283   2.243   1.063  12.284  0.7628 -1.7480  0.4506
  903MPD2    H113284   2.340   1.183  11.875 -1.4991  0.9300  1.1664
  903MPD2    H213285   2.643   1.126  12.143 -0.2951 -1.0875  1.8743
  903MPD2    H313286   2.570   1.178  11.936  0.2892 -0.8987 -0.5060
  903MPD2     N13287   2.130   1.115  12.050  0.0308  0.2838  0.4083
  903MPD2    H513288   2.071   1.094  12.130 -0.5869  0.9786  0.1323
  903MPD2    N113289   2.486   1.022  12.347  0.1460 -0.0761  0.0600
  903MPD2    H713290   2.414   0.974  12.400  0.1204  0.9108  0.9327
  904MPD2     C13291   1.474   4.573  13.951  1.1078 -0.4194  0.6109
  904MPD2    C113292   1.494   4.713  13.987  0.4277 -0.6885 -0.0530
  904MPD2    C213293   1.600   0.012  14.063 -0.3493  0.1816 -0.5737
  904MPD2    C313294   1.689   4.659  14.108 -0.0788  0.3249 -0.5415
  904MPD2    C413295   1.675   4.535  14.063  0.1965  0.2056  0.1441
  904MPD2    C513296   1.570   4.486  13.993  0.3522 -0.6409 -0.3812
  904MPD2     H13297   1.625   0.116  14.082 -1.2153  0.1673  0.6673
  904MPD2    H113298   1.751   4.461  14.087  0.3316  0.1255 -0.5358
  904MPD2    H213299   1.386   4.533  13.903  0.7871  1.4221 -0.3233
  904MPD2    H313300   1.560   4.379  13.974 -0.8234 -0.8207  1.2883
  904MPD2     N13301   1.796   4.693  14.192  0.5845 -0.2289 -0.3529
  904MPD2    H513302   1.792   0.045  14.225 -0.1246  0.1735 -1.5755
  904MPD2    N113303   1.396   0.069  13.954 -0.0456 -0.1188 -1.0407
  904MPD2    H713304   1.410   0.164  13.986 -0.1901 -0.2791 -0.5020
  905MPD2     C13305   1.049   0.099  13.274  0.5689  0.8254  0.3448
  905MPD2    C113306   1.110   0.205  13.341 -0.0664  0.3624  0.1425
  905MPD2    C213307   1.212   0.275  13.281  0.0018 -0.1006  0.4010
  905MPD2    C313308   1.268   0.233  13.161 -0.2817 -0.4644 -0.2320
  905MPD2    C413309   1.210   0.130  13.097  0.4199  0.8933 -0.4101
  905MPD2    C513310   1.104   0.067  13.156  0.0484 -0.2548 -0.3465
  905MPD2     H13311   1.244   0.366  13.330  1.3963  0.2485 -1.1485
  905MPD2    H113312   1.236   0.082  13.004  0.1487 -0.6849  0.3359
  905MPD2    H213313   0.960   0.050  13.312 -0.0430  0.7067 -1.2464
  905MPD2    H313314   1.056   4.726  13.107  0.4611 -0.4933 -0.3396
  905MPD2     N13315   1.391   0.272  13.108 -0.2444 -0.3911 -0.1383
  905MPD2    H513316   1.429   0.203  13.044 -1.9569 -1.2069 -0.2621
  905MPD2    N113317   1.070   0.221  13.474  0.0796 -0.8647 -0.0682
  905MPD2    H713318   1.026   0.142  13.521 -0.0118 -0.8068 -0.0574
  906MPD2     C13319   3.705   0.341  11.081 -0.2803 -0.4706 -0.1242
  906MPD2    C113320   3.641   0.226  11.050 -0.2863 -0.0494 -0.2915
  906MPD2    C213321   3.623   0.135  11.153  0.2320  0.0122  0.7759
  906MPD2    C313322   3.674   0.156  11.279 -0.2171 -0.1708 -0.1667
  906MPD2    C413323   3.727   0.278  11.312 -0.0324  0.4812  0.1333
  906MPD2    C513324   3.748   0.369  11.209 -0.9316  0.0705 -0.1156
  906MPD2     H13325   3.579   0.038  11.131  1.3555 -0.4126  0.4189
  906MPD2    H113326   3.770   0.311  11.405 -2.9281  1.4675  1.1066
  906MPD2    H213327   3.702   0.415  11.002  0.6404 -0.0767  0.2236
  906MPD2    H313328   3.791   0.465  11.233 -0.5220 -0.5469  1.6051
  906MPD2     N13329   3.661   0.065  11.384  0.6284  0.1783 -0.5150
  906MPD2    H513330   3.663   0.107  11.477 -2.4422  1.1726 -0.8739
  906MPD2    N113331   3.589   0.188  10.931 -0.1638 -0.1942  0.2200
  906MPD2    H713332   3.540   0.100  10.919 -0.2001 -0.3973  1.8885
  907MPD2     C13333   2.916   4.061  15.209  0.8397  0.1959 -0.4916
  907MPD2    C113334   2.897   3.926  15.209  0.1041  0.1856 -0.3591
  907MPD2    C213335   2.999   3.830  15.187 -0.2767 -0.3928  0.7824
  907MPD2    C313336   3.128   3.877  15.171 -0.0196 -0.5459  0.2786
  907MPD2    C413337   3.142   4.013  15.160  0.1856 -0.2711  0.1999
  907MPD2    C513338   3.037   4.100  15.167  0.4607  0.7079 -0.6507
  907MPD2     H13339   2.979   3.724  15.188  2.3100 -0.8815  0.0977
  907MPD2    H113340   3.234   4.053  15.117  0.4789 -2.6546 -1.4392
  907MPD2    H213341   2.840   4.135  15.230 -0.2970 -1.0863 -0.1619
  907MPD2    H313342   3.043   4.208  15.153 -0.3400  0.6640 -1.3983
  907MPD2     N13343   3.228   3.779  15.138  0.5988  0.7921  0.7785
  907MPD2    H513344   3.200   3.683  15.126 -0.2873  1.4051 -2.1127
  907MPD2    N113345   2.769   3.865  15.219 -0.2801 -0.2348  0.0185
  907MPD2    H713346   2.764   3.765  15.204 -1.6300 -0.5601  2.5908
  908MPD2     C13347   0.550   4.309   9.551  0.6917  0.1808 -0.3161
  908MPD2    C113348   0.551   4.242   9.674  0.1213  0.0469  0.4762
  908MPD2    C213349   0.520   4.319   9.785  0.3459 -0.2773 -0.2902
  908MPD2    C313350   0.492   4.452   9.781 -0.5633 -0.2248 -0.4171
  908MPD2    C413351   0.512   4.519   9.657 -0.0420 -0.1349 -0.4587
  908MPD2    C513352   0.534   4.443   9.539 -0.9925 -0.5710  0.7247
  908MPD2     H13353   0.513   4.277   9.885 -0.1543 -1.1751 -0.7038
  908MPD2    H113354   0.494   4.625   9.648  1.7619  0.1509 -0.6118
  908MPD2    H213355   0.583   4.254   9.464  0.2052  0.6292 -0.7808
  908MPD2    H313356   0.541   4.491   9.442  1.7743 -0.6207  0.9146
  908MPD2     N13357   0.458   4.527   9.892  0.2063 -0.3248 -0.3255
  908MPD2    H513358   0.470   4.477   9.980  0.8384  1.4639  0.5868
  908MPD2    N113359   0.566   4.098   9.677  0.6214  1.0603  0.0729
  908MPD2    H713360   0.575   4.061   9.583  1.7298 -0.1220  0.6541
  909MPD2     C13361   0.712   2.291  11.712 -0.1187 -0.1638 -0.0725
  909MPD2    C113362   0.770   2.415  11.724  0.5826  0.4561 -0.2560
  909MPD2    C213363   0.714   2.510  11.811  0.3279 -0.1550 -0.4274
  909MPD2    C313364   0.616   2.467  11.904 -0.0490  0.3605 -0.2887
  909MPD2    C413365   0.562   2.347  11.890 -0.1493 -0.5739  0.3423
  909MPD2    C513366   0.609   2.261  11.799 -0.2226  0.4427 -0.0939
  909MPD2     H13367   0.759   2.609  11.819  3.1140 -1.3664 -1.3057
  909MPD2    H113368   0.482   2.312  11.953 -0.5503 -1.0781 -0.4510
  909MPD2    H213369   0.741   2.206  11.651 -0.4251 -0.0640 -0.3547
  909MPD2    H313370   0.579   2.158  11.783  1.3979 -0.1704  0.7903
  909MPD2     N13371   0.581   2.570  11.995 -0.2028 -0.4163 -0.5973
  909MPD2    H513372   0.636   2.654  11.978 -0.9133  0.6181  2.2140
  909MPD2    N113373   0.880   2.456  11.644 -0.0439  0.1486  0.2353
  909MPD2    H713374   0.902   2.555  11.646  0.4468  0.0357  0.4758
  910MPD2     C13375   2.028   0.065  16.271 -0.3474 -0.2793 -0.7529
  910MPD2    C113376   2.037   4.701  16.180 -0.2518  0.6115 -0.3147
  910MPD2    C213377   1.991   4.721  16.047 -0.0144 -0.6094 -0.2144
  910MPD2    C313378   1.938   0.099  16.002 -0.5974  0.4509  0.1158
  910MPD2    C413379   1.929   0.199  16.099 -0.8631  0.3360  1.6034
  910MPD2    C513380   1.975   0.184  16.228 -0.2251 -0.2318  0.3910
  910MPD2     H13381   2.000   4.639  15.976 -1.0057 -0.8904 -0.0048
  910MPD2    H113382   1.898   0.300  16.074  0.3857 -0.1039 -1.7538
  910MPD2    H213383   2.067   0.065  16.372  2.0392  2.8283 -1.6706
  910MPD2    H313384   1.981   0.265  16.299  1.4496 -1.3485  1.5050
  910MPD2     N13385   1.883   0.120  15.873  0.2590 -0.0313 -0.6639
  910MPD2    H513386   1.849   0.212  15.851  0.7273  0.6954  1.6432
  910MPD2    N113387   2.090   4.575  16.214 -0.2585  0.2521 -0.1459
  910MPD2    H713388   2.084   4.502  16.143  0.1785 -2.2263  2.3414
  911MPD2     C13389   0.036   0.211  16.435 -0.4949 -0.3048  0.2700
  911MPD2    C113390   0.120   0.315  16.463 -0.0149  0.0224  0.3916
  911MPD2    C213391   0.083   0.450  16.429  0.1509 -0.7116 -0.4120
  911MPD2    C313392   4.707   0.473  16.362  0.3368  0.4458  0.3717
  911MPD2    C413393   4.632   0.367  16.326 -0.0635  0.5620 -0.8062
  911MPD2    C513394   4.663   0.242  16.363 -0.2228 -0.1200 -0.1487
  911MPD2     H13395   0.137   0.536  16.467  0.2855  0.1969 -2.6620
  911MPD2    H113396   4.548   0.390  16.262 -1.4939  0.5076  1.0493
  911MPD2    H213397   0.060   0.107  16.450 -2.5206 -0.7117  0.7510
  911MPD2    H313398   4.594   0.162  16.339 -3.7387  2.7495  0.3901
  911MPD2     N13399   4.652   0.604  16.344 -0.4232  0.6306  0.0932
  911MPD2    H513400   4.564   0.605  16.294  0.7373  0.3475 -1.9386
  911MPD2    N113401   0.220   0.289  16.552 -0.7502  0.2372  0.5456
  911MPD2    H713402   0.235   0.193  16.583  4.3855 -0.0499 -2.6943
  912MPD2     C13403   4.092   0.752  15.896  0.4226 -0.2263 -0.0471
  912MPD2    C113404   4.181   0.697  15.988  0.1750  0.7454  0.0995
  912MPD2    C213405   4.179   0.561  16.001  1.2481 -0.5901 -0.2027
  912MPD2    C313406   4.093   0.478  15.935  0.4300  0.9429  0.2344
  912MPD2    C413407   4.006   0.529  15.839 -0.4728  0.5762 -0.3291
  912MPD2    C513408   4.008   0.666  15.822 -0.3352  0.1391  0.6441
  912MPD2     H13409   4.244   0.506  16.069  1.8550 -1.8635 -1.8256
  912MPD2    H113410   3.942   0.471  15.774  2.7864 -3.6630  0.2846
  912MPD2    H213411   4.072   0.857  15.878  1.4279  0.4283  2.7195
  912MPD2    H313412   3.952   0.717  15.745 -2.3080 -0.6025  1.5897
  912MPD2     N13413   4.095   0.340  15.977  0.4912  0.3979 -0.5032
  912MPD2    H513414   4.154   0.325  16.058 -1.6998  1.2587  1.2509
  912MPD2    N113415   4.251   0.774  16.080  0.2996  0.4800  0.2793
  912MPD2    H713416   4.236   0.874  16.082 -2.3059  0.0645  1.5090
  913MPD2     C13417   0.344   0.892  10.426 -0.2453 -0.3037 -0.8929
  913MPD2    C113418   0.326   0.951  10.546 -0.4890 -0.2630  0.3479
  913MPD2    C213419   0.279   1.082  10.546  0.8817 -0.3375 -0.3091
  913MPD2    C313420   0.245   1.144  10.425 -0.1469  0.6455 -0.3127
  913MPD2    C413421   0.249   1.073  10.307 -0.4189 -0.7346 -0.0516
  913MPD2    C513422   0.304   0.950  10.305 -0.3264 -0.6703  0.1334
  913MPD2     H13423   0.261   1.134  10.639  0.8608 -0.1628 -0.4103
  913MPD2    H113424   0.225   1.119  10.212 -1.2766  1.8960  1.4560
  913MPD2    H213425   0.385   0.792  10.419 -0.6846 -0.5284 -0.1662
  913MPD2    H313426   0.311   0.887  10.217 -1.6490 -1.0869  0.3351
  913MPD2     N13427   0.192   1.273  10.414 -0.0035 -0.1562 -0.1128
  913MPD2    H513428   0.170   1.307  10.321  1.3878 -0.1674 -0.4553
  913MPD2    N113429   0.352   0.878  10.665  0.5633  0.1666  0.4191
  913MPD2    H713430   0.364   0.779  10.648  0.9093  0.5102 -1.3348
  914MPD2     C13431   3.206   1.798  12.351  0.2492 -0.1435  0.4381
  914MPD2    C113432   3.115   1.843  12.445  0.4582  0.4764 -0.4851
  914MPD2    C213433   3.075   1.758  12.551  0.0469 -0.0240 -0.1514
  914MPD2    C313434   3.134   1.624  12.558 -0.3317 -0.6936  0.5165
  914MPD2    C413435   3.222   1.585  12.458 -0.0216  0.0508 -0.3348
  914MPD2    C513436   3.260   1.672  12.356 -0.1047 -0.1770 -0.0994
  914MPD2     H13437   2.998   1.783  12.624  0.4862  0.3058  0.2006
  914MPD2    H113438   3.259   1.483  12.451 -1.2385 -0.2680 -2.2325
  914MPD2    H213439   3.235   1.865  12.271  0.4757 -0.0234  0.6186
  914MPD2    H313440   3.338   1.641  12.287  1.2475  4.1882 -0.5547
  914MPD2     N13441   3.091   1.543  12.665  0.0013 -0.5028  0.0145
  914MPD2    H513442   3.030   1.585  12.735 -2.0476 -1.2443 -1.3304
  914MPD2    N113443   3.058   1.974  12.423 -0.1112  0.6381 -0.5578
  914MPD2    H713444   3.101   2.033  12.352  2.8656 -0.1855  0.5363
  915MPD2     C13445   0.752   1.948  15.183 -0.6282  0.6928  0.3214
  915MPD2    C113446   0.664   1.917  15.287 -0.5209  0.1128  0.5889
  915MPD2    C213447   0.694   1.964  15.415 -0.1895  0.4737 -0.7606
  915MPD2    C313448   0.818   2.021  15.444  0.0915  0.2511 -0.1444
  915MPD2    C413449   0.895   2.061  15.340 -0.5896  0.2173  0.2622
  915MPD2    C513450   0.865   2.024  15.212 -0.2860  0.4521  0.3521
  915MPD2     H13451   0.624   1.945  15.496 -0.1111  2.5230 -0.2299
  915MPD2    H113452   0.986   2.119  15.352  1.4637 -2.9066 -0.4297
  915MPD2    H213453   0.735   1.930  15.078  2.0612 -0.5170  0.0982
  915MPD2    H313454   0.937   2.052  15.137 -0.8320 -2.2347 -1.1536
  915MPD2     N13455   0.861   2.050  15.575  0.5988 -0.1806  0.4037
  915MPD2    H513456   0.953   2.094  15.580  0.7879 -0.3837 -1.1826
  915MPD2    N113457   0.546   1.846  15.258 -0.2379 -0.2200 -0.1914
  915MPD2    H713458   0.524   1.839  15.159  0.4504  0.6318 -0.4071
  916MPD2     C13459   3.641   4.632  16.018  0.1194  0.0662 -0.2622
  916MPD2    C113460   3.649   4.559  16.133 -0.3860 -0.1530 -0.1570
  916MPD2    C213461   3.722   4.439  16.134 -1.1832 -0.0708  0.1418
  916MPD2    C313462   3.753   4.381  16.017  0.1063 -0.3717 -0.6074
  916MPD2    C413463   3.732   4.447  15.894  0.1429 -0.1332  0.6836
  916MPD2    C513464   3.675   4.569  15.899 -1.0084  0.1690  0.1614
  916MPD2     H13465   3.736   4.375  16.221  2.0009 -2.2775 -1.9580
  916MPD2    H113466   3.754   4.407  15.796 -0.6798 -1.0484  0.8733
  916MPD2    H213467   3.592   4.729  16.021 -0.1873 -0.1462  1.4538
  916MPD2    H313468   3.656   4.614  15.802 -2.9598 -2.3840 -0.6443
  916MPD2     N13469   3.828   4.258  16.031  0.0715 -0.2594  0.5841
  916MPD2    H513470   3.836   4.228  16.127 -1.6083 -0.9604  0.4954
  916MPD2    N113471   3.597   4.625  16.246 -0.5966  0.3917  0.3898
  916MPD2    H713472   3.545   4.708  16.221  2.9199  2.4470 -0.0406
  917MPD2     C13473   3.805   2.344  11.471  0.8514  0.2635 -0.1101
  917MPD2    C113474   3.846   2.441  11.558 -1.4219 -0.1539  0.1363
  917MPD2    C213475   3.916   2.553  11.513  0.6039 -0.4700  0.4336
  917MPD2    C313476   3.944   2.570  11.382 -0.5425 -0.1183  0.3083
  917MPD2    C413477   3.909   2.471  11.298  0.4469 -0.4449 -0.5839
  917MPD2    C513478   3.837   2.362  11.343  0.1763 -0.1410  0.1999
  917MPD2     H13479   3.918   2.639  11.579 -0.2966 -0.7818  0.8785
  917MPD2    H113480   3.937   2.473  11.194  1.7047 -1.2431 -0.2654
  917MPD2    H213481   3.741   2.263  11.506  1.6519 -0.5033 -0.4307
  917MPD2    H313482   3.814   2.288  11.267  3.5324 -1.4374  0.4846
  917MPD2     N13483   4.012   2.686  11.337  0.5630  0.5013 -0.4003
  917MPD2    H513484   4.021   2.690  11.236 -0.8624 -1.5140 -0.6154
  917MPD2    N113485   3.804   2.429  11.696 -0.0423  0.2302  0.2680
  917MPD2    H713486   3.745   2.348  11.711  0.6762 -0.2340  0.5566
  918MPD2     C13487   4.190   2.787  12.555  0.4944 -0.5465  0.1378
  918MPD2    C113488   4.261   2.738  12.448  1.1645 -0.1381  0.2522
  918MPD2    C213489   4.182   2.674  12.347 -0.1610 -0.4556  0.1561
  918MPD2    C313490   4.044   2.665  12.361 -0.0212  0.1995  0.1176
  918MPD2    C413491   3.979   2.718  12.474  0.6515  0.8006  0.8606
  918MPD2    C513492   4.057   2.777  12.567 -0.2780 -0.3950  0.2987
  918MPD2     H13493   4.234   2.654  12.254  2.3801 -0.9274  1.6448
  918MPD2    H113494   3.871   2.722  12.475  0.6382  0.7555 -0.2043
  918MPD2    H213495   4.233   2.841  12.639 -0.7376  0.8360 -0.1127
  918MPD2    H313496   4.002   2.834  12.641  0.6130  0.2778  0.4380
  918MPD2     N13497   3.971   2.598  12.259 -0.3308  0.2533 -0.1768
  918MPD2    H513498   4.014   2.581  12.168 -2.2723  1.3638 -1.3143
  918MPD2    N113499   4.398   2.748  12.426 -0.3837  0.0214  0.2637
  918MPD2    H713500   4.445   2.700  12.350  0.2697  0.1600  0.5767
  919MPD2     C13501   0.100   1.065  11.808 -0.2123  0.2774  0.5111
  919MPD2    C113502   0.075   0.975  11.715 -0.1822  0.4219 -0.2537
  919MPD2    C213503   0.074   1.010  11.578  0.0050  0.2137  0.2183
  919MPD2    C313504   0.091   1.142  11.540  0.4742  0.4689  0.7139
  919MPD2    C413505   0.107   1.237  11.636  0.0836  0.3814 -0.0034
  919MPD2    C513506   0.125   1.198  11.766 -0.6141  0.0344 -0.7302
  919MPD2     H13507   0.052   0.939  11.499  0.7496  0.4997 -0.2530
  919MPD2    H113508   0.112   1.343  11.614 -1.2100  0.4396 -0.0529
  919MPD2    H213509   0.113   1.049  11.914  0.5890  0.8165  0.4997
  919MPD2    H313510   0.147   1.270  11.844  0.6613 -2.0547  0.8609
  919MPD2     N13511   0.081   1.187  11.403  0.0727  0.1826 -0.0238
  919MPD2    H513512   0.098   1.285  11.383 -1.0661 -0.0168 -1.9291
  919MPD2    N113513   0.056   0.835  11.736 -0.1425 -0.4248 -0.6071
  919MPD2    H713514   0.041   0.785  11.649  1.2682  0.0266 -1.1102
  920MPD2     C13515   4.564   1.884  10.752 -0.0270  0.0303  0.3559
  920MPD2    C113516   4.560   1.775  10.670 -0.0096 -0.4039 -0.1483
  920MPD2    C213517   4.604   1.653  10.727  0.1345  0.1076  0.1132
  920MPD2    C313518   4.656   1.644  10.856  0.1424  0.2379  0.1267
  920MPD2    C413519   4.656   1.752  10.935 -0.5670  0.6411  0.2815
  920MPD2    C513520   4.620   1.870  10.876  0.2292  0.2216  0.0195
  920MPD2     H13521   4.599   1.563  10.667  2.2954 -1.2619  2.0058
  920MPD2    H113522   4.694   1.762  11.036  0.4620  0.5405 -0.0986
  920MPD2    H213523   4.526   1.983  10.730  1.4158  0.8551  1.6160
  920MPD2    H313524   4.621   1.965  10.929  1.6532 -0.3655  1.0439
  920MPD2     N13525   4.697   1.517  10.898  0.9246 -0.7205  0.3095
  920MPD2    H513526   4.672   1.444  10.832  0.0800 -1.2855  1.2598
  920MPD2    N113527   4.492   1.785  10.549 -0.5081  0.1802 -0.2461
  920MPD2    H713528   4.461   1.702  10.499  0.3996  0.0532 -0.5951
  921MPD2     C13529   0.957   0.779  16.971  0.1007 -0.7905  0.3496
  921MPD2    C113530   0.954   0.707  16.853 -0.8323  0.3885 -0.0778
  921MPD2    C213531   0.858   0.606  16.845  0.8977 -0.2106  0.8064
  921MPD2    C313532   0.774   0.568  16.948 -0.0209  0.0740 -0.3548
  921MPD2    C413533   0.779   0.639  17.062 -0.2043 -0.2596  0.1371
  921MPD2    C513534   0.863   0.747  17.072  0.8071 -0.5593  0.4960
  921MPD2     H13535   0.852   0.549  16.753 -0.1106  0.0918  0.6820
  921MPD2    H113536   0.715   0.614  17.146 -0.2723 -1.0228 -0.1424
  921MPD2    H213537   1.015   0.869  16.987  0.9573 -0.9865 -1.6267
  921MPD2    H313538   0.860   0.805  17.163 -0.3681 -0.1218  0.1698
  921MPD2     N13539   0.684   0.457  16.936 -0.4964  0.3384 -0.3531
  921MPD2    H513540   0.606   0.453  17.001 -1.9562  0.6172 -2.0930
  921MPD2    N113541   1.050   0.733  16.753  0.3808 -0.2444 -0.3723
  921MPD2    H713542   1.098   0.821  16.764 -0.6960  0.4480 -1.2347
  922MPD2     C13543   1.705   3.780  17.231 -0.1762  0.3633 -0.6997
  922MPD2    C113544   1.654   3.737  17.352 -0.0032 -0.0354  0.2376
  922MPD2    C213545   1.650   3.603  17.385  0.1602  0.0189  0.5399
  922MPD2    C313546   1.689   3.511  17.287 -0.6403 -0.3658 -0.2171
  922MPD2    C413547   1.754   3.557  17.176 -0.0603 -0.2403  0.1084
  922MPD2    C513548   1.759   3.688  17.145  0.2163 -0.5219 -0.1091
  922MPD2     H13549   1.613   3.569  17.481  0.6475 -0.4307  0.5674
  922MPD2    H113550   1.795   3.496  17.096 -0.0830  0.0134 -0.0971
  922MPD2    H213551   1.716   3.882  17.198 -1.7309  0.5503 -0.6132
  922MPD2    H313552   1.801   3.717  17.049  2.1300 -2.1656  0.2353
  922MPD2     N13553   1.655   3.380  17.309  0.5637 -0.4318  0.1525
  922MPD2    H513554   1.590   3.364  17.385 -3.0155  0.4990 -2.6965
  922MPD2    N113555   1.610   3.827  17.453  0.2770 -0.4136 -0.2927
  922MPD2    H713556   1.606   3.786  17.546 -1.9436 -0.5475 -0.4607
  923MPD2     C13557   2.330   4.419   9.581  0.0762  0.2171 -0.5975
  923MPD2    C113558   2.355   4.493   9.696  0.3773 -0.0500  0.3014
  923MPD2    C213559   2.483   4.511   9.743 -0.0587  0.1801 -0.0351
  923MPD2    C313560   2.588   4.437   9.680 -0.0673  0.6480  0.1479
  923MPD2    C413561   2.559   4.358   9.567  0.4080 -0.1588  0.2791
  923MPD2    C513562   2.429   4.354   9.518 -0.1349  0.1160  0.2966
  923MPD2     H13563   2.506   4.580   9.822  1.1751  2.1687 -2.1177
  923MPD2    H113564   2.635   4.296   9.522  2.5837  2.6762  0.0920
  923MPD2    H213565   2.233   4.408   9.535 -0.9811  0.7491  1.5302
  923MPD2    H313566   2.400   4.290   9.436  2.6909  0.3456 -0.9106
  923MPD2     N13567   2.725   4.425   9.730 -0.5192  0.1688  0.1735
  923MPD2    H513568   2.798   4.382   9.675  0.3525  3.3873 -1.1360
  923MPD2    N113569   2.251   4.573   9.744 -0.0698  0.0682  0.4310
  923MPD2    H713570   2.162   4.546   9.702  0.9215 -1.8070 -0.4650
  924MPD2     C13571   2.970   3.197  15.486 -0.8743 -0.9654  0.1512
  924MPD2    C113572   3.059   3.271  15.561  0.2913  0.7220 -0.3524
  924MPD2    C213573   3.185   3.295  15.508 -0.2508 -0.4370 -0.0430
  924MPD2    C313574   3.215   3.273  15.377  0.0244 -0.2986 -0.3317
  924MPD2    C413575   3.121   3.218  15.294  0.4096  0.3776  0.0369
  924MPD2    C513576   3.006   3.165  15.354  0.8339 -0.2814 -0.6308
  924MPD2     H13577   3.270   3.335  15.563  1.2933 -0.7719 -2.1438
  924MPD2    H113578   3.140   3.176  15.196 -0.3200  0.3770 -0.1074
  924MPD2    H213579   2.874   3.160  15.519 -0.4826 -1.2908  0.9033
  924MPD2    H313580   2.943   3.102  15.292 -0.2151  1.2637 -1.1333
  924MPD2     N13581   3.345   3.318  15.342 -0.1245  0.4057 -0.6744
  924MPD2    H513582   3.408   3.360  15.409  0.8366  0.1517 -1.4257
  924MPD2    N113583   3.027   3.288  15.699  0.1276  0.0104  0.3125
  924MPD2    H713584   2.938   3.252  15.730 -1.1798  1.8314 -1.3117
  925MPD2     C13585   1.702   1.270  14.981 -0.3856  0.2948 -0.1941
  925MPD2    C113586   1.590   1.307  14.914  0.4496  0.0923 -0.6926
  925MPD2    C213587   1.487   1.351  14.994  0.5322 -0.7305 -0.2612
  925MPD2    C313588   1.508   1.383  15.125 -0.0831  0.0207 -0.0763
  925MPD2    C413589   1.627   1.363  15.184  0.0211  0.3053  0.6827
  925MPD2    C513590   1.729   1.309  15.109  0.0664 -0.1641  0.0574
  925MPD2     H13591   1.385   1.346  14.957 -0.8328  0.6735  3.3103
  925MPD2    H113592   1.640   1.394  15.287  0.6592 -1.6175  1.1848
  925MPD2    H213593   1.774   1.198  14.945 -0.3552 -0.2056  0.8847
  925MPD2    H313594   1.818   1.275  15.159 -0.4734  0.3249  1.3549
  925MPD2     N13595   1.404   1.417  15.214 -0.0135  0.5138 -0.1740
  925MPD2    H513596   1.431   1.418  15.311  2.1107 -2.2519 -0.7322
  925MPD2    N113597   1.559   1.273  14.779 -0.4878 -0.5938 -0.6293
  925MPD2    H713598   1.468   1.298  14.741 -0.4348  0.4150 -0.1125
  926MPD2     C13599   4.592   4.215  13.524 -0.0684 -0.9374  0.1983
  926MPD2    C113600   4.515   4.308  13.457 -0.3953  0.1868 -0.1279
  926MPD2    C213601   4.564   4.348  13.332 -0.0134  0.1051  0.1081
  926MPD2    C313602   4.685   4.302  13.279 -0.1066 -0.4941  0.8070
  926MPD2    C413603   0.024   4.223  13.358  1.1710 -0.2333  0.3052
  926MPD2    C513604   4.714   4.182  13.478 -0.8190 -0.2598  1.4099
  926MPD2     H13605   4.511   4.425  13.277 -1.4618 -0.6836  0.4081
  926MPD2    H113606   0.124   4.190  13.334  1.3891  0.3033  0.4726
  926MPD2    H213607   4.560   4.169  13.617 -3.5874  0.6320 -0.2055
  926MPD2    H313608   0.026   4.112  13.540  0.6893 -0.0787  0.2524
  926MPD2     N13609   0.003   4.349  13.160  0.5877  0.9491  0.2064
  926MPD2    H513610   0.101   4.327  13.144  0.8991  3.1597 -1.0169
  926MPD2    N113611   4.393   4.367  13.505 -0.7350  0.0052 -0.2630
  926MPD2    H713612   4.347   4.431  13.441 -0.3003  0.0584 -0.5198
  927MPD2     C13613   0.250   2.119  17.596  0.4263  0.2204  0.2737
  927MPD2    C113614   0.231   1.984  17.577 -0.0460 -0.6345  0.1374
  927MPD2    C213615   0.312   1.914  17.490  0.2709  0.0155 -0.7979
  927MPD2    C313616   0.408   1.980  17.414  0.8033 -0.5784  0.5992
  927MPD2    C413617   0.433   2.106  17.453  0.0730  0.0296  0.1060
  927MPD2    C513618   0.353   2.176  17.535  0.3694 -0.1071 -0.2247
  927MPD2     H13619   0.286   1.818  17.446 -1.2363  0.0643 -0.0186
  927MPD2    H113620   0.518   2.159  17.412  0.5212 -0.8937 -0.1621
  927MPD2    H213621   0.181   2.174  17.659 -0.3877  1.3523 -1.6051
  927MPD2    H313622   0.376   2.278  17.563  1.6397 -0.2309 -0.8467
  927MPD2     N13623   0.487   1.909  17.322  0.1732  0.2920 -0.0761
  927MPD2    H513624   0.475   1.810  17.308 -0.6187  0.1278  1.7655
  927MPD2    N113625   0.120   1.929  17.635 -0.2316  0.3688 -0.9483
  927MPD2    H713626   0.054   1.993  17.679 -0.5904  0.3213 -1.4128
  928MPD2     C13627   3.207   0.093   1.172 -1.2254 -0.0330  0.0799
  928MPD2    C113628   3.172   0.226   1.130  0.1991 -0.6453  0.0254
  928MPD2    C213629   3.128   0.240   1.004 -0.0072  0.1365  0.6636
  928MPD2    C313630   3.113   0.139   0.909 -0.0865 -0.0791 -0.0840
  928MPD2    C413631   3.142   0.008   0.951 -0.5706 -0.2307 -0.4067
  928MPD2    C513632   3.181   4.731   1.088  0.2185 -0.3914 -0.3039
  928MPD2     H13633   3.112   0.345   0.981 -0.8506 -0.3839 -1.1144
  928MPD2    H113634   3.127   4.661   0.894  0.4854 -0.1764 -0.7811
  928MPD2    H213635   3.248   0.078   1.272 -2.1965 -1.1190  0.3175
  928MPD2    H313636   3.210   4.631   1.116  0.7828  0.2100  1.2583
  928MPD2     N13637   3.079   0.173   0.782 -0.1734  0.2346 -0.7960
  928MPD2    H513638   3.073   0.274   0.779  3.0457  0.4110 -1.1182
  928MPD2    N113639   3.173   0.330   1.223  0.3327  0.8195 -0.3628
  928MPD2    H713640   3.230   0.322   1.306  2.1275  0.0328 -1.6709
  929MPD2     C13641   2.980   4.592  11.173  0.2119  0.4134  0.0386
  929MPD2    C113642   2.842   4.579  11.156  0.4945  0.3709 -0.3116
  929MPD2    C213643   2.800   4.573  11.023 -0.7286  0.9366  0.6296
  929MPD2    C313644   2.891   4.594  10.919  0.4910  0.7883  0.2389
  929MPD2    C413645   3.029   4.617  10.939  0.1073  0.0501  0.1367
  929MPD2    C513646   3.074   4.613  11.068 -0.4590 -0.3972  0.2591
  929MPD2     H13647   2.693   4.586  11.010 -0.7145 -0.6668 -1.1652
  929MPD2    H113648   3.102   4.641  10.863  1.2289 -1.4125  0.7363
  929MPD2    H213649   3.030   4.587  11.269 -0.3875  1.2073  0.3945
  929MPD2    H313650   3.182   4.616  11.082 -0.3306 -0.1642 -0.8563
  929MPD2     N13651   2.853   4.592  10.782 -0.5189 -0.3626  0.5153
  929MPD2    H513652   2.923   4.631  10.720 -1.6186  1.7733  0.6283
  929MPD2    N113653   2.754   4.566  11.261  0.6843  0.0048  0.1240
  929MPD2    H713654   2.785   4.583  11.356  0.6077  1.0811 -0.0445
  930MPD2     C13655   4.694   2.397  14.044 -0.0555 -0.4961 -0.4112
  930MPD2    C113656   4.731   2.485  13.945 -0.3093  0.3869 -0.2286
  930MPD2    C213657   4.694   2.455  13.812 -0.0295  0.2903 -0.3413
  930MPD2    C313658   4.622   2.341  13.789 -0.1164 -0.1930  0.6741
  930MPD2    C413659   4.590   2.257  13.891  0.3150 -0.6078 -0.3894
  930MPD2    C513660   4.627   2.284  14.021 -0.2521 -0.3794  0.7292
  930MPD2     H13661   4.728   2.515  13.729  1.3227 -2.7775 -2.0170
  930MPD2    H113662   4.543   2.161  13.875 -0.9277 -0.0924  0.1389
  930MPD2    H213663   4.708   2.415  14.150 -2.3852  1.5147 -0.4521
  930MPD2    H313664   4.578   2.220  14.094 -1.6607  0.8810  0.8810
  930MPD2     N13665   4.586   2.289  13.663  0.2752  1.0093  0.7363
  930MPD2    H513666   4.541   2.198  13.656  1.1205  0.8040 -1.8328
  930MPD2    N113667   0.069   2.598  13.978  0.5875  0.2652  0.8672
  930MPD2    H713668   0.070   2.615  14.078  0.7583 -1.6205  1.1931
  931MPD2     C13669   0.155   1.249   0.230  0.7061  0.3366  0.8909
  931MPD2    C113670   0.055   1.321   0.290 -0.7374 -0.5215  0.0888
  931MPD2    C213671   4.741   1.271   0.406  0.2834 -0.2684 -0.0242
  931MPD2    C313672   0.032   1.139   0.452 -0.5846 -0.7528  0.1589
  931MPD2    C413673   0.147   1.076   0.391 -0.3863  0.0853  0.0900
  931MPD2    C513674   0.201   1.128   0.281  0.3925 -0.1647  0.1693
  931MPD2     H13675   4.660   1.328   0.449 -1.0487 -0.6245 -2.0199
  931MPD2    H113676   0.190   0.981   0.422  0.2598 -0.0032 -1.0563
  931MPD2    H213677   0.207   1.280   0.140 -0.7786  0.9137  0.2381
  931MPD2    H313678   0.278   1.075   0.227 -0.5395 -0.9945 -0.3546
  931MPD2     N13679   4.726   1.077   0.572  0.5159  0.0460  0.5253
  931MPD2    H513680   0.013   0.984   0.602  1.1259 -0.2089 -0.8803
  931MPD2    N113681   0.020   1.441   0.227  0.8732  0.5113  0.0215
  931MPD2    H713682   0.076   1.462   0.145  1.1806 -3.0819 -0.6798
  932MPD2     C13683   1.679   0.541  11.230 -0.1052 -0.4662 -0.5772
  932MPD2    C113684   1.757   0.622  11.317  0.3825  0.0159 -0.3911
  932MPD2    C213685   1.824   0.556  11.419 -0.2691 -0.0846 -0.8035
  932MPD2    C313686   1.834   0.417  11.422  0.6037 -0.8565  0.0984
  932MPD2    C413687   1.760   0.342  11.334 -0.4611 -0.2655 -0.6845
  932MPD2    C513688   1.685   0.406  11.239 -0.6079  0.3905  0.4569
  932MPD2     H13689   1.885   0.615  11.487 -0.5889  0.3127 -0.8631
  932MPD2    H113690   1.766   0.234  11.329  1.4814 -0.1816 -0.1584
  932MPD2    H213691   1.609   0.578  11.156 -0.0857  0.4269 -0.1594
  932MPD2    H313692   1.630   0.355  11.160  1.0791 -0.8079  0.0683
  932MPD2     N13693   1.908   0.344  11.523 -0.3874 -0.0870  0.1044
  932MPD2    H513694   1.913   0.244  11.509  3.6619  0.5404 -2.9436
  932MPD2    N113695   1.757   0.764  11.304  0.1580  0.0020  0.3540
  932MPD2    H713696   1.824   0.807  11.367  1.5971  0.2834 -1.3602
  933MPD2     C13697   2.724   0.778   1.791 -0.1666 -0.0476 -0.5498
  933MPD2    C113698   2.767   0.813   1.661 -0.2011 -0.0084  0.5320
  933MPD2    C213699   2.716   0.924   1.603 -0.0866 -0.0679  0.5654
  933MPD2    C313700   2.608   0.992   1.659 -0.7916  0.5163  0.1564
  933MPD2    C413701   2.552   0.947   1.779  0.2094  0.2812 -0.1774
  933MPD2    C513702   2.618   0.844   1.841  0.2067  0.3655 -0.1507
  933MPD2     H13703   2.755   0.962   1.510 -2.4736  0.4401 -0.2345
  933MPD2    H113704   2.492   1.004   1.849  2.2537  0.0758  1.7635
  933MPD2    H213705   2.764   0.690   1.840 -0.5814 -0.2721 -0.6172
  933MPD2    H313706   2.581   0.813   1.938  2.3038 -0.4951  0.3759
  933MPD2     N13707   2.556   1.106   1.590  0.0905  0.2390  0.0489
  933MPD2    H513708   2.600   1.130   1.501  0.9805 -2.1434 -0.1607
  933MPD2    N113709   2.883   0.754   1.614 -0.0407 -0.1971 -0.5758
  933MPD2    H713710   2.927   0.680   1.668 -2.5485 -1.4104 -0.1986
  934MPD2     C13711   4.128   3.054   1.893  0.7141  0.1575 -0.0743
  934MPD2    C113712   4.192   2.999   1.782  0.3729 -0.1407 -0.8056
  934MPD2    C213713   4.121   2.910   1.701 -0.6629  0.3880 -0.4683
  934MPD2    C313714   3.984   2.898   1.715  0.1455 -0.3920 -0.6938
  934MPD2    C413715   3.921   2.958   1.826  0.4395  0.4353  0.4464
  934MPD2    C513716   3.995   3.027   1.921  0.1672 -0.1731 -0.0656
  934MPD2     H13717   4.181   2.864   1.623  0.6008  0.0942  0.6927
  934MPD2    H113718   3.816   2.941   1.846  0.5231  0.9646  1.3038
  934MPD2    H213719   4.170   3.134   1.953  0.0778  0.9586 -0.6841
  934MPD2    H313720   3.946   3.075   2.004  0.6373  1.2350 -0.5988
  934MPD2     N13721   3.906   2.835   1.612 -0.0237 -0.0938  0.3536
  934MPD2    H513722   3.810   2.825   1.644 -0.1507  1.1410  0.3471
  934MPD2    N113723   4.323   3.029   1.743 -0.1643  0.1831  0.1552
  934MPD2    H713724   4.345   2.990   1.652 -0.8086  0.2016 -0.0123
  935MPD2     C13725   3.916   1.975   1.229  0.0825  0.5032 -0.5793
  935MPD2    C113726   3.855   2.030   1.114  0.3223 -0.0935  0.4549
  935MPD2    C213727   3.821   2.170   1.122  0.0068 -0.8013 -0.3173
  935MPD2    C313728   3.839   2.241   1.242  0.0543 -0.4124 -0.2918
  935MPD2    C413729   3.906   2.190   1.349  0.0999 -0.0507 -0.7528
  935MPD2    C513730   3.945   2.060   1.335  0.5685  0.3985  0.2236
  935MPD2     H13731   3.772   2.220   1.039  1.2990 -0.4666 -0.8747
  935MPD2    H113732   3.931   2.247   1.437  2.6328 -1.4923 -0.5351
  935MPD2    H213733   3.945   1.872   1.242 -2.2354 -0.2392 -1.3184
  935MPD2    H313734   4.004   2.019   1.417 -0.9985 -0.0037  1.1443
  935MPD2     N13735   3.791   2.372   1.267 -0.1873  0.0257  0.0413
  935MPD2    H513736   3.797   2.402   1.364 -0.1428  1.5038 -0.4187
  935MPD2    N113737   3.832   1.951   0.992  0.2667  0.2350 -0.0717
  935MPD2    H713738   3.790   2.003   0.916 -0.2761  0.5785  0.4561
  936MPD2     C13739   1.912   4.091  12.910 -0.2200 -1.0657  0.5694
  936MPD2    C113740   1.998   4.201  12.935 -0.0777  0.0001 -0.9664
  936MPD2    C213741   2.120   4.204  12.873 -0.2128  0.5948  0.1544
  936MPD2    C313742   2.156   4.106  12.781  0.2094  0.8218 -0.1898
  936MPD2    C413743   2.068   4.003  12.761 -0.6216  0.6575  0.3319
  936MPD2    C513744   1.951   3.985  12.834 -0.2648 -0.2532  1.0968
  936MPD2     H13745   2.187   4.287  12.889  0.5235  0.1696 -0.7388
  936MPD2    H113746   2.075   3.933  12.679  0.5318  1.4355 -0.2263
  936MPD2    H213747   1.815   4.080  12.957  0.0511  0.0095  1.3748
  936MPD2    H313748   1.893   3.899  12.804 -0.0271  0.4512 -1.4393
  936MPD2     N13749   2.252   4.130  12.687  0.3948 -0.1763 -0.1826
  936MPD2    H513750   2.248   4.065  12.609  2.5870  0.4721 -0.8285
  936MPD2    N113751   1.948   4.322  12.994 -0.5241 -0.5231  0.6155
  936MPD2    H713752   2.002   4.405  12.971  1.3210 -2.0046 -0.3745
  937MPD2     C13753   0.273   0.184  11.470 -0.0920  0.1555 -0.5860
  937MPD2    C113754   0.285   0.320  11.502  0.5014  0.3347  0.2966
  937MPD2    C213755   0.363   0.397  11.417 -0.0593  0.1579  0.2399
  937MPD2    C313756   0.429   0.342  11.311  0.1511  0.0523  0.0263
  937MPD2    C413757   0.424   0.204  11.289 -0.4831 -0.1116 -0.2894
  937MPD2    C513758   0.337   0.127  11.367 -0.1986  0.0928  0.0849
  937MPD2     H13759   0.386   0.498  11.448 -0.3709  0.4225 -0.3834
  937MPD2    H113760   0.464   0.145  11.208  1.6530 -0.0349  0.7004
  937MPD2    H213761   0.221   0.122  11.543  1.0087 -1.6534 -1.3311
  937MPD2    H313762   0.325   0.023  11.339  0.7885  0.0811 -0.2991
  937MPD2     N13763   0.522   0.424  11.242 -0.6920  0.1892 -0.2722
  937MPD2    H513764   0.542   0.519  11.270 -0.7984  0.0519  0.2599
  937MPD2    N113765   0.200   0.383  11.594 -0.6253 -0.3118 -0.7128
  937MPD2    H713766   0.199   0.484  11.603 -0.0312 -0.3260 -0.4891
  938MPD2     C13767   3.142   2.496   0.622  0.1493  0.4748  0.2723
  938MPD2    C113768   3.124   2.525   0.759 -0.1336 -0.0904  0.5355
  938MPD2    C213769   3.049   2.436   0.841 -0.0138 -0.0804  0.8012
  938MPD2    C313770   3.022   2.308   0.796  0.3035  0.3123 -0.8770
  938MPD2    C413771   3.027   2.284   0.662 -0.0702 -0.4967 -0.3309
  938MPD2    C513772   3.079   2.380   0.579  0.3349 -0.4227  0.0270
  938MPD2     H13773   3.005   2.467   0.935  0.1887 -0.2957  0.9682
  938MPD2    H113774   2.988   2.193   0.617  0.0723 -1.6392  1.8830
  938MPD2    H213775   3.180   2.573   0.556 -0.4700 -0.6925 -1.4334
  938MPD2    H313776   3.074   2.358   0.473 -0.8280  0.7404 -0.1560
  938MPD2     N13777   2.977   2.201   0.882 -0.3384 -0.5778 -0.1117
  938MPD2    H513778   2.961   2.109   0.843 -3.3814 -0.3274  0.5973
  938MPD2    N113779   3.148   2.647   0.814  0.1470  0.1169 -0.2067
  938MPD2    H713780   3.124   2.659   0.912 -0.2897  2.0611 -0.5471
  939MPD2     C13781   4.700   2.657   0.818 -0.1213  0.2269 -0.0073
  939MPD2    C113782   4.590   2.736   0.791  0.6485  0.2634  0.6266
  939MPD2    C213783   4.517   2.723   0.676 -0.4522 -0.2090 -0.1517
  939MPD2    C313784   4.536   2.612   0.592  0.4254 -0.7403  0.5042
  939MPD2    C413785   4.632   2.521   0.630 -0.3166 -0.0563  0.0505
  939MPD2    C513786   4.706   2.543   0.745  0.5285 -0.2711  0.4165
  939MPD2     H13787   4.446   2.800   0.649 -0.5057 -0.9607 -2.1206
  939MPD2    H113788   4.655   2.427   0.580  0.0158 -0.1012  0.2854
  939MPD2    H213789   0.009   2.657   0.913 -2.3484 -0.3998  1.2374
  939MPD2    H313790   0.042   2.473   0.765  3.0053  2.8566  1.5279
  939MPD2     N13791   4.455   2.615   0.477  0.1832  0.1703 -0.4284
  939MPD2    H513792   4.383   2.684   0.459  1.3823  1.3455 -0.7495
  939MPD2    N113793   4.563   2.833   0.891 -0.2151  0.1175 -0.4907
  939MPD2    H713794   4.636   2.859   0.956 -0.4326  0.4689 -0.3849
  940MPD2     C13795   2.344   4.295  13.246  0.2607 -0.3871 -0.0568
  940MPD2    C113796   2.230   4.249  13.307  0.7106 -0.7259 -0.6341
  940MPD2    C213797   2.181   4.128  13.253  0.0606 -0.0991  0.4508
  940MPD2    C313798   2.251   4.056  13.157 -0.1889 -0.8447 -0.2898
  940MPD2    C413799   2.371   4.109  13.105  0.4532 -0.3276  0.5881
  940MPD2    C513800   2.407   4.236  13.141  0.2551  0.1638 -0.3289
  940MPD2     H13801   2.100   4.094  13.317  0.0973  1.4229  1.3085
  940MPD2    H113802   2.433   4.054  13.035 -0.3962  0.5009 -0.8178
  940MPD2    H213803   2.385   4.393  13.267 -1.2218 -0.4450  3.1630
  940MPD2    H313804   2.489   4.290  13.096 -0.7941  1.0898 -1.1440
  940MPD2     N13805   2.206   3.928  13.117 -0.0087 -0.5024 -0.5309
  940MPD2    H513806   2.269   3.891  13.046  0.5892 -1.3330  0.4317
  940MPD2    N113807   2.161   4.309  13.415 -0.6994  0.2267 -0.0467
  940MPD2    H713808   2.079   4.263  13.452 -1.0370 -0.3531 -1.5222
  941MPD2     C13809   1.721   3.298   9.739 -0.2713 -1.0726 -0.4824
  941MPD2    C113810   1.852   3.244   9.757  0.0705  0.4170 -0.1913
  941MPD2    C213811   1.878   3.151   9.854 -0.5148  0.2209  0.2196
  941MPD2    C313812   1.772   3.103   9.930 -0.4347  0.3651  0.5101
  941MPD2    C413813   1.642   3.155   9.907  0.3511  0.6301  0.1004
  941MPD2    C513814   1.620   3.256   9.820 -0.4102  0.3476  0.6731
  941MPD2     H13815   1.979   3.114   9.871 -0.9852 -1.0213  0.3728
  941MPD2    H113816   1.558   3.110   9.959  0.0136  2.6878  1.3234
  941MPD2    H213817   1.702   3.368   9.658 -2.6447 -3.9265 -2.4140
  941MPD2    H313818   1.519   3.287   9.794 -1.4870 -2.2845  1.6648
  941MPD2     N13819   1.781   2.990  10.011  0.0623  0.2118 -0.7989
  941MPD2    H513820   1.699   2.971  10.067  0.2823  0.1738 -0.4878
  941MPD2    N113821   1.962   3.300   9.677 -0.9012 -0.2186  0.0014
  941MPD2    H713822   2.058   3.273   9.700 -0.2649  3.1950  1.3197
  942MPD2     C13823   1.163   4.710  10.089 -0.9613 -0.1508 -0.2514
  942MPD2    C113824   1.287   0.022  10.093  0.0754  0.0330  0.5711
  942MPD2    C213825   1.393   4.673  10.112 -0.0758  0.4446 -0.0452
  942MPD2    C313826   1.374   4.533  10.117  0.5951 -0.1213 -1.1090
  942MPD2    C413827   1.248   4.483  10.101  0.3868  0.2651  0.3746
  942MPD2    C513828   1.146   4.572  10.087 -0.2949  0.4302  0.3090
  942MPD2     H13829   1.497   4.703  10.111 -0.0794  0.4087 -0.8763
  942MPD2    H113830   1.232   4.375  10.102  2.9750 -0.1037  1.3230
  942MPD2    H213831   1.078   0.028  10.060 -0.7857  1.4374  2.6198
  942MPD2    H313832   1.046   4.538  10.061  0.3537 -0.0100 -1.6059
  942MPD2     N13833   1.487   4.442  10.135  0.0555 -0.4757 -0.2622
  942MPD2    H513834   1.463   4.353  10.094  2.6790 -1.4057  0.2341
  942MPD2    N113835   1.316   0.162  10.083 -0.8834 -0.2204 -0.2830
  942MPD2    H713836   1.407   0.195  10.113  0.0704 -1.9890 -1.3029
  943MPD2     C13837   1.096   2.379  10.436 -0.1477 -0.3008  0.9908
  943MPD2    C113838   1.039   2.465  10.526 -0.1221 -0.1732  0.5480
  943MPD2    C213839   1.063   2.605  10.504 -0.0169  0.5669 -0.0040
  943MPD2    C313840   1.151   2.650  10.415 -0.0684 -0.9726  0.3912
  943MPD2    C413841   1.221   2.558  10.335 -0.4705  0.2557 -0.1565
  943MPD2    C513842   1.192   2.424  10.353  0.3144 -0.4119 -0.7605
  943MPD2     H13843   1.004   2.675  10.561  1.0723 -0.5420  2.5129
  943MPD2    H113844   1.289   2.593  10.258 -1.0125 -1.0061 -1.2058
  943MPD2    H213845   1.061   2.277  10.420  1.2230 -0.6247  0.0493
  943MPD2    H313846   1.239   2.359  10.280  2.9864 -0.3761  0.9259
  943MPD2     N13847   1.178   2.789  10.398  0.1417 -0.2548 -1.0978
  943MPD2    H513848   1.244   2.809  10.324 -1.7175  2.7420 -1.9317
  943MPD2    N113849   0.940   2.421  10.620  0.2834  0.3107  0.0821
  943MPD2    H713850   0.894   2.331  10.616  1.7526 -0.4227 -0.6371
  944MPD2     C13851   0.279   1.946  10.992  0.0043  0.8883  0.5793
  944MPD2    C113852   0.418   1.947  11.005  0.4583  0.3365  0.7128
  944MPD2    C213853   0.477   2.018  11.117  0.2968 -0.2719  0.2372
  944MPD2    C313854   0.389   2.077  11.205 -0.5128  0.0192  0.1824
  944MPD2    C413855   0.254   2.065  11.202  0.0862 -0.1052  0.5137
  944MPD2    C513856   0.206   2.012  11.085  0.3209 -0.7017 -0.3922
  944MPD2     H13857   0.582   2.037  11.132  0.8051 -1.2400 -2.1588
  944MPD2    H113858   0.196   2.123  11.272  1.2646  1.4638  0.1964
  944MPD2    H213859   0.230   1.916  10.900  3.9817 -2.3253 -0.5008
  944MPD2    H313860   0.099   2.017  11.067  0.0813 -1.0263  0.9414
  944MPD2     N13861   0.447   2.156  11.304 -0.5295 -0.1729 -0.3211
  944MPD2    H513862   0.548   2.158  11.312 -0.6126  1.5526  0.1590
  944MPD2    N113863   0.489   1.897  10.896  0.4576 -0.1032  0.3935
  944MPD2    H713864   0.434   1.836  10.837 -1.0256  1.7504 -0.1477
    1TMC1    C113865   4.159   3.101  14.431  0.4636 -0.1770  0.2475
    1TMC1    C213866   4.080   3.122  14.316  0.3511  0.4023 -0.8675
    1TMC1    C313867   4.052   3.009  14.240  0.8051  0.2446 -0.3933
    1TMC1    C413868   4.193   2.978  14.473 -0.0553 -0.0278 -0.4635
    1TMC1    C513869   4.157   2.873  14.407 -0.4238  0.4490  0.8415
    1TMC1    C613870   4.092   2.885  14.291  0.4689 -0.1226  0.2835
    1TMC1     C13871   4.203   3.211  14.518  0.2560  0.1277 -0.1828
    1TMC1     O13872   4.291   3.184  14.596 -0.2344  0.1092  0.3351
    1TMC1     H13873   4.046   3.215  14.272  1.6725  1.5723  0.5990
    1TMC1    H113874   4.275   2.968  14.544 -2.3464  0.7548  2.3029
    1TMC1    H213875   4.049   2.797  14.246  1.5086 -1.6752  2.3570
    1TMC1    C713876   4.242   2.755  14.423  0.4061  0.3999 -0.4955
    1TMC1    C813877   3.937   3.009  14.153 -0.3936 -0.1687  0.2457
    1TMC1    O113878   4.271   2.695  14.524  0.2464  0.9352  0.1480
    1TMC1    O213879   3.918   2.908  14.091 -0.4894  0.1048 -0.2485
    1TMC1    O313880   4.292   2.745  14.294  0.5255  0.0439  0.3444
    1TMC1    H313881   4.286   2.818  14.229  0.4209  1.0713  1.5147
    1TMC1    O513882   3.840   3.089  14.199 -0.2656 -0.0725 -0.3539
    1TMC1    H513883   3.861   3.141  14.280 -0.8063 -1.2122  0.5241
    2MPD2     C13884   4.104   3.662  14.722 -1.0109 -0.1057  0.2549
    2MPD2    C113885   4.014   3.641  14.618 -0.0607 -0.6954  0.0045
    2MPD2    C213886   4.033   3.524  14.544  0.2363  0.4603 -0.3121
    2MPD2    C313887   4.125   3.429  14.578  0.1648  0.0006  0.3914
    2MPD2    C413888   4.206   3.445  14.690  0.6241 -0.0227  0.8677
    2MPD2    C513889   4.196   3.560  14.758 -0.0539  0.1461 -1.1210
    2MPD2     H13890   3.975   3.508  14.454 -0.9515 -0.3526  0.5915
    2MPD2    H113891   4.283   3.377  14.725  1.4532 -0.4330 -1.7279
    2MPD2    H213892   4.098   3.750  14.785 -1.2961 -0.3879  0.6184
    2MPD2    H313893   4.257   3.573  14.847 -1.5249  0.6820 -0.1850
    2MPD2     N13894   4.130   3.321  14.485  0.2592 -0.1628 -1.0419
    2MPD2    H513895   4.068   3.324  14.405 -0.9621  0.5147 -0.0767
    2MPD2    N113896   3.924   3.741  14.583 -0.0579 -0.8011 -0.1236
    2MPD2    H713897   3.918   3.822  14.644  0.5840 -1.6238  1.0239
    3TMC2    C113898   3.767   3.863  14.457  0.6824  0.4432 -0.0404
    3TMC2    C213899   3.821   3.986  14.485 -0.2464  0.4646 -0.1245
    3TMC2    C313900   3.744   4.096  14.453 -0.1142  0.9474 -0.3696
    3TMC2    C413901   3.655   3.852  14.383 -0.3623  0.1679 -0.2608
    3TMC2    C513902   3.588   3.962  14.349 -0.6371  0.4218 -0.6934
    3TMC2    C613903   3.632   4.085  14.379 -0.4407  0.3421 -0.0505
    3TMC2     C13904   3.834   3.740  14.474  0.0985  0.1485 -0.9037
    3TMC2     O13905   3.813   3.652  14.388 -0.0997 -0.1876  0.1153
    3TMC2     H13906   3.912   4.001  14.541 -0.5130 -2.6807  1.1413
    3TMC2    H113907   3.606   3.757  14.364 -2.2521  1.2663 -0.8430
    3TMC2    H213908   3.568   4.170  14.359 -0.6698  0.2443  0.2681
    3TMC2    C713909   3.466   3.949  14.280  0.1642 -0.0506 -0.6237
    3TMC2    C813910   3.809   4.225  14.472  0.1865 -0.5171 -0.2263
    3TMC2    O113911   3.427   3.835  14.289  0.2169  0.1761  0.1346
    3TMC2    O213912   3.929   4.238  14.462  0.3117 -0.1424 -0.1301
    3TMC2    O513913   3.718   4.320  14.433  0.0447 -0.1983 -0.2891
    3TMC2    H513914   3.623   4.303  14.450 -0.0750 -0.9961 -1.7771
    4TMC2    C113915   3.125   4.303  13.409  0.0124  0.1660 -0.1984
    4TMC2    C213916   3.196   4.414  13.371  0.3680 -0.2709  0.0588
    4TMC2    C313917   3.315   4.454  13.429  0.1911 -0.5415  0.4429
    4TMC2    C413918   3.176   4.219  13.504 -0.1738  0.3133  0.4108
    4TMC2    C513919   3.294   4.261  13.565  0.3166  0.0352 -0.0403
    4TMC2    C613920   3.360   4.379  13.528 -0.0605 -0.6105 -0.0456
    4TMC2     C13921   3.047   4.228  13.314  0.0087 -0.1286 -0.2015
    4TMC2     O13922   3.030   4.109  13.335 -0.4342  0.4041 -0.3664
    4TMC2     H13923   3.168   4.457  13.276  1.8708  1.6398  0.4691
    4TMC2    H113924   3.128   4.125  13.531  0.1401  0.6147  2.0106
    4TMC2    H213925   3.462   4.403  13.556 -0.5922  1.3658  0.1452
    4TMC2    C713926   3.332   4.210  13.696 -0.1959  0.0326  0.2657
    4TMC2    C813927   3.408   4.518  13.337 -0.0847 -0.2866  0.0771
    4TMC2    O113928   3.432   4.263  13.744  0.5678 -0.0199 -0.4899
    4TMC2    O213929   3.527   4.494  13.340 -0.0573 -0.4225  0.1140
    4TMC2    O513930   3.355   4.627  13.282  0.0534  0.0245  0.3613
    4TMC2    H513931   3.271   4.643  13.330 -1.4375 -3.4076 -1.0699
    5MPD2     C13932   2.706   4.209  12.939  0.7351 -0.5584  0.0514
    5MPD2    C113933   2.725   4.339  12.972  0.7013 -0.1429  0.3351
    5MPD2    C213934   2.822   4.370  13.069  0.1209 -0.6569 -0.0899
    5MPD2    C313935   2.897   4.267  13.123 -0.2140 -0.1698  0.1817
    5MPD2    C413936   2.871   4.135  13.090 -0.3455  0.2249 -0.5934
    5MPD2    C513937   2.787   4.110  12.985 -0.0309 -0.0059 -0.3644
    5MPD2     H13938   2.842   4.473  13.095 -1.7165 -0.3790  0.1924
    5MPD2    H113939   2.917   4.047  13.133 -2.7483  0.3623  2.2865
    5MPD2    H213940   2.624   4.186  12.871 -0.0378 -1.4431  1.2909
    5MPD2    H313941   2.777   4.011  12.941  3.5861 -0.9927  1.0348
    5MPD2     N13942   2.986   4.309  13.226 -0.9173 -0.4816  0.6588
    5MPD2    H513943   3.002   4.409  13.223  1.3555 -0.7989  2.7311
    5MPD2    N113944   2.630   4.431  12.917 -0.8855 -0.1218 -0.0746
    5MPD2    H713945   2.552   4.392  12.863  0.0567 -2.4136  0.2146
    6MPD1     C13946   1.576   1.260  13.399 -0.3257  0.0616 -0.6706
    6MPD1    C113947   1.713   1.244  13.431 -0.1921  0.5838 -0.1366
    6MPD1    C213948   1.783   1.132  13.371 -0.2638 -0.1983  0.0615
    6MPD1    C313949   1.720   1.049  13.280  0.8641  0.2339  0.4300
    6MPD1    C413950   1.583   1.072  13.261 -0.4621 -0.0695  0.2520
    6MPD1    C513951   1.518   1.179  13.312  0.0077 -0.6784  0.1798
    6MPD1     H13952   1.884   1.107  13.401  0.3682  1.0766 -1.0096
    6MPD1    H113953   1.523   1.009  13.196 -1.4188  0.9273  0.1605
    6MPD1    H213954   1.515   1.342  13.435 -1.7768 -0.4919 -1.8709
    6MPD1    H313955   1.412   1.190  13.287 -0.4568  1.1593  2.9906
    6MPD1     N13956   1.790   0.950  13.207 -0.7262  0.7559  0.3090
    6MPD1    H513957   1.732   0.896  13.143 -0.3238  1.5232 -0.7014
    6MPD1    N113958   1.766   1.320  13.537 -0.0836  0.0020  0.2081
    6MPD1    H613959   1.749   1.418  13.515  2.5545  0.6360  0.9252
    6MPD1    H713960   1.868   1.310  13.540  0.0871  1.9655  0.7855
    7MPD2     C13961   1.812   0.222  12.941  0.7963  0.0923  0.0694
    7MPD2    C113962   1.909   0.291  12.872  0.1065 -0.4997 -0.0916
    7MPD2    C213963   1.998   0.212  12.801  0.7621 -0.3103  0.3275
    7MPD2    C313964   2.020   0.082  12.840  0.0268  0.5093  0.5811
    7MPD2    C413965   1.933   0.016  12.921 -0.1322 -0.3003 -0.2906
    7MPD2    C513966   1.824   0.088  12.970  0.0793 -0.2812 -0.1308
    7MPD2     H13967   2.081   0.255  12.747 -1.4787  1.7578 -1.4591
    7MPD2    H113968   1.950   4.653  12.933 -2.8692 -0.8768 -1.4960
    7MPD2    H213969   1.735   0.283  12.988  1.9658  0.6907  1.2107
    7MPD2    H313970   1.751   0.036  13.031  1.9510 -0.9879  1.5045
    7MPD2     N13971   2.138   0.025  12.785 -0.2787  0.0226  0.2697
    7MPD2    H513972   2.199   0.083  12.729  3.5004 -1.6934  2.6129
    7MPD2    N113973   1.925   0.433  12.867  0.0844  0.3190  0.0413
    7MPD2    H713974   1.993   0.479  12.808 -0.3435 -1.5951 -1.9424
    8TMC3    C113975   2.317   4.628  12.735 -0.5592  0.1797 -0.3653
    8TMC3    C213976   2.408   4.574  12.822  0.3452 -0.7293 -0.2988
    8TMC3    C313977   2.533   4.629  12.831  0.8658  0.1593 -0.2140
    8TMC3    C413978   2.357   4.726  12.655 -0.4602 -0.1564  0.0350
    8TMC3    C513979   2.473   0.048  12.683 -0.9404  0.5746 -0.9382
    8TMC3    C613980   2.568   4.738  12.767  0.1863  0.7204 -0.0952
    8TMC3     C13981   2.179   4.638  12.793 -0.0694 -0.1649  0.5517
    8TMC3     O13982   2.135   4.546  12.853 -0.2317 -0.8039  0.1754
    8TMC3     H13983   2.375   4.513  12.904  2.5959  1.8418  2.5556
    8TMC3    H113984   2.284   0.025  12.587 -1.1265  0.9524  1.4582
    8TMC3    H213985   2.664   0.039  12.793 -0.6387  1.8714  0.9964
    8TMC3    C713986   2.445   0.185  12.704  0.2449 -0.1533  0.0300
    8TMC3    C813987   2.643   4.569  12.913 -0.4321  0.1232 -0.1629
    8TMC3    O113988   2.324   0.216  12.692 -0.0027  0.5850 -0.0419
    8TMC3    O213989   2.737   4.639  12.936 -0.6304 -0.6513 -0.0951
    9TMC3    C113990   1.973   0.812  13.120 -0.1295 -0.3708  0.0138
    9TMC3    C213991   2.104   0.820  13.081 -0.6988 -0.6577 -0.2642
    9TMC3    C313992   2.144   0.738  12.981 -0.0981  0.0052 -0.1767
    9TMC3    C413993   1.883   0.727  13.061 -0.2556  0.1719 -0.2712
    9TMC3    C513994   1.928   0.652  12.953  1.0260 -0.2612 -0.5350
    9TMC3    C613995   2.060   0.662  12.906 -0.4504 -0.3823 -0.6723
    9TMC3     C13996   1.928   0.930  13.199 -0.4220  0.6909  0.3568
    9TMC3     O13997   2.013   0.989  13.260  0.4794 -0.1395  0.7879
    9TMC3     H13998   2.175   0.891  13.121 -0.5590  0.3017 -2.2493
    9TMC3    H113999   1.788   0.721  13.112 -0.4694  2.8810 -0.3423
    9TMC3    H214000   2.098   0.597  12.828 -1.8202  1.0166 -2.4952
    9TMC3    C714001   1.858   0.527  12.942  0.1528  0.0909  0.4672
    9TMC3    C814002   2.288   0.724  12.959 -0.0028  0.7742  0.8794
    9TMC3    O114003   1.768   0.508  13.022 -0.0097  0.1338 -0.8087
    9TMC3    O214004   2.366   0.789  13.019 -0.0690 -0.6204 -0.1097
   10MPD2     C14005   2.687   0.459  12.760 -0.4815 -0.3209 -0.3761
   10MPD2    C114006   2.567   0.392  12.745  0.7371 -0.6131 -0.2880
   10MPD2    C214007   2.454   0.465  12.768  0.7468  0.7692  0.4888
   10MPD2    C314008   2.452   0.586  12.824 -0.3142 -0.3507  0.0965
   10MPD2    C414009   2.576   0.657  12.832  0.0129  0.5684 -0.5143
   10MPD2    C514010   2.691   0.591  12.797  1.1851  0.2820 -0.1449
   10MPD2     H14011   2.362   0.408  12.774 -0.1581  2.1635 -0.0268
   10MPD2    H114012   2.588   0.760  12.866  1.3621 -0.1702  1.2210
   10MPD2    H214013   2.780   0.412  12.732 -0.6691 -0.7255 -0.3175
   10MPD2    H314014   2.784   0.646  12.797  2.2485 -1.5516  2.1607
   10MPD2     N14015   2.319   0.624  12.862 -0.4526 -0.6198  0.2150
   10MPD2    H514016   2.247   0.558  12.834 -0.0889 -1.0007  0.1680
   10MPD2    N114017   2.561   0.255  12.718 -0.0944 -0.2513 -0.7698
   10MPD2    H714018   2.651   0.208  12.712 -0.5657 -1.1906 -0.4272
   11MPD2     C14019   3.232   3.951  14.127 -0.0195  0.0884  0.3002
   11MPD2    C114020   3.335   4.039  14.095 -0.5622 -0.2835 -0.3917
   11MPD2    C214021   3.341   4.107  13.977  0.6670  0.0854 -0.6938
   11MPD2    C314022   3.250   4.065  13.876 -0.2014  0.1748  0.1688
   11MPD2    C414023   3.162   3.964  13.900  0.3408  0.1560 -0.2086
   11MPD2    C514024   3.143   3.917  14.026  0.2803 -0.5752 -0.0939
   11MPD2     H14025   3.407   4.192  13.966  0.3458  0.4709  0.3128
   11MPD2    H114026   3.092   3.931  13.824 -2.1236 -0.7378  2.4449
   11MPD2    H214027   3.217   3.900  14.221  0.6471  3.9416  2.4709
   11MPD2    H314028   3.057   3.854  14.048 -0.4081  0.1814 -0.6490
   11MPD2     N14029   3.236   4.127  13.748 -0.2575  0.6675 -0.2554
   11MPD2    H514030   3.153   4.106  13.694  0.0201  2.6224 -1.4684
   11MPD2    N114031   3.437   4.052  14.191  0.1479 -0.3158  0.2630
   11MPD2    H714032   3.508   4.121  14.165  0.3183  0.1822  2.0661
    1MPD1     C14033   1.391   1.633  17.360 -0.1623  0.1662  0.0119
    1MPD1    C114034   1.507   1.661  17.418  0.6227  0.3615 -0.1136
    1MPD1    C214035   1.607   1.569  17.414 -0.3975 -0.4034 -0.5698
    1MPD1    C314036   1.585   1.443  17.384  0.7014  0.0841 -0.0652
    1MPD1    C414037   1.467   1.407  17.327 -0.3092  0.3030 -0.5502
    1MPD1    C514038   1.370   1.503  17.314  0.2327  0.4764  0.0264
    1MPD1     H14039   1.708   1.600  17.439 -0.0668 -1.2058 -0.9144
    1MPD1    H114040   1.462   1.304  17.294 -0.8602  1.2701 -3.4846
    1MPD1    H214041   1.307   1.700  17.350  0.4817  0.5557 -2.9258
    1MPD1    H314042   1.276   1.478  17.266  0.8570 -0.4797 -0.6898
    1MPD1     N14043   1.689   1.342  17.386 -0.3884  0.2271  0.2426
    1MPD1    H514044   1.655   1.262  17.334 -0.0168  0.6312 -0.6335
    1MPD1    N114045   1.545   1.794  17.448 -0.0992  0.2885  0.0356
    1MPD1    H614046   1.608   1.801  17.527 -0.4795 -0.3779  0.4064
    1MPD1    H714047   1.469   1.862  17.455  0.9026  1.1875  2.0825
    2MPD1     C14048   2.749   1.037  17.514 -0.1276 -0.0531 -0.8183
    2MPD1    C114049   2.633   0.970  17.558  0.5116  0.7916 -0.7481
    2MPD1    C214050   2.506   1.021  17.524  0.2901  0.1374  0.0803
    2MPD1    C314051   2.492   1.140  17.459 -0.1168  0.2885 -0.4180
    2MPD1    C414052   2.604   1.210  17.421 -0.4002  0.0454 -0.2346
    2MPD1    C514053   2.733   1.154  17.445 -0.0678  0.8368  0.1014
    2MPD1     H14054   2.423   0.979  17.580  1.7804 -2.4796  0.3324
    2MPD1    H114055   2.587   1.299  17.361  0.1406 -0.9489 -1.8405
    2MPD1    H214056   2.852   1.019  17.541 -0.2998 -1.5639 -1.1956
    2MPD1    H314057   2.820   1.207  17.408  1.0056  1.4600  3.5299
    2MPD1     N14058   2.361   1.193  17.426 -0.2351  0.2108  0.5515
    2MPD1    H514059   2.362   1.284  17.381  1.9699  0.7119  1.5859
    2MPD1    N114060   2.640   0.859  17.640 -0.0603  0.4325 -0.1158
    2MPD1    H614061   2.560   0.796  17.643  0.3866 -0.2201 -2.3015
    2MPD1    H714062   2.720   0.799  17.624  0.7888  1.3885  0.5770
    3TMC3    C114063   2.131   1.187  17.380  0.4891  0.5489 -0.2055
    3TMC3    C214064   2.120   1.151  17.246 -0.3052 -0.6596  0.5036
    3TMC3    C314065   1.993   1.157  17.197  0.3812  0.1239  0.4364
    3TMC3    C414066   2.031   1.245  17.450  0.2491  0.4791  0.4559
    3TMC3    C514067   1.900   1.246  17.396  0.0107 -0.2877 -0.1795
    3TMC3    C614068   1.885   1.205  17.266 -0.2904  0.4299 -0.2172
    3TMC3     C14069   2.241   1.128  17.450 -0.5584  0.5470 -0.5136
    3TMC3     O14070   2.222   1.013  17.485 -0.3592  0.1699  0.4121
    3TMC3     H14071   2.205   1.107  17.196 -1.1973  0.4241 -2.0061
    3TMC3    H114072   2.051   1.302  17.540 -0.3417 -0.8765  1.4380
    3TMC3    H214073   1.787   1.204  17.220 -1.2460  3.0338  1.7842
    3TMC3    C714074   1.807   1.343  17.448 -0.6189  0.8845  0.5724
    3TMC3    C814075   1.977   1.131  17.060  0.1793  1.0086 -0.5171
    3TMC3    O114076   1.850   1.415  17.537 -0.2324 -0.0228  0.3382
    3TMC3    O214077   1.860   1.112  17.029  0.2506 -0.5116  0.0667
    4MPD1     C14078   2.105   0.968  16.604  0.2822 -0.4624  0.1714
    4MPD1    C114079   2.221   1.011  16.666 -0.7894 -0.4255 -0.4660
    4MPD1    C214080   2.215   1.070  16.793  0.1993 -0.4302 -0.1371
    4MPD1    C314081   2.096   1.081  16.855  0.3709  0.4561  0.0676
    4MPD1    C414082   1.977   1.052  16.785 -0.1455 -0.4746 -0.3635
    4MPD1    C514083   1.985   0.995  16.657  0.3610 -0.0994  0.2698
    4MPD1     H14084   2.307   1.102  16.840 -1.5708  1.9227  1.7678
    4MPD1    H114085   1.876   1.071  16.819  0.1789  0.3456  0.1685
    4MPD1    H214086   2.109   0.915  16.510 -1.0403  0.5312 -0.4490
    4MPD1    H314087   1.896   0.984  16.597  0.6488  0.5755 -0.2748
    4MPD1     N14088   2.096   1.120  16.990 -0.5290  0.2530  0.2549
    4MPD1    H514089   2.179   1.147  17.042 -0.5315  1.3463 -0.3038
    4MPD1    N114090   2.345   0.975  16.612 -0.1787  0.1476 -0.0937
    4MPD1    H614091   2.354   0.973  16.511  0.6019  1.9668 -0.0682
    4MPD1    H714092   2.416   1.045  16.636  1.2410 -1.5874  0.7283
    1TCq1    O114093   3.034   0.238  11.912 -0.1826  0.0513  0.2291
    1TCq1    C114094   3.048   0.357  11.852 -0.5046 -0.1215 -0.8124
    1TCq1    O214095   3.112   0.454  11.896  0.6703  0.1072  0.0839
    1TCq1    C214096   2.924   0.366  11.782  0.3101  0.4880 -0.3636
    1TCq1    C314097   2.868   0.259  11.733  0.3287  0.3522  0.3870
    1TCq1    C414098   2.744   0.275  11.681 -0.2298 -0.4927 -0.2415
    1TCq1    C514099   2.677   0.384  11.707  0.9898  0.8088  0.1196
    1TCq1    C614100   2.737   0.496  11.755  0.8776  0.6713 -0.1121
    1TCq1    C714101   2.865   0.493  11.791  0.6283 -0.0024  0.4566
    1TCq1    C814102   2.658   0.609  11.806  0.0919  0.8347  0.6455
    1TCq1    O414103   2.722   0.689  11.866  0.2286  0.1593 -0.8280
    1TCq1    C914104   2.670   0.148  11.661  0.3895  0.3307 -0.0134
    1TCq1    O514105   2.542   0.153  11.686 -0.1411  0.4591  0.1383
    1TCq1    O614106   2.733   0.040  11.652 -0.1350 -0.3628  0.0736
    1TCq1    H114107   2.966   0.184  11.868 -0.2926  0.5575 -0.2299
    1TCq1    H214108   2.920   0.166  11.714 -0.5971 -0.1762  0.4391
    1TCq1    H314109   2.580   0.390  11.657  0.9366  1.0920  0.2551
    1TCq1    H414110   2.924   0.572  11.836  1.8120 -0.8376  0.3693
    2MPD1     C14111   2.215   0.742  12.009  0.3641  0.0531  0.6444
    2MPD1    C114112   2.193   0.678  11.889  0.2338 -0.1697 -0.0419
    2MPD1    C214113   2.304   0.643  11.809  0.2485  0.7439 -0.0145
    2MPD1    C314114   2.429   0.666  11.846  0.5622  0.5767 -0.1711
    2MPD1    C414115   2.458   0.724  11.969 -0.0499 -0.0599 -0.7786
    2MPD1    C514116   2.347   0.762  12.046  0.4442 -0.5153  0.3935
    2MPD1     H14117   2.296   0.602  11.709 -1.1640  0.1141  0.3579
    2MPD1    H114118   2.557   0.735  12.013 -1.1976  4.2016  0.7872
    2MPD1    H214119   2.133   0.776  12.071  0.0768  2.7227 -1.2046
    2MPD1    H314120   2.358   0.796  12.148 -0.1943  0.4247  0.1505
    2MPD1     N14121   2.525   0.602  11.769 -0.0582 -0.3737  0.2470
    2MPD1    H514122   2.502   0.530  11.702 -1.3203  1.2669 -1.0881
    2MPD1    N114123   2.065   0.681  11.842  0.1840 -0.8140 -0.2121
    2MPD1    H614124   2.037   0.614  11.771 -0.7116 -0.3015 -0.3387
    2MPD1    H714125   1.995   0.668  11.915 -0.9402  0.5730 -1.0605
    1TMC1    C114126   0.681   1.285   0.154 -0.1610 -1.1278  0.4668
    1TMC1    C214127   0.571   1.220   0.111  0.1554 -0.6626  0.4921
    1TMC1    C314128   0.586   1.092   0.084  0.0336 -0.3461 -0.5692
    1TMC1    C414129   0.801   1.223   0.178  0.4809 -0.8916 -0.5698
    1TMC1    C514130   0.812   1.095   0.127  0.0771 -0.4358 -0.1374
    1TMC1    C614131   0.703   1.024   0.092 -0.1041  0.2939 -0.4621
    1TMC1     C14132   0.672   1.434   0.135  0.3151  0.1399  0.2958
    1TMC1     O14133   0.579   1.484   0.072  0.3259 -0.1742 -0.4978
    1TMC1     H14134   0.482   1.275   0.083  1.3505  0.6002 -0.7916
    1TMC1    H114135   0.890   1.279   0.203  0.7174 -0.9953 -1.1825
    1TMC1    H214136   0.711   0.925   0.049 -0.2180 -0.2953  0.8893
    1TMC1    C714137   0.945   1.046   0.116 -0.3221  0.2175  0.6005
    1TMC1    C814138   0.507   1.054  17.738 -0.2334  0.4322  0.0727
    1TMC1    O114139   1.044   1.112   0.122  0.0332  0.2362  0.0228
    1TMC1    O214140   0.477   1.139  17.651 -0.5629  0.9283 -0.0180
    1TMC1    O314141   0.942   0.914   0.122 -0.4003 -0.2603 -0.5255
    1TMC1    H314142   0.863   0.888   0.175  0.3743  1.9620  1.7395
    1TMC1    O514143   0.426   0.960   0.009  0.3508 -0.3340 -0.7022
    1TMC1    H514144   0.461   0.923   0.092 -1.5023  1.0549  0.6913
    2MPD1     C14145   0.915   1.891   0.151 -0.0275 -0.2678  0.3217
    2MPD1    C114146   0.986   1.793   0.210 -0.1807  0.6769  0.3592
    2MPD1    C214147   0.941   1.660   0.228 -0.9102 -0.7653 -0.8278
    2MPD1    C314148   0.822   1.633   0.169  0.0583 -0.2892  0.0727
    2MPD1    C414149   0.740   1.733   0.118 -0.3093  0.1436 -0.0576
    2MPD1    C514150   0.784   1.867   0.123 -0.0154 -1.2056 -0.7917
    2MPD1     H14151   0.996   1.583   0.280  0.5305  0.1879 -0.9283
    2MPD1    H114152   0.636   1.713   0.095 -0.0329  0.4126 -1.5059
    2MPD1    H214153   0.958   1.990   0.147 -0.4593 -0.1760 -1.9848
    2MPD1    H314154   0.722   1.944   0.078 -0.6665 -0.9882  0.4588
    2MPD1     N14155   0.787   1.498   0.181  0.4057  0.5689 -0.0436
    2MPD1    H514156   0.855   1.440   0.229 -0.6440 -1.1297 -0.6187
    2MPD1    N114157   1.111   1.828   0.269 -0.6339 -0.0616  0.0090
    2MPD1    H614158   1.182   1.757   0.250 -0.4418  0.3870 -0.9294
    2MPD1    H714159   1.142   1.910   0.217 -1.0537 -0.3496 -0.6853
    1MPD1     C14160   4.075   0.962  11.999 -0.0439 -0.0970  0.1713
    1MPD1    C114161   4.019   0.964  11.873 -0.5192 -0.4634 -0.2237
    1MPD1    C214162   4.051   1.069  11.789  0.1800  0.3918  0.8333
    1MPD1    C314163   4.127   1.174  11.824 -0.0633  0.6167  0.7417
    1MPD1    C414164   4.165   1.180  11.954 -0.3163  0.0862 -0.7954
    1MPD1    C514165   4.149   1.072  12.033  0.1140 -0.3561  0.5800
    1MPD1     H14166   4.026   1.063  11.683 -0.9004 -2.3642  1.2261
    1MPD1    H114167   4.223   1.262  11.995  0.0592  1.1266 -3.3843
    1MPD1    H214168   4.065   0.875  12.064 -0.1230 -1.2131 -1.3380
    1MPD1    H314169   4.190   1.080  12.133  0.9330  0.0016  0.2175
    1MPD1     N14170   4.187   1.250  11.722 -0.7199  0.2057  0.2349
    1MPD1    H514171   4.191   1.220  11.625  1.9956 -0.9070  0.7000
    1MPD1    N114172   3.958   0.844  11.822 -0.2407  0.2525  0.7828
    1MPD1    H614173   3.894   0.859  11.745 -0.4240 -2.7091  0.3513
    1MPD1    H714174   3.919   0.787  11.898  0.3788 -1.1346  0.0637
    2MPD1     C14175   2.743   0.586  11.240  0.5203  0.0749  0.0090
    2MPD1    C114176   2.844   0.657  11.287 -0.1693  0.1745  0.3500
    2MPD1    C214177   2.960   0.669  11.208  0.2700  0.0398 -0.0182
    2MPD1    C314178   2.955   0.625  11.077 -0.2043 -0.7295 -0.1514
    2MPD1    C414179   2.857   0.539  11.037  0.2639  0.6497 -0.4609
    2MPD1    C514180   2.747   0.520  11.119  0.0940 -0.1964 -0.3293
    2MPD1     H14181   3.055   0.713  11.239  0.8327 -0.3722 -1.1556
    2MPD1    H114182   2.851   0.494  10.939  0.8050 -0.9623  0.2385
    2MPD1    H214183   2.660   0.572  11.309  0.6319  3.4157  0.8346
    2MPD1    H314184   2.675   0.451  11.077 -1.4168  0.6219  0.8899
    2MPD1     N14185   3.061   0.638  10.984  0.3334  0.3889  0.7325
    2MPD1    H514186   3.045   0.593  10.895  1.6425 -0.1305  0.7697
    2MPD1    N114187   2.845   0.694  11.424  0.0734 -0.0122 -0.0843
    2MPD1    H614188   2.751   0.711  11.461  0.0491  0.0530 -0.1762
    2MPD1    H714189   2.899   0.780  11.435  1.5496 -0.9298 -0.2757
    3MPD1     C14190   3.482   0.205  10.228 -0.5307 -0.2257 -0.6859
    3MPD1    C114191   3.369   0.202  10.308 -0.0459 -0.3273  0.3549
    3MPD1    C214192   3.360   0.289  10.413 -0.7897 -0.6374 -0.7209
    3MPD1    C314193   3.462   0.383  10.436  0.1548 -0.1341 -0.4051
    3MPD1    C414194   3.572   0.383  10.357 -1.1865  0.5318  0.5199
    3MPD1    C514195   3.576   0.298  10.251  0.0064 -0.2713  0.1903
    3MPD1     H14196   3.269   0.284  10.472 -0.8687  0.4344 -0.7500
    3MPD1    H114197   3.650   0.459  10.351 -0.5255 -0.1440  0.5482
    3MPD1    H214198   3.498   0.132  10.149 -0.7910 -2.5901  1.4272
    3MPD1    H314199   3.674   0.293  10.205  0.4363 -1.6100  1.2494
    3MPD1     N14200   3.464   0.472  10.542  0.5094  0.2201  0.2761
    3MPD1    H514201   3.548   0.529  10.541  0.1292  0.7810 -0.9209
    3MPD1    N114202   3.277   0.097  10.285  0.2198 -0.5453  0.0794
    3MPD1    H614203   3.181   0.117  10.314 -0.4417 -3.3799 -0.1758
    3MPD1    H714204   3.276   0.061  10.190  0.4120 -2.3174  0.7579
    4MPD2     C14205   4.335   1.808  11.181 -0.3119 -0.1654 -0.0468
    4MPD2    C114206   4.368   1.677  11.194  0.3143 -1.0270  0.1009
    4MPD2    C214207   4.359   1.593  11.077  0.4277  0.2304  0.1376
    4MPD2    C314208   4.321   1.640  10.955 -0.6384  0.3956 -0.4138
    4MPD2    C414209   4.292   1.775  10.951 -0.0790  0.3871  0.5706
    4MPD2    C514210   4.294   1.856  11.063  0.1742  0.6625  0.0771
    4MPD2     H14211   4.384   1.487  11.077  3.3418  0.9207 -1.7124
    4MPD2    H114212   4.237   1.812  10.865  1.9720  1.3512 -0.3330
    4MPD2    H214213   4.352   1.877  11.263  2.6606 -0.3444 -0.5470
    4MPD2    H314214   4.257   1.958  11.053  0.5156  0.9709  1.9949
    4MPD2     N14215   4.303   1.542  10.855 -0.3323  0.1946 -1.3017
    4MPD2    H514216   4.334   1.447  10.876  0.9553  0.9672  0.2401
    4MPD2    N114217   4.414   1.618  11.313  0.6336 -0.6527 -0.3072
    4MPD2    H714218   4.436   1.521  11.296  2.8341  0.1562 -2.0074
    5TMC3    C114219   4.457   1.569  11.523 -0.2455 -1.0490  0.0874
    5TMC3    C214220   4.369   1.541  11.625  0.2007  0.5121  0.6983
    5TMC3    C314221   4.338   1.404  11.643  0.2814  0.3673 -0.0773
    5TMC3    C414222   4.534   1.478  11.461 -0.2028  0.1055  0.2080
    5TMC3    C514223   4.497   1.341  11.483  0.0449  0.1004 -0.4459
    5TMC3    C614224   4.404   1.308  11.575  0.3799 -0.3169 -0.4242
    5TMC3     C14225   4.415   1.667  11.434  0.8024 -0.9262  0.4888
    5TMC3     O14226   4.363   1.767  11.479 -0.2417  0.1995  0.2707
    5TMC3     H14227   4.291   1.611  11.652 -1.1848 -0.9007  0.3701
    5TMC3    H114228   4.614   1.506  11.394 -0.4879 -1.5560 -0.8358
    5TMC3    H214229   4.372   1.204  11.582 -1.8857  0.3516 -0.9126
    5TMC3    C714230   4.483   1.265  11.360  0.2998 -0.0570 -0.2316
    5TMC3    C814231   4.253   1.367  11.751  0.4482 -0.0804 -0.1752
    5TMC3    O114232   4.488   1.336  11.258  0.0659 -0.1626 -0.1320
    5TMC3    O214233   4.245   1.436  11.852  0.1993 -0.4543 -0.6228
    6TMC3    C114234   3.253   0.729  10.877  0.4826  0.5389 -0.7577
    6TMC3    C214235   3.303   0.608  10.836 -0.5113 -0.4804 -0.7297
    6TMC3    C314236   3.391   0.598  10.734 -0.9872 -0.0006 -0.9313
    6TMC3    C414237   3.292   0.849  10.813 -0.3690 -0.4192 -0.2593
    6TMC3    C514238   3.391   0.843  10.719  0.9388  0.0559  0.2480
    6TMC3    C614239   3.439   0.720  10.681  1.0036  0.1295  0.0706
    6TMC3     C14240   3.160   0.735  10.995  0.4739 -0.1425  0.1857
    6TMC3     O14241   3.139   0.840  11.056  0.2016 -0.1489 -0.6874
    6TMC3     H14242   3.281   0.519  10.894 -0.2769  0.5131  0.8577
    6TMC3    H114243   3.253   0.948  10.836 -2.0276 -1.0274 -0.4775
    6TMC3    H214244   3.502   0.719  10.593 -1.4118 -0.1897 -1.6477
    6TMC3    C714245   3.460   0.967  10.668 -0.7305  0.1743  0.0630
    6TMC3    C814246   3.372   0.488  10.645  0.0432 -0.2200 -0.1142
    6TMC3    O114247   3.551   0.956  10.589 -0.3803  0.4121 -0.3499
    6TMC3    O214248   3.277   0.411  10.668  0.4101  0.2520  0.4598
    7MPD2     C14249   4.374   0.875  11.056  1.1775 -0.2333 -0.2863
    7MPD2    C114250   4.396   1.007  11.031 -0.2448 -0.0080  1.0430
    7MPD2    C214251   4.435   1.092  11.132 -0.3632  0.3538  0.0831
    7MPD2    C314252   4.462   1.044  11.255 -0.1564  0.1734  1.0817
    7MPD2    C414253   4.451   0.912  11.285  0.2016  0.3875  0.3200
    7MPD2    C514254   4.400   0.833  11.185 -0.1479  0.1306 -0.1479
    7MPD2     H14255   4.438   1.198  11.110 -3.0022  0.7710  1.7665
    7MPD2    H114256   4.463   0.871  11.385 -1.6108  0.7675  0.6872
    7MPD2    H214257   4.322   0.813  10.984  2.7827 -0.6464 -1.0859
    7MPD2    H314258   4.384   0.728  11.208 -1.5341  0.7372  1.6742
    7MPD2     N14259   4.491   1.131  11.365  0.2798 -0.7160  0.1542
    7MPD2    H514260   4.498   1.092  11.458 -3.7158 -1.3738  0.2147
    7MPD2    N114261   4.347   1.053  10.903 -0.5942 -0.2044  0.2451
    7MPD2    H714262   4.310   0.982  10.841 -1.1381 -0.3159  0.7041
    8TMC3    C114263   4.287   1.216  10.733 -0.1707 -0.5707  0.1825
    8TMC3    C214264   4.161   1.163  10.726 -0.1445 -0.2915 -0.1786
    8TMC3    C314265   4.058   1.249  10.714 -0.6503 -0.0651  0.7818
    8TMC3    C414266   4.323   1.342  10.698 -0.0248  0.0115  0.3736
    8TMC3    C514267   4.215   1.431  10.686  0.1409  0.2365 -0.5103
    8TMC3    C614268   4.080   1.382  10.702 -0.4603  0.2789  0.0380
    8TMC3     C14269   4.359   1.182  10.854 -0.2120  0.3317  0.5792
    8TMC3     O14270   4.409   1.278  10.911 -0.4766  0.6645  0.5178
    8TMC3     H14271   4.140   1.067  10.772 -1.1913 -0.8299 -1.8157
    8TMC3    H114272   4.426   1.374  10.709  0.2693 -0.1365 -2.1252
    8TMC3    H214273   4.008   1.462  10.712 -1.3183 -0.4897  0.0091
    8TMC3    C714274   4.241   1.556  10.739  0.3976 -0.5039  0.3989
    8TMC3    C814275   3.925   1.197  10.739 -0.2214  0.0751 -0.0923
    8TMC3    O114276   4.205   1.657  10.685  0.4869  0.8718  0.1372
    8TMC3    O214277   3.917   1.078  10.738  0.2652  0.1133 -0.1526
    9MPD2     C14278   3.653   1.404  10.855 -0.1504 -0.3886 -0.8285
    9MPD2    C114279   3.708   1.289  10.809 -0.2768  0.2292  0.7878
    9MPD2    C214280   3.635   1.181  10.770 -0.2394  0.6964  0.1917
    9MPD2    C314281   3.494   1.194  10.760  0.4780 -0.1688  0.2063
    9MPD2    C414282   3.438   1.319  10.800 -0.5648  0.4463  0.4479
    9MPD2    C514283   3.510   1.429  10.843 -0.0844  0.3084  0.4948
    9MPD2     H14284   3.685   1.093  10.731  1.2254  1.4280  0.4607
    9MPD2    H114285   3.331   1.331  10.785 -0.4961 -0.8913 -1.1664
    9MPD2    H214286   3.713   1.488  10.887  0.0757 -0.8118 -0.1566
    9MPD2    H314287   3.466   1.515  10.892 -2.4410 -0.1851 -0.7970
    9MPD2     N14288   3.412   1.086  10.712 -0.3631 -0.1106 -0.2461
    9MPD2    H514289   3.312   1.083  10.731  0.1716 -1.4204  2.2491
    9MPD2    N114290   3.849   1.293  10.793  0.1843 -0.7415 -0.5572
    9MPD2    H714291   3.898   1.380  10.806 -1.2718 -0.3665  2.3528
    1MPD1     C14292   2.785   0.024  14.962  0.2308  0.9771 -0.4257
    1MPD1    C114293   2.878   4.705  15.043 -0.1815 -0.2629  0.1725
    1MPD1    C214294   2.833   4.616  15.137 -0.0206  0.1185 -0.2219
    1MPD1    C314295   2.699   4.581  15.152  0.0309  0.2615 -0.4676
    1MPD1    C414296   2.604   4.636  15.061 -0.5764 -0.5457 -0.3146
    1MPD1    C514297   2.655   4.734  14.975  0.4272  0.3981  0.6509
    1MPD1     H14298   2.905   4.573  15.206  0.0204  0.6120  0.0448
    1MPD1    H114299   2.501   4.605  15.064 -0.4091 -1.0649  0.1028
    1MPD1    H214300   2.819   0.092  14.885 -1.1882 -1.2417 -3.0261
    1MPD1    H314301   2.582   0.033  14.907  1.0596  1.1752  0.4634
    1MPD1     N14302   2.644   4.492  15.249  0.2031 -0.4787 -0.0271
    1MPD1    H514303   2.543   4.491  15.249  0.2015 -0.0340 -2.3183
    1MPD1    N114304   3.007   0.015  15.050  0.1138 -0.4451 -0.0003
    1MPD1    H614305   3.042   0.048  14.961 -1.5923 -1.3647 -1.0193
    1MPD1    H714306   3.075   4.693  15.089  0.3284  0.6100  1.3945
    2TMC2    C114307   2.632   4.119  15.537  0.2050  0.2229  0.4004
    2TMC2    C214308   2.498   4.131  15.547 -0.0552  0.1171 -0.1006
    2TMC2    C314309   2.439   4.226  15.473 -0.2633  0.4971 -0.1210
    2TMC2    C414310   2.706   4.220  15.479 -0.0796  0.3660  0.2804
    2TMC2    C514311   2.642   4.311  15.402 -0.4506 -0.0901  0.4637
    2TMC2    C614312   2.505   4.308  15.392 -0.7437  0.0741  0.7035
    2TMC2     C14313   2.698   4.000  15.581 -0.5366 -0.8287 -0.0086
    2TMC2     O14314   2.818   4.007  15.597  0.4042  0.0840  0.1814
    2TMC2     H14315   2.438   4.056  15.596 -0.2239  0.5086  0.2914
    2TMC2    H114316   2.813   4.223  15.494 -0.1194  0.7260  0.4983
    2TMC2    H214317   2.448   4.392  15.353 -0.1830 -1.0918 -2.5755
    2TMC2    C714318   2.713   4.414  15.341  0.7925 -0.2807 -0.6070
    2TMC2    C814319   2.298   4.235  15.459 -0.4856  0.4181 -0.5688
    2TMC2    O114320   2.828   4.433  15.385  0.3707 -0.1501 -0.2281
    2TMC2    O214321   2.242   4.256  15.353 -0.0627 -0.1263 -0.1169
    2TMC2    O514322   2.244   4.225  15.584 -0.1661  0.0362 -0.0292
    2TMC2    H514323   2.308   4.236  15.658 -1.1376  0.6973  0.7246
    3MPD1     C14324   2.726   3.489  15.517 -0.5294  0.3640 -0.3473
    3MPD1    C114325   2.595   3.529  15.513 -0.0105 -0.3281 -0.2213
    3MPD1    C214326   2.556   3.660  15.527 -0.2344 -0.0071  1.1258
    3MPD1    C314327   2.656   3.754  15.550  0.1974  0.2066  0.6510
    3MPD1    C414328   2.789   3.715  15.572 -0.9295 -0.2693 -0.5244
    3MPD1    C514329   2.815   3.577  15.558  0.1917  0.2838  0.2062
    3MPD1     H14330   2.453   3.696  15.527  0.3132  1.5957  0.7922
    3MPD1    H114331   2.876   3.775  15.598 -0.7689 -0.8381  0.2530
    3MPD1    H214332   2.748   3.383  15.507 -0.2203  0.3169  0.8177
    3MPD1    H314333   2.916   3.546  15.584  0.1218 -0.4765 -0.4326
    3MPD1     N14334   2.614   3.891  15.555 -0.4488 -0.2847  0.3866
    3MPD1    H514335   2.515   3.902  15.535 -1.0701 -3.3081  1.7699
    3MPD1    N114336   2.503   3.426  15.490  0.4547 -0.0183  0.3406
    3MPD1    H614337   2.533   3.337  15.450  0.7985  1.0609 -1.7909
    3MPD1    H714338   2.418   3.454  15.442 -0.5069 -2.3742  0.6604
    1TMC1    C114339   1.894   3.887  13.603  0.6268  0.1517 -0.2109
    1TMC1    C214340   1.786   3.962  13.646  0.3853  0.1979  0.5769
    1TMC1    C314341   1.660   3.908  13.648 -0.8693 -0.3676 -0.5726
    1TMC1    C414342   1.881   3.756  13.565 -0.4401  0.0072 -0.3309
    1TMC1    C514343   1.752   3.703  13.570  0.2227  0.2795  0.0107
    1TMC1    C614344   1.646   3.777  13.619 -0.0712  0.3235 -0.4260
    1TMC1     C14345   2.029   3.950  13.604 -0.0107 -0.3755 -0.0923
    1TMC1     O14346   2.033   4.070  13.594 -0.5610  0.0618 -0.0062
    1TMC1     H14347   1.818   4.062  13.671 -2.2734  0.5739  2.5022
    1TMC1    H114348   1.961   3.704  13.513  0.3055  1.2798 -0.4519
    1TMC1    H214349   1.552   3.725  13.632 -0.2622  0.8185  0.1558
    1TMC1    C714350   1.723   3.619  13.459  0.6628 -0.4750  0.1934
    1TMC1    C814351   1.548   3.994  13.654 -0.2137  0.1438 -0.8260
    1TMC1    O114352   1.796   3.611  13.363 -0.1587 -0.2827  0.1674
    1TMC1    O214353   1.434   3.952  13.647  0.0979 -0.5346  0.0953
    1TMC1    O314354   1.652   3.514  13.511  0.2794  0.1270  0.2005
    1TMC1    H314355   1.608   3.538  13.595 -0.4079  0.2915 -0.1991
    1TMC1    O514356   1.582   4.109  13.592 -0.2914  0.3188 -0.0868
    1TMC1    H514357   1.674   4.142  13.598  0.0772 -0.4787 -1.2677
    2MPD2     C14358   2.328   4.028  13.618 -0.3980 -0.4904  0.0568
    2MPD2    C114359   2.276   3.906  13.659  0.5745 -0.9413  0.0109
    2MPD2    C214360   2.359   3.808  13.711  0.3891 -0.2397  0.1730
    2MPD2    C314361   2.493   3.837  13.730  0.4671  0.1211  0.0251
    2MPD2    C414362   2.548   3.960  13.692 -0.1166 -0.0021  0.5200
    2MPD2    C514363   2.463   4.046  13.630  0.0304  0.3004 -0.1133
    2MPD2     H14364   2.323   3.711  13.744 -0.4861  0.6415  1.8299
    2MPD2    H114365   2.653   3.983  13.691  1.0819 -5.2937  2.0232
    2MPD2    H214366   2.259   4.105  13.588  0.8444  0.4792 -0.3325
    2MPD2    H314367   2.515   4.137  13.601  2.3958 -1.3566 -1.0540
    2MPD2     N14368   2.575   3.725  13.760  0.4604  0.1476  0.1101
    2MPD2    H514369   2.535   3.632  13.751  0.5680  0.1423 -0.2870
    2MPD2    N114370   2.137   3.866  13.640 -0.5395 -0.1480  0.1442
    2MPD2    H714371   2.125   3.769  13.666  1.8510 -0.6604 -0.6737
    3TCq1    O114372   3.135   3.338  13.904 -0.6483 -0.1702  0.0081
    3TCq1    C114373   3.068   3.449  13.932  0.6076 -0.1106  0.7220
    3TCq1    O214374   3.115   3.542  14.001 -0.6251  0.1855 -1.0332
    3TCq1    C214375   2.941   3.452  13.866 -0.5749  0.3465  0.5511
    3TCq1    C314376   2.862   3.340  13.886  0.6092  0.7022 -0.4634
    3TCq1    C414377   2.736   3.354  13.854  0.2498  0.2351  0.4753
    3TCq1    C514378   2.679   3.475  13.821 -0.1440  0.1387  0.2336
    3TCq1    C614379   2.758   3.588  13.818  0.8231 -0.1348 -0.2992
    3TCq1    C714380   2.891   3.574  13.840  0.2375 -0.1831 -0.3480
    3TCq1    C814381   2.712   3.720  13.780 -0.0776 -1.1816  0.5501
    3TCq1    O414382   2.794   3.807  13.772  0.0982  0.4346 -0.4754
    3TCq1    C914383   2.641   3.243  13.859  0.5281  0.9349  0.6009
    3TCq1    O514384   2.674   3.149  13.938 -0.2718  0.0704  0.5016
    3TCq1    O614385   2.541   3.250  13.783  0.1619 -0.1196 -0.3561
    3TCq1    H114386   3.088   3.276  13.845 -0.3137 -0.4757  0.0642
    3TCq1    H214387   2.913   3.245  13.901 -1.0324 -0.1731 -0.4742
    3TCq1    H314388   2.573   3.486  13.800  0.1844 -0.8197 -1.9800
    3TCq1    H414389   2.962   3.656  13.849 -1.2796  1.2725 -1.7455
    1MPD2     C14390   1.390   0.058  15.003  0.1825  0.5974  0.0409
    1MPD2    C114391   1.333   4.685  14.952 -0.7590  0.8181  0.0242
    1MPD2    C214392   1.402   4.564  14.958  0.2099 -0.0947 -0.6015
    1MPD2    C314393   1.532   4.558  15.006  0.4377  0.2905  0.3497
    1MPD2    C414394   1.588   4.675  15.053 -0.3268  0.1667 -0.4086
    1MPD2    C514395   1.522   0.052  15.049 -0.1123 -0.1363 -0.2735
    1MPD2     H14396   1.354   4.472  14.928 -3.5719  1.7700 -0.2120
    1MPD2    H114397   1.683   4.670  15.104 -0.8118 -0.1359  0.4596
    1MPD2    H214398   1.340   0.155  14.995 -1.7837 -0.7392 -4.1148
    1MPD2    H314399   1.570   0.149  15.063 -2.2307  0.6660  1.4349
    1MPD2     N14400   1.588   4.431  15.035 -0.1373  0.3996 -0.3656
    1MPD2    H514401   1.531   4.353  15.005  1.5316 -0.4609 -1.3066
    1MPD2    N114402   1.200   4.697  14.910 -0.2737  0.5257  0.3570
    1MPD2    H714403   1.148   0.041  14.916 -0.5107  0.3580  0.7780
    2TMC3    C114404   0.981   4.610  14.828 -0.1203  0.1801  0.2215
    2TMC3    C214405   0.916   4.488  14.848 -0.6535  0.3514  0.6385
    2TMC3    C314406   0.838   4.431  14.753  0.2400  0.3428 -0.1298
    2TMC3    C414407   0.950   4.683  14.717 -0.0194  0.1256  0.0484
    2TMC3    C514408   0.870   4.627  14.625  0.4201 -0.4666  0.9080
    2TMC3    C614409   0.809   4.507  14.647 -0.0420  0.0761  0.1071
    2TMC3     C14410   1.125   4.587  14.859 -0.3107 -0.1824  0.0527
    2TMC3     O14411   1.152   4.468  14.839  0.3328 -0.2783 -0.4378
    2TMC3     H14412   0.946   4.438  14.939  0.6789 -0.0882 -0.0391
    2TMC3    H114413   1.006   0.030  14.694  2.4201 -1.8416 -1.7524
    2TMC3    H214414   0.760   4.462  14.561  1.9847  0.4527 -1.2241
    2TMC3    C714415   0.828   4.698  14.506 -0.2145 -0.1771 -0.5246
    2TMC3    C814416   0.867   4.289  14.725 -0.6358 -0.4994  0.3716
    2TMC3    O114417   0.766   4.647  14.417 -0.0434 -0.7566 -0.0135
    2TMC3    O214418   0.796   4.229  14.641 -0.2634  0.2174  0.3493
    3TCq1    O114419   1.325   0.884  13.949 -0.0323  0.0246  0.3903
    3TCq1    C114420   1.386   0.925  14.059 -0.7661  0.8021  0.0090
    3TCq1    O214421   1.436   1.032  14.081  0.1510  0.1088 -0.0856
    3TCq1    C214422   1.337   0.843  14.171  0.1676 -0.0550 -0.0220
    3TCq1    C314423   1.418   0.834  14.282 -0.1122  0.0122  0.4198
    3TCq1    C414424   1.377   0.743  14.379 -0.0987 -0.0636 -0.1860
    3TCq1    C514425   1.260   0.669  14.374  0.3988  0.3586 -0.5342
    3TCq1    C614426   1.182   0.689  14.263  0.1655 -0.4064 -0.4271
    3TCq1    C714427   1.214   0.784  14.168  0.3064  1.4331 -0.0364
    3TCq1    C814428   1.088   0.588  14.227 -0.0372  0.2942 -0.6204
    3TCq1    O414429   1.038   0.599  14.114  0.5215 -0.1068 -0.5683
    3TCq1    C914430   1.471   0.730  14.491  0.5176  0.0125  0.4451
    3TCq1    O514431   1.568   0.813  14.505  0.5673 -0.2902  0.0005
    3TCq1    O614432   1.429   0.652  14.582  0.1270 -0.2350  0.3327
    3TCq1    H114433   1.308   0.787  13.950  2.3546 -0.3889 -1.8488
    3TCq1    H214434   1.509   0.890  14.297 -1.3852  1.8405  1.4407
    3TCq1    H314435   1.246   0.584  14.441  1.4291  0.9944  0.4920
    3TCq1    H414436   1.151   0.794  14.080  0.5433 -1.2458 -0.4806
    4MPD2     C14437   0.967   0.325  14.166  0.1076  0.1292 -0.2402
    4MPD2    C114438   0.998   0.370  14.293 -0.1858  0.3948  0.0080
    4MPD2    C214439   0.963   0.289  14.405 -0.3772 -0.6166  0.2600
    4MPD2    C314440   0.911   0.163  14.384 -0.6181  0.3236  0.1643
    4MPD2    C414441   0.880   0.119  14.258  0.5276 -0.2758  0.1978
    4MPD2    C514442   0.905   0.205  14.156 -0.1668 -0.2439 -0.1738
    4MPD2     H14443   0.991   0.312  14.508  0.1085 -1.4897  0.3188
    4MPD2    H114444   0.843   0.020  14.233 -2.7771  0.8743  0.5644
    4MPD2    H214445   0.980   0.382  14.075 -0.8638  2.2533  0.9343
    4MPD2    H314446   0.895   0.170  14.054  0.3152 -0.1958 -0.2359
    4MPD2     N14447   0.891   0.078  14.501  0.2299  0.4239 -0.3783
    4MPD2    H514448   0.928   0.112  14.589 -0.6854 -1.7468  0.8250
    4MPD2    N114449   1.062   0.490  14.317 -0.3401  0.2134  0.5745
    4MPD2    H714450   1.087   0.501  14.415  2.0299  4.4957 -0.5333
    5TMC2    C114451   1.571   4.064  14.988  0.1960  0.1692 -0.0987
    5TMC2    C214452   1.566   3.998  15.110  0.1099  0.3813 -0.6853
    5TMC2    C314453   1.608   4.058  15.225  0.2729 -0.3482 -0.6360
    5TMC2    C414454   1.635   4.188  14.988 -0.0138  0.0176 -0.3276
    5TMC2    C514455   1.695   4.249  15.100 -0.0983 -0.4590  0.3828
    5TMC2    C614456   1.669   4.183  15.223 -0.4786  0.4852 -0.0484
    5TMC2     C14457   1.457   4.101  14.914 -0.5398  0.2405 -0.3008
    5TMC2     O14458   1.429   4.215  14.934 -0.0384 -0.1159 -0.1953
    5TMC2     H14459   1.523   3.899  15.111  0.2470  0.3426  0.5174
    5TMC2    H114460   1.662   4.231  14.892  1.7743 -1.9151 -0.6700
    5TMC2    H214461   1.690   4.241  15.312  0.4694  1.7738 -1.1007
    5TMC2    C714462   1.709   4.390  15.093  0.0276 -0.0907  0.1941
    5TMC2    C814463   1.603   3.980  15.348 -0.5336 -0.6920 -0.1199
    5TMC2    O114464   1.794   4.447  15.162 -0.5110  0.3434  0.3873
    5TMC2    O214465   1.547   3.873  15.348  0.5564 -0.2119 -0.4232
    5TMC2    O514466   1.698   4.019  15.432  0.0274 -0.0807 -0.0883
    5TMC2    H514467   1.742   4.090  15.380  0.6192 -0.4658 -0.1044
    6MPD2     C14468   1.010   4.037  14.668 -0.0387 -0.3119  0.0258
    6MPD2    C114469   1.061   4.148  14.735 -0.0401  0.3774 -0.4911
    6MPD2    C214470   1.193   4.146  14.788  0.4348 -0.1980 -0.2410
    6MPD2    C314471   1.269   4.033  14.771  0.8391 -0.0865 -0.8284
    6MPD2    C414472   1.215   3.928  14.701  0.2490 -0.4535 -0.6977
    6MPD2    C514473   1.088   3.935  14.653 -0.3733 -0.0036  0.1564
    6MPD2     H14474   1.219   4.233  14.847  0.4163  0.5013 -1.2590
    6MPD2    H114475   1.275   3.846  14.663 -0.1678 -1.5194  0.9777
    6MPD2    H214476   0.913   4.035  14.619 -0.5865 -0.5757  1.1182
    6MPD2    H314477   1.042   3.851  14.601  1.1153 -1.5939  1.3939
    6MPD2     N14478   1.397   4.011  14.832  0.0583 -0.3540  0.0587
    6MPD2    H514479   1.431   3.916  14.822  1.3481  0.0961  0.2610
    6MPD2    N114480   0.995   4.267  14.748  0.6156 -0.1242 -0.4628
    6MPD2    H714481   1.053   4.342  14.784  1.1348 -0.0058 -1.5621
  945NH4     N114482   0.141   1.100  13.442 -0.4594 -0.0610 -0.0379
  945NH4     H214483   0.207   1.047  13.504  3.2355  1.0496 -3.0438
  945NH4     H314484   0.186   1.134  13.355 -0.9597 -0.6584 -0.5262
  945NH4     H414485   0.106   1.180  13.498  1.0598 -0.7086  1.8853
  945NH4     H514486   0.067   1.031  13.418 -0.9704 -0.4331  2.5844
  946SOD     NA14487   0.857   2.242   9.114  0.2232  0.0933 -0.0558
  947SOD     NA14488   2.778   0.784  16.364  0.1791 -0.0124  0.3459
  948SOD     NA14489   1.259   2.498  13.379 -0.6655 -0.0482 -0.5270
  949SOD     NA14490   3.031   2.039  16.933 -0.5451 -0.3458 -0.5397
  950SOD     NA14491   3.516   4.108  17.287  0.0759  0.1156 -0.4821
  951SOD     NA14492   2.919   3.005  12.956  0.4091  0.2724  0.3629
  952SOD     NA14493   3.220   2.180  13.788  0.1719 -0.0636  0.3917
  953SOL     OW14494   0.865   3.700   4.915 -0.0713 -0.0936  0.4186
  953SOL    HW114495   0.902   3.675   4.999 -0.5989 -1.3113  0.2818
  953SOL    HW214496   0.876   3.619   4.865  3.5448  0.4137  0.4173
  954SOL     OW14497   2.007   1.778  16.613  0.3142  0.3210 -0.3079
  954SOL    HW114498   1.968   1.845  16.557 -1.1343  0.1924  0.5439
  954SOL    HW214499   1.923   1.752  16.652 -0.1347  0.5353 -1.1356
  955SOL     OW14500   1.163   0.008   6.958 -0.1511  0.0438 -0.7161
  955SOL    HW114501   1.153   0.010   6.863  0.4877 -3.6743 -0.8533
  955SOL    HW214502   1.079   0.049   6.978 -0.1316 -0.5567  0.5670
  956SOL     OW14503   0.353   0.719   6.305  0.3824  0.0033 -0.4290
  956SOL    HW114504   0.442   0.721   6.269  1.2007 -0.4644  1.5909
  956SOL    HW214505   0.337   0.812   6.324 -0.8411 -0.4793  0.9088
  957SOL     OW14506   4.085   1.094   6.404  0.1568 -0.3633 -0.6423
  957SOL    HW114507   4.031   1.065   6.477  0.0473  2.3960  0.3448
  957SOL    HW214508   4.065   1.187   6.413  0.4857 -0.3427 -0.0945
  958SOL     OW14509   3.378   4.388  10.936 -0.6540  0.7345 -0.0926
  958SOL    HW114510   3.457   4.439  10.952 -0.9967  1.2014  0.1270
  958SOL    HW214511   3.330   4.447  10.877 -1.8323 -0.1541 -0.0126
  959SOL     OW14512   0.542   1.828  14.971 -0.0157  0.9797 -0.2530
  959SOL    HW114513   0.552   1.906  14.918 -0.7865  1.4337  0.2806
  959SOL    HW214514   0.612   1.770  14.938 -0.7585 -0.5862  0.9175
  960SOL     OW14515   2.550   2.194   7.345  0.0263 -0.3225  0.3472
  960SOL    HW114516   2.594   2.260   7.399 -1.8938  1.1693  0.0562
  960SOL    HW214517   2.489   2.154   7.407 -1.7553  0.8774 -0.6691
  961SOL     OW14518   0.793   0.860   4.533  0.3975 -0.4530 -0.2495
  961SOL    HW114519   0.839   0.904   4.605 -0.6100 -0.3031  0.3062
  961SOL    HW214520   0.756   0.786   4.583 -1.8594  0.5136 -0.4878
  962SOL     OW14521   0.440   1.176   2.416 -0.1192 -0.1566  0.3003
  962SOL    HW114522   0.447   1.264   2.378 -0.8090 -0.4407 -0.4647
  962SOL    HW214523   0.474   1.200   2.503 -0.9067  0.1413  0.5301
  963SOL     OW14524   1.361   2.321   5.781  0.3442  0.0013  0.3527
  963SOL    HW114525   1.352   2.343   5.689  1.3268  0.4945  0.3693
  963SOL    HW214526   1.346   2.228   5.795  2.4058 -0.3325  0.3718
  964SOL     OW14527   3.419   3.055   7.985 -0.2534  0.3082 -0.5200
  964SOL    HW114528   3.399   3.104   7.905 -1.7977 -3.4503 -2.4552
  964SOL    HW214529   3.441   3.127   8.044 -0.0634 -0.0351 -0.1770
  965SOL     OW14530   3.095   0.952  13.517 -0.5770  0.7554 -0.1560
  965SOL    HW114531   3.151   0.973  13.442 -2.4609  0.2542 -1.6839
  965SOL    HW214532   3.075   0.864  13.486  2.3512  0.2658 -0.7345
  966SOL     OW14533   1.048   2.686   1.027  0.4122 -0.2031  0.0477
  966SOL    HW114534   1.066   2.596   0.998  0.5929 -1.3965  3.8374
  966SOL    HW214535   1.031   2.719   0.939 -1.3526  1.5751  1.0593
  967SOL     OW14536   3.802   2.589  10.019  0.2824  0.4459  0.2901
  967SOL    HW114537   3.840   2.516   9.970 -3.1252  0.4851 -2.4127
  967SOL    HW214538   3.840   2.566  10.104  1.5297  0.1065 -0.3549
  968SOL     OW14539   4.101   1.344   9.040 -0.1856  0.0605 -0.2837
  968SOL    HW114540   4.017   1.298   9.034  0.4381 -1.2300  0.7707
  968SOL    HW214541   4.092   1.404   9.114  1.2585 -0.8673  0.6549
  969SOL     OW14542   4.510   4.502   5.995  0.1174 -0.0600  0.4738
  969SOL    HW114543   4.539   4.592   6.009  1.6634 -0.5620  0.5414
  969SOL    HW214544   4.592   4.462   6.025 -0.8321 -1.2929  1.4044
  970SOL     OW14545   4.285   1.854  14.344  0.1252  0.4897 -0.3395
  970SOL    HW114546   4.235   1.888  14.418  0.1155  2.1195 -1.0970
  970SOL    HW214547   4.367   1.905  14.340  0.2886  0.1701 -1.1285
  971SOL     OW14548   0.417   0.844   4.038 -0.0850  0.2687 -0.5395
  971SOL    HW114549   0.443   0.768   4.090  0.0335  0.7629  0.1187
  971SOL    HW214550   0.349   0.802   3.985 -0.5466  1.9271 -1.2554
  972SOL     OW14551   0.398   4.092   6.009  0.0400  0.3162  0.4638
  972SOL    HW114552   0.323   4.073   5.953  1.4336 -0.2923 -1.1986
  972SOL    HW214553   0.455   4.139   5.947 -0.0947  1.6035  1.3062
  973SOL     OW14554   0.625   4.521   5.616  0.1362 -0.2793  0.5339
  973SOL    HW114555   0.639   4.606   5.576  1.0733  0.1692  1.8117
  973SOL    HW214556   0.583   4.466   5.549  0.8684 -0.3095  0.1011
  974SOL     OW14557   1.947   3.251   2.484 -0.0996  0.2591 -0.2396
  974SOL    HW114558   1.996   3.233   2.564 -0.6380  3.3037  0.7867
  974SOL    HW214559   1.897   3.171   2.466  0.0645  0.1720 -0.3074
  975SOL     OW14560   4.609   1.629   2.322  0.5803 -0.1351  0.2780
  975SOL    HW114561   4.650   1.544   2.340 -0.6987 -0.4578  1.6025
  975SOL    HW214562   4.540   1.591   2.267 -0.6904  1.1964  0.9741
  976SOL     OW14563   4.029   0.148  14.971 -0.3511 -0.3218  0.3829
  976SOL    HW114564   4.088   0.222  14.986  2.4057 -2.2208 -1.0700
  976SOL    HW214565   4.038   0.131  14.877 -1.7930  0.0116  0.1887
  977SOL     OW14566   1.381   1.058  16.564 -0.4174 -0.0001 -0.1005
  977SOL    HW114567   1.472   1.070  16.590 -0.0008  0.6123 -1.8853
  977SOL    HW214568   1.373   1.073  16.470 -0.9438  0.0202 -0.0527
  978SOL     OW14569   2.579   0.807  16.481 -0.2707 -0.3563  0.3287
  978SOL    HW114570   2.549   0.784  16.570  0.6117 -1.3320  0.3680
  978SOL    HW214571   2.495   0.811  16.435  0.0469 -0.5654 -0.2672
  979SOL     OW14572   0.296   0.037   7.972 -0.7370  0.1711  0.0547
  979SOL    HW114573   0.265   0.052   7.883 -1.2390  0.1118  0.2159
  979SOL    HW214574   0.244   0.099   8.024 -1.1906  0.4938 -0.7821
  980SOL     OW14575   0.838   0.570   6.786  0.3708 -0.2983 -0.1041
  980SOL    HW114576   0.905   0.519   6.831  0.8556  0.4135 -0.0215
  980SOL    HW214577   0.813   0.641   6.845 -0.0075 -1.3393  0.9878
  981SOL     OW14578   1.759   0.192   1.225 -0.2697  0.1516  0.0564
  981SOL    HW114579   1.708   0.116   1.250 -0.6391  0.2226 -0.4998
  981SOL    HW214580   1.805   0.204   1.308  2.8397  0.6443 -1.7250
  982SOL     OW14581   2.829   1.279   3.837 -0.1626 -0.4641 -0.1712
  982SOL    HW114582   2.761   1.238   3.891 -0.1481  1.2312  1.1616
  982SOL    HW214583   2.830   1.372   3.860  0.7087 -0.3926 -0.5304
  983SOL     OW14584   2.590   2.680   5.067  0.4368 -0.1385  0.0325
  983SOL    HW114585   2.608   2.772   5.050 -0.5273 -0.5164 -2.9638
  983SOL    HW214586   2.574   2.683   5.162  0.6589 -1.6890  0.1130
  984SOL     OW14587   0.918   2.905   1.528 -0.3143  0.4823  0.7456
  984SOL    HW114588   0.843   2.902   1.588 -0.0945  0.0371  1.0002
  984SOL    HW214589   0.880   2.939   1.446 -1.3811 -2.2831  0.0763
  985SOL     OW14590   0.878   2.321   6.435  0.2532  0.2663  0.1490
  985SOL    HW114591   0.809   2.271   6.479  0.6849  0.1066  0.6447
  985SOL    HW214592   0.942   2.341   6.503 -0.1518 -1.5221  1.0562
  986SOL     OW14593   2.136   3.510   4.992 -0.5600  0.0239 -0.1958
  986SOL    HW114594   2.045   3.530   4.969 -0.0844  0.8950 -1.2919
  986SOL    HW214595   2.162   3.595   5.026 -0.4938 -0.9708  2.2456
  987SOL     OW14596   3.958   3.706   4.855  0.7456  0.6369 -0.0652
  987SOL    HW114597   3.928   3.794   4.874  0.7390  0.6095  0.0473
  987SOL    HW214598   3.906   3.684   4.777 -0.3464 -0.5790  0.9990
  988SOL     OW14599   4.389   0.105   9.305 -0.1339  0.3200  0.2350
  988SOL    HW114600   4.423   0.161   9.375  2.0566 -0.7545  0.0292
  988SOL    HW214601   4.299   0.139   9.306 -1.1508 -2.4055 -0.4244
  989SOL     OW14602   3.109   2.840   8.843  0.2910  0.1235 -0.6387
  989SOL    HW114603   3.069   2.830   8.757  0.1663 -1.0634 -0.4391
  989SOL    HW214604   3.051   2.901   8.889 -0.4440 -1.8638  1.1082
  990SOL     OW14605   1.322   0.200   4.772 -0.3390 -0.6133 -0.4132
  990SOL    HW114606   1.251   0.135   4.774 -0.2224 -0.7342 -0.1439
  990SOL    HW214607   1.287   0.287   4.787  1.4941 -0.3253  2.0621
  991SOL     OW14608   1.874   3.626   8.932  0.1254  1.1472  0.2388
  991SOL    HW114609   1.834   3.675   8.860 -3.0867 -2.0489 -0.1119
  991SOL    HW214610   1.800   3.627   8.993 -1.2042  0.4959 -1.3436
  992SOL     OW14611   1.426   2.019   8.536 -0.0738  0.2739 -0.0850
  992SOL    HW114612   1.343   1.971   8.533  0.4609 -0.6170 -0.8478
  992SOL    HW214613   1.441   2.011   8.630  2.2556  1.6675 -0.3315
  993SOL     OW14614   4.361   0.711   3.318  0.6748  0.3358 -0.3318
  993SOL    HW114615   4.382   0.805   3.315  2.6674 -0.1149 -0.9856
  993SOL    HW214616   4.266   0.706   3.319  0.6489  1.1286  1.4584
  994SOL     OW14617   0.991   2.163   5.724  0.0817  0.3696 -0.1890
  994SOL    HW114618   0.955   2.247   5.754  0.0697  1.6629 -3.7809
  994SOL    HW214619   1.046   2.188   5.650  1.3115  0.4089  0.7316
  995SOL     OW14620   0.433   0.730  15.548 -0.0372  0.2879  0.2158
  995SOL    HW114621   0.496   0.664  15.517  1.0083  1.3621  0.0829
  995SOL    HW214622   0.362   0.672  15.577  0.3692 -0.2360  0.1560
  996SOL     OW14623   2.255   3.243   7.138  0.2212 -0.0012  0.6716
  996SOL    HW114624   2.166   3.276   7.125 -0.6372 -2.3666  0.6807
  996SOL    HW214625   2.244   3.172   7.200  2.2499  0.4219  1.5255
  997SOL     OW14626   2.157   0.241   4.093 -0.0362  0.1954  0.7345
  997SOL    HW114627   2.103   0.199   4.027  0.1944 -0.2101  0.8000
  997SOL    HW214628   2.101   0.317   4.106 -1.7460 -0.8012 -0.8603
  998SOL     OW14629   1.811   0.804   2.111 -0.2343 -0.3455  0.3749
  998SOL    HW114630   1.890   0.821   2.061  0.6347 -0.7790  1.5876
  998SOL    HW214631   1.832   0.721   2.154 -0.3760 -0.7100 -0.2734
  999SOL     OW14632   1.397   3.674   8.786  0.4799  0.2504 -0.0169
  999SOL    HW114633   1.388   3.650   8.694 -0.0125 -0.9136  0.3330
  999SOL    HW214634   1.305   3.688   8.807  1.4342  3.7739  1.9521
 1000SOL     OW14635   2.114   1.619   6.041  0.6887 -0.0510  0.2220
 1000SOL    HW114636   2.121   1.540   5.987  0.7586 -0.0566  0.2392
 1000SOL    HW214637   2.156   1.588   6.121 -2.1097  0.6359  1.9621
 1001SOL     OW14638   2.561   3.943  16.371  0.2613  0.4614  0.1080
 1001SOL    HW114639   2.554   3.857  16.329 -0.9279  0.5053  0.2021
 1001SOL    HW214640   2.632   3.925  16.433  0.3087 -0.4318 -0.2005
 1002SOL     OW14641   4.116   2.769   0.698  0.2530 -0.2085  0.5450
 1002SOL    HW114642   4.187   2.806   0.751  2.7211 -0.5686 -2.5275
 1002SOL    HW214643   4.094   2.853   0.657  3.4558  0.2599 -0.1789
 1003SOL     OW14644   0.458   2.948  11.520 -0.1435  0.0319  0.1934
 1003SOL    HW114645   0.546   2.986  11.523  0.5943 -1.7472  0.6391
 1003SOL    HW214646   0.417   3.014  11.464 -2.0991  0.2130  1.8431
 1004SOL     OW14647   1.625   4.529   3.040 -0.2043  0.1907 -0.1310
 1004SOL    HW114648   1.594   4.584   3.112 -0.3989 -1.0561  0.7344
 1004SOL    HW214649   1.705   4.577   3.019  0.2399 -0.0981  0.8908
 1005SOL     OW14650   3.950   3.644   0.319 -0.6656 -0.1665  0.2284
 1005SOL    HW114651   3.952   3.584   0.245 -0.9430  0.4807 -0.2999
 1005SOL    HW214652   3.976   3.722   0.270 -3.0765 -0.0800 -0.9077
 1006SOL     OW14653   2.077   1.926   1.607  0.6210 -0.0866  0.4620
 1006SOL    HW114654   2.000   1.942   1.553  0.7477  0.3689  0.4131
 1006SOL    HW214655   2.122   2.011   1.600 -0.7414  0.4977 -1.3175
 1007SOL     OW14656   3.909   1.213   4.157  0.0342  0.1807 -0.2191
 1007SOL    HW114657   3.818   1.208   4.128 -0.1703 -0.7144  0.5992
 1007SOL    HW214658   3.957   1.169   4.087 -0.2117 -0.1074 -0.2039
 1008SOL     OW14659   4.382   0.403   6.561 -0.4985  0.3885 -0.7137
 1008SOL    HW114660   4.402   0.333   6.624 -1.0154  1.2406  0.3861
 1008SOL    HW214661   4.456   0.460   6.580 -0.0151 -0.5072  0.1026
 1009SOL     OW14662   2.625   0.105   4.772  0.2177  0.2504 -0.1829
 1009SOL    HW114663   2.561   0.136   4.836  1.1957 -1.8839  1.8008
 1009SOL    HW214664   2.705   0.137   4.812 -0.2723 -0.5722  1.4660
 1010SOL     OW14665   3.539   2.251   5.536  0.5208 -0.3675 -0.5754
 1010SOL    HW114666   3.612   2.217   5.485 -0.9494 -1.4468 -1.9601
 1010SOL    HW214667   3.484   2.279   5.463  0.9505 -1.1630 -1.1968
 1011SOL     OW14668   1.079   3.278   9.843  0.9469  0.0994  0.2528
 1011SOL    HW114669   1.102   3.189   9.869 -1.3531 -1.0267 -1.5129
 1011SOL    HW214670   1.135   3.323   9.906  0.7780  0.9535 -0.2069
 1012SOL     OW14671   1.436   0.684   6.868  0.1346 -0.2563  0.3990
 1012SOL    HW114672   1.484   0.747   6.814  0.0420 -1.0280 -0.5996
 1012SOL    HW214673   1.477   0.708   6.951  0.4903 -1.6913  0.6450
 1013SOL     OW14674   1.805   0.189   2.508  0.3650  0.1711  0.2586
 1013SOL    HW114675   1.890   0.200   2.466  0.8883 -2.9763  0.5340
 1013SOL    HW214676   1.829   0.126   2.575  0.7649  0.1303  0.0769
 1014SOL     OW14677   3.032   0.950   8.934 -0.0782 -0.7015  0.0616
 1014SOL    HW114678   2.980   0.881   8.892  0.0851 -1.7209  1.5246
 1014SOL    HW214679   3.120   0.919   8.910 -0.4994 -0.5074 -1.6716
 1015SOL     OW14680   3.348   3.758  12.692 -0.1785  0.5318  0.0807
 1015SOL    HW114681   3.323   3.777  12.602  0.6532 -1.0293 -0.4894
 1015SOL    HW214682   3.314   3.831  12.743 -0.1511  1.0498 -0.6427
 1016SOL     OW14683   3.750   0.697   3.253 -0.2735  0.2311 -0.0228
 1016SOL    HW114684   3.782   0.621   3.302  2.6596  1.0190 -0.7138
 1016SOL    HW214685   3.809   0.767   3.281  2.9570 -2.0246 -1.2003
 1017SOL     OW14686   0.875   1.154   7.810 -0.0342  0.2596 -0.3223
 1017SOL    HW114687   0.867   1.166   7.716  2.1534  0.0092 -0.5554
 1017SOL    HW214688   0.956   1.102   7.812  0.7840  1.6254  2.2716
 1018SOL     OW14689   0.135   2.677   9.390  0.4749  0.4211  0.1349
 1018SOL    HW114690   0.091   2.700   9.471  1.5608 -0.5345  0.9913
 1018SOL    HW214691   0.216   2.720   9.417 -0.2429  1.9467 -0.1887
 1019SOL     OW14692   3.099   4.138   9.074 -0.5320  0.2682 -0.0741
 1019SOL    HW114693   3.187   4.166   9.047 -1.0197  1.1533 -0.7329
 1019SOL    HW214694   3.062   4.103   8.993 -0.9237  0.9194 -0.1709
 1020SOL     OW14695   0.425   2.130   5.135  0.4003 -0.0476 -0.2217
 1020SOL    HW114696   0.370   2.209   5.128  0.3268 -0.0998 -0.2343
 1020SOL    HW214697   0.422   2.084   5.051 -0.5702  0.3315 -0.3986
 1021SOL     OW14698   3.395   0.392   8.674  0.5671  0.0581 -0.1494
 1021SOL    HW114699   3.467   0.423   8.729 -1.1252  2.7969  0.5128
 1021SOL    HW214700   3.440   0.380   8.590 -0.2405 -0.3720 -0.5318
 1022SOL     OW14701   3.858   3.799   4.084 -0.4273  0.0593 -0.0971
 1022SOL    HW114702   3.856   3.722   4.141  0.9580 -0.8649 -1.2882
 1022SOL    HW214703   3.908   3.768   4.008  0.1699 -1.0842  0.7668
 1023SOL     OW14704   1.951   0.698   0.351  0.0116 -0.1621 -0.1032
 1023SOL    HW114705   1.958   0.641   0.427 -1.0695  1.7607  1.4457
 1023SOL    HW214706   2.001   0.776   0.377  0.1164 -0.7300  1.4112
 1024SOL     OW14707   2.745   2.473   6.412  0.1056 -0.0424 -0.6181
 1024SOL    HW114708   2.801   2.409   6.368 -0.6404  0.0707 -1.7422
 1024SOL    HW214709   2.761   2.548   6.356  3.2303  0.4366  0.9133
 1025SOL     OW14710   4.466   2.250   4.140  0.5026  0.2931 -0.0156
 1025SOL    HW114711   4.496   2.173   4.188  2.1321  1.5346  0.9719
 1025SOL    HW214712   4.492   2.222   4.052 -0.8492 -0.1588 -0.2681
 1026SOL     OW14713   4.454   3.551   8.219 -0.3966 -0.1436  0.0602
 1026SOL    HW114714   4.372   3.506   8.201 -0.0143 -1.1988  0.9579
 1026SOL    HW214715   4.463   3.543   8.314  0.8210 -0.7743 -0.1090
 1027SOL     OW14716   4.631   1.572  17.091  0.1731  0.3238 -0.4069
 1027SOL    HW114717   4.577   1.641  17.053 -1.1487 -0.1260  0.6613
 1027SOL    HW214718   4.706   1.568  17.031 -0.2167 -0.9102 -0.8012
 1028SOL     OW14719   2.782   0.549   8.515 -0.2064  0.0701  0.4150
 1028SOL    HW114720   2.812   0.522   8.602  0.4369 -1.0114 -0.1473
 1028SOL    HW214721   2.822   0.636   8.520  1.2298 -0.6741  1.8914
 1029SOL     OW14722   3.472   1.864  11.559  0.2010  0.1201  0.5427
 1029SOL    HW114723   3.477   1.956  11.531 -0.6535  0.3936  1.3127
 1029SOL    HW214724   3.557   1.831  11.529 -0.0431 -0.5963  0.6507
 1030SOL     OW14725   3.519   0.720   8.527  0.2602 -0.2808 -0.6543
 1030SOL    HW114726   3.505   0.651   8.463 -1.6869 -1.9951  1.5997
 1030SOL    HW214727   3.613   0.735   8.526  0.1424  0.4578 -0.9663
 1031SOL     OW14728   3.273   1.067   7.987  0.7824  0.2765 -0.5371
 1031SOL    HW114729   3.351   1.086   7.935  1.3049 -0.2586  0.0510
 1031SOL    HW214730   3.246   1.151   8.026 -0.4859 -0.1047 -0.5898
 1032SOL     OW14731   3.730   3.382  16.660  0.4211  0.3165  0.1571
 1032SOL    HW114732   3.690   3.415  16.579 -0.1254  0.7975  0.6211
 1032SOL    HW214733   3.690   3.296  16.671 -1.8579  1.1245 -1.7177
 1033SOL     OW14734   3.238   3.513   9.100  0.2204  0.1887 -0.1136
 1033SOL    HW114735   3.214   3.574   9.169 -0.1080  2.8873 -2.6319
 1033SOL    HW214736   3.305   3.564   9.055  0.7988 -0.0372  0.5007
 1034SOL     OW14737   2.530   0.141   3.369 -0.5985  0.0066 -0.5011
 1034SOL    HW114738   2.621   0.167   3.353  0.2236 -2.2081  0.4527
 1034SOL    HW214739   2.528   0.163   3.462  0.2437  2.0099 -0.9625
 1035SOL     OW14740   2.750   0.931   5.310  0.0534  0.2205 -0.0128
 1035SOL    HW114741   2.666   0.970   5.285 -1.1510 -1.4865  1.3533
 1035SOL    HW214742   2.798   0.969   5.237 -0.2292  0.8276  0.1106
 1036SOL     OW14743   0.458   0.885   0.254  0.3775  0.3246  0.4300
 1036SOL    HW114744   0.397   0.813   0.269  0.4180  0.0122 -0.9361
 1036SOL    HW214745   0.517   0.890   0.329  2.0253 -0.6241 -0.8036
 1037SOL     OW14746   1.543   2.443   1.593 -0.4642  0.7926 -0.5403
 1037SOL    HW114747   1.511   2.389   1.521 -1.7379  1.2065 -0.2810
 1037SOL    HW214748   1.477   2.433   1.662  0.6712 -3.7495 -0.0804
 1038SOL     OW14749   2.112   4.326   6.962 -0.1823 -0.1452 -0.2548
 1038SOL    HW114750   2.073   4.388   6.901 -1.4122  0.1423  0.8085
 1038SOL    HW214751   2.161   4.267   6.905 -0.2527 -0.6936  0.2518
 1039SOL     OW14752   4.208   2.545   5.850  0.2615 -0.4771  0.0569
 1039SOL    HW114753   4.141   2.604   5.813  1.7521  2.2380  1.7327
 1039SOL    HW214754   4.236   2.595   5.927 -0.9209  0.9357 -0.4238
 1040SOL     OW14755   1.344   1.674   6.055 -0.0021  0.8155 -0.1723
 1040SOL    HW114756   1.362   1.689   5.963 -0.6445 -1.4315 -0.6698
 1040SOL    HW214757   1.434   1.665   6.088  0.9809  1.0382 -2.8448
 1041SOL     OW14758   3.874   4.349   4.915  0.4882 -0.0749 -0.4471
 1041SOL    HW114759   3.863   4.276   4.854 -2.0754  1.9301 -2.4012
 1041SOL    HW214760   3.868   4.295   4.994  0.7011  0.1242 -0.2942
 1042SOL     OW14761   1.138   1.933   8.530  0.0340 -0.7968 -0.3804
 1042SOL    HW114762   1.147   1.859   8.471  1.1114  0.7731 -2.2039
 1042SOL    HW214763   1.079   1.895   8.595  0.1111 -0.4810 -0.1244
 1043SOL     OW14764   0.640   2.166   6.545  0.6784 -0.6056  0.0740
 1043SOL    HW114765   0.674   2.077   6.534  4.4093  0.8231 -0.1035
 1043SOL    HW214766   0.547   2.153   6.526 -0.3549  2.1193  3.4172
 1044SOL     OW14767   3.152   4.384  17.728 -0.2477 -0.2816  0.3083
 1044SOL    HW114768   3.204   4.424  17.657  0.3245 -1.8277 -0.1357
 1044SOL    HW214769   3.065   4.415  17.704 -0.1624 -1.0497 -1.0106
 1045SOL     OW14770   1.873   4.223   9.519 -0.1144  0.2435 -0.0681
 1045SOL    HW114771   1.813   4.207   9.591 -1.0163  0.2712 -0.8168
 1045SOL    HW214772   1.886   4.317   9.528 -0.1404  0.4143 -1.8062
 1046SOL     OW14773   3.644   0.240   2.055 -0.2648  0.0135  0.2796
 1046SOL    HW114774   3.733   0.216   2.082 -0.2568 -1.1617 -0.7948
 1046SOL    HW214775   3.648   0.257   1.961  0.1011  0.6358  0.4061
 1047SOL     OW14776   2.912   1.233  16.449 -0.0056 -0.1103  0.0533
 1047SOL    HW114777   2.831   1.271  16.417 -0.0843  1.6174  2.3313
 1047SOL    HW214778   2.971   1.292  16.402 -0.5960 -0.7355 -1.4827
 1048SOL     OW14779   1.106   0.451   8.071  0.4433  0.4261  0.2118
 1048SOL    HW114780   1.015   0.466   8.045 -0.1297 -1.6160  0.9954
 1048SOL    HW214781   1.156   0.483   7.997  1.4772 -0.7531  0.3916
 1049SOL     OW14782   0.726   0.620   4.677 -0.0148  0.1612  0.3423
 1049SOL    HW114783   0.723   0.525   4.684 -1.9494  0.1631 -0.4999
 1049SOL    HW214784   0.708   0.645   4.768 -0.5633  1.7030 -0.1740
 1050SOL     OW14785   4.557   4.672  10.177 -0.0311 -0.4286  0.6132
 1050SOL    HW114786   4.584   4.635  10.261  0.6896 -0.7174  0.2518
 1050SOL    HW214787   4.543   0.022  10.192  0.4579 -0.0923 -0.9528
 1051SOL     OW14788   0.614   4.605  10.429 -0.6752  0.4877  0.5025
 1051SOL    HW114789   0.700   4.594  10.471  0.9339  0.8628 -2.7461
 1051SOL    HW214790   0.620   4.555  10.348  1.8027 -0.1259  1.0802
 1052SOL     OW14791   2.855   0.873   7.280 -0.0877 -0.6206  0.3087
 1052SOL    HW114792   2.934   0.821   7.268  0.1948  0.2538 -1.5871
 1052SOL    HW214793   2.813   0.807   7.337 -0.2306  0.7343  1.7810
 1053SOL     OW14794   3.143   4.728  13.410 -0.2032 -0.1897  0.4360
 1053SOL    HW114795   3.110   0.021  13.493  0.1182  1.1388 -0.0119
 1053SOL    HW214796   3.071   0.011  13.353  0.7935  1.5979 -0.0048
 1054SOL     OW14797   3.190   4.112   3.223  0.6269  0.6965 -0.1267
 1054SOL    HW114798   3.243   4.110   3.143  2.1541 -4.8652  0.9679
 1054SOL    HW214799   3.127   4.042   3.203  2.2660 -0.5672 -0.8798
 1055SOL     OW14800   1.991   0.273  16.572 -0.1126  0.0523  0.5876
 1055SOL    HW114801   2.023   0.202  16.627 -1.4486  0.2292  1.5935
 1055SOL    HW214802   2.068   0.330  16.575  1.6090 -2.0458 -3.5403
 1056SOL     OW14803   4.507   0.992  11.632 -0.0434  0.2426  0.0319
 1056SOL    HW114804   4.452   0.957  11.702 -0.1531  1.8265  0.7373
 1056SOL    HW214805   4.589   0.981  11.681 -0.9510  0.0744  1.5054
 1057SOL     OW14806   2.407   1.239   9.346  0.4978 -0.3160  0.0424
 1057SOL    HW114807   2.327   1.292   9.353  1.3031  0.8631  0.2764
 1057SOL    HW214808   2.375   1.163   9.395  3.2624 -1.3660  0.2281
 1058SOL     OW14809   1.405   0.262   6.319  0.1185  0.4775 -0.1351
 1058SOL    HW114810   1.497   0.273   6.296  0.2529 -0.1521  0.0975
 1058SOL    HW214811   1.363   0.340   6.283  0.2660  1.0323  0.8660
 1059SOL     OW14812   0.641   3.581   8.283  0.1768 -0.1297  1.1087
 1059SOL    HW114813   0.635   3.607   8.375  0.9650  0.2027  1.0637
 1059SOL    HW214814   0.550   3.556   8.265  0.2884 -1.2072  2.0416
 1060SOL     OW14815   2.998   0.835   3.454  0.6195 -0.9826 -0.1057
 1060SOL    HW114816   2.913   0.846   3.497  1.6648  1.2093  1.3814
 1060SOL    HW214817   3.032   0.773   3.518  1.9766 -0.5385 -0.4125
 1061SOL     OW14818   3.898   0.615  13.218 -0.0761 -0.3712  0.0745
 1061SOL    HW114819   3.827   0.676  13.236  1.3087  1.9510 -2.4801
 1061SOL    HW214820   3.966   0.671  13.256 -1.4240  2.2030 -1.2903
 1062SOL     OW14821   1.432   3.949   1.496  0.6111 -0.3103 -0.2356
 1062SOL    HW114822   1.425   3.871   1.442 -1.4331 -1.6147  1.9306
 1062SOL    HW214823   1.476   3.916   1.574  0.4227  0.3452  0.1529
 1063SOL     OW14824   1.410   3.053   4.650 -0.6470  0.0978  0.4318
 1063SOL    HW114825   1.410   3.148   4.655  1.9141  0.0323  1.4298
 1063SOL    HW214826   1.504   3.042   4.640 -1.3664 -3.7934 -2.0776
 1064SOL     OW14827   1.455   3.853  10.533  0.1895 -0.5207 -0.3968
 1064SOL    HW114828   1.467   3.823  10.623 -1.2325  1.6002  0.5050
 1064SOL    HW214829   1.419   3.941  10.546 -1.3035 -1.3232  0.9945
 1065SOL     OW14830   2.033   2.967  11.562  0.0131 -0.4121  0.3527
 1065SOL    HW114831   2.049   2.875  11.580 -4.9865 -0.9726  1.7509
 1065SOL    HW214832   2.079   2.970  11.478 -1.0682  2.8064 -0.1366
 1066SOL     OW14833   3.088   0.395   9.087 -0.2399  0.6155  0.4035
 1066SOL    HW114834   2.993   0.398   9.076 -0.0648 -0.3064 -1.2983
 1066SOL    HW214835   3.098   0.334   9.014  0.8786  1.0763  0.1658
 1067SOL     OW14836   1.226   0.998   7.370 -0.5324 -0.3592  0.0864
 1067SOL    HW114837   1.135   1.001   7.339 -0.9471  1.3630  1.4205
 1067SOL    HW214838   1.236   1.085   7.409 -1.0254 -0.9358  1.5189
 1068SOL     OW14839   0.505   1.393  13.798 -0.3468  0.0267 -0.0186
 1068SOL    HW114840   0.492   1.450  13.874 -0.0429  1.9210 -1.3737
 1068SOL    HW214841   0.600   1.386  13.788 -0.0581  0.3562  2.6856
 1069SOL     OW14842   2.927   4.692   2.977  0.2413  0.3706 -0.8882
 1069SOL    HW114843   2.976   4.611   2.991 -0.3755  0.0670 -0.4629
 1069SOL    HW214844   2.919   4.712   3.070  2.1824  1.7734 -1.0135
 1070SOL     OW14845   1.933   3.444   0.655  0.7534 -0.3158 -0.0059
 1070SOL    HW114846   2.009   3.391   0.681  0.2026 -1.2595 -0.3439
 1070SOL    HW214847   1.967   3.485   0.575  2.3469  0.6778  1.1685
 1071SOL     OW14848   3.873   2.768   6.832 -0.0552  0.2900 -0.6939
 1071SOL    HW114849   3.824   2.695   6.867 -0.0952  1.1781  1.1020
 1071SOL    HW214850   3.800   2.826   6.813 -1.0480 -1.0803 -1.0409
 1072SOL     OW14851   0.562   4.117   5.217  0.1495 -0.4133  0.3997
 1072SOL    HW114852   0.562   4.045   5.280  0.0200  1.0441  2.0863
 1072SOL    HW214853   0.645   4.104   5.173  0.6480 -1.9705  1.8374
 1073SOL     OW14854   0.222   1.684  17.186 -0.4568 -0.3160  0.0337
 1073SOL    HW114855   0.130   1.709  17.188 -0.5696 -0.7467  0.2903
 1073SOL    HW214856   0.240   1.731  17.105 -0.4971 -0.6827 -0.1823
 1074SOL     OW14857   0.853   0.162   6.065 -0.0514  0.3302  0.0373
 1074SOL    HW114858   0.921   0.097   6.046 -1.4711 -0.8891 -0.8422
 1074SOL    HW214859   0.793   0.117   6.124  3.5166 -1.4375  2.3370
 1075SOL     OW14860   0.633   0.936  15.553 -0.3635  0.1156 -0.0059
 1075SOL    HW114861   0.671   0.888  15.627  2.0675  2.8399  0.5145
 1075SOL    HW214862   0.545   0.899  15.553 -0.6428  0.7982 -0.8996
 1076SOL     OW14863   4.346   4.498  10.294  0.6466  0.3503  0.4881
 1076SOL    HW114864   4.341   4.456  10.379 -0.0681 -1.3214 -0.3789
 1076SOL    HW214865   4.439   4.493  10.272  0.5694 -1.3190  0.5882
 1077SOL     OW14866   1.724   2.710   4.662 -0.2234  0.5024 -0.4665
 1077SOL    HW114867   1.673   2.701   4.581  0.2374 -1.4078 -0.5429
 1077SOL    HW214868   1.684   2.640   4.714  1.4382  0.7480  1.1346
 1078SOL     OW14869   3.546   2.999  14.251 -0.1058  0.4547  0.0624
 1078SOL    HW114870   3.580   2.976  14.337  0.3158  0.5662 -0.0724
 1078SOL    HW214871   3.454   3.017  14.269  0.0429  1.0292  0.2459
 1079SOL     OW14872   2.159   3.781   7.771 -0.2105 -1.0835 -0.5867
 1079SOL    HW114873   2.201   3.695   7.782 -0.3638 -1.4098 -2.5400
 1079SOL    HW214874   2.226   3.829   7.722 -2.9582  3.6290  0.2790
 1080SOL     OW14875   3.662   0.804  12.717 -0.2358  0.4283 -0.4928
 1080SOL    HW114876   3.602   0.878  12.708 -0.5700 -0.0230 -1.9943
 1080SOL    HW214877   3.599   0.742  12.679 -1.6361  0.7464  1.3193
 1081SOL     OW14878   3.988   0.241  13.714  0.4966  0.6310  0.4957
 1081SOL    HW114879   3.911   0.220  13.660  1.3512  1.1161 -0.8982
 1081SOL    HW214880   3.967   0.334  13.725  0.6025  0.5184  1.6514
 1082SOL     OW14881   4.690   1.803   7.777 -0.1481  0.1229  0.3663
 1082SOL    HW114882   4.675   1.865   7.849 -0.1296 -0.6688  1.0620
 1082SOL    HW214883   4.700   1.719   7.822 -0.5246  1.1084  2.2847
 1083SOL     OW14884   1.976   3.275   3.678  0.2526 -0.5860  0.2284
 1083SOL    HW114885   2.013   3.287   3.766 -3.1784  0.2272  1.5726
 1083SOL    HW214886   1.931   3.193   3.698 -2.0372  0.4891 -0.5581
 1084SOL     OW14887   4.304   1.142  15.415  0.6117 -0.1463  0.2335
 1084SOL    HW114888   4.227   1.171  15.365  0.7925  1.2845  0.7911
 1084SOL    HW214889   4.354   1.223  15.423 -0.6644  0.8163 -1.3608
 1085SOL     OW14890   3.089   2.902   2.359 -0.0489  0.3680  0.2788
 1085SOL    HW114891   3.098   2.950   2.277 -1.1585  0.3570  0.1533
 1085SOL    HW214892   3.039   2.821   2.343 -1.2349  1.1097  0.2304
 1086SOL     OW14893   3.762   3.434   3.237  0.0656 -0.1967  0.2011
 1086SOL    HW114894   3.765   3.366   3.304  0.5989  1.1515  1.5332
 1086SOL    HW214895   3.673   3.433   3.202 -0.3873 -1.0516  1.3822
 1087SOL     OW14896   2.517   1.896   5.914 -0.4073 -0.8316 -1.0830
 1087SOL    HW114897   2.603   1.938   5.910 -0.1058 -1.5153 -1.9753
 1087SOL    HW214898   2.516   1.837   5.838  1.2168 -0.2075 -1.5912
 1088SOL     OW14899   3.675   2.562   2.765  0.2311  0.0272  0.1329
 1088SOL    HW114900   3.687   2.573   2.860  0.0285  3.0446 -0.2087
 1088SOL    HW214901   3.673   2.466   2.773 -1.7720 -0.1201 -2.4312
 1089SOL     OW14902   1.766   1.359   3.872 -0.0530 -0.3056  0.2697
 1089SOL    HW114903   1.787   1.340   3.964  1.6905  2.8217  0.5258
 1089SOL    HW214904   1.794   1.450   3.858  4.3176 -2.2878 -3.6377
 1090SOL     OW14905   1.754   1.362   6.117  0.3486 -0.5182  0.3689
 1090SOL    HW114906   1.677   1.307   6.125  1.0248 -1.6131 -0.6957
 1090SOL    HW214907   1.750   1.406   6.202  0.8888  0.7439 -0.2685
 1091SOL     OW14908   4.338   4.432   9.101  0.8998 -0.5402 -0.0088
 1091SOL    HW114909   4.318   4.523   9.079 -0.6412 -1.5587 -2.8432
 1091SOL    HW214910   4.263   4.416   9.158  0.1259  1.9943 -0.2784
 1092SOL     OW14911   0.496   0.673   1.421 -0.2288  0.2632 -0.1010
 1092SOL    HW114912   0.556   0.605   1.389  0.2823  0.3771  0.6181
 1092SOL    HW214913   0.441   0.629   1.485  2.5490 -3.1602 -0.0303
 1093SOL     OW14914   1.454   2.207   3.206 -0.3744 -0.0605 -0.6255
 1093SOL    HW114915   1.449   2.231   3.114 -1.6847  1.0482 -0.2734
 1093SOL    HW214916   1.381   2.145   3.213  1.0992 -1.9374 -1.8984
 1094SOL     OW14917   1.300   3.429   4.371  0.4563 -0.1397  0.0741
 1094SOL    HW114918   1.299   3.401   4.280 -2.0946 -0.2752  0.1451
 1094SOL    HW214919   1.378   3.485   4.372  0.3987 -0.0147 -1.8556
 1095SOL     OW14920   2.805   3.248   8.826  0.3878 -0.2032  0.2243
 1095SOL    HW114921   2.736   3.296   8.872 -0.5260  1.4435 -2.7862
 1095SOL    HW214922   2.880   3.307   8.825  0.2756 -0.0848 -1.1536
 1096SOL     OW14923   0.430   1.708   2.372 -0.4463  0.2376 -0.4692
 1096SOL    HW114924   0.380   1.626   2.378  0.9405 -0.6681 -1.3774
 1096SOL    HW214925   0.386   1.764   2.308 -1.6120 -0.2369 -0.0965
 1097SOL     OW14926   2.896   2.351  10.514  0.1584 -0.2393  0.2570
 1097SOL    HW114927   2.808   2.317  10.498  1.9979 -5.4890  1.2768
 1097SOL    HW214928   2.938   2.364  10.430  1.5398 -0.9373  0.8516
 1098SOL     OW14929   4.672   0.589   4.509  0.0658 -0.2767 -0.3103
 1098SOL    HW114930   4.640   0.525   4.446  0.8434 -0.7805 -0.1815
 1098SOL    HW214931   4.592   0.625   4.549  1.3135  0.2767  1.6814
 1099SOL     OW14932   2.716   3.150   3.487  0.0573 -0.1598  0.0947
 1099SOL    HW114933   2.636   3.110   3.521 -0.1042 -0.7904 -1.0384
 1099SOL    HW214934   2.689   3.192   3.405  0.8551  1.3818  0.6222
 1100SOL     OW14935   0.936   1.744   2.387  0.1093  0.1570  0.1101
 1100SOL    HW114936   0.956   1.669   2.331  0.5410 -0.3446  0.9211
 1100SOL    HW214937   0.849   1.772   2.359 -0.0815 -0.4103  0.1339
 1101SOL     OW14938   1.897   0.642   4.255  0.0819 -0.2837  0.4863
 1101SOL    HW114939   1.817   0.631   4.307  1.3529 -2.2266  2.0023
 1101SOL    HW214940   1.907   0.734   4.277  0.8240 -0.4054  0.6302
 1102SOL     OW14941   2.006   0.373   5.507 -0.3824  0.3214  0.2761
 1102SOL    HW114942   1.920   0.336   5.528 -1.3616  0.9329 -2.5496
 1102SOL    HW214943   2.068   0.308   5.540 -0.8252 -0.2095  0.0673
 1103SOL     OW14944   3.352   3.425   0.014  0.3853  0.3268  0.2639
 1103SOL    HW114945   3.297   3.385   0.081 -0.2241  0.7976  0.0436
 1103SOL    HW214946   3.342   3.517   0.040  0.6194  0.3182  0.3810
 1104SOL     OW14947   3.200   1.495   4.636  0.0716  0.4778 -0.4297
 1104SOL    HW114948   3.178   1.466   4.724  2.1689  1.2731  0.3622
 1104SOL    HW214949   3.289   1.462   4.629 -0.4707 -1.2908  1.0232
 1105SOL     OW14950   0.897   2.314   1.442  0.2234 -0.2342 -0.1394
 1105SOL    HW114951   0.943   2.243   1.486 -0.5354  0.3932  1.6536
 1105SOL    HW214952   0.808   2.282   1.458  0.8525 -1.5557  0.7302
 1106SOL     OW14953   4.204   1.177   3.075  0.6331  0.6801 -0.4244
 1106SOL    HW114954   4.298   1.166   3.087  0.8308  2.5106 -0.3284
 1106SOL    HW214955   4.196   1.266   3.109  1.2157  0.8372 -0.6997
 1107SOL     OW14956   2.355   3.114   0.794 -0.1289  0.0032 -0.2548
 1107SOL    HW114957   2.372   3.165   0.874  0.0494 -0.7344  0.1810
 1107SOL    HW214958   2.442   3.075   0.794  0.1115  0.5358 -0.2952
 1108SOL     OW14959   1.021   4.677  11.744 -0.5483 -0.5392 -0.2890
 1108SOL    HW114960   0.998   4.719  11.661  1.0992 -2.3783 -1.6706
 1108SOL    HW214961   0.978   4.730  11.812 -0.4604  1.6651 -1.9452
 1109SOL     OW14962   3.393   2.741   9.203  0.3695  0.1694  0.5190
 1109SOL    HW114963   3.422   2.743   9.294 -0.2789  1.5788  0.6947
 1109SOL    HW214964   3.308   2.699   9.216 -0.4086  1.7837  0.6276
 1110SOL     OW14965   0.134   3.728  16.679  0.0176 -0.5045 -0.2510
 1110SOL    HW114966   0.058   3.670  16.677 -0.0841 -0.3638 -0.4515
 1110SOL    HW214967   0.137   3.739  16.774 -2.1227 -1.9631  0.0010
 1111SOL     OW14968   4.104   3.759   6.492  0.4359  0.4223  0.1190
 1111SOL    HW114969   4.053   3.817   6.435  1.3269  0.1313 -0.9625
 1111SOL    HW214970   4.115   3.813   6.570  0.5102 -0.8394  0.9880
 1112SOL     OW14971   3.034   1.069   3.253 -0.5765 -0.2459 -0.2616
 1112SOL    HW114972   2.964   1.005   3.254  0.3716 -1.2335  2.0572
 1112SOL    HW214973   3.066   1.072   3.343 -0.2969  1.1070 -0.4027
 1113SOL     OW14974   4.650   1.704   7.508 -0.3767 -0.1663 -0.0927
 1113SOL    HW114975   4.587   1.684   7.439 -0.8758  0.0326  0.3054
 1113SOL    HW214976   4.604   1.763   7.568 -3.4923 -1.1028 -1.6082
 1114SOL     OW14977   2.506   2.608   8.323 -0.7449 -0.0706 -0.2120
 1114SOL    HW114978   2.561   2.538   8.360  0.9557  1.1950 -0.3386
 1114SOL    HW214979   2.441   2.599   8.393  1.5955  2.5289  2.3493
 1115SOL     OW14980   4.350   2.280   4.500  0.0553 -0.3196 -0.1931
 1115SOL    HW114981   4.368   2.196   4.458 -2.5423 -1.4046  0.8644
 1115SOL    HW214982   4.285   2.266   4.569 -3.3181  1.7805 -2.9940
 1116SOL     OW14983   2.444   0.654   3.635  0.3835 -0.5406 -0.3219
 1116SOL    HW114984   2.421   0.738   3.595  1.2100  0.3919  1.1573
 1116SOL    HW214985   2.358   0.613   3.629  0.3035 -0.2299 -1.2440
 1117SOL     OW14986   2.353   2.812   7.614  0.7597 -0.2897 -0.4585
 1117SOL    HW114987   2.355   2.817   7.709  1.2195 -0.2077 -0.4733
 1117SOL    HW214988   2.429   2.867   7.596 -1.4372  2.0601 -2.6462
 1118SOL     OW14989   2.593   1.655   4.591  0.6333 -0.1876 -0.1146
 1118SOL    HW114990   2.670   1.600   4.573  1.2889  1.2427 -1.6875
 1118SOL    HW214991   2.556   1.608   4.666  0.3963  1.0963  0.5680
 1119SOL     OW14992   1.968   2.786   0.263 -0.4018 -0.3989  0.2614
 1119SOL    HW114993   2.022   2.803   0.340  0.8697  0.2929 -0.7867
 1119SOL    HW214994   2.027   2.735   0.208  1.5757  1.5692  0.5595
 1120SOL     OW14995   4.679   2.448   7.767  0.5623  0.0577  0.0034
 1120SOL    HW114996   4.616   2.520   7.759 -1.6434 -1.4896  3.5369
 1120SOL    HW214997   4.654   2.404   7.686  0.5297  1.2031 -0.6083
 1121SOL     OW14998   3.185   2.634   1.102 -0.1539 -1.0228 -0.7536
 1121SOL    HW114999   3.270   2.594   1.082  1.3410  1.2564  0.9829
 1121SOL    HW215000   3.152   2.584   1.177 -1.9862 -0.7027 -1.3447
 1122SOL     OW15001   1.017   3.500   6.801 -0.3732 -0.1905  0.0470
 1122SOL    HW115002   1.053   3.445   6.871  0.0209 -1.6201 -1.2826
 1122SOL    HW215003   0.927   3.467   6.798 -0.4435 -0.1925  2.2442
 1123SOL     OW15004   1.271   4.478   2.444  0.5166  0.4698 -0.3224
 1123SOL    HW115005   1.244   4.472   2.535  0.1410  0.7254 -0.4177
 1123SOL    HW215006   1.187   4.498   2.403 -1.6503 -3.1561  2.3540
 1124SOL     OW15007   4.226   3.500   5.772  0.2960  0.0162  0.3424
 1124SOL    HW115008   4.236   3.579   5.824  0.5005 -0.4685  1.0329
 1124SOL    HW215009   4.136   3.501   5.739  0.6236  0.5649 -0.5321
 1125SOL     OW15010   1.566   0.193  17.483  0.1392 -0.5508 -0.1701
 1125SOL    HW115011   1.583   0.100  17.494 -1.5829 -0.9588 -0.8588
 1125SOL    HW215012   1.620   0.219  17.409  1.8353  1.0457  1.6487
 1126SOL     OW15013   2.587   1.517  17.134 -0.3228 -0.5524 -0.1556
 1126SOL    HW115014   2.637   1.445  17.097 -2.4785 -1.0700 -2.0375
 1126SOL    HW215015   2.616   1.581  17.070 -1.1280 -0.7590 -0.7273
 1127SOL     OW15016   2.174   3.087   3.165 -0.6762 -0.4001  0.1376
 1127SOL    HW115017   2.106   3.149   3.136  0.6875  1.2781  0.5606
 1127SOL    HW215018   2.240   3.088   3.095 -0.7058  1.1272  0.1187
 1128SOL     OW15019   1.212   1.413   4.652  0.3810  0.3939  0.5146
 1128SOL    HW115020   1.291   1.466   4.651 -0.9073  2.3634  2.0735
 1128SOL    HW215021   1.157   1.480   4.694 -0.9283  0.1702 -0.8359
 1129SOL     OW15022   4.422   2.112   1.534 -0.3846  0.2494  0.1521
 1129SOL    HW115023   4.481   2.122   1.609 -1.7861 -0.8937  1.4282
 1129SOL    HW215024   4.342   2.158   1.561  0.2628  0.4661  1.7015
 1130SOL     OW15025   1.854   1.933  13.401 -0.3592  0.0133  0.0544
 1130SOL    HW115026   1.845   1.856  13.345  1.3894  0.9969 -1.5723
 1130SOL    HW215027   1.932   1.980  13.372 -1.0796  0.6462 -0.8849
 1131SOL     OW15028   0.656   4.416   6.778  0.1803 -0.3373 -0.1533
 1131SOL    HW115029   0.601   4.396   6.854 -2.3463  1.1738 -1.6138
 1131SOL    HW215030   0.686   4.327   6.757  1.8903 -0.0882  1.1848
 1132SOL     OW15031   1.333   3.774   5.018 -0.5223  0.7773 -0.1920
 1132SOL    HW115032   1.406   3.776   5.079  0.6416 -0.5175 -1.5438
 1132SOL    HW215033   1.359   3.688   4.984 -1.7191  0.9544 -1.5619
 1133SOL     OW15034   3.037   3.493   5.412 -0.3521  0.0691  0.5033
 1133SOL    HW115035   3.074   3.413   5.374 -1.3021 -1.3553  2.5554
 1133SOL    HW215036   2.981   3.459   5.482 -0.3182  0.4670  0.7215
 1134SOL     OW15037   2.259   4.029   3.782 -0.3518 -0.7587 -0.9813
 1134SOL    HW115038   2.219   4.037   3.868 -0.9858  3.3368 -1.6486
 1134SOL    HW215039   2.305   3.948   3.803  0.7580  0.0016 -0.5260
 1135SOL     OW15040   1.756   2.251   4.989  0.1681  0.1718  0.3460
 1135SOL    HW115041   1.672   2.216   4.960  1.9291 -1.3357 -2.8393
 1135SOL    HW215042   1.745   2.236   5.083 -1.1308  2.2560  0.5405
 1136SOL     OW15043   2.226   0.316   3.640  0.0196 -0.5900 -0.3010
 1136SOL    HW115044   2.296   0.380   3.649 -2.0094  1.6091 -0.1517
 1136SOL    HW215045   2.161   0.333   3.708 -0.9777 -1.4616 -1.0481
 1137SOL     OW15046   0.518   4.341   5.390 -0.6017  0.0918 -0.1823
 1137SOL    HW115047   0.453   4.403   5.358  1.5182  2.9189  0.9789
 1137SOL    HW215048   0.506   4.270   5.327  1.7093 -0.4027 -0.0813
 1138SOL     OW15049   1.191   3.687   1.692 -0.0924 -0.3003 -0.6086
 1138SOL    HW115050   1.156   3.751   1.630  2.1629 -0.4283 -2.0364
 1138SOL    HW215051   1.276   3.719   1.723  0.2729 -0.5526 -1.3493
 1139SOL     OW15052   2.120   4.520   8.397  0.2428 -0.4665 -0.2543
 1139SOL    HW115053   2.063   4.451   8.363 -0.0942 -0.0929 -0.4533
 1139SOL    HW215054   2.133   4.492   8.488 -0.9828  1.1787  0.4327
 1140SOL     OW15055   3.714   0.811   3.002 -0.3971 -0.1425 -0.5170
 1140SOL    HW115056   3.713   0.767   3.088 -0.3374 -0.7965 -0.8466
 1140SOL    HW215057   3.647   0.879   3.007  0.1430  0.2205  1.9846
 1141SOL     OW15058   2.045   1.733   2.536  0.1045  0.3524  0.3110
 1141SOL    HW115059   2.070   1.641   2.545  0.0505  0.3537  0.4658
 1141SOL    HW215060   2.064   1.756   2.445  0.7207  0.0971  0.3794
 1142SOL     OW15061   4.717   4.691   2.997  0.3039 -0.5396  0.4798
 1142SOL    HW115062   0.049   0.002   3.023 -1.4192  2.7229 -1.3197
 1142SOL    HW215063   4.646   0.012   3.002  0.0814 -0.6887 -0.9043
 1143SOL     OW15064   4.567   0.998   4.381  0.1383  0.1084 -0.8065
 1143SOL    HW115065   4.535   0.972   4.294 -0.4005  1.2564 -0.9421
 1143SOL    HW215066   4.538   1.089   4.381 -1.2583 -0.3439 -0.8602
 1144SOL     OW15067   4.043   4.510   5.435  0.4122 -0.2023  0.2273
 1144SOL    HW115068   4.099   4.559   5.375 -2.3644  3.0094  0.2268
 1144SOL    HW215069   4.100   4.507   5.512  0.2742  1.9748  0.4152
 1145SOL     OW15070   2.087   0.155  13.587  0.3925 -0.2662  0.0923
 1145SOL    HW115071   2.113   0.246  13.605 -0.2311 -0.2680  0.9694
 1145SOL    HW215072   2.075   0.127  13.678 -0.0256 -0.5085 -0.0392
 1146SOL     OW15073   2.529   0.446  14.469 -0.7727 -0.6286  0.2751
 1146SOL    HW115074   2.616   0.483  14.456 -1.3374 -0.1417 -2.2563
 1146SOL    HW215075   2.520   0.405  14.383  0.5527 -0.1666 -0.0892
 1147SOL     OW15076   0.081   1.089   5.682 -0.1023  0.4623 -0.3072
 1147SOL    HW115077   0.154   1.029   5.669 -0.8664 -0.2780 -1.0892
 1147SOL    HW215078   0.128   1.170   5.704 -0.7690  0.6099  0.5940
 1148SOL     OW15079   3.291   3.986   4.251  0.4487 -0.0178  0.0432
 1148SOL    HW115080   3.274   3.989   4.157 -0.8118  2.0695  0.3334
 1148SOL    HW215081   3.385   4.006   4.253  0.5334 -0.4219  0.1727
 1149SOL     OW15082   0.257   2.039  10.175 -0.3619  0.1962 -0.5021
 1149SOL    HW115083   0.268   2.111  10.113 -2.4508  0.5985 -0.4270
 1149SOL    HW215084   0.188   2.072  10.232 -0.0335 -1.0613  0.6120
 1150SOL     OW15085   4.723   0.008   2.615 -0.3921  0.3813  0.0346
 1150SOL    HW115086   0.042   0.080   2.620 -0.0760  0.0140  1.2890
 1150SOL    HW215087   4.718   4.732   2.521 -0.4583  0.7224 -0.0317
 1151SOL     OW15088   1.670   1.446   7.225 -0.5007  0.2344 -0.1169
 1151SOL    HW115089   1.648   1.533   7.258 -1.0690  0.2360 -0.5060
 1151SOL    HW215090   1.597   1.400   7.267  0.0038  1.4439  2.0865
 1152SOL     OW15091   0.906   0.544   3.791  0.2191 -0.0753  0.1517
 1152SOL    HW115092   0.985   0.545   3.737 -1.1924 -2.3127 -1.9464
 1152SOL    HW215093   0.899   0.456   3.827 -0.4082  0.3039  0.9626
 1153SOL     OW15094   1.245   0.666  15.725 -0.1725 -0.6455 -0.7172
 1153SOL    HW115095   1.286   0.650  15.640 -0.0648  0.7140 -0.9133
 1153SOL    HW215096   1.245   0.579  15.766  0.2369 -0.5314 -0.4665
 1154SOL     OW15097   2.022   0.168   2.367 -0.0040 -0.4283  0.2321
 1154SOL    HW115098   2.060   0.179   2.280  0.4176 -0.2826  0.4345
 1154SOL    HW215099   2.102   0.187   2.416  0.1275 -0.1365 -0.0929
 1155SOL     OW15100   3.032   3.375   6.523  0.3994 -0.0449 -0.1043
 1155SOL    HW115101   3.127   3.385   6.525  0.4449 -0.9013  1.3830
 1155SOL    HW215102   3.005   3.444   6.583 -1.0992  0.6872 -1.6204
 1156SOL     OW15103   0.402   2.453  10.029  0.2133 -0.4442  0.4478
 1156SOL    HW115104   0.446   2.382  10.077 -2.5077 -0.5313  2.8147
 1156SOL    HW215105   0.329   2.399   9.999 -0.4392  0.6527  0.0626
 1157SOL     OW15106   1.213   1.437   3.223  0.8416  0.2849  0.7160
 1157SOL    HW115107   1.206   1.527   3.188 -3.5352 -0.0844  0.6708
 1157SOL    HW215108   1.295   1.407   3.184  0.5888  0.3284  0.1483
 1158SOL     OW15109   1.005   4.686   8.673 -0.6283  0.2505  0.5018
 1158SOL    HW115110   1.089   4.731   8.678 -0.0447 -0.4097 -3.3072
 1158SOL    HW215111   0.939   0.012   8.680 -0.7597  0.1367  0.3823
 1159SOL     OW15112   0.020   3.557   8.582  0.5221  0.1744  0.0190
 1159SOL    HW115113   0.044   3.523   8.496 -0.1802  1.3359 -0.6432
 1159SOL    HW215114   0.035   3.475   8.629  1.0312  0.6725  0.7147
 1160SOL     OW15115   0.311   4.731   8.330  0.4092  0.4574  0.2298
 1160SOL    HW115116   0.263   0.065   8.298 -1.0083  0.0269  1.2974
 1160SOL    HW215117   0.252   4.696   8.396  0.4235  0.0658  0.0347
 1161SOL     OW15118   2.022   1.140   3.491  0.0055  0.2612  0.2808
 1161SOL    HW115119   1.949   1.087   3.458  1.2194  0.3341 -2.4861
 1161SOL    HW215120   2.102   1.088   3.478  0.6677  1.7011 -1.3727
 1162SOL     OW15121   1.826   2.191   8.230 -0.3757 -0.5120  0.2735
 1162SOL    HW115122   1.854   2.129   8.298  0.8303  0.4779  0.6853
 1162SOL    HW215123   1.765   2.133   8.185 -1.2203  0.6394 -0.0449
 1163SOL     OW15124   0.360   3.811   8.545 -0.2952 -0.3729  0.4479
 1163SOL    HW115125   0.444   3.789   8.504 -1.3291 -1.9479 -0.8142
 1163SOL    HW215126   0.347   3.727   8.590 -0.3068 -0.6828 -0.1337
 1164SOL     OW15127   3.384   0.312   6.914 -0.6059  0.3461 -0.9843
 1164SOL    HW115128   3.344   0.386   6.960  1.4164  0.6475  0.2875
 1164SOL    HW215129   3.403   0.350   6.828 -0.4498  1.4925 -0.4423
 1165SOL     OW15130   4.130   0.882  14.346 -0.2169  0.6767  0.5587
 1165SOL    HW115131   4.145   0.804  14.292 -1.5959  0.5550  0.3550
 1165SOL    HW215132   4.170   0.844  14.424 -0.8241 -0.3030  0.3890
 1166SOL     OW15133   0.878   1.542   3.258 -0.4338 -0.4006  0.1288
 1166SOL    HW115134   0.850   1.451   3.256  2.7061 -1.3781  0.4875
 1166SOL    HW215135   0.803   1.584   3.299  0.3088 -0.5856  1.6871
 1167SOL     OW15136   0.895   1.912   6.019 -0.1024 -0.6626 -0.4445
 1167SOL    HW115137   0.978   1.908   6.066 -0.0721  1.5007 -0.2825
 1167SOL    HW215138   0.870   2.003   6.038 -1.4292 -1.3422  1.0620
 1168SOL     OW15139   1.066   2.947   9.641 -0.4143 -0.0505  0.1620
 1168SOL    HW115140   1.124   2.993   9.701  0.0178 -0.8813  0.3875
 1168SOL    HW215141   1.106   2.860   9.643 -0.1454  0.1089  1.1698
 1169SOL     OW15142   0.297   3.536   1.268  0.3433  0.0868 -0.2943
 1169SOL    HW115143   0.331   3.483   1.340 -1.7698 -1.1549 -0.1987
 1169SOL    HW215144   0.273   3.615   1.318 -0.7302 -0.3396 -0.1206
 1170SOL     OW15145   3.525   0.049   3.544 -0.3105  0.4476  0.0969
 1170SOL    HW115146   3.506   4.699   3.530 -0.2502  0.5655 -0.7552
 1170SOL    HW215147   3.436   0.081   3.561 -0.4441 -0.2728  0.7961
 1171SOL     OW15148   4.360   4.027  15.217  0.4461  0.2934 -0.7161
 1171SOL    HW115149   4.377   4.120  15.231 -0.9457  0.4866 -0.3449
 1171SOL    HW215150   4.439   3.999  15.170  1.0266  0.0575  0.3968
 1172SOL     OW15151   3.325   2.404   7.071  0.0387 -0.2067 -0.0761
 1172SOL    HW115152   3.257   2.420   7.137 -0.1144 -1.7823  0.1639
 1172SOL    HW215153   3.386   2.476   7.087 -1.5020  0.8271  1.1464
 1173SOL     OW15154   1.187   3.144   8.777  0.1709  0.0256 -0.8025
 1173SOL    HW115155   1.244   3.093   8.719  0.7645 -0.0225 -0.1804
 1173SOL    HW215156   1.174   3.078   8.846  0.2365 -0.6457 -1.4239
 1174SOL     OW15157   4.152   2.101  17.240 -0.0500 -0.6319  0.5815
 1174SOL    HW115158   4.107   2.077  17.159 -0.4426  0.1592  0.5630
 1174SOL    HW215159   4.074   2.105  17.295 -0.5846  0.5351 -0.2676
 1175SOL     OW15160   2.815   4.587   6.310  1.1898 -0.5459 -0.2076
 1175SOL    HW115161   2.757   4.570   6.235  1.1940  2.6046 -0.9356
 1175SOL    HW215162   2.782   4.673   6.336  1.3263  0.5308 -3.6107
 1176SOL     OW15163   0.985   2.771   0.792  0.4647  0.3001  0.0650
 1176SOL    HW115164   0.912   2.725   0.751  2.4919 -1.2702 -1.8587
 1176SOL    HW215165   1.016   2.829   0.722 -0.5288 -1.5165 -1.9101
 1177SOL     OW15166   4.545   1.068   6.899  0.7116 -0.3655  0.2615
 1177SOL    HW115167   4.608   1.135   6.926 -0.2850  0.8437 -0.3980
 1177SOL    HW215168   4.591   1.019   6.831 -0.5789 -0.1041 -0.8068
 1178SOL     OW15169   2.610   3.620   4.260 -0.1199  0.3255  0.4556
 1178SOL    HW115170   2.559   3.635   4.340 -2.4493  0.6751 -1.1029
 1178SOL    HW215171   2.648   3.537   4.287 -0.6636  0.4926  1.7571
 1179SOL     OW15172   1.983   0.123   4.855  0.3969 -0.6515  0.4195
 1179SOL    HW115173   1.942   0.037   4.847 -2.5049  0.5054  2.7403
 1179SOL    HW215174   1.976   0.148   4.763  0.9349  1.5370  0.9862
 1180SOL     OW15175   2.255   0.359   7.159  0.4276  0.3040  0.3302
 1180SOL    HW115176   2.225   0.438   7.114 -0.5388  0.1083  0.6214
 1180SOL    HW215177   2.205   0.291   7.114  3.3644 -0.9181 -1.0221
 1181SOL     OW15178   1.125   2.014   4.242  0.0043 -0.2827  0.1831
 1181SOL    HW115179   1.142   1.921   4.255 -1.1137 -1.1351 -4.2848
 1181SOL    HW215180   1.096   1.998   4.152 -1.6646 -3.2269  1.2758
 1182SOL     OW15181   4.660   0.951  10.312 -0.2945  0.5789 -0.6081
 1182SOL    HW115182   4.723   1.005  10.264  0.9568 -0.0209  0.3913
 1182SOL    HW215183   4.662   0.871  10.260 -0.6967 -0.2514  0.6474
 1183SOL     OW15184   1.146   2.364   4.636 -0.1450  0.0595 -0.4338
 1183SOL    HW115185   1.188   2.333   4.556 -2.1967 -1.6081 -0.8665
 1183SOL    HW215186   1.059   2.329   4.617 -0.6036  0.0899  1.6548
 1184SOL     OW15187   3.101   4.637   4.721 -0.8744 -0.4724  0.2422
 1184SOL    HW115188   3.029   4.587   4.683 -0.4442 -0.9645  0.0772
 1184SOL    HW215189   3.064   4.725   4.716  1.1856  0.3276 -1.2030
 1185SOL     OW15190   2.010   0.422   4.628 -0.1262 -0.1047  0.0559
 1185SOL    HW115191   2.056   0.407   4.711  0.5578 -0.7189 -0.4388
 1185SOL    HW215192   2.074   0.434   4.558 -0.7880 -0.9683 -0.6856
 1186SOL     OW15193   0.216   3.214   0.639 -0.0356 -0.2726 -0.0261
 1186SOL    HW115194   0.268   3.201   0.560 -0.4856  0.8470 -0.5017
 1186SOL    HW215195   0.187   3.127   0.668 -2.0838 -0.2831 -2.1044
 1187SOL     OW15196   3.665   2.718   0.740  0.4989  0.5423 -0.1805
 1187SOL    HW115197   3.713   2.700   0.660 -2.5115 -1.3630 -1.5748
 1187SOL    HW215198   3.649   2.627   0.766  0.5267 -0.2691 -3.0890
 1188SOL     OW15199   3.064   0.735   4.588 -0.4372 -0.1108  0.6548
 1188SOL    HW115200   3.003   0.727   4.662  0.6834 -0.8119  1.5102
 1188SOL    HW215201   3.028   0.656   4.547 -0.4958 -0.2557  0.9797
 1189SOL     OW15202   1.397   0.529   3.367 -0.1088 -0.1112 -0.4008
 1189SOL    HW115203   1.419   0.554   3.456 -1.4928 -1.7384  0.4005
 1189SOL    HW215204   1.448   0.599   3.326  0.7900 -0.5072  0.0540
 1190SOL     OW15205   0.027   4.479  13.604 -0.3191 -0.2075 -0.1634
 1190SOL    HW115206   4.702   4.425  13.563 -0.4173 -0.4955  0.3781
 1190SOL    HW215207   0.071   4.420  13.666  1.3081  1.3409  0.1765
 1191SOL     OW15208   0.656   1.758   4.522 -0.4820  0.5238  0.2765
 1191SOL    HW115209   0.687   1.779   4.433  1.0513  1.2484  0.9834
 1191SOL    HW215210   0.682   1.839   4.567  0.6612  1.1375 -1.4714
 1192SOL     OW15211   0.826   2.925   5.429 -0.1641  0.1443 -0.6981
 1192SOL    HW115212   0.759   2.859   5.408  1.1400 -0.9600 -1.4475
 1192SOL    HW215213   0.893   2.917   5.361  0.4696 -0.5635  0.0118
 1193SOL     OW15214   4.647   3.603  10.596 -0.1371 -0.2275  0.9874
 1193SOL    HW115215   4.579   3.667  10.616  0.2005  0.5385 -0.3521
 1193SOL    HW215216   4.621   3.561  10.514  0.4012 -0.3140  0.8594
 1194SOL     OW15217   3.863   0.765  17.007  0.2133 -0.2680 -0.0824
 1194SOL    HW115218   3.873   0.692  16.947 -0.1250 -0.9828  0.7214
 1194SOL    HW215219   3.860   0.708  17.084 -0.3505  0.4674  0.4505
 1195SOL     OW15220   4.533   4.097   3.656 -0.2525  0.3292 -0.9453
 1195SOL    HW115221   4.610   4.108   3.601 -0.8145  2.2611 -1.3826
 1195SOL    HW215222   4.529   4.183   3.698 -2.0811 -0.5962  0.7681
 1196SOL     OW15223   2.857   0.027   7.890 -0.2608  0.1364  0.1818
 1196SOL    HW115224   2.805   0.069   7.959  0.4706  1.9399 -0.3777
 1196SOL    HW215225   2.785   0.013   7.829 -2.1029  0.5461  2.2563
 1197SOL     OW15226   4.255   0.607  10.692  0.2926  0.2128 -0.4693
 1197SOL    HW115227   4.315   0.610  10.766  0.3482 -1.8559 -0.4242
 1197SOL    HW215228   4.192   0.537  10.710  2.1127 -0.9517  1.2964
 1198SOL     OW15229   0.300   1.877   3.825 -0.0011  0.4867 -0.0678
 1198SOL    HW115230   0.327   1.816   3.756 -1.8025  0.1630 -0.4815
 1198SOL    HW215231   0.205   1.870   3.821  0.3771 -2.6481 -3.0022
 1199SOL     OW15232   1.263   0.702  10.686 -0.1663 -0.0568 -0.5399
 1199SOL    HW115233   1.334   0.671  10.742  0.1697  2.1190  0.2601
 1199SOL    HW215234   1.320   0.745  10.622  0.9140  1.1444  1.2210
 1200SOL     OW15235   0.373   1.793   3.164  0.2601  0.0491 -0.2973
 1200SOL    HW115236   0.344   1.884   3.166 -0.1443 -0.1319  1.9553
 1200SOL    HW215237   0.464   1.798   3.136 -0.6926  0.3826 -3.3942
 1201SOL     OW15238   1.372   3.008   2.543  0.1571  1.2224  0.1709
 1201SOL    HW115239   1.338   3.087   2.586  0.3235  0.9560  0.7790
 1201SOL    HW215240   1.304   2.974   2.485  0.2021  1.8638 -0.2656
 1202SOL     OW15241   0.680   3.639   9.419  0.7046  0.1088 -0.3973
 1202SOL    HW115242   0.765   3.596   9.411 -0.8754 -2.7483 -2.2180
 1202SOL    HW215243   0.654   3.656   9.328 -0.8275 -0.1864 -0.0261
 1203SOL     OW15244   1.984   1.388   2.837 -0.0342 -0.6707 -0.0346
 1203SOL    HW115245   1.925   1.317   2.863  1.2533 -1.1899  1.5093
 1203SOL    HW215246   2.044   1.398   2.911 -1.2490  1.6115  0.6249
 1204SOL     OW15247   3.162   1.900   1.760 -0.4697  0.6255 -0.2569
 1204SOL    HW115248   3.210   1.962   1.704 -0.2351  0.8521  0.1913
 1204SOL    HW215249   3.085   1.949   1.790  0.8563  3.2766 -1.1919
 1205SOL     OW15250   3.062   1.761  12.028  0.2697 -0.1192 -0.5478
 1205SOL    HW115251   3.137   1.708  12.053  0.3273  0.0761 -0.3075
 1205SOL    HW215252   3.015   1.763  12.112  2.3723  1.4860  0.5863
 1206SOL     OW15253   3.027   2.896  13.907 -0.0284  0.1978  0.8306
 1206SOL    HW115254   2.979   2.898  13.990  1.5652 -3.0350  1.8498
 1206SOL    HW215255   3.101   2.838  13.929 -0.2080 -0.1464  0.5395
 1207SOL     OW15256   0.427   2.412  13.706  0.5050  0.3027 -0.8292
 1207SOL    HW115257   0.369   2.485  13.684 -0.8152 -1.0250 -1.8304
 1207SOL    HW215258   0.397   2.403  13.796 -3.4737 -1.2124 -2.2679
 1208SOL     OW15259   1.141   0.089   7.218 -0.5526  0.3678  0.0818
 1208SOL    HW115260   1.204   0.150   7.256  0.7229 -0.5338 -0.6078
 1208SOL    HW215261   1.190   0.063   7.140  1.2936  1.3638  0.9048
 1209SOL     OW15262   3.308   4.704   7.611 -0.0631  0.0132 -0.3278
 1209SOL    HW115263   3.230   4.677   7.661  0.4782  0.5583  0.8153
 1209SOL    HW215264   3.270   0.031   7.559 -1.3483 -4.0371 -4.8871
 1210SOL     OW15265   2.742   0.722  14.907  0.5607  0.2933 -0.7586
 1210SOL    HW115266   2.808   0.776  14.952  0.5535 -0.0379 -0.3428
 1210SOL    HW215267   2.765   0.724  14.814 -1.2236 -0.0365 -1.2046
 1211SOL     OW15268   3.824   1.654   3.660  0.3313 -0.8327  0.6680
 1211SOL    HW115269   3.856   1.734   3.620 -0.2521 -1.2770 -0.7118
 1211SOL    HW215270   3.737   1.682   3.689  0.3660  1.1430 -1.1604
 1212SOL     OW15271   0.198   3.072   7.362 -0.1901 -0.3924  0.1639
 1212SOL    HW115272   0.289   3.063   7.391 -0.2769 -2.0566 -0.0524
 1212SOL    HW215273   0.204   3.159   7.323  0.9904  0.9113  3.3061
 1213SOL     OW15274   1.384   4.040  11.808  0.0772 -0.4620  0.1692
 1213SOL    HW115275   1.292   4.064  11.796 -0.2068 -0.3309  2.5872
 1213SOL    HW215276   1.386   4.061  11.902  0.4508 -0.1126  0.0846
 1214SOL     OW15277   4.306   4.703   8.998  0.4796  0.2803 -0.2971
 1214SOL    HW115278   4.365   4.739   8.932 -1.3760 -0.9028 -2.5986
 1214SOL    HW215279   4.228   4.707   8.943  0.1635  0.0051  0.1340
 1215SOL     OW15280   3.365   3.444   2.276  0.0722  1.1505  0.2666
 1215SOL    HW115281   3.459   3.425   2.272  0.3713  2.6657  0.1526
 1215SOL    HW215282   3.351   3.387   2.352  1.3486 -0.4618 -0.6898
 1216SOL     OW15283   1.681   4.665   8.256 -0.6745  0.3895 -0.0534
 1216SOL    HW115284   1.736   4.661   8.334 -1.1562  0.8615  0.3151
 1216SOL    HW215285   1.722   4.741   8.214 -3.4799  1.3437 -1.0806
 1217SOL     OW15286   0.653   0.696  12.506 -0.4504 -0.0960  0.6668
 1217SOL    HW115287   0.745   0.670  12.496 -0.2637  0.7784  0.1628
 1217SOL    HW215288   0.616   0.678  12.420  0.9743 -0.4320  0.1171
 1218SOL     OW15289   3.779   3.305  16.354 -0.2844 -0.8680  0.0614
 1218SOL    HW115290   3.747   3.231  16.407 -0.6077 -1.1477 -0.5271
 1218SOL    HW215291   3.724   3.378  16.383  3.6001  1.3609  1.7548
 1219SOL     OW15292   4.703   1.172   1.884 -0.1028  0.0171 -0.2755
 1219SOL    HW115293   4.613   1.197   1.903  0.2359  0.2858  0.9793
 1219SOL    HW215294   4.719   1.230   1.809 -0.6898 -0.5249 -0.8244
 1220SOL     OW15295   4.121   1.521   4.507  0.5763  0.0278 -0.3727
 1220SOL    HW115296   4.151   1.563   4.427  0.9765 -1.3903 -0.9649
 1220SOL    HW215297   4.210   1.504   4.536 -0.4012 -3.2468  0.7269
 1221SOL     OW15298   2.146   3.036   6.223 -0.0672  0.2350 -0.5091
 1221SOL    HW115299   2.221   3.002   6.175 -0.0639 -0.4782  0.0107
 1221SOL    HW215300   2.131   2.974   6.295 -1.3356  0.5444 -0.5055
 1222SOL     OW15301   0.651   3.183   6.563  0.6542 -0.0625 -0.1448
 1222SOL    HW115302   0.645   3.087   6.565  2.3131 -0.1783 -0.4961
 1222SOL    HW215303   0.562   3.210   6.540 -0.2111 -2.6278  0.1950
 1223SOL     OW15304   1.698   2.331   6.817 -0.3384 -0.0602  0.5739
 1223SOL    HW115305   1.723   2.375   6.736  1.0485 -1.2689  0.3413
 1223SOL    HW215306   1.785   2.299   6.841 -0.2845 -0.8145 -0.6582
 1224SOL     OW15307   2.941   3.215   0.150  0.2234  0.4238  0.9326
 1224SOL    HW115308   2.872   3.249   0.208 -1.9645 -0.7358 -0.9881
 1224SOL    HW215309   2.895   3.153   0.093 -3.3094  2.9413  0.9978
 1225SOL     OW15310   4.216   4.634   6.116  0.4891 -0.2291  0.5248
 1225SOL    HW115311   4.233   4.722   6.082  1.2637  0.0775  1.7082
 1225SOL    HW215312   4.298   4.611   6.158  2.2260 -0.1627 -2.8914
 1226SOL     OW15313   3.010   3.961   0.993  0.2493  0.4879 -0.1980
 1226SOL    HW115314   2.979   3.874   1.017 -0.2384  0.9292  0.7534
 1226SOL    HW215315   2.985   4.008   1.073  0.3955 -0.7779  0.5836
 1227SOL     OW15316   1.529   2.193   7.634  0.2493 -1.0628 -0.2780
 1227SOL    HW115317   1.444   2.152   7.647 -1.0563  0.9605 -2.5763
 1227SOL    HW215318   1.596   2.139   7.678  1.9126  2.2338  1.2628
 1228SOL     OW15319   4.312   1.889  15.678 -0.6394 -0.3077  0.0229
 1228SOL    HW115320   4.383   1.863  15.619 -0.5970 -2.7017  1.1225
 1228SOL    HW215321   4.319   1.984  15.675  1.2333 -0.5036 -1.8906
 1229SOL     OW15322   1.783   1.899   5.074  0.1925  0.1875 -0.0656
 1229SOL    HW115323   1.720   1.947   5.021  0.2265 -0.0206 -0.2984
 1229SOL    HW215324   1.836   1.855   5.007 -0.8337  0.3734 -1.0062
 1230SOL     OW15325   3.477   0.935   3.848 -0.0338  1.0997  0.0668
 1230SOL    HW115326   3.528   0.864   3.808 -0.8436  0.8224 -0.4738
 1230SOL    HW215327   3.539   1.006   3.830  0.4186  0.6588 -0.1222
 1231SOL     OW15328   2.798   3.175  16.773  0.8214  0.0638  0.2087
 1231SOL    HW115329   2.704   3.171  16.791  0.9718 -1.4065  0.6691
 1231SOL    HW215330   2.810   3.090  16.732 -0.3845  0.6892 -1.4232
 1232SOL     OW15331   3.045   2.632  10.129 -0.3431 -0.2115 -0.5709
 1232SOL    HW115332   2.952   2.611  10.138 -0.6387  1.4549  0.3904
 1232SOL    HW215333   3.044   2.726  10.109  0.0072 -0.2257 -0.6609
 1233SOL     OW15334   3.578   1.134   8.884 -0.4095  0.5655  0.0481
 1233SOL    HW115335   3.495   1.088   8.893  0.7733 -1.5291  0.1845
 1233SOL    HW215336   3.604   1.151   8.974  1.0459  1.8250 -0.6072
 1234SOL     OW15337   0.736   0.345   4.692 -0.2696  0.2489  0.3918
 1234SOL    HW115338   0.826   0.326   4.665 -1.9962 -1.7342 -3.9765
 1234SOL    HW215339   0.693   0.280   4.636  2.1472 -3.9731  3.4412
 1235SOL     OW15340   0.536   2.670   1.878  0.2160 -0.1679 -0.2666
 1235SOL    HW115341   0.538   2.758   1.915  0.6908  0.6704 -2.2670
 1235SOL    HW215342   0.628   2.645   1.876 -0.0262 -1.0821 -0.0482
 1236SOL     OW15343   4.069   2.017  11.233 -0.0028 -0.2589  0.2464
 1236SOL    HW115344   3.974   2.028  11.226  0.2555  1.2171 -1.0276
 1236SOL    HW215345   4.097   2.105  11.208  0.0958 -0.3458  0.0595
 1237SOL     OW15346   3.194   2.045   6.745 -0.0115  0.0049 -0.0356
 1237SOL    HW115347   3.189   2.009   6.834 -0.8194  1.4296  0.4978
 1237SOL    HW215348   3.284   2.078   6.752 -0.1852  0.3508  0.5321
 1238SOL     OW15349   3.446   2.162   7.132 -0.1734  0.1940  0.0310
 1238SOL    HW115350   3.448   2.137   7.040  0.7912 -0.1342  0.1416
 1238SOL    HW215351   3.379   2.229   7.120 -1.3281 -0.8158  0.8426
 1239SOL     OW15352   2.316   2.462   9.114  0.5065  0.2199  0.5599
 1239SOL    HW115353   2.244   2.491   9.169  0.3290  2.7646 -1.0313
 1239SOL    HW215354   2.295   2.370   9.098  2.1669 -0.5470  2.7622
 1240SOL     OW15355   4.471   2.034  14.711 -0.3565  0.3649  0.3651
 1240SOL    HW115356   4.542   2.080  14.756  1.1190 -1.4997 -0.0903
 1240SOL    HW215357   4.463   1.966  14.778 -1.9657  1.7838  1.6396
 1241SOL     OW15358   0.560   4.044   4.440 -0.4855 -0.1136  0.5938
 1241SOL    HW115359   0.586   4.136   4.444 -1.4578  0.2164 -0.3735
 1241SOL    HW215360   0.623   3.996   4.492 -0.3834 -1.1811 -0.5129
 1242SOL     OW15361   2.369   3.052   0.357 -0.3754 -0.9804  0.0682
 1242SOL    HW115362   2.377   2.977   0.297 -3.3729 -1.5946  0.4482
 1242SOL    HW215363   2.455   3.088   0.379 -0.0900 -2.0226  0.6581
 1243SOL     OW15364   3.664   3.112  16.468  0.4092 -0.3706  0.3022
 1243SOL    HW115365   3.570   3.122  16.482 -0.1520 -3.1558 -1.3253
 1243SOL    HW215366   3.683   3.075  16.554 -1.9227  2.1264  1.8807
 1244SOL     OW15367   3.637   2.165  10.908  0.0193 -0.1090 -0.0514
 1244SOL    HW115368   3.554   2.153  10.863 -0.0705  0.5827 -0.0744
 1244SOL    HW215369   3.617   2.236  10.969  1.3210 -0.5614  0.9333
 1245SOL     OW15370   1.714   3.434   6.056  0.3165  0.0965  0.2719
 1245SOL    HW115371   1.724   3.391   5.971 -0.4721 -0.4810  0.4708
 1245SOL    HW215372   1.621   3.424   6.073  0.3386 -1.1755 -0.3877
 1246SOL     OW15373   2.676   3.979   0.054  0.1603 -0.8318  0.7104
 1246SOL    HW115374   2.770   3.995   0.057  0.1996 -0.8704 -0.3293
 1246SOL    HW215375   2.681   3.883   0.053  1.7400 -0.7515  1.2065
 1247SOL     OW15376   2.357   2.511   3.078  0.4224  0.4192 -0.7224
 1247SOL    HW115377   2.325   2.462   3.002  2.1238  1.0522 -1.8623
 1247SOL    HW215378   2.368   2.598   3.041 -1.1373  0.3828 -1.2632
 1248SOL     OW15379   0.145   2.866   6.800  0.4814  0.5196  0.3278
 1248SOL    HW115380   0.217   2.812   6.766  2.5247  3.3592  0.0949
 1248SOL    HW215381   0.197   2.942   6.827  0.5746 -0.0763  1.8050
 1249SOL     OW15382   3.977   3.694   7.223 -0.2846  0.2202 -0.1251
 1249SOL    HW115383   4.037   3.659   7.289  0.2528  0.3868 -0.5267
 1249SOL    HW215384   3.975   3.779   7.267  0.2641  0.6780 -0.9859
 1250SOL     OW15385   3.856   3.437   0.693  0.4059  0.2082 -0.1619
 1250SOL    HW115386   3.803   3.425   0.615  0.4534  0.5900 -0.2534
 1250SOL    HW215387   3.796   3.476   0.757 -1.2203 -0.8390 -1.0748
 1251SOL     OW15388   0.398   3.016   3.989 -0.1124 -0.3889 -0.1898
 1251SOL    HW115389   0.425   3.107   4.000  1.3631 -0.7633 -0.6142
 1251SOL    HW215390   0.335   3.017   3.917 -0.5567 -0.1024  0.2072
 1252SOL     OW15391   2.399   2.223   4.811 -0.1156  0.7380 -0.0950
 1252SOL    HW115392   2.449   2.293   4.853 -1.4845  1.1645  0.8408
 1252SOL    HW215393   2.311   2.256   4.831  0.0204  0.6902  0.5893
 1253SOL     OW15394   4.186   1.364   6.808  0.1613  0.3094 -0.1507
 1253SOL    HW115395   4.164   1.273   6.789  0.1980  0.2673  0.0145
 1253SOL    HW215396   4.264   1.362   6.863 -1.4647  0.3340  2.1170
 1254SOL     OW15397   4.568   1.799  12.686  0.1090  0.1131 -0.0880
 1254SOL    HW115398   4.631   1.787  12.615 -0.4990  0.5456 -0.7039
 1254SOL    HW215399   4.524   1.879  12.659  0.4016 -0.0094 -0.9428
 1255SOL     OW15400   4.602   3.296   0.207 -0.5356 -0.2376 -0.2580
 1255SOL    HW115401   4.687   3.279   0.250 -0.4599  0.9223  0.0594
 1255SOL    HW215402   4.547   3.263   0.279  0.0545 -1.2396 -0.2631
 1256SOL     OW15403   2.843   1.532   6.343 -0.2069 -0.0813  0.3403
 1256SOL    HW115404   2.909   1.519   6.274 -0.5692  1.4332 -0.2931
 1256SOL    HW215405   2.846   1.627   6.351 -2.9701 -0.0676  1.2264
 1257SOL     OW15406   4.094   2.996  10.147 -0.0036 -0.1247 -0.0119
 1257SOL    HW115407   4.175   2.948  10.129  1.4718  2.0832  0.6937
 1257SOL    HW215408   4.063   2.945  10.222 -3.1507  2.1145  0.2167
 1258SOL     OW15409   0.024   0.059   5.784 -0.1817 -0.0310 -0.3136
 1258SOL    HW115410   0.068   0.101   5.710 -0.6808 -0.9790 -1.1413
 1258SOL    HW215411   0.101   0.064   5.840 -1.2305 -2.0933  1.3221
 1259SOL     OW15412   2.839   4.506   6.786 -0.1725 -0.3238  0.0298
 1259SOL    HW115413   2.896   4.465   6.720 -3.4153  2.5749 -4.5468
 1259SOL    HW215414   2.820   4.594   6.754 -0.5267  0.6178  2.8348
 1260SOL     OW15415   4.438   2.342  10.341  0.1179  0.0466  0.1103
 1260SOL    HW115416   4.419   2.308  10.254 -0.1611  0.4754  0.0019
 1260SOL    HW215417   4.480   2.263  10.374 -3.4126 -0.8258  2.4833
 1261SOL     OW15418   4.740   3.852   4.585 -0.4677  0.1811 -0.0060
 1261SOL    HW115419   0.068   3.856   4.649  0.4163 -1.6102 -0.8639
 1261SOL    HW215420   0.011   3.759   4.566 -0.2964 -0.3952  2.8725
 1262SOL     OW15421   3.331   3.966   3.431 -0.5282 -0.0609  0.1074
 1262SOL    HW115422   3.272   3.999   3.363  0.5659 -0.8761 -1.2237
 1262SOL    HW215423   3.417   3.957   3.391 -0.6796  1.0430 -0.4931
 1263SOL     OW15424   4.439   0.003   5.789 -0.2030 -0.1676 -0.2715
 1263SOL    HW115425   4.404   4.678   5.846  1.8545 -1.0115  0.0209
 1263SOL    HW215426   4.391   4.729   5.708 -0.1950 -2.0737  0.1383
 1264SOL     OW15427   1.313   2.786   9.413  0.1433 -0.0484 -0.3796
 1264SOL    HW115428   1.394   2.765   9.366  1.3039  1.8585  0.7926
 1264SOL    HW215429   1.312   2.881   9.415 -1.4025 -0.1078  2.4794
 1265SOL     OW15430   2.268   4.190   2.878 -0.4455 -0.2041  0.3167
 1265SOL    HW115431   2.265   4.260   2.814  2.1971  0.8207  1.3135
 1265SOL    HW215432   2.353   4.212   2.915 -1.6254  2.6058  1.3293
 1266SOL     OW15433   3.526   3.168   6.936 -0.0075  0.5268 -0.3357
 1266SOL    HW115434   3.562   3.194   7.021  0.4270 -1.7473  0.1741
 1266SOL    HW215435   3.431   3.161   6.943  0.1812 -0.6626  1.0006
 1267SOL     OW15436   4.200   0.433   7.977  0.0584 -0.1093 -0.5039
 1267SOL    HW115437   4.109   0.424   7.949 -0.7426 -0.3591  2.2004
 1267SOL    HW215438   4.244   0.413   7.894  1.5015 -3.1469  1.0287
 1268SOL     OW15439   4.107   4.192   2.647  0.0582  0.3692  0.0029
 1268SOL    HW115440   4.149   4.170   2.730  0.0344  1.0297  0.1959
 1268SOL    HW215441   4.180   4.217   2.590  0.8284 -1.4735  0.1872
 1269SOL     OW15442   0.173   1.010  12.590 -0.1591  0.0715  0.1821
 1269SOL    HW115443   0.142   0.944  12.652 -0.1483  0.4498  0.5913
 1269SOL    HW215444   0.255   0.974  12.558 -0.7249 -0.6854 -0.4036
 1270SOL     OW15445   4.049   3.222  10.298  0.1152  0.4934 -0.0011
 1270SOL    HW115446   4.078   3.142  10.253 -0.4364 -0.4151  1.2306
 1270SOL    HW215447   3.965   3.193  10.332  0.0219  0.9953  0.1891
 1271SOL     OW15448   3.992   4.201   4.430 -0.1495  0.2923  0.0435
 1271SOL    HW115449   3.944   4.190   4.348  1.4064  1.4473 -1.0228
 1271SOL    HW215450   4.062   4.262   4.407  0.2851  0.7718  2.6344
 1272SOL     OW15451   0.112   4.297   8.816  0.1495  0.2197 -0.0532
 1272SOL    HW115452   0.140   4.209   8.840 -2.5330 -0.5463  0.2901
 1272SOL    HW215453   0.063   4.279   8.736  0.2510 -1.1317  0.1958
 1273SOL     OW15454   4.446   3.325   4.372 -0.0719  0.1611 -0.9275
 1273SOL    HW115455   4.398   3.296   4.449  2.0067 -2.5591 -0.6641
 1273SOL    HW215456   4.535   3.301   4.399 -0.1664 -0.2629 -1.0095
 1274SOL     OW15457   0.854   0.164   1.826  0.2360  0.1716  0.5875
 1274SOL    HW115458   0.938   0.196   1.795  0.9300  1.5289  3.8425
 1274SOL    HW215459   0.823   0.234   1.883 -1.2283  1.8343 -2.2905
 1275SOL     OW15460   4.728   3.259   2.163 -0.7534 -0.1790  0.1087
 1275SOL    HW115461   4.638   3.278   2.137 -1.4507 -2.8714  0.5780
 1275SOL    HW215462   0.019   3.282   2.076  0.3264 -0.7356  0.3875
 1276SOL     OW15463   0.682   0.245  10.803  0.2230  0.1815 -0.3877
 1276SOL    HW115464   0.637   0.243  10.887  0.1072  0.3993 -0.4462
 1276SOL    HW215465   0.708   0.153  10.790  0.6827  0.3521 -0.6837
 1277SOL     OW15466   4.186   3.950   5.101 -0.2188  0.0299  0.1801
 1277SOL    HW115467   4.279   3.930   5.088 -0.0326  0.9690  0.0424
 1277SOL    HW215468   4.189   4.045   5.110 -0.1656  0.1240 -0.8546
 1278SOL     OW15469   1.742   2.509   3.307 -0.6681 -0.5731 -0.5104
 1278SOL    HW115470   1.672   2.516   3.372  1.5403 -1.9858  2.0058
 1278SOL    HW215471   1.723   2.594   3.266  0.1402 -0.2548 -0.2236
 1279SOL     OW15472   0.310   4.572  13.535  0.2383 -0.3164 -0.2055
 1279SOL    HW115473   0.311   4.659  13.576 -0.0689 -0.0302 -0.7980
 1279SOL    HW215474   0.218   4.552  13.519 -0.0679  0.5927  0.4051
 1280SOL     OW15475   0.684   0.463  14.209  0.5604 -0.3396  0.3340
 1280SOL    HW115476   0.758   0.500  14.160  1.0800 -1.2014  0.4768
 1280SOL    HW215477   0.691   0.371  14.186  1.0410  0.0493 -1.0720
 1281SOL     OW15478   1.630   3.683   6.884 -0.0109  0.0601  0.0196
 1281SOL    HW115479   1.572   3.649   6.815  1.1625 -0.9634 -0.4523
 1281SOL    HW215480   1.717   3.692   6.845  0.6575 -2.4530  0.9514
 1282SOL     OW15481   2.681   3.114   6.060 -0.0877  0.0306  0.5373
 1282SOL    HW115482   2.603   3.101   6.114 -0.2160 -1.0667  0.0838
 1282SOL    HW215483   2.680   3.210   6.060  1.1459  0.0582  3.0929
 1283SOL     OW15484   0.992   3.117   4.804  0.4854 -0.3828  0.4209
 1283SOL    HW115485   0.933   3.137   4.731 -1.5910 -0.6901  2.0001
 1283SOL    HW215486   1.053   3.055   4.765  0.0387 -0.7946  0.3838
 1284SOL     OW15487   4.072   0.223   2.472  0.0627  0.5377  0.3585
 1284SOL    HW115488   4.114   0.141   2.448  1.6739  0.7136  2.4937
 1284SOL    HW215489   4.153   0.272   2.490 -0.5265  2.1233 -1.3151
 1285SOL     OW15490   0.484   1.129   4.021 -0.0803 -0.1076  0.6029
 1285SOL    HW115491   0.549   1.140   3.952 -0.7262  3.7485  0.6410
 1285SOL    HW215492   0.470   1.035   4.030  0.4431 -0.4189 -1.8918
 1286SOL     OW15493   1.849   0.973   6.951  0.1878 -0.3168  0.6955
 1286SOL    HW115494   1.830   1.044   7.013 -1.2271  0.4459 -0.6062
 1286SOL    HW215495   1.912   1.020   6.897 -1.6132  0.5974 -0.5981
 1287SOL     OW15496   3.498   3.478   5.851  0.1903 -0.0939 -0.0522
 1287SOL    HW115497   3.435   3.519   5.791 -1.1558  1.0178  2.1035
 1287SOL    HW215498   3.478   3.385   5.840  0.6298  0.1558 -2.9158
 1288SOL     OW15499   1.060   4.354   0.469 -0.3327 -0.9254  0.3657
 1288SOL    HW115500   1.098   4.309   0.394 -0.2578 -0.0157 -0.1455
 1288SOL    HW215501   1.135   4.339   0.526 -0.2943  3.4234  1.4425
 1289SOL     OW15502   4.428   3.267  11.028 -0.1200  0.2133  0.6046
 1289SOL    HW115503   4.506   3.269  11.083  0.9619 -2.1262 -0.8459
 1289SOL    HW215504   4.464   3.277  10.940 -0.6668  0.0408  0.3570
 1290SOL     OW15505   2.053   1.387   0.701 -0.0667 -0.0808 -0.0727
 1290SOL    HW115506   2.085   1.438   0.627 -0.1305 -0.6981 -0.5234
 1290SOL    HW215507   2.123   1.376   0.765 -0.4888  0.2746  0.4523
 1291SOL     OW15508   4.328   3.931  11.770 -0.3421  0.1657  0.1347
 1291SOL    HW115509   4.311   3.970  11.856 -0.6772 -0.0667  0.1743
 1291SOL    HW215510   4.239   3.918  11.735 -0.6836 -1.0740  1.4857
 1292SOL     OW15511   1.227   0.133   8.336 -0.5591 -0.0310  0.8279
 1292SOL    HW115512   1.230   0.225   8.311  0.0762  0.1103  1.4561
 1292SOL    HW215513   1.175   0.147   8.415 -0.3879  0.4305  0.8595
 1293SOL     OW15514   0.822   2.352  16.349 -0.7009  0.1211 -0.4005
 1293SOL    HW115515   0.813   2.284  16.416  0.1552 -0.5882 -1.0147
 1293SOL    HW215516   0.758   2.419  16.376  0.3147 -0.3149  3.1102
 1294SOL     OW15517   2.450   4.216  17.469 -0.2934  0.1224 -0.0955
 1294SOL    HW115518   2.386   4.287  17.469  0.6824  0.9779 -4.5757
 1294SOL    HW215519   2.499   4.218  17.387 -1.4233  0.2809 -0.7684
 1295SOL     OW15520   2.080   2.786   9.814 -0.0944 -0.2073 -0.1967
 1295SOL    HW115521   2.170   2.774   9.844 -0.1816  0.3531  0.2752
 1295SOL    HW215522   2.044   2.819   9.896 -0.9779 -1.2562 -0.1589
 1296SOL     OW15523   3.581   3.925  10.857 -0.2358  0.1177  0.2032
 1296SOL    HW115524   3.489   3.903  10.871 -0.3329  0.6169  0.3441
 1296SOL    HW215525   3.575   3.992  10.790  1.2806 -0.1154 -0.1662
 1297SOL     OW15526   3.111   1.981  13.772 -0.5469 -0.2521 -0.0813
 1297SOL    HW115527   3.146   1.900  13.736  0.2974 -0.4383  1.1486
 1297SOL    HW215528   3.023   1.979  13.733 -0.9457  0.6277  0.7726
 1298SOL     OW15529   0.041   2.766  15.450  0.1894 -0.1219 -0.0079
 1298SOL    HW115530   4.695   2.743  15.422  0.2444 -0.6420  0.2474
 1298SOL    HW215531   0.026   2.826  15.523  0.6829  1.4413 -1.1955
 1299SOL     OW15532   2.997   0.102  13.949  0.1986 -0.0983  0.2815
 1299SOL    HW115533   3.059   0.175  13.952  0.7706 -0.5640 -0.1612
 1299SOL    HW215534   2.940   0.132  13.879 -1.0032 -0.2457  1.1857
 1300SOL     OW15535   4.182   3.432   8.113 -0.0450 -0.1109  0.2477
 1300SOL    HW115536   4.138   3.517   8.113  0.7426  0.2927  0.1088
 1300SOL    HW215537   4.163   3.407   8.204  0.8378 -2.1850 -0.1503
 1301SOL     OW15538   2.788   1.070  10.307  0.2099 -0.1554 -0.4049
 1301SOL    HW115539   2.757   0.980  10.316 -0.3518  0.1518  0.7702
 1301SOL    HW215540   2.720   1.118  10.354 -0.2050 -1.6841  0.5716
 1302SOL     OW15541   2.045   2.022   2.535  0.1747 -0.0366 -0.0396
 1302SOL    HW115542   1.957   2.044   2.566  0.5295  1.8836 -0.3710
 1302SOL    HW215543   2.045   1.927   2.541 -2.2930  0.0479  1.4182
 1303SOL     OW15544   2.836   2.064   7.965  0.2079 -0.3485 -0.0152
 1303SOL    HW115545   2.907   2.038   8.025 -1.7163 -0.5807  2.1547
 1303SOL    HW215546   2.877   2.096   7.885  0.6531  0.0542  0.3713
 1304SOL     OW15547   3.479   2.971  14.715 -0.9409  0.2361 -0.2873
 1304SOL    HW115548   3.431   2.896  14.682  1.2922 -1.2401 -0.2124
 1304SOL    HW215549   3.408   3.020  14.756 -0.2543  1.3317 -0.3862
 1305SOL     OW15550   0.454   0.466   0.177 -0.3028 -0.2188 -0.0445
 1305SOL    HW115551   0.490   0.481   0.265 -0.6799  0.8278 -0.0668
 1305SOL    HW215552   0.365   0.458   0.211 -0.3044 -0.3282 -0.0749
 1306SOL     OW15553   3.829   0.397   2.935 -0.4722  0.6476 -0.0950
 1306SOL    HW115554   3.812   0.383   3.029 -1.3503  1.1670 -0.1765
 1306SOL    HW215555   3.775   0.325   2.901 -0.0461  0.1089  0.3691
 1307SOL     OW15556   2.162   0.405   2.567  0.1394  0.1294  0.7122
 1307SOL    HW115557   2.116   0.365   2.641 -0.7941 -0.7630 -0.3567
 1307SOL    HW215558   2.209   0.336   2.521 -1.5270 -2.5828  3.0812
 1308SOL     OW15559   3.104   2.823  12.554  0.3343  0.1272  0.6580
 1308SOL    HW115560   3.086   2.739  12.514 -0.7580  1.1603 -1.0112
 1308SOL    HW215561   3.013   2.844  12.575  0.3421  0.2851  0.5359
 1309SOL     OW15562   3.996   2.156   2.526  0.5978 -0.3371 -0.1488
 1309SOL    HW115563   4.056   2.227   2.547 -0.1918  0.0692  0.7573
 1309SOL    HW215564   3.924   2.193   2.577 -0.6616 -2.5664 -0.3197
 1310SOL     OW15565   3.426   1.043   9.191  0.3540  0.0709 -0.0309
 1310SOL    HW115566   3.495   1.109   9.203  0.5636 -0.1937  0.2179
 1310SOL    HW215567   3.395   1.037   9.281  2.2300 -0.8403  0.5588
 1311SOL     OW15568   3.300   4.147  16.211  0.0428  0.0644 -0.3147
 1311SOL    HW115569   3.318   4.206  16.285 -2.2149 -1.8262  1.7705
 1311SOL    HW215570   3.223   4.185  16.170 -0.1891  0.9425  0.9361
 1312SOL     OW15571   2.913   0.041   8.948  0.2056 -0.5161 -0.2915
 1312SOL    HW115572   2.894   4.692   8.929  0.8529 -1.0465  1.6358
 1312SOL    HW215573   2.962   0.029   9.030 -0.8164  3.3717  0.9155
 1313SOL     OW15574   0.993   2.318  12.922  0.1878  0.0461  0.6223
 1313SOL    HW115575   0.902   2.344  12.923  0.3321  0.4952  1.5929
 1313SOL    HW215576   1.002   2.309  12.827  1.1251 -1.5845  0.8669
 1314SOL     OW15577   1.539   3.394   3.631 -0.0439  0.0220  0.0561
 1314SOL    HW115578   1.570   3.318   3.582 -0.0604 -0.9660  1.5787
 1314SOL    HW215579   1.592   3.389   3.710  0.9423  0.7910 -0.5530
 1315SOL     OW15580   0.035   2.402   8.331 -0.1365  0.7451  0.2949
 1315SOL    HW115581   4.739   2.358   8.256 -0.7744 -0.3985  1.3142
 1315SOL    HW215582   4.717   2.384   8.401 -0.3762 -0.9815 -0.3752
 1316SOL     OW15583   3.319   1.087   2.111  0.3641  0.1798 -0.1241
 1316SOL    HW115584   3.391   1.071   2.172 -0.1783  1.0643  0.7423
 1316SOL    HW215585   3.342   1.024   2.042 -1.6304  0.0437 -0.6536
 1317SOL     OW15586   3.769   4.489   7.592 -0.0771  0.4251 -0.2140
 1317SOL    HW115587   3.772   4.582   7.569 -1.0291  0.8044  1.1476
 1317SOL    HW215588   3.693   4.481   7.650 -1.4916  1.3666 -1.9385
 1318SOL     OW15589   3.662   1.704   5.378  0.2466 -0.2992  0.3966
 1318SOL    HW115590   3.571   1.678   5.387 -0.0430  0.3024 -0.8004
 1318SOL    HW215591   3.682   1.746   5.461 -2.7483  2.0228 -0.0789
 1319SOL     OW15592   1.326   3.920   7.269 -0.5534  0.8562 -0.4752
 1319SOL    HW115593   1.387   3.865   7.219 -0.9517 -1.7037  1.8077
 1319SOL    HW215594   1.275   3.855   7.317 -0.0381  0.5105 -0.3861
 1320SOL     OW15595   2.044   0.792   5.970 -0.2106 -0.5143 -0.0341
 1320SOL    HW115596   1.990   0.714   5.971  0.9645 -1.3903 -2.7130
 1320SOL    HW215597   2.121   0.764   6.020  0.4056  2.2440  0.5829
 1321SOL     OW15598   3.994   2.256   3.312 -0.1601  0.0857 -0.5288
 1321SOL    HW115599   3.944   2.265   3.394 -1.5874 -1.6305 -1.2282
 1321SOL    HW215600   3.987   2.164   3.287  2.4127  0.0995 -1.3459
 1322SOL     OW15601   2.982   1.490   9.793  0.4152 -0.1942  0.2251
 1322SOL    HW115602   3.049   1.427   9.821  0.5059  0.4685  1.4946
 1322SOL    HW215603   2.989   1.479   9.698  0.1282  3.1020 -0.1520
 1323SOL     OW15604   2.390   2.554   1.586  0.1933  0.3280  0.7342
 1323SOL    HW115605   2.344   2.615   1.527  1.3076  0.3296 -0.1500
 1323SOL    HW215606   2.473   2.538   1.541 -0.7809 -0.8047 -0.6606
 1324SOL     OW15607   1.080   3.525   3.763 -0.3274 -0.2846  0.4970
 1324SOL    HW115608   1.129   3.503   3.843 -2.0981 -1.3818  1.2783
 1324SOL    HW215609   0.993   3.491   3.786 -0.0996 -1.9327 -1.1086
 1325SOL     OW15610   0.048   0.091   0.563 -0.3604  0.1358 -0.4031
 1325SOL    HW115611   0.053   0.019   0.626 -1.7880 -0.8369 -1.4048
 1325SOL    HW215612   0.053   0.169   0.619  0.8326 -1.7402  2.0947
 1326SOL     OW15613   4.187   4.122   4.189  0.5043  0.2441 -0.0540
 1326SOL    HW115614   4.105   4.170   4.179 -0.6878 -2.0361 -1.2444
 1326SOL    HW215615   4.214   4.134   4.280 -2.1037 -1.3560  0.9564
 1327SOL     OW15616   4.506   0.176   5.191 -0.0690  1.1797 -0.0050
 1327SOL    HW115617   4.516   0.182   5.096 -1.2762  1.0436 -0.1370
 1327SOL    HW215618   4.448   0.250   5.214 -2.9890 -0.4074 -2.2833
 1328SOL     OW15619   4.290   1.163   2.698  0.0695  0.3986  0.7735
 1328SOL    HW115620   4.314   1.244   2.653 -0.9421  0.4105  0.2392
 1328SOL    HW215621   4.367   1.130   2.744 -0.6907  2.1453  3.2656
 1329SOL     OW15622   4.255   0.558   4.115  0.2069  0.4602  0.1916
 1329SOL    HW115623   4.347   0.545   4.140 -0.1376  0.7735  1.6038
 1329SOL    HW215624   4.211   0.546   4.199 -0.6747 -1.5390 -0.5516
 1330SOL     OW15625   2.816   4.105  16.309  0.1015 -0.8067 -0.1427
 1330SOL    HW115626   2.905   4.104  16.345  0.4959 -2.6713 -1.1605
 1330SOL    HW215627   2.836   4.073  16.221  0.6947  1.3799 -0.8009
 1331SOL     OW15628   3.220   1.983   5.016 -0.1682 -0.0135  0.2162
 1331SOL    HW115629   3.266   2.063   4.991  2.2939 -1.3440  0.5379
 1331SOL    HW215630   3.284   1.915   5.039 -0.8275  0.1730  2.6354
 1332SOL     OW15631   2.191   4.616   3.413 -0.5895 -0.6257 -0.1407
 1332SOL    HW115632   2.246   4.550   3.371 -0.1378 -0.1734 -0.2634
 1332SOL    HW215633   2.247   4.656   3.479 -0.3444 -1.4546  0.1489
 1333SOL     OW15634   3.807   0.585  10.821  0.4387  0.2404  0.3239
 1333SOL    HW115635   3.864   0.590  10.744  0.0482  1.4096  0.1058
 1333SOL    HW215636   3.739   0.519  10.813  1.1667 -0.1756 -2.3018
 1334SOL     OW15637   2.267   0.036   3.633 -0.2328 -0.0430  0.1873
 1334SOL    HW115638   2.223   0.118   3.610 -0.7993 -0.2302  0.6045
 1334SOL    HW215639   2.331   0.069   3.696 -0.0657 -0.6926  0.3552
 1335SOL     OW15640   0.810   2.656  17.515 -0.0952  0.3913  0.1765
 1335SOL    HW115641   0.817   2.571  17.472 -1.8855  1.2435 -1.7577
 1335SOL    HW215642   0.719   2.655  17.544  0.0199 -0.3227  0.5080
 1336SOL     OW15643   1.084   3.745   8.441  0.2763 -0.0178 -0.0659
 1336SOL    HW115644   1.021   3.725   8.372  1.2536 -2.6734 -0.1779
 1336SOL    HW215645   1.068   3.838   8.456  1.8464  0.4058 -0.9987
 1337SOL     OW15646   1.549   4.285   7.011  0.4045 -0.1634 -0.0447
 1337SOL    HW115647   1.642   4.295   7.027  0.4327 -1.8564  0.9179
 1337SOL    HW215648   1.538   4.343   6.936  0.9349  1.4341  1.1217
 1338SOL     OW15649   0.803   4.042  10.764  0.2226  0.0318 -0.2292
 1338SOL    HW115650   0.769   3.954  10.746 -0.9860  0.0548  1.8906
 1338SOL    HW215651   0.866   4.054  10.693 -2.0535 -0.6063 -2.3961
 1339SOL     OW15652   2.018   1.402   8.603  0.4927  0.0418  0.0992
 1339SOL    HW115653   2.053   1.483   8.566  1.0556 -0.7057 -1.0113
 1339SOL    HW215654   2.093   1.351   8.633  0.0380 -1.2399 -0.9441
 1340SOL     OW15655   1.088   1.323   8.584 -0.0235 -0.2560  0.2547
 1340SOL    HW115656   1.157   1.288   8.528  1.1123  2.8253 -0.2752
 1340SOL    HW215657   1.102   1.417   8.588 -1.5635 -0.1251  2.4294
 1341SOL     OW15658   2.501   2.248  12.052 -0.4647  0.2911  0.3559
 1341SOL    HW115659   2.597   2.239  12.049 -0.6579 -0.8117 -1.8848
 1341SOL    HW215660   2.488   2.325  12.107  0.2279  0.5560  0.1484
 1342SOL     OW15661   2.424   1.172   4.007 -0.2594 -0.2037 -0.6981
 1342SOL    HW115662   2.455   1.148   4.095  0.3792  0.8983 -0.6324
 1342SOL    HW215663   2.502   1.152   3.955 -0.4463 -1.4463 -0.5013
 1343SOL     OW15664   0.783   0.568   8.667  0.3516 -0.0646 -0.2350
 1343SOL    HW115665   0.752   0.653   8.700  0.8665  0.6415 -1.5491
 1343SOL    HW215666   0.702   0.518   8.658  0.4227  0.1988 -2.3362
 1344SOL     OW15667   2.742   2.608   9.023 -0.2197 -0.5349  0.4514
 1344SOL    HW115668   2.660   2.563   9.000 -0.9098  1.1349 -0.3493
 1344SOL    HW215669   2.781   2.547   9.086  0.2300 -0.0573  0.6383
 1345SOL     OW15670   3.637   1.673   6.461 -0.5994  0.2214  0.2643
 1345SOL    HW115671   3.724   1.709   6.444  0.3651 -1.0320  2.5310
 1345SOL    HW215672   3.656   1.613   6.534 -0.3486 -0.8621 -0.7052
 1346SOL     OW15673   2.339   4.308   8.301 -0.0089 -0.4811  0.2144
 1346SOL    HW115674   2.257   4.358   8.302  0.0440 -0.3975  0.4217
 1346SOL    HW215675   2.334   4.260   8.384  0.2201 -0.7944  0.0455
 1347SOL     OW15676   1.831   4.307  12.635 -0.0360  0.1554  0.5475
 1347SOL    HW115677   1.776   4.237  12.671 -0.7661 -0.5259 -1.8933
 1347SOL    HW215678   1.893   4.314  12.708 -2.2514  0.2958  2.4095
 1348SOL     OW15679   4.469   1.011   4.113 -0.0040  0.2532  0.6031
 1348SOL    HW115680   4.399   0.946   4.120 -0.1677  0.3669  0.0602
 1348SOL    HW215681   4.534   0.964   4.061 -0.3034  0.4548  0.0512
 1349SOL     OW15682   0.231   4.699   4.402  0.3251 -0.0987  0.1346
 1349SOL    HW115683   0.314   4.668   4.366  0.6574 -0.9595  1.6722
 1349SOL    HW215684   0.255   0.044   4.429 -0.3644 -0.0363  0.5407
 1350SOL     OW15685   1.394   2.502   9.635 -0.2685 -0.3314 -0.0673
 1350SOL    HW115686   1.324   2.542   9.583  1.1184 -0.2847 -1.9137
 1350SOL    HW215687   1.473   2.548   9.605  0.4336 -0.6683  1.2465
 1351SOL     OW15688   1.648   0.902  17.004 -0.1316  0.5272 -0.0655
 1351SOL    HW115689   1.720   0.965  17.014  0.7424 -0.2170 -1.7802
 1351SOL    HW215690   1.616   0.927  16.918  0.1911  1.4631  0.0828
 1352SOL     OW15691   0.425   3.503   6.755  0.2484 -0.1018 -0.1705
 1352SOL    HW115692   0.415   3.562   6.829 -0.3739 -1.3600  0.7586
 1352SOL    HW215693   0.332   3.489   6.736 -0.1937  0.0310  1.9261
 1353SOL     OW15694   0.413   3.702   3.096 -0.1919 -0.1992 -0.2246
 1353SOL    HW115695   0.368   3.764   3.039 -1.4449  0.0982  1.0706
 1353SOL    HW215696   0.363   3.620   3.089 -0.7303  0.3126 -2.3888
 1354SOL     OW15697   3.239   1.568   0.354  0.0291  0.3309 -0.2262
 1354SOL    HW115698   3.226   1.527   0.269  3.3945 -1.3268  0.0442
 1354SOL    HW215699   3.152   1.608   0.361  0.7152  1.6445  0.7303
 1355SOL     OW15700   3.092   2.961  17.271  0.0993 -0.2214 -0.1491
 1355SOL    HW115701   3.141   3.034  17.233  0.1836 -1.0885 -1.7130
 1355SOL    HW215702   3.008   2.967  17.225 -0.4177  1.8647  1.1045
 1356SOL     OW15703   2.413   2.648   0.713 -0.2465 -0.9752  0.0801
 1356SOL    HW115704   2.400   2.731   0.668  0.3265 -1.2376 -0.5725
 1356SOL    HW215705   2.409   2.677   0.804  2.1901 -0.0095 -0.1174
 1357SOL     OW15706   3.441   1.016   4.120 -0.3374  0.3894 -0.6601
 1357SOL    HW115707   3.350   1.042   4.111 -0.1819  0.6510 -1.5072
 1357SOL    HW215708   3.456   0.963   4.041  1.1293  1.4484 -1.0882
 1358SOL     OW15709   2.970   2.536   8.317 -0.0901 -1.0929 -0.4727
 1358SOL    HW115710   3.028   2.462   8.300  0.8009 -0.8667  1.6614
 1358SOL    HW215711   3.020   2.586   8.381 -1.3738 -0.1666 -0.1891
 1359SOL     OW15712   4.431   0.938   6.062  0.0249  0.6102 -0.5285
 1359SOL    HW115713   4.395   0.849   6.059  3.0134 -0.6112  0.0031
 1359SOL    HW215714   4.501   0.942   5.997  1.6934  2.8490  1.4156
 1360SOL     OW15715   1.397   4.590   0.378  0.5950  0.5030  0.1110
 1360SOL    HW115716   1.302   4.588   0.369  0.5233 -1.6900  1.3966
 1360SOL    HW215717   1.411   4.679   0.345  1.3423 -0.4105 -2.0013
 1361SOL     OW15718   3.172   0.746   8.745 -0.1762  0.4498  0.1472
 1361SOL    HW115719   3.198   0.766   8.655 -0.6694 -0.0470 -0.1118
 1361SOL    HW215720   3.098   0.689   8.722  0.2589  0.1950 -0.6328
 1362SOL     OW15721   1.283   0.168   0.975 -0.0857 -0.8662  0.3550
 1362SOL    HW115722   1.312   0.208   1.058 -0.2308 -0.5545  0.2544
 1362SOL    HW215723   1.204   0.222   0.967 -0.4576 -1.5137 -0.3139
 1363SOL     OW15724   4.350   4.064  13.417  0.0802 -0.0390 -0.2034
 1363SOL    HW115725   4.332   3.993  13.479 -1.9322  0.1309 -0.5685
 1363SOL    HW215726   4.426   4.103  13.460 -0.0532 -1.3575  1.2232
 1364SOL     OW15727   1.138   1.898   7.437 -0.0961 -0.0929 -0.0295
 1364SOL    HW115728   1.206   1.930   7.377  0.5873  0.2317  0.9177
 1364SOL    HW215729   1.089   1.835   7.384 -1.6814  0.6481  0.5437
 1365SOL     OW15730   4.330   4.213  16.737 -0.0083 -0.0267 -0.2311
 1365SOL    HW115731   4.296   4.261  16.812 -0.2397  0.7949 -0.8627
 1365SOL    HW215732   4.260   4.173  16.684 -0.1026  0.0652 -0.1752
 1366SOL     OW15733   1.605   3.888   6.381 -0.5401 -0.2511  0.3317
 1366SOL    HW115734   1.684   3.858   6.335 -0.4373 -1.8179  1.5407
 1366SOL    HW215735   1.561   3.806   6.400  0.7599 -0.8901  0.5901
 1367SOL     OW15736   3.300   3.562  17.516 -0.2199  0.0240 -0.0404
 1367SOL    HW115737   3.317   3.522  17.601  1.8884  1.6140  0.2979
 1367SOL    HW215738   3.206   3.548  17.506  0.5048 -1.0022 -5.1613
 1368SOL     OW15739   1.380   4.688  10.575 -0.0208 -0.4297 -0.3901
 1368SOL    HW115740   1.368   4.595  10.553 -0.6811 -0.6907  1.0400
 1368SOL    HW215741   1.445   4.711  10.509  1.4209 -1.4059  0.6873
 1369SOL     OW15742   3.577   4.410   2.554 -0.1322  0.6065 -0.1341
 1369SOL    HW115743   3.603   4.372   2.470  0.9510 -1.7920  1.2738
 1369SOL    HW215744   3.519   4.479   2.523  0.2473  0.8208 -0.3715
 1370SOL     OW15745   0.760   3.854  14.738  0.6780 -0.2515 -0.7428
 1370SOL    HW115746   0.827   3.844  14.805 -1.6539 -0.5788  1.5310
 1370SOL    HW215747   0.712   3.933  14.764  1.6054 -0.5061  1.6870
 1371SOL     OW15748   1.519   3.535  11.443 -0.3403 -0.1156 -1.0626
 1371SOL    HW115749   1.537   3.575  11.529  1.8658 -1.0992 -1.0713
 1371SOL    HW215750   1.548   3.605  11.384 -0.8795  0.5462 -0.5512
 1372SOL     OW15751   2.821   2.985  14.563 -0.0022 -0.3091 -0.3374
 1372SOL    HW115752   2.736   2.995  14.522 -0.6439 -2.0759  0.5508
 1372SOL    HW215753   2.872   2.942  14.494 -0.7584  2.4817 -2.6026
 1373SOL     OW15754   2.835   0.308   3.665 -0.0610  0.2197  0.7035
 1373SOL    HW115755   2.857   0.380   3.606 -0.8396 -0.4353 -0.3892
 1373SOL    HW215756   2.772   0.347   3.726 -0.0922  0.7273  0.3507
 1374SOL     OW15757   4.660   2.212   7.073 -0.1077  0.4256 -0.0459
 1374SOL    HW115758   4.568   2.196   7.094  0.4037  0.3305  2.1101
 1374SOL    HW215759   4.696   2.223   7.161  0.1643 -1.0601  0.0324
 1375SOL     OW15760   1.239   2.831   2.754 -0.1782 -0.7058  0.6921
 1375SOL    HW115761   1.186   2.859   2.680  0.0848 -2.6787 -0.2464
 1375SOL    HW215762   1.171   2.814   2.820  1.6848 -1.5752  2.3650
 1376SOL     OW15763   4.000   0.221   0.274  0.2694 -0.3673 -0.0348
 1376SOL    HW115764   4.079   0.218   0.328 -0.0334  1.3309  0.4915
 1376SOL    HW215765   3.977   0.311   0.296  0.9746  0.1950 -1.5963
 1377SOL     OW15766   2.989   3.737   3.360  0.0624 -0.5551 -0.2801
 1377SOL    HW115767   3.042   3.721   3.438  0.2664  1.1686 -0.0606
 1377SOL    HW215768   2.906   3.695   3.384 -1.7432  2.6025 -0.9476
 1378SOL     OW15769   1.986   4.299   0.836  0.2527  0.1953  0.0428
 1378SOL    HW115770   2.034   4.378   0.812 -1.2375  1.0254 -0.2209
 1378SOL    HW215771   2.048   4.252   0.893 -0.9160 -2.9042 -1.2299
 1379SOL     OW15772   3.994   4.591   2.154  0.6989 -0.3523  0.2093
 1379SOL    HW115773   4.009   4.505   2.117  1.2278  0.2482 -0.9788
 1379SOL    HW215774   4.080   4.631   2.142  0.8175 -0.4719  0.6509
 1380SOL     OW15775   0.225   0.792  16.648 -0.5452  0.4881  0.4182
 1380SOL    HW115776   0.161   0.778  16.578 -1.6970 -1.2019  1.8013
 1380SOL    HW215777   0.282   0.716  16.640  0.7215  1.4225  0.5020
 1381SOL     OW15778   4.095   4.156  14.666  0.0312 -0.3589  0.0944
 1381SOL    HW115779   4.139   4.240  14.676  1.0390 -0.7368 -1.3023
 1381SOL    HW215780   4.050   4.170  14.583  0.6872 -0.1878 -0.2280
 1382SOL     OW15781   4.361   4.227  12.933  0.0016  0.3803  0.4900
 1382SOL    HW115782   4.334   4.174  13.008  0.9657 -0.4173  0.2627
 1382SOL    HW215783   4.437   4.274  12.968 -0.6287  2.1144 -0.4599
 1383SOL     OW15784   1.126   0.555  14.974  0.2694 -0.0383 -0.0514
 1383SOL    HW115785   1.056   0.594  15.026 -1.5821 -1.5098 -1.4603
 1383SOL    HW215786   1.083   0.570  14.889  0.0709 -1.2362 -0.1638
 1384SOL     OW15787   3.946   2.782   2.798  0.3063  0.4585 -0.3082
 1384SOL    HW115788   3.878   2.735   2.750  0.5682 -2.8164  2.6373
 1384SOL    HW215789   3.946   2.731   2.878 -0.2325  0.1287 -0.5212
 1385SOL     OW15790   0.821   3.712   3.798  0.1976  0.6246  0.5181
 1385SOL    HW115791   0.777   3.651   3.857  1.3796  0.1699  0.9177
 1385SOL    HW215792   0.768   3.790   3.817  0.0137  0.0048  2.6118
 1386SOL     OW15793   3.722   4.045   3.115 -0.7319 -0.1250  0.0481
 1386SOL    HW115794   3.803   4.023   3.160  0.6322  0.6286 -2.0134
 1386SOL    HW215795   3.772   4.075   3.039 -0.6664  0.1219  0.1882
 1387SOL     OW15796   2.571   0.783   0.133 -0.2472 -0.1443 -0.3799
 1387SOL    HW115797   2.625   0.809   0.208 -1.1911  0.9353 -0.0796
 1387SOL    HW215798   2.619   0.812   0.056 -1.9548  1.5651 -0.7893
 1388SOL     OW15799   2.402   4.292   5.186 -0.0116 -0.6594 -1.1261
 1388SOL    HW115800   2.335   4.354   5.216  0.3186 -0.7752 -0.1177
 1388SOL    HW215801   2.412   4.310   5.093 -0.2784 -2.9225 -1.5803
 1389SOL     OW15802   4.040   4.643  11.101 -0.4041 -0.0710  0.7931
 1389SOL    HW115803   4.030   4.572  11.165 -0.4987  0.3032  1.1911
 1389SOL    HW215804   3.991   4.601  11.030  0.7400  0.8568 -0.5442
 1390SOL     OW15805   2.636   1.317  11.182  0.1535 -0.3128  0.0985
 1390SOL    HW115806   2.688   1.241  11.156  0.1048 -0.6335  0.9557
 1390SOL    HW215807   2.704   1.360  11.235 -1.7825  0.5964  1.8353
 1391SOL     OW15808   0.618   0.969  17.239  0.5422  0.9193 -0.2185
 1391SOL    HW115809   0.620   0.977  17.143  0.6313  1.0335 -0.2075
 1391SOL    HW215810   0.602   1.059  17.267 -0.2290 -0.5354  3.9451
 1392SOL     OW15811   3.782   1.221   0.293  0.2277 -0.1379 -0.3345
 1392SOL    HW115812   3.788   1.128   0.315 -0.0750 -0.4036 -1.3865
 1392SOL    HW215813   3.814   1.267   0.371 -0.8148 -3.1000  1.8581
 1393SOL     OW15814   2.751   2.627   3.248  0.3060  0.4756  0.3307
 1393SOL    HW115815   2.715   2.560   3.306 -0.5778  1.0194  0.4048
 1393SOL    HW215816   2.774   2.586   3.165 -1.0503 -0.8554  0.6290
 1394SOL     OW15817   3.340   4.404   7.087 -0.5366  0.1374  0.4292
 1394SOL    HW115818   3.284   4.402   7.165 -0.0991  1.1633  0.7737
 1394SOL    HW215819   3.267   4.415   7.026 -0.2548 -1.9721 -0.2858
 1395SOL     OW15820   3.097   1.674  14.658 -0.3084  0.1282  0.6136
 1395SOL    HW115821   3.192   1.657  14.660 -0.4622 -0.5480  1.9413
 1395SOL    HW215822   3.084   1.646  14.567 -1.6748 -0.7553  1.0880
 1396SOL     OW15823   1.808   1.422   8.829 -0.1041  0.1958  0.6152
 1396SOL    HW115824   1.786   1.378   8.747 -0.2812 -0.2419  0.8955
 1396SOL    HW215825   1.857   1.498   8.797 -1.6972 -0.1111 -2.5387
 1397SOL     OW15826   4.343   1.157   9.709 -0.5616 -0.1882 -0.0748
 1397SOL    HW115827   4.353   1.082   9.651  0.9218 -0.4452  0.5129
 1397SOL    HW215828   4.289   1.116   9.777 -0.3056  1.3953  1.0897
 1398SOL     OW15829   3.648   1.981   3.187 -0.2088 -0.4288 -0.1961
 1398SOL    HW115830   3.657   2.076   3.193  0.3090 -0.4979  0.1144
 1398SOL    HW215831   3.553   1.968   3.189 -0.1425 -0.2509  4.0239
 1399SOL     OW15832   3.228   1.417   9.024  0.0302  0.8899  0.4144
 1399SOL    HW115833   3.247   1.325   9.003  0.7193  0.7220  1.7772
 1399SOL    HW215834   3.281   1.461   8.957 -3.1447 -0.3519 -2.9155
 1400SOL     OW15835   4.738   1.714   6.253  0.1449 -0.4073 -0.9480
 1400SOL    HW115836   4.674   1.652   6.288 -0.3906  0.0392 -1.1420
 1400SOL    HW215837   4.718   1.796   6.297  0.4547 -0.2653 -1.0697
 1401SOL     OW15838   3.148   3.629   2.730 -0.2610  0.5471  0.3373
 1401SOL    HW115839   3.131   3.707   2.783  0.9401  1.1422 -0.1524
 1401SOL    HW215840   3.108   3.659   2.649  2.0654  0.4449 -0.8552
 1402SOL     OW15841   0.156   4.060  14.389  0.0378 -0.1680 -0.0854
 1402SOL    HW115842   0.208   4.139  14.401 -0.9363  0.8152 -2.3452
 1402SOL    HW215843   0.220   3.994  14.363  1.4831  1.9692 -1.9058
 1403SOL     OW15844   2.993   2.578   7.947  0.5965  0.4634  0.2665
 1403SOL    HW115845   3.077   2.571   7.992  0.5928  0.9237  0.3496
 1403SOL    HW215846   2.927   2.538   8.003  0.1723 -0.7048 -1.0546
 1404SOL     OW15847   2.266   2.963   4.934 -0.1528  0.2769 -0.2093
 1404SOL    HW115848   2.265   2.884   4.879 -1.4024  0.0211  0.1772
 1404SOL    HW215849   2.347   3.005   4.906  0.4450 -1.4767 -1.1261
 1405SOL     OW15850   2.185   1.506   4.725  0.1290 -0.2134  0.1690
 1405SOL    HW115851   2.279   1.490   4.720  0.0965 -0.3529 -0.0015
 1405SOL    HW215852   2.178   1.572   4.794 -1.1441  3.0342 -3.0440
 1406SOL     OW15853   3.930   3.025   6.377 -0.1551  0.0393  0.2808
 1406SOL    HW115854   3.977   3.061   6.302  0.7076 -2.7380 -0.5293
 1406SOL    HW215855   3.980   3.060   6.451 -1.0258  2.7809 -0.4312
 1407SOL     OW15856   2.145   4.612   4.224 -0.5890  0.0403  0.8131
 1407SOL    HW115857   2.164   4.625   4.131 -0.4210  1.8743  1.1071
 1407SOL    HW215858   2.230   4.574   4.246  0.1968  0.9622 -0.6747
 1408SOL     OW15859   0.413   1.733   5.915 -0.7912  0.0189 -0.6267
 1408SOL    HW115860   0.490   1.754   5.862  1.6323 -0.8737  2.5361
 1408SOL    HW215861   0.451   1.657   5.958  1.0570  2.2758  1.7261
 1409SOL     OW15862   3.745   3.194  11.867 -0.2762 -0.8514  0.4967
 1409SOL    HW115863   3.836   3.170  11.881 -0.2954 -0.7809  0.7507
 1409SOL    HW215864   3.691   3.116  11.851 -2.2908  1.0848 -2.1871
 1410SOL     OW15865   0.168   0.281   6.416 -0.3170  0.2615 -0.2342
 1410SOL    HW115866   0.238   0.340   6.389 -0.0104  1.3492  2.9865
 1410SOL    HW215867   0.090   0.314   6.371 -0.5352  0.3346  0.2039
 1411SOL     OW15868   1.331   4.562   8.811  0.4069  0.0544  0.9603
 1411SOL    HW115869   1.242   4.529   8.825 -0.1640  1.3867  0.4834
 1411SOL    HW215870   1.306   4.654   8.814  1.1181  0.2317  1.5521
 1412SOL     OW15871   3.525   0.570   2.493 -0.3572  0.0469 -0.3453
 1412SOL    HW115872   3.587   0.549   2.424 -0.7041 -0.7427 -0.4137
 1412SOL    HW215873   3.555   0.509   2.560 -4.5093  0.4281  1.8724
 1413SOL     OW15874   1.061   2.898   2.559  0.2345 -0.0729  0.1680
 1413SOL    HW115875   0.980   2.948   2.547  0.1806 -0.6044 -1.6578
 1413SOL    HW215876   1.090   2.903   2.468 -1.6401  1.4255 -0.3563
 1414SOL     OW15877   4.128   2.089  16.774 -0.5572  0.0829 -0.0035
 1414SOL    HW115878   4.113   2.100  16.680 -0.0415  0.5484 -0.0267
 1414SOL    HW215879   4.223   2.096  16.774 -0.5240 -0.4751  2.1437
 1415SOL     OW15880   4.374   2.147  15.671 -0.4777 -0.3713 -0.3564
 1415SOL    HW115881   4.340   2.237  15.675 -0.2972 -0.4330  2.6951
 1415SOL    HW215882   4.460   2.146  15.712 -1.9461 -0.3702  2.7117
 1416SOL     OW15883   2.226   4.602   8.997  0.4054  0.0858  0.3369
 1416SOL    HW115884   2.280   4.545   8.943  1.6665 -1.1234  2.8845
 1416SOL    HW215885   2.239   4.567   9.085 -0.2534 -1.4372 -0.1690
 1417SOL     OW15886   1.153   3.464   4.853  0.2880  0.5659 -0.2221
 1417SOL    HW115887   1.170   3.454   4.759 -1.2768 -0.1789 -0.4271
 1417SOL    HW215888   1.057   3.462   4.851  0.3344 -1.9035 -0.4880
 1418SOL     OW15889   4.221   2.260  15.431 -0.1488 -0.6781  0.3456
 1418SOL    HW115890   4.232   2.335  15.490 -1.3340 -0.2108 -0.0317
 1418SOL    HW215891   4.189   2.194  15.493  1.1081 -2.4368 -0.8740
 1419SOL     OW15892   0.084   1.265   7.516  0.1876  0.7878  0.1685
 1419SOL    HW115893   0.114   1.346   7.474 -0.8446  0.7685 -0.5999
 1419SOL    HW215894   4.738   1.250   7.484  0.1151  2.1645 -0.2925
 1420SOL     OW15895   1.816   3.058   8.261  0.8485 -0.2355  0.2472
 1420SOL    HW115896   1.890   3.115   8.284 -0.3021  1.6366 -0.6808
 1420SOL    HW215897   1.751   3.088   8.325  0.7707  0.5177 -0.1826
 1421SOL     OW15898   4.464   2.705   8.828  0.3378  0.1167  0.1168
 1421SOL    HW115899   4.371   2.686   8.816  0.4053 -0.0499 -0.1331
 1421SOL    HW215900   4.505   2.620   8.811  0.6577  0.4633 -0.8824
 1422SOL     OW15901   2.134   2.604   4.079  0.0097 -0.1108  0.0510
 1422SOL    HW115902   2.187   2.670   4.034 -1.5336  0.8874 -0.3171
 1422SOL    HW215903   2.092   2.563   4.004 -0.0341  1.6135 -0.8708
 1423SOL     OW15904   0.355   2.485   8.728 -0.2768  0.2077 -0.4432
 1423SOL    HW115905   0.299   2.427   8.779  0.6900  1.3596  1.9338
 1423SOL    HW215906   0.443   2.457   8.755 -0.7218 -1.3670 -0.6576
 1424SOL     OW15907   3.111   3.421  12.332 -0.4392  0.4432 -0.1426
 1424SOL    HW115908   3.018   3.397  12.335 -0.5994  1.0431 -0.2013
 1424SOL    HW215909   3.123   3.474  12.411 -1.6612 -0.0885  0.4113
 1425SOL     OW15910   4.314   1.370   0.487 -0.0747 -0.2062  0.1469
 1425SOL    HW115911   4.402   1.338   0.468 -0.5967 -0.1763 -2.2289
 1425SOL    HW215912   4.334   1.441   0.548  3.4271 -1.0653 -0.0373
 1426SOL     OW15913   2.571   3.729   9.182  1.4093 -0.0647  0.4021
 1426SOL    HW115914   2.479   3.729   9.158  1.7153 -1.2447 -0.7695
 1426SOL    HW215915   2.608   3.676   9.111  2.7727  0.9331  0.3607
 1427SOL     OW15916   3.777   3.424   1.395 -0.1455 -0.3295  0.0683
 1427SOL    HW115917   3.716   3.494   1.373  0.7582  0.2474 -0.5676
 1427SOL    HW215918   3.862   3.448   1.358  0.3368 -2.6075 -0.3240
 1428SOL     OW15919   3.991   1.861  15.390 -0.3399 -0.0349  0.2671
 1428SOL    HW115920   3.943   1.935  15.427  0.3237  0.7206 -0.3796
 1428SOL    HW215921   3.999   1.800  15.464 -1.8369 -0.6468 -0.0759
 1429SOL     OW15922   0.550   3.908   3.192  0.0155 -0.1016  0.0165
 1429SOL    HW115923   0.605   3.931   3.117  1.3570 -0.2836  0.9615
 1429SOL    HW215924   0.501   3.833   3.158  0.5517 -0.3819 -0.1373
 1430SOL     OW15925   3.121   2.726   2.766  0.3799 -0.0822  0.1661
 1430SOL    HW115926   3.092   2.802   2.715  3.6578  1.3054  0.4083
 1430SOL    HW215927   3.090   2.752   2.852 -2.9694 -0.5674 -0.8784
 1431SOL     OW15928   4.325   2.682   1.414  0.0337 -0.4450  0.0175
 1431SOL    HW115929   4.232   2.671   1.434 -0.5686 -0.5471 -2.9517
 1431SOL    HW215930   4.360   2.598   1.445 -3.1341 -2.1262 -1.0068
 1432SOL     OW15931   2.438   2.101  17.556  0.0536 -0.3257  0.3342
 1432SOL    HW115932   2.522   2.060  17.537 -0.5593 -1.2719 -0.3586
 1432SOL    HW215933   2.458   2.131  17.645 -1.2371 -0.4081  0.6551
 1433SOL     OW15934   2.907   3.879  10.616 -0.1276  0.4098 -0.4192
 1433SOL    HW115935   2.980   3.906  10.560  0.6844  0.6180  0.7360
 1433SOL    HW215936   2.945   3.817  10.679 -1.8330  1.3782  1.5830
 1434SOL     OW15937   3.878   0.874  10.535 -0.1777 -0.3418  0.4438
 1434SOL    HW115938   3.973   0.881  10.527 -0.4686 -0.1431 -2.8419
 1434SOL    HW215939   3.864   0.913  10.621  0.4675  1.2555 -0.1871
 1435SOL     OW15940   3.607   1.400   4.227  0.6156  0.5630 -0.0680
 1435SOL    HW115941   3.627   1.340   4.156  1.9105  3.8609 -2.4855
 1435SOL    HW215942   3.693   1.435   4.251  1.6387 -0.4206 -2.3077
 1436SOL     OW15943   1.329   1.832  11.302 -0.1984 -0.1407  0.0250
 1436SOL    HW115944   1.410   1.866  11.262  1.2491 -3.5838  0.0365
 1436SOL    HW215945   1.317   1.883  11.382 -0.4133  2.1823 -1.4618
 1437SOL     OW15946   2.274   1.048   3.480  0.6790  0.4371  0.0912
 1437SOL    HW115947   2.323   1.115   3.432  1.0801 -1.3973 -2.1005
 1437SOL    HW215948   2.316   1.049   3.566 -1.2411  1.5909  1.0010
 1438SOL     OW15949   3.054   0.453   3.262  0.9572  0.1490  0.2240
 1438SOL    HW115950   3.108   0.384   3.300  0.9871 -0.0585 -0.1954
 1438SOL    HW215951   3.121   0.521   3.256  1.0841 -0.1342 -1.5566
 1439SOL     OW15952   4.481   0.557   1.080 -0.3140 -0.2409  0.2841
 1439SOL    HW115953   4.516   0.469   1.067  1.0622  0.4928 -0.9377
 1439SOL    HW215954   4.455   0.579   0.991 -0.9260 -0.4253  0.4168
 1440SOL     OW15955   3.177   0.355  15.043 -0.1777 -0.3550  0.2668
 1440SOL    HW115956   3.205   0.276  15.090  0.5794 -1.1838 -1.5944
 1440SOL    HW215957   3.087   0.334  15.019 -0.5712 -0.7234  2.0812
 1441SOL     OW15958   3.530   2.963  11.570 -0.2828  0.4185 -0.6016
 1441SOL    HW115959   3.563   3.049  11.544 -0.0653  1.1133  1.9990
 1441SOL    HW215960   3.580   2.956  11.651 -2.6665 -1.3365  0.6928
 1442SOL     OW15961   0.968   1.115  16.858  0.0976  0.5197 -0.2825
 1442SOL    HW115962   0.951   1.179  16.788  0.1394 -0.2012 -0.9455
 1442SOL    HW215963   1.048   1.071  16.828 -0.0309 -1.2582  1.9795
 1443SOL     OW15964   0.412   1.174   7.379 -0.1334  0.1480 -0.1801
 1443SOL    HW115965   0.408   1.263   7.343  0.9524  0.2503 -0.0289
 1443SOL    HW215966   0.323   1.176   7.413 -0.5917  0.4968 -1.3875
 1444SOL     OW15967   0.768   4.241   4.167  0.4128  0.0472 -0.3682
 1444SOL    HW115968   0.832   4.172   4.152  0.3998 -0.4280  1.6679
 1444SOL    HW215969   0.732   4.211   4.250  2.0923  0.3214  0.4742
 1445SOL     OW15970   0.468   3.569   8.040 -0.1841 -0.6197  0.0981
 1445SOL    HW115971   0.466   3.568   7.944  0.8594 -1.4483  0.0928
 1445SOL    HW215972   0.387   3.617   8.059  0.5405  1.0213 -0.9330
 1446SOL     OW15973   1.824   4.163   2.758  0.3439 -0.1655  0.5249
 1446SOL    HW115974   1.731   4.182   2.762  0.1486 -1.3587  1.6292
 1446SOL    HW215975   1.853   4.228   2.694 -0.9271  1.3980  1.5303
 1447SOL     OW15976   1.868   3.057  12.511 -0.7967  0.3591  0.1820
 1447SOL    HW115977   1.873   3.053  12.415  0.4703 -1.2441  0.3032
 1447SOL    HW215978   1.775   3.076  12.523 -0.3795  2.1661  0.5336
 1448SOL     OW15979   3.361   1.129  12.855 -0.7057 -0.3086 -0.0186
 1448SOL    HW115980   3.350   1.169  12.942  1.2528  1.0977 -0.4228
 1448SOL    HW215981   3.404   1.198  12.805 -0.9946 -1.5852 -1.9914
 1449SOL     OW15982   0.501   1.320   4.841  0.2689 -0.1369 -0.0305
 1449SOL    HW115983   0.442   1.303   4.768 -1.3815  1.1413  0.9950
 1449SOL    HW215984   0.468   1.408   4.856  1.4139 -0.1071  2.4503
 1450SOL     OW15985   2.412   1.337  16.893 -0.2048  0.0898 -0.4768
 1450SOL    HW115986   2.427   1.285  16.972 -1.8138 -1.5565 -1.2417
 1450SOL    HW215987   2.471   1.306  16.824  0.0045 -1.6996  0.5071
 1451SOL     OW15988   2.510   3.089  11.210 -0.0995 -0.3246  0.2790
 1451SOL    HW115989   2.507   3.025  11.139  0.1399 -1.3468  1.2021
 1451SOL    HW215990   2.590   3.061  11.255  1.0734  0.2703 -1.4206
 1452SOL     OW15991   0.808   1.880   7.306 -0.0842  0.1174 -0.1706
 1452SOL    HW115992   0.713   1.874   7.295 -0.0587 -0.4067 -0.1040
 1452SOL    HW215993   0.823   1.974   7.315  2.4641 -0.3751  0.4947
 1453SOL     OW15994   2.751   0.662   7.446 -0.1882  0.1583 -0.3176
 1453SOL    HW115995   2.829   0.607   7.442 -0.7781 -0.6193 -1.1982
 1453SOL    HW215996   2.720   0.657   7.537 -1.0936  0.3611 -0.6178
 1454SOL     OW15997   1.675   2.698  14.236  0.2974 -0.0433 -0.1895
 1454SOL    HW115998   1.602   2.639  14.215 -1.9841  2.1741  1.3708
 1454SOL    HW215999   1.731   2.657  14.170 -1.0726 -1.9465 -0.1736
 1455SOL     OW16000   0.444   1.189   6.110 -0.0305  0.4155 -0.2892
 1455SOL    HW116001   0.476   1.250   6.044  0.0823 -0.2823 -0.8835
 1455SOL    HW216002   0.494   1.108   6.097 -1.5340 -0.4351 -0.7532
 1456SOL     OW16003   3.784   0.418   2.392 -0.0648 -1.0544 -0.1674
 1456SOL    HW116004   3.802   0.326   2.412 -0.2676 -1.4601 -1.8440
 1456SOL    HW216005   3.867   0.454   2.424 -1.4083 -0.0159  2.1401
 1457SOL     OW16006   0.407   1.731   5.187  0.2622  0.2835  0.2141
 1457SOL    HW116007   0.343   1.802   5.200  2.3431  1.9940  1.0709
 1457SOL    HW216008   0.477   1.784   5.224 -1.3625  2.1069  0.7225
 1458SOL     OW16009   3.363   2.224   4.918  0.3337 -0.0956 -0.2026
 1458SOL    HW116010   3.397   2.287   4.854  0.7097 -0.3765 -0.2807
 1458SOL    HW216011   3.314   2.282   4.976  1.3973  1.2042 -0.6195
 1459SOL     OW16012   2.653   2.101   3.663  0.3820  0.5140 -0.2189
 1459SOL    HW116013   2.594   2.071   3.731  2.3192 -0.5582  0.9838
 1459SOL    HW216014   2.716   2.144   3.721  0.5427 -1.9622  1.4725
 1460SOL     OW16015   2.231   4.001  12.127  0.0024 -0.3671 -0.4307
 1460SOL    HW116016   2.240   3.997  12.223  0.0083 -1.0808 -0.4679
 1460SOL    HW216017   2.303   4.062  12.110 -0.2619  0.8396  2.7261
 1461SOL     OW16018   3.558   4.018   6.486 -0.2848  0.2661 -0.8331
 1461SOL    HW116019   3.568   3.996   6.578  0.2291  3.5494 -0.0946
 1461SOL    HW216020   3.609   3.945   6.451 -1.9387 -0.7788 -1.0687
 1462SOL     OW16021   3.949   1.068   9.149  0.1841  0.3280 -0.1738
 1462SOL    HW116022   3.853   1.074   9.155  0.2380 -0.8706  1.7893
 1462SOL    HW216023   3.962   1.003   9.080  0.2938 -0.8279  0.9407
 1463SOL     OW16024   1.394   3.051   8.573  0.3778 -0.0070 -0.2254
 1463SOL    HW116025   1.320   3.043   8.513 -0.3929  0.9177  0.5939
 1463SOL    HW216026   1.443   2.975   8.544  2.2963  0.8495  0.7894
 1464SOL     OW16027   2.612   0.009  13.634  0.1638 -0.5536 -0.7747
 1464SOL    HW116028   2.595   4.734  13.542 -0.0872  0.8435 -1.0147
 1464SOL    HW216029   2.605   4.665  13.673  0.4314 -0.3580 -0.2886
 1465SOL     OW16030   3.764   0.989  13.905 -0.1842 -0.2933  0.3099
 1465SOL    HW116031   3.742   1.080  13.924 -0.1854 -0.9166  3.2020
 1465SOL    HW216032   3.850   0.981  13.946 -0.0663 -2.3907 -0.3369
 1466SOL     OW16033   4.694   1.338   6.314 -0.3511 -0.8788 -0.3172
 1466SOL    HW116034   0.020   1.392   6.275  0.2111 -2.6633 -1.8018
 1466SOL    HW216035   4.660   1.292   6.237 -2.0247 -0.8130  0.3780
 1467SOL     OW16036   3.760   3.586  17.485 -0.9465  0.4878 -0.1048
 1467SOL    HW116037   3.666   3.607  17.489 -1.2141 -0.8893  0.4773
 1467SOL    HW216038   3.770   3.520  17.417  1.5857  1.6577 -0.8784
 1468SOL     OW16039   3.639   3.949   4.198  0.1072  0.2024  0.4655
 1468SOL    HW116040   3.707   3.882   4.202  0.8725  0.9256 -0.3815
 1468SOL    HW216041   3.637   3.945   4.102 -1.0590  1.2351  0.4408
 1469SOL     OW16042   1.659   4.348  14.629 -0.2661  0.0061 -0.6987
 1469SOL    HW116043   1.564   4.355  14.635 -0.2288  2.8694 -3.4386
 1469SOL    HW216044   1.682   4.436  14.598  0.7111 -0.1713 -0.4680
 1470SOL     OW16045   0.933   1.667  10.448 -1.0957 -0.2004  0.3094
 1470SOL    HW116046   0.946   1.662  10.542 -1.9767  0.5149  0.4700
 1470SOL    HW216047   0.927   1.579  10.411  2.0032  0.5855 -2.0780
 1471SOL     OW16048   3.010   4.285   2.236 -0.0807  0.5376  0.3089
 1471SOL    HW116049   3.101   4.265   2.214 -0.2050 -2.3878  2.5656
 1471SOL    HW216050   3.021   4.379   2.250 -0.3405  1.0922 -3.0722
 1472SOL     OW16051   1.389   1.914   9.351 -0.1014  0.2813 -0.1259
 1472SOL    HW116052   1.347   1.841   9.397 -2.0420  0.9048 -0.8718
 1472SOL    HW216053   1.421   1.969   9.422 -0.0417 -0.6431  0.5648
 1473SOL     OW16054   0.688   0.616   3.276 -0.5557  0.4093  0.7300
 1473SOL    HW116055   0.707   0.710   3.282 -1.8903  0.6184  1.7564
 1473SOL    HW216056   0.713   0.581   3.362 -1.9657 -0.4532  0.7839
 1474SOL     OW16057   0.717   4.239   4.433  0.4092  0.3295 -0.6466
 1474SOL    HW116058   0.740   4.242   4.525 -1.2055  0.1880 -0.2407
 1474SOL    HW216059   0.729   4.332   4.417 -1.9575  0.9560  1.3285
 1475SOL     OW16060   1.499   3.751   5.227 -0.2691 -0.0901 -0.5247
 1475SOL    HW116061   1.589   3.718   5.227  0.0606  0.7983  3.1090
 1475SOL    HW216062   1.470   3.679   5.283 -1.9705  0.9065 -0.1311
 1476SOL     OW16063   1.082   3.329   8.157  0.1539  0.2738  0.2773
 1476SOL    HW116064   1.047   3.279   8.231 -0.0242  0.8840  0.5982
 1476SOL    HW216065   1.004   3.357   8.110  1.0286  2.4476  0.1357
 1477SOL     OW16066   0.360   1.572   9.789 -0.2364  0.0350  0.4028
 1477SOL    HW116067   0.297   1.632   9.750 -1.3346 -1.8427 -0.7413
 1477SOL    HW216068   0.367   1.609   9.877 -1.0555  1.0095  0.0561
 1478SOL     OW16069   1.806   0.688   6.584  0.0511 -0.1711 -0.6392
 1478SOL    HW116070   1.861   0.713   6.509 -1.4279 -0.5018 -1.8212
 1478SOL    HW216071   1.875   0.702   6.649 -0.7066  1.8007 -0.2697
 1479SOL     OW16072   0.880   1.007   1.162  0.3804 -0.3105 -0.0047
 1479SOL    HW116073   0.968   0.973   1.179  0.8800  0.9854  0.0081
 1479SOL    HW216074   0.839   0.964   1.237  0.7903 -0.7280 -0.0231
 1480SOL     OW16075   2.083   1.393   3.791  0.1104 -0.0011  0.1180
 1480SOL    HW116076   2.109   1.482   3.815  3.6798 -1.0841  0.2598
 1480SOL    HW216077   2.066   1.408   3.698  0.6204 -1.3850 -0.1875
 1481SOL     OW16078   4.298   3.061   7.874 -0.7452  0.9412  0.4198
 1481SOL    HW116079   4.330   3.119   7.804  0.5371 -0.3408 -0.0626
 1481SOL    HW216080   4.301   3.113   7.954 -0.5621 -0.6902  1.4556
 1482SOL     OW16081   4.255   0.249  17.511  0.7890  0.1124  0.6161
 1482SOL    HW116082   4.320   0.200  17.459  1.2292 -0.6295  1.8780
 1482SOL    HW216083   4.184   0.186  17.497  1.8578 -0.8609 -0.5478
 1483SOL     OW16084   1.244   1.989   7.135  0.1895 -0.1409  0.6444
 1483SOL    HW116085   1.150   1.997   7.150  0.2514 -0.3336  1.1559
 1483SOL    HW216086   1.278   2.078   7.133  2.3774 -1.0539 -2.0775
 1484SOL     OW16087   1.090   3.534   2.421 -0.2778  0.1719  0.0334
 1484SOL    HW116088   1.100   3.625   2.394 -1.6255  0.1764 -0.4154
 1484SOL    HW216089   1.179   3.499   2.418 -0.2951  0.2343 -1.0982
 1485SOL     OW16090   4.484   3.246   3.530 -0.3141  0.2353  0.3829
 1485SOL    HW116091   4.576   3.265   3.516 -0.2157  0.1811  0.9566
 1485SOL    HW216092   4.452   3.259   3.441  1.4277  0.6099 -0.1675
 1486SOL     OW16093   2.736   1.727   2.506  0.5333 -0.0265  0.0593
 1486SOL    HW116094   2.724   1.821   2.512 -0.4983 -0.0122 -2.4712
 1486SOL    HW216095   2.820   1.720   2.461 -0.7149 -1.6493 -2.0146
 1487SOL     OW16096   2.524   2.921   9.147 -0.0772 -0.4789 -0.4854
 1487SOL    HW116097   2.548   2.877   9.065 -0.0374 -1.0843 -0.1481
 1487SOL    HW216098   2.604   2.966   9.176 -1.0415  0.5423  0.5475
 1488SOL     OW16099   2.345   1.466   2.446 -0.1439 -0.2115 -0.0484
 1488SOL    HW116100   2.408   1.484   2.375  0.1520 -0.9188  0.0335
 1488SOL    HW216101   2.402   1.493   2.518  0.9299 -2.7857  0.0789
 1489SOL     OW16102   0.448   3.242   6.050 -0.1620 -0.0119  0.8731
 1489SOL    HW116103   0.534   3.202   6.034 -2.7512 -3.9586 -3.1281
 1489SOL    HW216104   0.470   3.324   6.006 -1.1410 -0.1658  0.0842
 1490SOL     OW16105   2.983   2.299   3.093  0.1663  0.2832 -0.0580
 1490SOL    HW116106   3.043   2.315   3.020 -0.2625 -0.1043 -0.4985
 1490SOL    HW216107   3.046   2.289   3.164  0.3954  1.8883 -0.0308
 1491SOL     OW16108   3.661   4.706   9.613  0.6017 -0.6016 -0.2151
 1491SOL    HW116109   3.616   4.634   9.658 -1.1612 -0.2257 -1.3749
 1491SOL    HW216110   3.746   4.695   9.657  0.0144 -1.2077  0.7659
 1492SOL     OW16111   2.789   2.274   5.585  0.1132  0.0343 -0.1873
 1492SOL    HW116112   2.746   2.264   5.671 -1.8347 -1.0949 -1.2834
 1492SOL    HW216113   2.715   2.307   5.534  0.8795 -0.5767 -1.6746
 1493SOL     OW16114   4.359   0.113   3.506 -0.2894 -0.1346 -0.5125
 1493SOL    HW116115   4.429   0.127   3.442 -3.6830  0.7806 -4.0442
 1493SOL    HW216116   4.363   0.189   3.564 -2.8613 -0.7448  0.4723
 1494SOL     OW16117   0.543   1.838   1.047  0.6087  0.2090 -0.1402
 1494SOL    HW116118   0.626   1.793   1.064  1.1696  1.0366 -0.6973
 1494SOL    HW216119   0.543   1.841   0.951 -4.0299 -1.1526 -0.1835
 1495SOL     OW16120   4.229   4.350   4.365 -0.3386  0.4077  0.2263
 1495SOL    HW116121   4.286   4.291   4.413 -1.2216 -0.5364  0.1221
 1495SOL    HW216122   4.287   4.425   4.355  0.5733 -0.2784  0.4126
 1496SOL     OW16123   2.205   4.010   1.964 -0.6699  0.4111 -0.1860
 1496SOL    HW116124   2.227   3.975   2.050 -0.5709 -0.4771 -0.5689
 1496SOL    HW216125   2.205   4.104   1.977  3.1002  0.2319  1.1520
 1497SOL     OW16126   2.686   0.500  17.718  0.8575 -0.1474 -0.3187
 1497SOL    HW116127   2.608   0.555  17.713  0.4407 -0.6721  0.4158
 1497SOL    HW216128   2.727   0.535   0.028 -1.6491 -1.0067  1.3526
 1498SOL     OW16129   3.921   3.944  14.808 -0.5075 -0.4529  0.2230
 1498SOL    HW116130   3.838   3.943  14.855 -1.0839  0.5915 -0.7691
 1498SOL    HW216131   3.968   4.017  14.848  0.8084 -1.0333 -0.2734
 1499SOL     OW16132   4.633   2.878  12.961  0.0008  0.5300  0.1376
 1499SOL    HW116133   4.642   2.963  13.005 -1.5431  0.3583  0.7788
 1499SOL    HW216134   4.630   2.821  13.038 -2.2797 -1.1419 -1.2228
 1500SOL     OW16135   3.764   3.547   5.005 -0.0875 -0.3516  0.5572
 1500SOL    HW116136   3.696   3.603   5.043 -0.3615  0.4847 -1.1334
 1500SOL    HW216137   3.784   3.588   4.921 -0.2231 -1.9217 -0.2321
 1501SOL     OW16138   3.406   1.347   5.849  0.1027  0.1909 -0.2832
 1501SOL    HW116139   3.482   1.291   5.834 -0.8289 -1.1586  0.0511
 1501SOL    HW216140   3.417   1.355   5.944  0.6583 -0.8173 -0.2611
 1502SOL     OW16141   3.697   0.441  11.642  0.2710  0.0560 -0.5771
 1502SOL    HW116142   3.677   0.535  11.640  1.4380  0.3574  1.3755
 1502SOL    HW216143   3.788   0.442  11.613 -0.2047 -0.2188 -2.0339
 1503SOL     OW16144   4.440   4.266   4.491 -0.4026 -0.0285 -0.7297
 1503SOL    HW116145   4.515   4.269   4.431 -0.1904  0.2076 -0.4562
 1503SOL    HW216146   4.466   4.327   4.560 -0.0817 -0.0363 -0.8400
 1504SOL     OW16147   1.187   1.578   5.208 -0.3961  0.3305  0.5292
 1504SOL    HW116148   1.161   1.547   5.121  1.1869 -0.1306  0.2068
 1504SOL    HW216149   1.098   1.598   5.235 -0.2292  0.7263  0.7885
 1505SOL     OW16150   0.603   0.164   2.823  0.2569 -0.3614  0.2515
 1505SOL    HW116151   0.608   0.182   2.917  0.5259 -0.5693  0.2749
 1505SOL    HW216152   0.667   0.093   2.815 -2.0998 -2.2782 -1.6231
 1506SOL     OW16153   3.350   4.620   5.649  0.3477 -0.8039 -0.1277
 1506SOL    HW116154   3.283   4.655   5.590 -1.5372 -3.6214  0.3316
 1506SOL    HW216155   3.292   4.594   5.721 -0.8280 -0.6789 -1.0272
 1507SOL     OW16156   1.394   2.854  12.503 -0.0668 -0.1784 -0.4130
 1507SOL    HW116157   1.436   2.864  12.417 -0.1422  2.0751 -0.1940
 1507SOL    HW216158   1.459   2.799  12.547  0.7606  1.5219  0.4585
 1508SOL     OW16159   4.733   1.511   8.997  0.0081 -0.5055  1.0072
 1508SOL    HW116160   4.687   1.433   8.969 -0.2097 -0.5930  1.6016
 1508SOL    HW216161   0.076   1.473   9.013 -0.2805 -1.7608 -0.5090
 1509SOL     OW16162   0.643   1.445  11.964 -0.0230 -0.4487 -0.0277
 1509SOL    HW116163   0.597   1.421  11.884  2.3149  0.4751 -1.6429
 1509SOL    HW216164   0.731   1.433  11.930  0.3330  0.8589  0.4088
 1510SOL     OW16165   3.506   1.036   1.824  1.0851 -0.0594  0.5188
 1510SOL    HW116166   3.515   0.962   1.883 -0.7375 -1.0625 -0.4500
 1510SOL    HW216167   3.599   1.046   1.803  1.0180 -0.5409  0.0075
 1511SOL     OW16168   3.468   2.221  11.220  0.5595  0.4668 -0.0374
 1511SOL    HW116169   3.448   2.306  11.180 -1.2299 -0.0312 -0.2086
 1511SOL    HW216170   3.436   2.160  11.154 -1.3180  0.7490  0.6190
 1512SOL     OW16171   0.333   1.151  12.948 -0.4524 -0.0327 -0.1826
 1512SOL    HW116172   0.288   1.210  12.887  0.6684  0.5766 -0.4207
 1512SOL    HW216173   0.423   1.182  12.939 -0.2745 -0.1480  1.1935
 1513SOL     OW16174   0.018   2.789   9.617 -0.1341 -0.1600 -0.1304
 1513SOL    HW116175   4.685   2.841   9.645 -0.1372  1.2002 -2.6724
 1513SOL    HW216176   0.071   2.774   9.695 -1.8441  1.9168  1.4386
 1514SOL     OW16177   0.307   3.211   5.034  0.0657 -0.3447  0.0822
 1514SOL    HW116178   0.286   3.299   5.065  2.4013  0.1756  0.2236
 1514SOL    HW216179   0.319   3.235   4.942  2.0693 -1.2646  0.0996
 1515SOL     OW16180   4.556   2.818  15.152  0.2116 -0.1852 -0.1452
 1515SOL    HW116181   4.528   2.794  15.064  1.2852 -0.8536 -0.2956
 1515SOL    HW216182   4.598   2.904  15.147  0.7146 -0.3943  0.6128
 1516SOL     OW16183   4.656   0.561  11.411 -0.1691  0.1585  0.2600
 1516SOL    HW116184   4.600   0.620  11.462  0.2865  0.6144  0.2372
 1516SOL    HW216185   4.585   0.497  11.404 -1.1093  1.1960  0.2218
 1517SOL     OW16186   1.891   4.196   3.462 -0.2597  0.0738  0.3360
 1517SOL    HW116187   1.837   4.240   3.396 -1.4609 -0.2727  1.0800
 1517SOL    HW216188   1.910   4.109   3.428  2.0224  0.8823 -0.4481
 1518SOL     OW16189   2.845   0.129   7.496 -0.1055 -0.2337  0.0429
 1518SOL    HW116190   2.759   0.145   7.458  0.1736 -0.3004 -0.6013
 1518SOL    HW216191   2.830   0.037   7.518  1.1181 -0.3190  0.5019
 1519SOL     OW16192   4.464   4.062   9.158  0.3082  0.3562 -0.8485
 1519SOL    HW116193   4.370   4.056   9.143 -0.0732  1.9352  0.9287
 1519SOL    HW216194   4.466   4.064   9.254 -1.6684 -0.7524 -0.7829
 1520SOL     OW16195   0.566   2.842   9.564 -0.7392 -0.2402  0.2886
 1520SOL    HW116196   0.624   2.806   9.497 -1.6463 -1.4930  0.1691
 1520SOL    HW216197   0.633   2.897   9.605  0.7868 -2.2724  0.5350
 1521SOL     OW16198   4.487   2.444   4.329  0.2005  0.0687  0.2040
 1521SOL    HW116199   4.430   2.398   4.391  1.2392 -2.8616 -1.0318
 1521SOL    HW216200   4.477   2.378   4.260 -0.1636  1.1639 -0.8071
 1522SOL     OW16201   1.864   1.834   3.411 -0.0157 -0.3883  0.6228
 1522SOL    HW116202   1.912   1.784   3.345  1.0290 -2.4086  2.9124
 1522SOL    HW216203   1.836   1.763   3.468 -0.8294 -0.9886 -0.5238
 1523SOL     OW16204   4.201   2.582   3.098 -0.2497  0.5166  0.2105
 1523SOL    HW116205   4.256   2.594   3.021 -0.2868 -0.2604  0.0670
 1523SOL    HW216206   4.221   2.492   3.123 -3.4009  0.5496  2.7890
 1524SOL     OW16207   2.549   0.554  16.011 -0.1788 -0.5991 -0.3842
 1524SOL    HW116208   2.603   0.484  16.047 -0.9246  0.0965  2.1377
 1524SOL    HW216209   2.576   0.555  15.920  0.7558 -0.0663 -0.0963
 1525SOL     OW16210   0.298   3.758   1.943  0.2352 -0.5310 -0.0236
 1525SOL    HW116211   0.244   3.819   1.892  2.8370  2.0150  0.2704
 1525SOL    HW216212   0.302   3.811   2.023  1.4327  0.3013 -0.6296
 1526SOL     OW16213   4.387   0.862  17.438 -0.4832  0.0485  0.3012
 1526SOL    HW116214   4.465   0.825  17.480 -1.6498 -0.4571  2.0349
 1526SOL    HW216215   4.425   0.901  17.360 -0.2071  1.8046  1.3045
 1527SOL     OW16216   0.164   3.507  16.897  0.4913 -0.7596 -0.1392
 1527SOL    HW116217   0.243   3.533  16.849  0.0561  1.2566  0.2483
 1527SOL    HW216218   0.207   3.488  16.981 -0.3271  1.4946  0.7697
 1528SOL     OW16219   0.604   0.739   6.203 -0.3471 -0.9075 -0.0806
 1528SOL    HW116220   0.620   0.793   6.126  0.1071 -0.6552  0.1922
 1528SOL    HW216221   0.695   0.719   6.222 -0.1243 -0.6938 -0.9424
 1529SOL     OW16222   3.420   1.874   4.495 -0.2007 -0.1164 -0.0464
 1529SOL    HW116223   3.399   1.957   4.537 -0.1312 -1.0367  1.7838
 1529SOL    HW216224   3.372   1.820   4.556  0.0227 -0.8290 -0.5016
 1530SOL     OW16225   2.706   1.016   3.382  0.6384  0.2765 -0.1471
 1530SOL    HW116226   2.735   0.990   3.295  0.5471 -0.4963  0.0590
 1530SOL    HW216227   2.624   0.971   3.398  0.1749  1.9351  2.1932
 1531SOL     OW16228   1.724   3.899   2.207  0.5730  0.0204  0.1586
 1531SOL    HW116229   1.725   3.978   2.154 -0.7253 -1.8490 -2.6493
 1531SOL    HW216230   1.698   3.927   2.295  0.5174  2.0031 -0.4846
 1532SOL     OW16231   0.780   2.442   7.233 -0.5783  0.3244  0.0735
 1532SOL    HW116232   0.728   2.519   7.255 -2.7564 -0.9950 -0.4183
 1532SOL    HW216233   0.854   2.493   7.200  0.1963  0.0327  1.3452
 1533SOL     OW16234   0.167   2.532  13.538 -0.6048 -0.7388 -0.7428
 1533SOL    HW116235   0.074   2.544  13.520  0.0360  2.0179 -2.3256
 1533SOL    HW216236   0.174   2.588  13.616 -2.3713 -1.2216 -0.2273
 1534SOL     OW16237   1.231   4.587   3.456 -0.2429  0.1835  0.1359
 1534SOL    HW116238   1.150   4.638   3.462  1.3448  2.5152  1.5195
 1534SOL    HW216239   1.245   4.580   3.551  2.0355  0.9479 -0.1503
 1535SOL     OW16240   0.124   4.404   0.511 -0.2497  0.1688  0.3336
 1535SOL    HW116241   0.163   4.452   0.584  2.3396 -1.8020  0.2531
 1535SOL    HW216242   0.167   4.451   0.439  0.5950  0.5667  1.1011
 1536SOL     OW16243   3.220   1.257   8.224 -0.0497  0.2770  0.4028
 1536SOL    HW116244   3.203   1.302   8.307 -0.9590 -2.0542  1.4889
 1536SOL    HW216245   3.147   1.281   8.166 -0.3636 -0.4396  0.5020
 1537SOL     OW16246   2.589   0.772   2.437  0.7863  0.0431 -0.3869
 1537SOL    HW116247   2.660   0.728   2.485 -0.0892  0.2904  1.1427
 1537SOL    HW216248   2.527   0.800   2.504  1.1206  0.5268 -0.2756
 1538SOL     OW16249   1.806   0.945   7.523 -0.3130 -0.3637  0.1592
 1538SOL    HW116250   1.886   0.940   7.575 -0.8109 -0.5124  0.9083
 1538SOL    HW216251   1.794   0.850   7.517 -0.5029 -0.2526 -1.3304
 1539SOL     OW16252   3.656   4.252   0.786  0.7249 -0.8649  0.7811
 1539SOL    HW116253   3.700   4.310   0.724  2.1333 -0.0026  2.5857
 1539SOL    HW216254   3.624   4.323   0.842  0.5723  0.5398 -1.1176
 1540SOL     OW16255   1.706   3.394   8.043 -0.1279  0.1713 -0.0970
 1540SOL    HW116256   1.678   3.385   7.952  0.9052  0.7092 -0.4592
 1540SOL    HW216257   1.645   3.328   8.078 -0.7263  1.6381  1.6362
 1541SOL     OW16258   4.564   0.954   3.530  0.3056  0.2884 -0.4358
 1541SOL    HW116259   4.487   0.970   3.475  0.0483  4.3793  1.0921
 1541SOL    HW216260   4.586   0.863   3.511  1.4310  0.6706 -0.9664
 1542SOL     OW16261   0.757   2.740  11.577  0.2040  0.1935 -0.0125
 1542SOL    HW116262   0.734   2.745  11.670  1.0277 -0.2869  0.2132
 1542SOL    HW216263   0.750   2.833  11.557 -2.4999 -0.3973 -1.7873
 1543SOL     OW16264   0.345   2.389   5.174  0.5179 -0.0912  0.0910
 1543SOL    HW116265   0.331   2.477   5.139  0.4186  0.5160  1.6465
 1543SOL    HW216266   0.352   2.418   5.265  4.2586  2.0506 -0.8458
 1544SOL     OW16267   1.646   3.748  11.324 -0.1041  0.0357 -0.2746
 1544SOL    HW116268   1.738   3.737  11.350 -0.5617  0.8897  1.6408
 1544SOL    HW216269   1.641   3.841  11.347 -0.2930  0.2884 -1.3115
 1545SOL     OW16270   3.691   0.228   4.228  0.4208  1.1680 -0.4358
 1545SOL    HW116271   3.756   0.211   4.160 -0.7879 -0.2214 -1.2412
 1545SOL    HW216272   3.717   0.161   4.290  0.9565  2.0426  0.2794
 1546SOL     OW16273   4.462   0.343   5.558  0.1485  0.4800  0.4946
 1546SOL    HW116274   4.371   0.367   5.573 -0.4509 -1.7784  0.4289
 1546SOL    HW216275   4.482   0.297   5.639  2.9670 -1.3962 -1.2537
 1547SOL     OW16276   4.628   3.970  15.133  0.0219  0.1174  0.0883
 1547SOL    HW116277   4.697   4.036  15.121 -0.0760  0.4276  1.2994
 1547SOL    HW216278   4.677   3.889  15.118  1.4175  1.1173 -0.6892
 1548SOL     OW16279   2.130   0.633   1.372  0.1165 -0.2258 -0.0649
 1548SOL    HW116280   2.211   0.582   1.361  0.9505  1.4458 -1.7016
 1548SOL    HW216281   2.157   0.717   1.335  4.3248 -0.2111  3.0898
 1549SOL     OW16282   3.926   3.496  14.163  0.0022 -0.0879  0.0290
 1549SOL    HW116283   3.908   3.579  14.206 -0.5123  0.5116 -1.3342
 1549SOL    HW216284   3.835   3.464  14.162 -0.6414  1.7708 -0.4032
 1550SOL     OW16285   4.163   3.769   6.112 -0.1589  0.5085 -0.2325
 1550SOL    HW116286   4.124   3.856   6.101  0.4619  0.5814 -1.8623
 1550SOL    HW216287   4.085   3.726   6.147 -1.2399  1.5690 -1.3232
 1551SOL     OW16288   3.913   0.204   8.563 -0.5317  0.0711 -0.2610
 1551SOL    HW116289   3.974   0.194   8.489  2.2572  0.7948  1.9270
 1551SOL    HW216290   3.910   0.116   8.601  0.7778  1.6546  3.5336
 1552SOL     OW16291   0.822   1.760   8.351  0.1854  0.5613 -0.1362
 1552SOL    HW116292   0.765   1.836   8.344  0.1740  0.3129 -2.7653
 1552SOL    HW216293   0.800   1.702   8.279  0.9886 -0.8591  0.7578
 1553SOL     OW16294   0.544   1.225   8.532  0.0484 -0.2244  0.9716
 1553SOL    HW116295   0.482   1.153   8.543 -0.2259 -0.2160 -0.4841
 1553SOL    HW216296   0.621   1.186   8.574 -1.4958 -2.4777  1.7432
 1554SOL     OW16297   0.894   0.266   4.388  0.2004  0.1861  0.7033
 1554SOL    HW116298   0.944   0.348   4.388  0.6020 -0.0619 -1.4005
 1554SOL    HW216299   0.802   0.285   4.372  0.5509  1.1319 -0.2034
 1555SOL     OW16300   4.091   0.805  15.504  0.7192 -0.1581 -0.6188
 1555SOL    HW116301   4.055   0.741  15.442  0.6167 -0.1635 -0.5531
 1555SOL    HW216302   4.018   0.867  15.504  1.3753  0.6168 -1.1315
 1556SOL     OW16303   0.377   0.749   1.794  0.4173 -0.8275  0.8190
 1556SOL    HW116304   0.471   0.741   1.804  0.8145  2.9223  0.1259
 1556SOL    HW216305   0.356   0.828   1.845  1.9945  0.1835 -0.1070
 1557SOL     OW16306   3.976   2.358   3.058  0.5536 -0.0234  0.5452
 1557SOL    HW116307   3.957   2.451   3.047  2.3932  0.2159 -0.7829
 1557SOL    HW216308   3.972   2.342   3.152  1.0672 -2.6298  0.1379
 1558SOL     OW16309   1.529   4.341   6.513  0.0134  0.1616  0.0511
 1558SOL    HW116310   1.447   4.364   6.468 -0.2605 -2.1432 -0.6118
 1558SOL    HW216311   1.580   4.281   6.459  2.1337  1.3324  0.7543
 1559SOL     OW16312   2.355   1.981   4.350 -0.4844  0.6291  0.0865
 1559SOL    HW116313   2.291   1.978   4.420 -1.2310  1.5627 -0.5562
 1559SOL    HW216314   2.424   1.940   4.402  0.0882 -1.5995 -2.3920
 1560SOL     OW16315   0.047   4.632   8.134  0.1320 -0.3837  0.2662
 1560SOL    HW116316   4.742   4.607   8.213  1.2729  0.1532  1.1275
 1560SOL    HW216317   0.072   4.715   8.176 -0.5863 -0.7191  1.3704
 1561SOL     OW16318   3.165   1.194   3.067  0.2380 -0.3675  0.5701
 1561SOL    HW116319   3.116   1.137   3.126 -1.1046  0.4761  0.2834
 1561SOL    HW216320   3.145   1.172   2.976  1.2341 -0.0112  0.2585
 1562SOL     OW16321   2.882   4.322   9.528  0.3965  0.1856 -0.4061
 1562SOL    HW116322   2.907   4.232   9.509  1.0143  0.4051 -0.6253
 1562SOL    HW216323   2.880   4.353   9.438  0.2678  2.0862  0.2537
 1563SOL     OW16324   3.855   4.646  17.640  0.0304 -0.2826 -0.7191
 1563SOL    HW116325   3.803   4.568  17.621 -0.3697 -0.2319  0.1922
 1563SOL    HW216326   3.889   4.621  17.726  1.7434  2.5915 -0.5885
 1564SOL     OW16327   2.036   0.944  15.664 -0.8243  0.4529 -0.3866
 1564SOL    HW116328   2.053   1.035  15.640 -0.9208  0.3642 -0.7932
 1564SOL    HW216329   1.954   0.919  15.620  0.3357 -0.5460 -2.0021
 1565SOL     OW16330   1.660   0.127   9.365 -0.3297  1.0429 -0.3249
 1565SOL    HW116331   1.691   0.153   9.278 -2.0006 -0.0337 -1.2556
 1565SOL    HW216332   1.617   0.211   9.381 -2.2919 -0.2106  0.9706
 1566SOL     OW16333   4.643   2.189   2.026  0.2983 -0.0686 -0.3461
 1566SOL    HW116334   4.661   2.114   1.970  1.7340  0.2575 -0.3230
 1566SOL    HW216335   4.697   2.165   2.101  0.6024 -0.3663 -0.6646
 1567SOL     OW16336   0.222   1.850   1.746 -0.1124  0.4657  0.2847
 1567SOL    HW116337   0.306   1.828   1.785 -0.3277  0.4394  0.7355
 1567SOL    HW216338   0.233   1.793   1.670  0.9218 -0.1185  0.8807
 1568SOL     OW16339   1.028   2.732  14.264 -0.0303  0.0080 -0.6811
 1568SOL    HW116340   0.954   2.719  14.323  1.2316  0.1674  0.9331
 1568SOL    HW216341   0.997   2.789  14.193 -3.8465 -0.5102  0.5879
 1569SOL     OW16342   0.631   3.283  12.517 -0.3916  0.0502  0.1075
 1569SOL    HW116343   0.562   3.319  12.573  0.7066 -1.7698  2.6307
 1569SOL    HW216344   0.648   3.361  12.465  1.7224  0.9163  2.0778
 1570SOL     OW16345   4.014   0.509  13.001  0.1304 -0.5765 -0.1406
 1570SOL    HW116346   3.948   0.536  12.937 -1.5544 -0.3209  1.7012
 1570SOL    HW216347   3.979   0.560  13.074  2.1000 -1.7136  1.5797
 1571SOL     OW16348   3.774   2.239   6.598  0.0097 -0.3196  0.3513
 1571SOL    HW116349   3.767   2.266   6.507  0.4378  3.4705  1.4550
 1571SOL    HW216350   3.801   2.318   6.644 -0.9228  0.2554 -0.0965
 1572SOL     OW16351   0.477   3.586   7.472  0.5548  0.3323 -0.0593
 1572SOL    HW116352   0.549   3.644   7.496 -1.6462  2.7074  0.7763
 1572SOL    HW216353   0.427   3.577   7.553 -3.4213  0.7414 -2.4195
 1573SOL     OW16354   0.786   3.497  10.023 -0.0085 -0.3921  0.4843
 1573SOL    HW116355   0.800   3.583  10.063  0.0201  0.3283 -1.0701
 1573SOL    HW216356   0.841   3.433  10.068  0.9374  0.4449  0.5354
 1574SOL     OW16357   3.143   1.581   7.209  0.0259  0.1171 -0.7031
 1574SOL    HW116358   3.238   1.589   7.217  0.0475  0.6289 -1.4303
 1574SOL    HW216359   3.126   1.588   7.114  1.5037  0.4252 -0.9421
 1575SOL     OW16360   2.253   3.557   6.569  0.2522  0.1408  0.2826
 1575SOL    HW116361   2.219   3.473   6.600  1.6021 -1.2087 -1.8342
 1575SOL    HW216362   2.306   3.525   6.496 -1.3585  0.9447 -1.2261
 1576SOL     OW16363   0.023   1.650   9.284 -0.4867 -0.2303  0.3201
 1576SOL    HW116364   0.094   1.643   9.349 -0.3312  0.1776  0.1948
 1576SOL    HW216365   0.018   1.563   9.245  0.2997 -0.3480  0.4785
 1577SOL     OW16366   1.261   2.248   9.283 -0.1099  0.3193  0.8695
 1577SOL    HW116367   1.300   2.174   9.237  0.1221  1.6007 -1.0156
 1577SOL    HW216368   1.334   2.306   9.305 -1.3101  0.9940  3.1398
 1578SOL     OW16369   0.832   0.947   9.420  0.1095 -0.2544  1.2916
 1578SOL    HW116370   0.873   0.980   9.340  1.5179 -1.7406  1.3971
 1578SOL    HW216371   0.822   0.854   9.399  0.5976 -0.1915  0.7691
 1579SOL     OW16372   0.171   3.560   7.919  0.5589  0.1488 -0.5344
 1579SOL    HW116373   0.173   3.599   8.007 -0.6952  0.5396 -0.6734
 1579SOL    HW216374   0.077   3.575   7.908  0.6421  0.6615 -0.5564
 1580SOL     OW16375   0.621   0.598   4.011 -0.1561 -0.8042 -0.3774
 1580SOL    HW116376   0.604   0.595   4.105  2.2708  2.0404  0.1629
 1580SOL    HW216377   0.686   0.667   3.999  0.3476 -1.4668 -1.4468
 1581SOL     OW16378   2.219   0.972   5.451 -0.2431  0.6112  0.0412
 1581SOL    HW116379   2.311   0.995   5.444  1.1573 -4.8516  0.1827
 1581SOL    HW216380   2.220   0.882   5.419  2.3577  0.8080 -0.4426
 1582SOL     OW16381   3.438   0.507   5.158 -0.4958 -0.1204  0.4841
 1582SOL    HW116382   3.355   0.459   5.154 -0.2229 -0.6277  0.9010
 1582SOL    HW216383   3.420   0.581   5.217 -0.0742  0.2560  0.1374
 1583SOL     OW16384   3.818   0.413   3.767  0.0768 -0.0343  0.5347
 1583SOL    HW116385   3.782   0.355   3.699  0.5700  0.5891 -0.2553
 1583SOL    HW216386   3.894   0.369   3.804  0.2030 -0.6526 -0.4480
 1584SOL     OW16387   2.861   0.146   4.110 -0.4737  0.2405  0.0447
 1584SOL    HW116388   2.854   0.111   4.199  0.6479 -0.5508 -0.1772
 1584SOL    HW216389   2.952   0.174   4.114 -0.6890  1.4724 -3.8776
 1585SOL     OW16390   1.936   1.329   1.134  0.1155 -0.1792 -0.1613
 1585SOL    HW116391   1.924   1.312   1.040  1.7851  0.0361 -0.4147
 1585SOL    HW216392   1.886   1.252   1.162  1.1951 -1.0638 -0.6429
 1586SOL     OW16393   2.604   4.603   3.469 -0.1031 -0.0771 -0.2193
 1586SOL    HW116394   2.685   4.642   3.502  0.0244 -1.4034  1.0373
 1586SOL    HW216395   2.562   4.680   3.429  0.7546  0.6337  0.2571
 1587SOL     OW16396   3.297   3.319   7.464 -0.2642 -0.5485  0.2891
 1587SOL    HW116397   3.221   3.372   7.487 -2.6915 -3.2990 -1.4333
 1587SOL    HW216398   3.363   3.389   7.467 -2.6626  1.6689  1.6432
 1588SOL     OW16399   4.603   3.055   2.766  0.2496 -0.1920 -0.4000
 1588SOL    HW116400   4.631   3.000   2.839 -0.0128  0.9983  0.5927
 1588SOL    HW216401   4.641   3.012   2.689 -1.7388 -2.0141 -0.3568
 1589SOL     OW16402   3.791   1.970  11.216  0.1442  0.0185 -0.3452
 1589SOL    HW116403   3.767   1.887  11.258 -3.5670  1.7595  1.0102
 1589SOL    HW216404   3.700   2.000  11.205  0.0709 -1.0794 -2.9836
 1590SOL     OW16405   0.036   2.304   3.209 -0.1401 -0.6858 -0.1676
 1590SOL    HW116406   0.006   2.225   3.164 -1.7105  0.0540 -0.4303
 1590SOL    HW216407   4.694   2.347   3.195  0.6000  1.4552  1.8748
 1591SOL     OW16408   3.381   0.744   7.486 -0.2904  0.2093  0.0418
 1591SOL    HW116409   3.366   0.836   7.507 -0.4261 -0.2547  1.9778
 1591SOL    HW216410   3.364   0.730   7.393  2.0569  1.1274 -0.5140
 1592SOL     OW16411   2.572   1.234   2.531  0.0215 -0.4214 -0.9084
 1592SOL    HW116412   2.579   1.325   2.560 -2.1329  0.0541 -1.8860
 1592SOL    HW216413   2.590   1.245   2.438  2.3889  0.6553 -0.3064
 1593SOL     OW16414   4.637   2.043  11.236 -0.1427  0.4705 -0.2630
 1593SOL    HW116415   4.640   1.950  11.260  0.9610  0.0158 -2.1117
 1593SOL    HW216416   4.567   2.066  11.297  0.5098  0.8408  0.3491
 1594SOL     OW16417   4.076   0.564   7.198  0.0612  0.1092 -0.8656
 1594SOL    HW116418   4.137   0.517   7.142 -0.3243 -1.5627  0.0918
 1594SOL    HW216419   4.055   0.492   7.258  3.3105 -1.1053 -1.2031
 1595SOL     OW16420   3.749   2.807   8.121 -0.3847  0.0664 -0.5959
 1595SOL    HW116421   3.799   2.788   8.200 -0.3827  0.9513 -0.3805
 1595SOL    HW216422   3.708   2.885   8.159  1.3525  0.4337  0.5384
 1596SOL     OW16423   1.520   0.882   9.373  0.2971  0.4325  0.3248
 1596SOL    HW116424   1.499   0.883   9.467 -2.3961 -0.4331 -0.2601
 1596SOL    HW216425   1.478   0.963   9.343 -0.2150 -0.9618 -2.7092
 1597SOL     OW16426   2.633   4.582   6.982  0.1050  0.4639 -0.1686
 1597SOL    HW116427   2.711   4.564   6.929  0.4205 -1.9989  1.0897
 1597SOL    HW216428   2.579   4.503   6.969 -0.6222  0.8563  0.4433
 1598SOL     OW16429   0.385   2.638  16.545  0.0817  0.1464  0.6602
 1598SOL    HW116430   0.296   2.613  16.522 -0.3281 -0.4901  2.9265
 1598SOL    HW216431   0.371   2.693  16.622 -1.3735  1.0017 -0.2165
 1599SOL     OW16432   1.945   2.672   6.962  0.3329 -0.0518 -0.0026
 1599SOL    HW116433   1.977   2.583   6.978  1.3927  0.0184 -1.8334
 1599SOL    HW216434   1.873   2.657   7.024  1.0733  0.6398  1.0246
 1600SOL     OW16435   4.277   1.839   4.427 -0.0078 -0.0428 -0.0698
 1600SOL    HW116436   4.211   1.863   4.362  1.0726  0.2347 -1.0629
 1600SOL    HW216437   4.298   1.755   4.386 -0.2699 -0.9139  1.5664
 1601SOL     OW16438   0.498   4.667   6.888 -0.2653  0.1003 -0.0037
 1601SOL    HW116439   0.554   4.670   6.811  0.1831  1.2500  0.3659
 1601SOL    HW216440   0.541   4.598   6.938  0.3364  0.3264 -0.2031
 1602SOL     OW16441   3.539   3.335   5.382 -0.6763 -0.7262 -0.0219
 1602SOL    HW116442   3.516   3.252   5.423 -0.5403  0.4382  2.3917
 1602SOL    HW216443   3.626   3.328   5.341 -0.7404  0.9584 -0.4811
 1603SOL     OW16444   0.385   0.340   4.246 -0.4509  0.2681  0.4637
 1603SOL    HW116445   0.357   0.319   4.335 -1.0414 -1.3288 -0.1175
 1603SOL    HW216446   0.350   0.429   4.238  0.8008  0.5575 -1.9219
 1604SOL     OW16447   4.516   1.645   9.077  0.1543  0.0438  0.4027
 1604SOL    HW116448   4.609   1.625   9.066 -0.3228 -1.5149 -0.7952
 1604SOL    HW216449   4.472   1.580   9.021  0.1241  0.8168 -0.4671
 1605SOL     OW16450   3.437   1.796   6.351  0.4051  0.0006  0.2049
 1605SOL    HW116451   3.521   1.762   6.382 -1.4874 -3.2368  1.8929
 1605SOL    HW216452   3.444   1.890   6.366  0.9703  0.0733 -0.5124
 1606SOL     OW16453   3.306   3.532  12.180  0.4503 -0.5413  0.1083
 1606SOL    HW116454   3.223   3.492  12.205 -0.1064 -0.2190 -1.1882
 1606SOL    HW216455   3.310   3.514  12.086 -2.8613  1.7145 -0.4594
 1607SOL     OW16456   3.668   3.513  11.078 -0.0288  0.4510  0.2546
 1607SOL    HW116457   3.630   3.563  11.006  0.2056 -1.7069 -1.3509
 1607SOL    HW216458   3.700   3.433  11.037  0.7595 -0.1348  2.0146
 1608SOL     OW16459   0.196   0.292   3.270  0.3830 -0.2485 -0.0844
 1608SOL    HW116460   0.287   0.314   3.289  0.2337  0.0189  0.3036
 1608SOL    HW216461   0.164   0.377   3.241  0.1336 -1.1186 -2.4200
 1609SOL     OW16462   2.768   0.246   9.588 -0.2925  0.1190  0.0455
 1609SOL    HW116463   2.722   0.286   9.663 -1.7218  0.4664 -1.0221
 1609SOL    HW216464   2.807   0.326   9.554 -3.8457  1.5319 -0.7389
 1610SOL     OW16465   0.480   1.478   5.285 -0.2061 -0.2346 -0.4007
 1610SOL    HW116466   0.409   1.439   5.336 -0.4887 -1.1111 -1.4579
 1610SOL    HW216467   0.440   1.556   5.247  0.4545 -0.1940 -1.0003
 1611SOL     OW16468   3.844   2.563   8.075 -0.0265  0.0445  0.5082
 1611SOL    HW116469   3.800   2.495   8.024  1.0230  0.3239 -0.7757
 1611SOL    HW216470   3.784   2.637   8.067 -0.5006 -0.1759  2.0538
 1612SOL     OW16471   1.987   3.289   2.208 -0.0842  0.5618 -0.4012
 1612SOL    HW116472   1.933   3.306   2.286  0.7700  0.6088  0.1742
 1612SOL    HW216473   2.066   3.334   2.238 -0.1317  0.1717  0.3200
 1613SOL     OW16474   1.546   1.716  11.705 -0.0727  0.1707 -0.0339
 1613SOL    HW116475   1.634   1.740  11.732  0.0879  0.1956 -0.5845
 1613SOL    HW216476   1.485   1.741  11.775  0.9604  3.6508 -0.3973
 1614SOL     OW16477   0.444   1.440   1.896 -0.2707 -0.2752  0.1044
 1614SOL    HW116478   0.499   1.454   1.973  1.7015  2.7014 -1.8412
 1614SOL    HW216479   0.445   1.345   1.886 -0.8684 -0.4438  1.6576
 1615SOL     OW16480   3.682   3.165   1.436  0.5285  0.2588  0.0711
 1615SOL    HW116481   3.591   3.178   1.461  0.8332 -1.0754  1.8622
 1615SOL    HW216482   3.701   3.254   1.405 -0.9280  0.8894  1.0378
 1616SOL     OW16483   0.201   3.836  16.931  0.3830 -0.1634 -0.4296
 1616SOL    HW116484   0.152   3.908  16.891 -1.7664 -0.4474  1.7308
 1616SOL    HW216485   0.290   3.873  16.928 -0.2883  1.5780  1.4477
 1617SOL     OW16486   0.702   4.645   0.683  1.0107 -0.0186  0.6660
 1617SOL    HW116487   0.745   4.713   0.735 -0.0476 -0.5694  2.2557
 1617SOL    HW216488   0.772   4.627   0.620  1.2167 -1.5302  1.3433
 1618SOL     OW16489   4.111   1.573   5.865 -0.5473  0.2285  0.8117
 1618SOL    HW116490   4.067   1.548   5.783  0.9971  0.1464  0.0140
 1618SOL    HW216491   4.198   1.544   5.840 -1.6708 -1.7932 -0.7316
 1619SOL     OW16492   3.945   2.419   5.555  0.1761  0.3906 -0.5064
 1619SOL    HW116493   3.898   2.383   5.480  0.7315  1.9440 -1.6028
 1619SOL    HW216494   3.956   2.338   5.605 -2.2421 -1.4076 -2.8851
 1620SOL     OW16495   3.030   0.882   2.859 -0.2201  0.3121  0.3438
 1620SOL    HW116496   3.064   0.830   2.931  1.3805 -1.7117 -1.8759
 1620SOL    HW216497   3.085   0.959   2.875 -4.1996  2.8945  1.8228
 1621SOL     OW16498   3.317   3.889  16.277 -0.1169  0.3900 -0.3035
 1621SOL    HW116499   3.261   3.857  16.207  1.9344 -0.3749 -1.5961
 1621SOL    HW216500   3.307   3.981  16.253  1.5024  1.4174  2.9023
 1622SOL     OW16501   2.758   3.696  17.639 -0.5521 -0.1298 -0.1112
 1622SOL    HW116502   2.827   3.761  17.627  1.7548 -2.4804  0.3704
 1622SOL    HW216503   2.790   3.609  17.615  0.1945  0.1023  0.0475
 1623SOL     OW16504   4.285   1.065   0.463 -0.2579  0.0751  0.2406
 1623SOL    HW116505   4.191   1.078   0.476 -0.2521  0.3961 -0.0456
 1623SOL    HW216506   4.313   1.155   0.450  1.4518 -0.3129  1.1511
 1624SOL     OW16507   1.262   3.769   2.265  0.1352  0.1832  0.1526
 1624SOL    HW116508   1.210   3.846   2.242  1.8746  1.1364 -0.5588
 1624SOL    HW216509   1.255   3.772   2.360  5.2368  1.8379  0.4531
 1625SOL     OW16510   3.412   4.424   1.173  0.1146  0.5625  0.6636
 1625SOL    HW116511   3.345   4.369   1.131 -1.0792  0.8145  2.2534
 1625SOL    HW216512   3.361   4.473   1.237 -1.0785  3.1801 -2.2420
 1626SOL     OW16513   2.550   4.035   6.184  0.1458 -0.0092 -0.1016
 1626SOL    HW116514   2.566   4.115   6.133 -0.5227 -0.4693 -1.0307
 1626SOL    HW216515   2.616   3.982   6.139  1.9394  1.6724  0.5332
 1627SOL     OW16516   0.344   3.558   8.701  0.2747  0.3444  0.0865
 1627SOL    HW116517   0.334   3.465   8.683  1.7678  0.1861  0.1263
 1627SOL    HW216518   0.301   3.572   8.785  0.3625 -0.4633  0.2637
 1628SOL     OW16519   1.078   0.408   7.393  0.6757 -0.2416 -0.3122
 1628SOL    HW116520   1.027   0.443   7.466  0.6576 -1.8033  0.4224
 1628SOL    HW216521   1.143   0.346   7.427  0.4073 -1.1218 -1.4269
 1629SOL     OW16522   2.407   4.350   1.805  0.1635 -0.4856  0.6906
 1629SOL    HW116523   2.440   4.287   1.868 -0.4685 -2.0084 -0.5099
 1629SOL    HW216524   2.386   4.297   1.728 -0.0795  1.1660 -0.3825
 1630SOL     OW16525   0.642   0.028   5.534 -0.8251 -0.2307  0.2683
 1630SOL    HW116526   0.710   0.069   5.588 -1.0314 -0.2219  0.5203
 1630SOL    HW216527   0.567   0.087   5.544 -2.0996 -2.1320  1.8094
 1631SOL     OW16528   3.038   0.668  17.733 -0.3080  0.4295 -0.5617
 1631SOL    HW116529   2.949   0.664  17.768  0.0189 -0.7786  0.1058
 1631SOL    HW216530   3.030   0.614  17.655  0.9201  0.7810 -0.9291
 1632SOL     OW16531   4.417   0.127   1.535 -0.5850 -0.2146  0.2142
 1632SOL    HW116532   4.497   0.169   1.566  1.1291 -1.4106 -2.5958
 1632SOL    HW216533   4.411   0.056   1.600  0.6062 -1.2125 -0.7633
 1633SOL     OW16534   2.584   0.257  17.611 -0.1234 -0.5531 -0.3564
 1633SOL    HW116535   2.648   0.231  17.678 -0.1842  0.4943  0.0978
 1633SOL    HW216536   2.621   0.339  17.579  2.4751 -2.0416 -1.1969
 1634SOL     OW16537   4.498   2.575   2.211 -0.2299 -0.6577  0.5460
 1634SOL    HW116538   4.544   2.509   2.262  0.1378 -0.9363 -0.1503
 1634SOL    HW216539   4.406   2.568   2.237 -0.3333 -1.6069 -0.0902
 1635SOL     OW16540   1.095   1.673  13.122 -0.5706 -0.0321 -0.0051
 1635SOL    HW116541   1.144   1.591  13.115 -0.9090 -0.1403 -1.0204
 1635SOL    HW216542   1.011   1.657  13.078 -0.4835 -0.6949  0.0639
 1636SOL     OW16543   2.658   4.330   5.021 -0.1880 -0.5094  0.3450
 1636SOL    HW116544   2.709   4.367   5.093 -1.7755 -2.4669  2.4698
 1636SOL    HW216545   2.622   4.410   4.982 -1.1617 -2.3288 -2.5267
 1637SOL     OW16546   2.713   1.722  12.440 -0.2202  0.2566 -0.2701
 1637SOL    HW116547   2.736   1.811  12.465  1.5551 -0.4513  0.6270
 1637SOL    HW216548   2.672   1.685  12.519  0.2658  1.5757  0.5997
 1638SOL     OW16549   1.303   3.541  12.658 -0.0691  0.4587  0.2706
 1638SOL    HW116550   1.331   3.465  12.709  0.2822 -0.3389 -1.1156
 1638SOL    HW216551   1.281   3.593  12.736 -1.0071 -0.4166  0.5965
 1639SOL     OW16552   2.689   0.144   2.294  0.3237 -0.2619 -0.3553
 1639SOL    HW116553   2.709   0.212   2.229 -0.1768 -0.0475 -0.2791
 1639SOL    HW216554   2.759   0.164   2.357 -1.5979 -0.0215  1.6900
 1640SOL     OW16555   4.265   3.307   4.598  0.1202  0.2390 -0.2096
 1640SOL    HW116556   4.244   3.397   4.576  1.8340  0.4718 -0.9006
 1640SOL    HW216557   4.175   3.274   4.602  0.4922 -0.9483 -1.4437
 1641SOL     OW16558   0.702   4.227  16.905  0.0345 -0.4273  0.0657
 1641SOL    HW116559   0.612   4.194  16.904 -0.5945  1.3350 -0.7948
 1641SOL    HW216560   0.709   4.319  16.880 -2.6813 -0.3489 -0.3841
 1642SOL     OW16561   0.509   2.416   9.759  0.2428 -0.2385  0.1521
 1642SOL    HW116562   0.478   2.397   9.848 -1.7604  2.5977  0.0708
 1642SOL    HW216563   0.591   2.368   9.754 -0.4263 -1.4833  1.2040
 1643SOL     OW16564   0.920   3.208  10.067 -0.0050  0.3324  0.1998
 1643SOL    HW116565   0.950   3.129  10.022 -0.1413  1.2008 -1.3970
 1643SOL    HW216566   0.907   3.177  10.157 -1.1877 -0.7938 -0.3640
 1644SOL     OW16567   3.058   3.134  13.758  0.0133 -0.0570  0.0537
 1644SOL    HW116568   3.131   3.114  13.698 -0.5333  0.0763 -0.6608
 1644SOL    HW216569   3.041   3.046  13.789  0.1207 -1.0347 -2.6061
 1645SOL     OW16570   1.159   4.254   2.200 -0.0036 -0.2782 -0.1758
 1645SOL    HW116571   1.103   4.317   2.155 -0.9765 -1.1745 -0.2183
 1645SOL    HW216572   1.147   4.274   2.293  2.1970 -1.2822  0.3206
 1646SOL     OW16573   0.550   0.067  14.382  0.6852 -0.0989 -0.0294
 1646SOL    HW116574   0.628   0.013  14.397  0.9127  0.6247  1.3109
 1646SOL    HW216575   0.552   0.084  14.288  1.9341 -0.5184 -0.0924
 1647SOL     OW16576   1.757   0.051  14.567 -0.1288 -1.1142 -0.1697
 1647SOL    HW116577   1.719   4.713  14.534 -2.4716 -0.2885  0.4400
 1647SOL    HW216578   1.762   0.041  14.662 -0.3891 -1.4281 -0.1884
 1648SOL     OW16579   2.644   0.906   4.833  0.9525 -0.3693  0.6702
 1648SOL    HW116580   2.625   0.821   4.792 -1.5110 -0.7599  2.5914
 1648SOL    HW216581   2.738   0.918   4.828  0.8710 -0.0274 -0.2072
 1649SOL     OW16582   3.535   3.347   0.280  0.2570 -0.0067 -0.4159
 1649SOL    HW116583   3.558   3.330   0.189 -0.0400  0.8941 -0.6617
 1649SOL    HW216584   3.466   3.283   0.295 -0.5176  0.7855 -0.5527
 1650SOL     OW16585   0.595   1.601   3.799 -0.3315  0.4906 -0.1167
 1650SOL    HW116586   0.610   1.688   3.762  0.4955  0.7433  0.8082
 1650SOL    HW216587   0.528   1.566   3.740  0.5414 -0.6612 -0.4157
 1651SOL     OW16588   2.975   0.538  14.053  0.2057  0.6515 -0.2527
 1651SOL    HW116589   2.912   0.468  14.033  0.8513 -0.0464  0.1569
 1651SOL    HW216590   3.042   0.529  13.985  0.6496  3.5355 -0.1703
 1652SOL     OW16591   0.317   2.886   2.311 -0.3660  0.1251  0.2297
 1652SOL    HW116592   0.268   2.965   2.336 -1.1401 -0.2422 -0.1095
 1652SOL    HW216593   0.381   2.902   2.380  1.5046  0.8198 -1.6711
 1653SOL     OW16594   2.882   0.044   5.498 -0.0890 -0.4912 -0.2129
 1653SOL    HW116595   2.821   0.027   5.569 -2.3590 -2.5302 -2.6300
 1653SOL    HW216596   2.827   0.032   5.420  0.2020 -0.6150 -0.4031
 1654SOL     OW16597   1.449   0.129   1.410  0.0651  0.4915  0.5182
 1654SOL    HW116598   1.367   0.178   1.406  0.8155  1.5380 -1.9751
 1654SOL    HW216599   1.439   0.094   1.499 -0.6264  1.4884  0.8396
 1655SOL     OW16600   2.024   3.650   5.277 -0.2934 -0.1575 -0.0391
 1655SOL    HW116601   1.998   3.723   5.335 -1.8455  1.1741 -2.4169
 1655SOL    HW216602   2.101   3.690   5.235 -0.0928  1.6782  2.0797
 1656SOL     OW16603   0.020   4.213   8.029  0.1754 -0.0618 -0.1747
 1656SOL    HW116604   4.691   4.180   7.975 -0.8355 -2.4472  2.6646
 1656SOL    HW216605   4.726   4.232   8.115  1.7308 -3.6382  1.3122
 1657SOL     OW16606   4.374   4.242  15.519 -0.3971  0.5528  0.1374
 1657SOL    HW116607   4.289   4.216  15.484 -0.5903  2.9331 -1.1945
 1657SOL    HW216608   4.352   4.313  15.581 -1.0877 -0.4776  1.0735
 1658SOL     OW16609   4.527   3.542   5.566 -0.0570  0.2924 -0.3845
 1658SOL    HW116610   4.496   3.611   5.624  0.9345 -1.2547  1.9875
 1658SOL    HW216611   4.577   3.486   5.625 -1.3096  0.8100  1.1698
 1659SOL     OW16612   0.131   1.725   7.141 -0.7762  0.6148  0.3565
 1659SOL    HW116613   0.051   1.776   7.128 -2.6275 -2.2538  0.6192
 1659SOL    HW216614   0.138   1.710   7.236 -0.0540 -0.1626  0.1785
 1660SOL     OW16615   1.332   1.744   4.878  0.1201  0.0384 -0.4075
 1660SOL    HW116616   1.260   1.799   4.846 -0.1063  1.1330  1.9888
 1660SOL    HW216617   1.380   1.708   4.803 -3.1510 -1.1607 -1.9559
 1661SOL     OW16618   4.146   3.347  15.388 -0.2888 -0.2940  0.2394
 1661SOL    HW116619   4.149   3.272  15.447  1.1827 -0.5861 -0.2042
 1661SOL    HW216620   4.217   3.330  15.326 -1.1024 -2.4848 -0.1046
 1662SOL     OW16621   3.463   0.654   4.135 -0.2827 -0.0663  0.1486
 1662SOL    HW116622   3.485   0.743   4.161  1.4786 -0.2592 -0.6768
 1662SOL    HW216623   3.550   0.616   4.149 -0.4491  0.9254  3.8791
 1663SOL     OW16624   3.025   2.489   2.423  0.0117  0.2780  1.0366
 1663SOL    HW116625   3.061   2.482   2.511  1.0197 -1.8690  0.4630
 1663SOL    HW216626   2.940   2.530   2.435 -0.5272 -1.2404  2.2721
 1664SOL     OW16627   2.484   0.281   5.620 -0.2190 -0.4011  0.1528
 1664SOL    HW116628   2.513   0.261   5.709 -1.8920 -1.5079  0.4418
 1664SOL    HW216629   2.562   0.327   5.589  0.1135 -2.6574 -2.3904
 1665SOL     OW16630   1.546   1.797   8.344 -0.4452  0.1202 -0.2688
 1665SOL    HW116631   1.598   1.746   8.282  3.0822  2.3131  0.8776
 1665SOL    HW216632   1.576   1.888   8.338 -1.0958  0.3921  0.6655
 1666SOL     OW16633   3.003   3.249   4.663 -0.9031  0.4239 -0.5650
 1666SOL    HW116634   2.961   3.332   4.685  3.0940  1.9733  1.1352
 1666SOL    HW216635   3.046   3.282   4.584 -2.4247  0.7733 -1.2555
 1667SOL     OW16636   1.253   2.460   6.414 -0.2413  0.1754  0.4573
 1667SOL    HW116637   1.179   2.446   6.473  1.2010 -0.6983  2.1018
 1667SOL    HW216638   1.210   2.448   6.330  0.9000  0.9371 -0.2317
 1668SOL     OW16639   1.774   3.254   0.551 -0.2197 -0.3381 -0.6326
 1668SOL    HW116640   1.852   3.308   0.556 -2.1036  2.1327  2.1312
 1668SOL    HW216641   1.725   3.293   0.624 -1.4142 -0.0523 -1.5889
 1669SOL     OW16642   4.237   0.871  13.517 -0.1609 -0.2663 -0.0413
 1669SOL    HW116643   4.302   0.923  13.469  1.3145 -2.7929 -0.8058
 1669SOL    HW216644   4.284   0.792  13.543 -1.9271 -2.0967 -2.5005
 1670SOL     OW16645   0.529   3.233   2.419  0.0988  0.0681  0.1724
 1670SOL    HW116646   0.575   3.252   2.337  2.2561  0.2810  1.4168
 1670SOL    HW216647   0.450   3.285   2.408  1.2824  2.3973  2.5008
 1671SOL     OW16648   4.080   3.368   2.680  0.1045 -0.0244 -0.3713
 1671SOL    HW116649   4.144   3.382   2.610  0.5132  1.8455  0.3720
 1671SOL    HW216650   4.000   3.408   2.646 -1.3334 -1.2413  1.5556
 1672SOL     OW16651   3.839   0.956   1.519  0.3239 -0.5487 -0.1964
 1672SOL    HW116652   3.924   0.939   1.480 -0.3997 -1.1804 -1.4800
 1672SOL    HW216653   3.794   1.008   1.453  0.9319  1.8470  1.2655
 1673SOL     OW16654   3.891   2.373   4.497 -0.3378  0.3173 -0.3162
 1673SOL    HW116655   3.898   2.289   4.452 -0.7960  0.2410 -0.2444
 1673SOL    HW216656   3.952   2.420   4.440  0.6176  0.2079  0.6227
 1674SOL     OW16657   2.610   3.729   3.277 -0.4851 -0.3262  0.7089
 1674SOL    HW116658   2.644   3.676   3.204  0.1970  2.6412 -1.1047
 1674SOL    HW216659   2.677   3.796   3.287 -0.4253 -0.4988  1.4457
 1675SOL     OW16660   0.514   3.380   1.148  0.1229 -0.3890 -0.0798
 1675SOL    HW116661   0.437   3.421   1.187  0.5195 -0.8364  1.1801
 1675SOL    HW216662   0.505   3.402   1.055  0.1628  2.0003  0.4936
 1676SOL     OW16663   2.325   3.547   7.795  0.3239  0.3001  0.4245
 1676SOL    HW116664   2.321   3.515   7.885 -2.3553 -0.6935 -0.0576
 1676SOL    HW216665   2.419   3.540   7.776  0.7271  2.9902  1.4648
 1677SOL     OW16666   3.733   4.460   6.952 -0.4273 -0.4570 -0.1017
 1677SOL    HW116667   3.653   4.483   7.000  1.2792  2.0086  1.5763
 1677SOL    HW216668   3.713   4.494   6.865 -0.6877 -0.9249 -0.2276
 1678SOL     OW16669   1.776   4.252   7.914  0.3741 -0.1105  0.2599
 1678SOL    HW116670   1.744   4.276   8.001  0.1538 -2.7795  0.9212
 1678SOL    HW216671   1.711   4.294   7.859 -0.0571 -0.7314  0.2954
 1679SOL     OW16672   0.827   2.039   9.197  0.3237 -0.1790 -0.1155
 1679SOL    HW116673   0.897   1.980   9.226  0.3718  0.1857  0.5002
 1679SOL    HW216674   0.781   1.979   9.138 -0.1489 -2.5961  2.7417
 1680SOL     OW16675   2.836   4.434   1.019  0.3927  0.4098  0.8369
 1680SOL    HW116676   2.928   4.440   1.043  0.2868  0.6429  1.1903
 1680SOL    HW216677   2.825   4.339   1.019  0.0443  0.4492  0.6260
 1681SOL     OW16678   1.546   3.552   4.415  0.3752  0.3927 -0.0179
 1681SOL    HW116679   1.603   3.629   4.422  1.3041 -0.3544  0.6548
 1681SOL    HW216680   1.582   3.502   4.488  3.2907  1.6167 -0.6215
 1682SOL     OW16681   2.865   4.292   9.035 -0.1898 -0.4087  0.0400
 1682SOL    HW116682   2.799   4.223   9.028  0.4653 -1.0052 -0.2440
 1682SOL    HW216683   2.939   4.242   9.068 -0.3464 -1.1841 -0.8031
 1683SOL     OW16684   2.997   2.166   7.088  0.5960 -0.2847 -0.0377
 1683SOL    HW116685   3.031   2.233   7.147 -0.4391  0.9382 -0.8281
 1683SOL    HW216686   2.906   2.193   7.073  0.9774  0.9401 -0.1689
 1684SOL     OW16687   3.336   2.564   2.878 -0.4472  0.1251 -0.3799
 1684SOL    HW116688   3.401   2.612   2.930  1.9338 -0.7849 -2.4924
 1684SOL    HW216689   3.278   2.634   2.849  0.2776  0.6234 -0.6350
 1685SOL     OW16690   4.518   1.891   3.677 -0.1131  0.0659  0.5543
 1685SOL    HW116691   4.489   1.806   3.708 -1.3275  0.2061 -0.1936
 1685SOL    HW216692   4.442   1.947   3.696  1.4071  2.1700  0.5193
 1686SOL     OW16693   1.297   1.277   2.679 -0.5536 -0.3732  0.3741
 1686SOL    HW116694   1.226   1.213   2.675 -0.8907 -0.0155  0.6199
 1686SOL    HW216695   1.280   1.325   2.598  1.8594  1.0394  0.6966
 1687SOL     OW16696   1.297   0.019   8.114 -0.3423 -0.0163  0.1279
 1687SOL    HW116697   1.280   0.059   8.199  1.9231 -0.9972  1.0405
 1687SOL    HW216698   1.212   0.010   8.072 -0.6297 -0.3831  0.7959
 1688SOL     OW16699   2.972   4.563   7.245  0.2429  0.0907  0.7960
 1688SOL    HW116700   2.952   4.485   7.194 -2.1456  0.0671  1.7410
 1688SOL    HW216701   3.058   4.542   7.281  0.4370 -2.2557 -1.0177
 1689SOL     OW16702   3.374   2.520  13.724  0.5912 -0.1082 -0.1543
 1689SOL    HW116703   3.405   2.611  13.717 -1.0975  0.4055 -0.8668
 1689SOL    HW216704   3.424   2.485  13.650 -0.9453 -2.6180  0.0116
 1690SOL     OW16705   2.320   3.552   5.673  0.1899 -0.7759 -0.1509
 1690SOL    HW116706   2.336   3.520   5.761  0.7825 -0.9519 -0.3210
 1690SOL    HW216707   2.225   3.565   5.673  0.2596 -0.2757 -0.1996
 1691SOL     OW16708   0.612   2.101   7.999 -0.2714 -0.3561 -0.5449
 1691SOL    HW116709   0.676   2.144   7.942 -1.2506  2.2372  0.3306
 1691SOL    HW216710   0.644   2.012   7.984  1.6842  0.9445 -4.1270
 1692SOL     OW16711   2.250   1.499   7.806 -0.2164 -0.7879 -0.0738
 1692SOL    HW116712   2.245   1.529   7.715  1.8784  0.1448  0.1182
 1692SOL    HW216713   2.322   1.555   7.836 -1.0858  0.5328 -0.4421
 1693SOL     OW16714   0.276   2.041   9.521  0.1636  0.7934  0.1101
 1693SOL    HW116715   0.345   2.005   9.577  1.7235  0.3174 -2.1249
 1693SOL    HW216716   0.339   2.051   9.450  1.1060 -1.2531  0.6351
 1694SOL     OW16717   3.511   2.499  16.031  0.2173 -0.2724  0.2123
 1694SOL    HW116718   3.521   2.574  16.090  1.9353 -1.7109  1.7722
 1694SOL    HW216719   3.463   2.549  15.965  0.4321 -1.0220 -0.5135
 1695SOL     OW16720   0.478   0.186   6.769  0.0451  0.2557 -0.3888
 1695SOL    HW116721   0.514   0.160   6.684 -0.4368 -0.4737 -0.3706
 1695SOL    HW216722   0.416   0.251   6.734  0.5466  0.9727  0.0400
 1696SOL     OW16723   3.807   0.982  10.953 -0.5629 -0.5374 -0.0201
 1696SOL    HW116724   3.848   1.055  10.999 -0.4224 -0.4531 -0.2794
 1696SOL    HW216725   3.834   0.997  10.863  4.4825 -2.3153  1.1461
 1697SOL     OW16726   3.192   1.848  11.549  0.3797  0.4811 -0.2766
 1697SOL    HW116727   3.199   1.755  11.570  1.3306  0.5814 -0.1667
 1697SOL    HW216728   3.285   1.860  11.533  0.2225 -1.5105 -2.6803
 1698SOL     OW16729   0.607   0.492   5.344 -0.1604  0.2952 -0.2814
 1698SOL    HW116730   0.528   0.460   5.300  0.0884  1.7818 -1.8281
 1698SOL    HW216731   0.667   0.480   5.270  1.3245  1.8520  0.6707
 1699SOL     OW16732   0.624   3.290   8.861 -0.3827  0.4860  0.1777
 1699SOL    HW116733   0.610   3.278   8.955 -2.1240  0.0930 -0.1377
 1699SOL    HW216734   0.611   3.199   8.835 -1.1146  0.8589 -0.8054
 1700SOL     OW16735   2.355   4.729   2.285  0.0374 -0.0346  0.3693
 1700SOL    HW116736   2.401   4.702   2.204 -1.6600 -3.1216  0.4326
 1700SOL    HW216737   2.301   4.651   2.298  0.2764 -0.5281 -1.5508
 1701SOL     OW16738   0.937   2.530   1.693  0.2024  0.4230 -0.5701
 1701SOL    HW116739   0.881   2.532   1.615  3.3975 -1.2252 -2.9282
 1701SOL    HW216740   0.912   2.612   1.736 -0.8317 -0.8599  1.2557
 1702SOL     OW16741   0.292   2.721   8.827 -0.2888 -0.3681  0.1575
 1702SOL    HW116742   0.344   2.697   8.903 -1.8729 -0.1977  1.2971
 1702SOL    HW216743   0.294   2.640   8.776  2.1120 -0.7824  0.8976
 1703SOL     OW16744   2.378   2.210   5.299 -0.3789  0.1506  0.1836
 1703SOL    HW116745   2.400   2.302   5.312  0.8476 -0.2807  1.1997
 1703SOL    HW216746   2.298   2.207   5.350  0.5018 -0.1413  1.5397
 1704SOL     OW16747   0.886   2.703   4.136  0.1202 -0.5340 -0.0979
 1704SOL    HW116748   0.911   2.781   4.088 -0.5556  0.9453  1.9306
 1704SOL    HW216749   0.832   2.649   4.079 -0.8568 -0.6830  0.9647
 1705SOL     OW16750   3.853   0.008   0.587  0.4150  0.0678  0.1207
 1705SOL    HW116751   3.858   0.103   0.592  0.7210  0.0290  0.4918
 1705SOL    HW216752   3.931   4.729   0.637 -0.3336 -0.7614  0.9220
 1706SOL     OW16753   2.399   4.150   4.432  0.2532 -0.5819 -0.0820
 1706SOL    HW116754   2.493   4.134   4.425  0.2387 -0.4834 -0.5287
 1706SOL    HW216755   2.385   4.204   4.353 -1.6871 -0.6680  0.2024
 1707SOL     OW16756   0.762   2.193   4.335  0.3599  0.4419 -0.1144
 1707SOL    HW116757   0.851   2.208   4.305 -0.2037  2.1040 -0.9701
 1707SOL    HW216758   0.750   2.098   4.329 -1.1289  0.5779  0.4770
 1708SOL     OW16759   0.466   2.954   2.522  0.4608 -0.5397  0.4140
 1708SOL    HW116760   0.494   3.045   2.530  0.2369 -0.3468 -0.9236
 1708SOL    HW216761   0.463   2.943   2.617 -1.9616  2.2810  0.6773
 1709SOL     OW16762   0.006   2.290   5.202 -0.4259 -0.2739 -0.4408
 1709SOL    HW116763   0.027   2.271   5.294  0.7756  2.6268 -0.1001
 1709SOL    HW216764   4.676   2.351   5.213 -1.0130 -1.4176  2.0488
 1710SOL     OW16765   3.331   3.964   0.176  0.1810  0.7940 -0.1964
 1710SOL    HW116766   3.366   4.023   0.243 -1.3498  0.8447  0.5715
 1710SOL    HW216767   3.312   4.013   0.097  1.6281 -0.5261 -1.3519
 1711SOL     OW16768   2.292   3.098   1.209  0.0825  0.4016 -0.8463
 1711SOL    HW116769   2.328   3.141   1.286  0.8116  0.9514 -1.4890
 1711SOL    HW216770   2.329   3.011   1.221  0.2040  0.5060 -0.4926
 1712SOL     OW16771   4.246   3.734   1.725  0.8044 -0.1593 -0.0252
 1712SOL    HW116772   4.294   3.789   1.662 -1.1365  1.2630 -0.2744
 1712SOL    HW216773   4.293   3.651   1.713 -1.0963 -1.1610 -0.4452
 1713SOL     OW16774   4.483   2.868   1.969 -0.4146  0.2964 -0.3726
 1713SOL    HW116775   4.549   2.871   2.038 -2.2933 -1.4483  1.4985
 1713SOL    HW216776   4.408   2.846   2.025 -1.5641  0.1496 -1.9681
 1714SOL     OW16777   3.245   2.633   5.403  0.6291 -0.3141  0.2171
 1714SOL    HW116778   3.195   2.696   5.454 -0.9667 -1.3789 -0.0543
 1714SOL    HW216779   3.332   2.670   5.423 -1.0191  3.2889  0.8196
 1715SOL     OW16780   2.712   0.698  13.981  0.4075 -0.3468  0.2696
 1715SOL    HW116781   2.783   0.645  14.017  0.4204  0.9425  2.1279
 1715SOL    HW216782   2.657   0.628  13.944 -0.0189  0.6835 -1.0332
 1716SOL     OW16783   3.793   0.362   3.179  0.2692 -0.0169 -0.1117
 1716SOL    HW116784   3.807   0.437   3.237  1.6347  0.1482 -0.6666
 1716SOL    HW216785   3.723   0.320   3.229 -0.3601 -0.5165 -1.4352
 1717SOL     OW16786   2.913   2.319   1.328  0.4804  0.3017 -0.6764
 1717SOL    HW116787   2.905   2.305   1.234  3.4593  1.0608 -1.0258
 1717SOL    HW216788   2.961   2.401   1.323  0.7461  0.2207  0.5777
 1718SOL     OW16789   4.616   4.373  15.557 -0.4592  0.7552  0.3424
 1718SOL    HW116790   4.526   4.339  15.561 -0.4188  0.2543 -2.7440
 1718SOL    HW216791   4.625   4.434  15.630  0.5126 -0.6882  1.4373
 1719SOL     OW16792   3.979   0.014  10.809 -0.1009  0.3004  0.2707
 1719SOL    HW116793   3.967   0.021  10.714 -0.7149  0.5465  0.3659
 1719SOL    HW216794   3.991   4.663  10.811 -1.1119  0.1522 -0.6451
 1720SOL     OW16795   0.723   1.356  16.074 -0.2717 -0.3502 -0.4393
 1720SOL    HW116796   0.752   1.447  16.067 -3.1425  0.3944 -2.5031
 1720SOL    HW216797   0.674   1.346  15.993 -1.4957 -0.7837  0.3479
 1721SOL     OW16798   0.942   2.648   6.836  0.1524 -0.2759  0.8718
 1721SOL    HW116799   0.934   2.674   6.744 -1.1034  0.5354  1.2101
 1721SOL    HW216800   0.971   2.733   6.868 -1.9399  1.1653 -1.0720
 1722SOL     OW16801   2.362   1.563   6.536  0.2612  0.2583 -0.0979
 1722SOL    HW116802   2.303   1.519   6.598  0.2522  0.7331  0.2331
 1722SOL    HW216803   2.440   1.524   6.573  1.3437  0.8322 -1.7870
 1723SOL     OW16804   3.532   0.418   3.500 -0.4384 -0.0569 -0.1752
 1723SOL    HW116805   3.626   0.433   3.489 -0.7784  2.3564  0.2109
 1723SOL    HW216806   3.538   0.333   3.544 -0.7337  0.0482  0.0682
 1724SOL     OW16807   1.353   3.631   8.489  0.1316 -0.0562 -0.7107
 1724SOL    HW116808   1.376   3.608   8.399  0.7450  1.9990 -1.0841
 1724SOL    HW216809   1.267   3.672   8.475 -0.4934 -1.2919 -0.4693
 1725SOL     OW16810   3.490   1.442  11.675 -0.3560  0.3578  0.5604
 1725SOL    HW116811   3.583   1.425  11.663 -0.1585  1.3413  0.6847
 1725SOL    HW216812   3.468   1.407  11.761  2.2486 -2.1371  0.2190
 1726SOL     OW16813   1.972   2.399   3.080 -0.3546 -0.1838  0.5544
 1726SOL    HW116814   2.005   2.446   3.157 -0.1482 -1.1403  1.0524
 1726SOL    HW216815   2.025   2.454   3.022  1.6017 -1.5521  1.0456
 1727SOL     OW16816   4.376   1.631  11.999 -0.2259  0.9611 -0.7444
 1727SOL    HW116817   4.403   1.699  11.937  1.2103  1.4632  0.4249
 1727SOL    HW216818   4.342   1.558  11.947  0.4437  1.4136 -1.8178
 1728SOL     OW16819   0.576   0.936  12.873  0.6884  0.0047 -0.1552
 1728SOL    HW116820   0.667   0.911  12.857  1.2803  1.0440  1.5060
 1728SOL    HW216821   0.545   0.853  12.909  1.2443  0.0660  0.4927
 1729SOL     OW16822   0.202   1.565   5.850 -0.1443 -0.3270 -0.1414
 1729SOL    HW116823   0.282   1.617   5.838  0.7389 -0.9635  3.0573
 1729SOL    HW216824   0.135   1.605   5.795 -1.9899 -2.6917  0.4191
 1730SOL     OW16825   2.723   3.986   3.282  0.0255  0.1393  0.0305
 1730SOL    HW116826   2.774   4.045   3.338 -1.2574  0.5580  0.7694
 1730SOL    HW216827   2.692   4.044   3.213  1.6115 -2.4318 -2.8114
 1731SOL     OW16828   3.390   2.435  17.023 -0.2526  0.2548  0.3530
 1731SOL    HW116829   3.438   2.390  16.954  0.2174  0.9166  0.2569
 1731SOL    HW216830   3.331   2.496  16.980  1.1571  1.0262 -0.4613
 1732SOL     OW16831   2.627   3.208   1.742 -0.6491  0.5975 -0.0200
 1732SOL    HW116832   2.651   3.233   1.831 -1.5098  1.1194  0.0645
 1732SOL    HW216833   2.675   3.277   1.698 -0.4072  0.8420  0.6265
 1733SOL     OW16834   2.203   4.539   5.648  0.4723 -0.1646 -0.3002
 1733SOL    HW116835   2.151   4.490   5.585  1.6002 -0.9875 -0.5694
 1733SOL    HW216836   2.264   4.469   5.670  1.7106  0.8534 -0.4612
 1734SOL     OW16837   2.483   3.362   3.554 -0.4139  0.0590  0.1070
 1734SOL    HW116838   2.419   3.347   3.624  0.4859  0.8692  1.1131
 1734SOL    HW216839   2.545   3.291   3.568 -3.0682 -1.9333  1.8107
 1735SOL     OW16840   0.225   1.896  14.022 -0.5003 -0.4889  0.1479
 1735SOL    HW116841   0.179   1.837  13.961 -1.9399  0.7456  0.0203
 1735SOL    HW216842   0.160   1.965  14.038  2.3993  2.2923 -0.0365
 1736SOL     OW16843   0.014   3.324   4.708  0.4148  0.5900  0.2363
 1736SOL    HW116844   4.697   3.355   4.775 -0.9307 -0.4359 -0.5144
 1736SOL    HW216845   0.043   3.402   4.661  0.6089 -0.3841 -1.2620
 1737SOL     OW16846   2.870   2.653  10.436  0.0076  0.1595  0.0839
 1737SOL    HW116847   2.947   2.600  10.459 -1.5069 -1.8460  0.5010
 1737SOL    HW216848   2.850   2.643  10.343 -1.2828 -1.8648  0.5994
 1738SOL     OW16849   0.436   4.211   4.713  0.0074 -0.4617 -0.0785
 1738SOL    HW116850   0.406   4.256   4.634 -1.2688  3.1310  2.4323
 1738SOL    HW216851   0.361   4.231   4.769 -0.5248 -1.2709 -0.5083
 1739SOL     OW16852   2.428   3.127   2.533 -0.0437 -0.5233 -0.1379
 1739SOL    HW116853   2.447   3.219   2.548  0.3745 -0.5713 -0.3829
 1739SOL    HW216854   2.402   3.118   2.442  0.5753 -0.5015 -0.3149
 1740SOL     OW16855   3.762   4.600   2.484 -0.0962 -0.0971 -0.8106
 1740SOL    HW116856   3.723   4.524   2.528  0.3369 -1.6996 -3.1920
 1740SOL    HW216857   3.844   4.590   2.533 -0.7326  0.2961  0.3309
 1741SOL     OW16858   3.680   2.946   8.520 -0.2477  0.1383 -0.0349
 1741SOL    HW116859   3.667   2.939   8.426  0.4549  0.2607 -0.1413
 1741SOL    HW216860   3.600   2.910   8.558 -0.9005 -0.4496 -1.9671
 1742SOL     OW16861   0.473   1.848  16.035 -0.3785  0.6180 -0.0943
 1742SOL    HW116862   0.500   1.939  16.030  0.9011  0.2092 -0.6639
 1742SOL    HW216863   0.530   1.809  15.969 -1.0458  1.5584 -1.2414
 1743SOL     OW16864   4.157   1.544   8.098  0.3841 -0.0696  0.1322
 1743SOL    HW116865   4.117   1.608   8.157  0.5570  1.1591 -1.0734
 1743SOL    HW216866   4.249   1.536   8.124  0.3444 -0.6288  0.1066
 1744SOL     OW16867   1.985   1.181   5.798 -0.5390 -0.0633  0.0809
 1744SOL    HW116868   2.015   1.108   5.745 -0.0057  0.2024  0.0141
 1744SOL    HW216869   1.927   1.238   5.748 -0.8301 -0.6704 -0.2645
 1745SOL     OW16870   1.055   3.750  15.871  0.3759  0.5845  0.0970
 1745SOL    HW116871   0.966   3.721  15.851  1.1469 -1.8862  0.1658
 1745SOL    HW216872   1.100   3.729  15.789 -0.1596  0.2356 -0.1074
 1746SOL     OW16873   3.113   2.937  16.184  0.0553  0.4304  0.2692
 1746SOL    HW116874   3.095   2.897  16.099 -0.7876 -2.1443  1.6447
 1746SOL    HW216875   3.198   2.972  16.161 -0.6140  2.7035  1.2627
 1747SOL     OW16876   0.048   4.639   0.762  0.6354 -0.1320  0.4247
 1747SOL    HW116877   0.002   4.569   0.809  0.8297  1.1173  2.4698
 1747SOL    HW216878   0.106   4.685   0.822 -2.7707  1.4738  2.4496
 1748SOL     OW16879   3.629   4.407   8.850  0.4356  0.1812 -0.1966
 1748SOL    HW116880   3.692   4.344   8.815  1.0664  1.1230 -0.7532
 1748SOL    HW216881   3.555   4.346   8.853 -1.1425  2.0504 -1.2780
 1749SOL     OW16882   0.028   4.427  16.266  0.4220  0.0895  0.3265
 1749SOL    HW116883   0.028   4.453  16.173  0.7865 -2.5060 -0.3861
 1749SOL    HW216884   4.703   4.478  16.309  0.7946  1.7700 -1.0613
 1750SOL     OW16885   1.536   1.254   8.532 -0.2357 -0.3007  0.0090
 1750SOL    HW116886   1.479   1.330   8.514 -0.2614 -0.7052 -1.6093
 1750SOL    HW216887   1.624   1.290   8.519 -0.6203  1.0409  1.1192
 1751SOL     OW16888   0.427   3.280   8.056  0.2115  0.3350  0.2072
 1751SOL    HW116889   0.452   3.253   8.145  1.9480 -0.9061 -0.6503
 1751SOL    HW216890   0.425   3.374   8.073 -0.9717  0.4206 -0.3620
 1752SOL     OW16891   3.585   2.129   5.080  0.3265  0.0188 -0.0810
 1752SOL    HW116892   3.655   2.139   5.016  1.6069  1.2420  1.5035
 1752SOL    HW216893   3.513   2.166   5.030  1.2594 -0.1922 -1.5820
 1753SOL     OW16894   2.078   4.572   1.646 -0.2602  0.3047  0.0047
 1753SOL    HW116895   2.152   4.565   1.707  1.1714  0.7874 -1.6771
 1753SOL    HW216896   2.056   4.479   1.638 -1.8505  0.9672 -3.4639
 1754SOL     OW16897   3.985   0.030   4.963 -0.9970  0.3733 -0.2241
 1754SOL    HW116898   3.896   0.063   4.961  0.1366  3.4181  0.0152
 1754SOL    HW216899   4.018   0.090   5.030  1.2252 -1.9167  0.7683
 1755SOL     OW16900   1.500   3.682   7.491 -0.0955  0.1735 -0.6811
 1755SOL    HW116901   1.426   3.622   7.505 -2.7063  3.1313 -1.9075
 1755SOL    HW216902   1.553   3.640   7.423  2.2701  2.3080 -0.1547
 1756SOL     OW16903   2.895   3.384   5.624 -0.7469  0.0491 -0.2474
 1756SOL    HW116904   2.871   3.426   5.707 -0.9287 -0.7836  0.1259
 1756SOL    HW216905   2.836   3.427   5.563 -0.4777 -0.6095 -0.9797
 1757SOL     OW16906   3.642   1.542   5.711 -0.4277  0.8578  0.0263
 1757SOL    HW116907   3.711   1.558   5.775  0.1121 -0.0370 -0.3311
 1757SOL    HW216908   3.613   1.451   5.717 -0.8688  0.8974 -1.4970
 1758SOL     OW16909   4.725   0.428   6.239 -0.2535  0.0902  0.2021
 1758SOL    HW116910   4.649   0.371   6.243  0.4692 -0.9192 -0.2760
 1758SOL    HW216911   4.686   0.515   6.240  0.0612  0.2487 -2.0035
 1759SOL     OW16912   1.299   3.127  12.510  0.2246 -0.5090 -0.5094
 1759SOL    HW116913   1.286   3.039  12.474 -1.3025 -0.2300 -0.6373
 1759SOL    HW216914   1.229   3.178  12.468 -1.3145 -3.1340 -1.1378
 1760SOL     OW16915   2.873   1.820   6.389 -0.3705 -0.3310  0.8284
 1760SOL    HW116916   2.887   1.855   6.302  1.5733 -1.3768  0.7035
 1760SOL    HW216917   2.937   1.865   6.444 -0.3855  1.8122 -0.9357
 1761SOL     OW16918   1.321   1.162   6.043 -0.0271  0.0578 -0.1491
 1761SOL    HW116919   1.300   1.092   5.981 -0.8344  2.4041 -2.5196
 1761SOL    HW216920   1.331   1.234   5.980  1.4857 -0.5426 -0.5864
 1762SOL     OW16921   4.052   2.850   7.890  0.0297  0.0857 -0.4868
 1762SOL    HW116922   4.091   2.938   7.885  0.7008 -0.1072  1.4534
 1762SOL    HW216923   4.106   2.789   7.840  1.6185  1.5667 -0.5706
 1763SOL     OW16924   4.037   1.780   1.581 -0.1789  0.2679 -0.2412
 1763SOL    HW116925   4.052   1.696   1.624 -0.6212  0.5427  0.4463
 1763SOL    HW216926   3.982   1.751   1.509  1.2681 -0.8735 -0.8796
 1764SOL     OW16927   0.827   0.991   5.016 -0.2319 -0.4095  0.3161
 1764SOL    HW116928   0.765   1.057   5.044 -0.7289 -0.3230 -1.0040
 1764SOL    HW216929   0.771   0.913   5.014  0.8271 -1.1701 -0.0938
 1765SOL     OW16930   2.215   4.345   8.643  0.4727 -0.2460  0.2933
 1765SOL    HW116931   2.228   4.250   8.651  0.7892 -0.1286  1.2765
 1765SOL    HW216932   2.298   4.390   8.659  1.0084 -0.5052 -1.7609
 1766SOL     OW16933   2.222   2.231   3.145 -0.2624 -0.1171  0.3010
 1766SOL    HW116934   2.208   2.300   3.210  1.1936  1.3969 -0.9981
 1766SOL    HW216935   2.158   2.162   3.163 -2.2305  2.1449  1.9382
 1767SOL     OW16936   1.173   0.009   9.331  0.1600  0.5302 -0.0467
 1767SOL    HW116937   1.243   4.687   9.342  1.1663  1.6074 -0.0070
 1767SOL    HW216938   1.211   0.076   9.388  2.8687  2.0089 -3.5653
 1768SOL     OW16939   0.906   3.052   5.929 -0.3764 -0.1006  0.3330
 1768SOL    HW116940   0.987   3.102   5.933  0.9379 -2.1744 -0.1965
 1768SOL    HW216941   0.892   3.049   5.835  1.0713  0.5364  0.0953
 1769SOL     OW16942   0.409   2.489   2.053 -0.1061 -0.3012  0.3681
 1769SOL    HW116943   0.441   2.563   2.001  0.6194 -2.4063 -2.2286
 1769SOL    HW216944   0.409   2.513   2.146 -0.6558 -1.6489  0.7113
 1770SOL     OW16945   2.560   0.188   8.388  0.3116 -0.5665 -0.0733
 1770SOL    HW116946   2.638   0.158   8.342  0.4667 -0.0728 -0.1294
 1770SOL    HW216947   2.554   0.121   8.457 -0.5944 -0.3763  0.0279
 1771SOL     OW16948   4.373   0.108   7.774  0.1044  0.5098 -0.4650
 1771SOL    HW116949   4.413   0.156   7.701 -1.3409  1.8898 -0.3528
 1771SOL    HW216950   4.449   0.093   7.830 -1.4934 -0.4673  1.4422
 1772SOL     OW16951   1.655   1.514   4.152  0.2527 -0.3373 -0.2187
 1772SOL    HW116952   1.740   1.470   4.144  0.3771 -0.2733  0.6860
 1772SOL    HW216953   1.638   1.545   4.064 -3.2664  0.9237  0.9166
 1773SOL     OW16954   0.461   0.425   2.736  0.1793 -0.4801  0.1111
 1773SOL    HW116955   0.387   0.366   2.751 -2.8842  3.8707  2.1422
 1773SOL    HW216956   0.533   0.363   2.724 -3.3377 -4.4476 -0.0410
 1774SOL     OW16957   0.868   1.214   7.522  0.0876  0.6549 -0.1590
 1774SOL    HW116958   0.894   1.269   7.449  2.8657 -1.4608 -0.7655
 1774SOL    HW216959   0.804   1.165   7.470 -0.5632  2.0739 -0.6865
 1775SOL     OW16960   2.713   1.689  16.954 -0.0628 -0.2176  0.2500
 1775SOL    HW116961   2.762   1.617  16.914 -0.5182 -0.7329  0.6035
 1775SOL    HW216962   2.663   1.720  16.879 -1.1791 -3.6990 -0.4528
 1776SOL     OW16963   3.371   0.760  13.275  0.0708  0.6396  0.0246
 1776SOL    HW116964   3.317   0.699  13.223  0.4088 -1.2147  1.8469
 1776SOL    HW216965   3.329   0.737  13.358  1.5465  1.5693  1.0277
 1777SOL     OW16966   0.454   2.799  17.023 -0.4114  0.0385 -0.6060
 1777SOL    HW116967   0.409   2.809  16.939  2.2190  0.9656 -1.9006
 1777SOL    HW216968   0.441   2.705  17.035  3.4611 -0.4723 -0.1631
 1778SOL     OW16969   0.129   0.921   5.126 -0.4722  0.1276  0.0539
 1778SOL    HW116970   0.179   0.959   5.053 -0.1836  1.7121  1.0666
 1778SOL    HW216971   0.141   0.826   5.120  2.0503  0.3842  0.8063
 1779SOL     OW16972   3.034   1.931   0.731  0.1294  0.1980  0.0633
 1779SOL    HW116973   2.971   1.870   0.692  0.5622  0.5957 -1.2626
 1779SOL    HW216974   3.120   1.890   0.719  0.1051 -0.3822  1.8000
 1780SOL     OW16975   0.136   0.898  10.021  0.2677  0.1710  0.0841
 1780SOL    HW116976   0.231   0.890  10.021  0.3271  0.7724 -1.5656
 1780SOL    HW216977   0.113   0.991  10.026 -0.3322 -0.0767  1.8590
 1781SOL     OW16978   3.454   1.526   0.498 -0.3282  0.5529 -0.4073
 1781SOL    HW116979   3.483   1.616   0.514 -2.3904  0.6940  2.5489
 1781SOL    HW216980   3.370   1.547   0.457 -0.0776  0.1448 -1.1360
 1782SOL     OW16981   3.436   2.036   5.875 -0.7769 -0.4470 -0.1835
 1782SOL    HW116982   3.424   2.018   5.782 -1.2738 -0.0986 -0.1884
 1782SOL    HW216983   3.483   2.120   5.877  0.7793 -1.3586  1.7399
 1783SOL     OW16984   3.940   3.764   0.550  0.0166  0.3506  0.3175
 1783SOL    HW116985   3.933   3.716   0.467 -2.1668  0.2010  0.5999
 1783SOL    HW216986   3.974   3.689   0.600  3.3014  0.0178 -2.4058
 1784SOL     OW16987   4.105   1.312   5.244  0.2509 -0.0963  0.4339
 1784SOL    HW116988   4.164   1.386   5.230  1.4520 -0.9300  1.1338
 1784SOL    HW216989   4.139   1.284   5.329  1.0225 -0.9488 -0.1618
 1785SOL     OW16990   0.615   0.195  15.528  0.4536 -0.5273  1.2046
 1785SOL    HW116991   0.579   0.224  15.611 -3.6086  0.3629 -0.8821
 1785SOL    HW216992   0.684   0.259  15.514  1.8934 -2.6267 -1.3769
 1786SOL     OW16993   2.922   4.004  16.076  0.2091 -0.9093 -0.4188
 1786SOL    HW116994   3.005   3.955  16.074  0.0077 -1.1157 -2.8000
 1786SOL    HW216995   2.914   4.022  15.983  0.2687  3.2131  0.3740
 1787SOL     OW16996   1.973   1.383   5.226 -0.8532 -0.4193 -0.2523
 1787SOL    HW116997   1.937   1.472   5.232  1.4090  0.3725  1.5606
 1787SOL    HW216998   1.922   1.324   5.171  2.5012 -2.2051 -1.4421
 1788SOL     OW16999   2.168   2.584  13.792  0.3387  1.1939  0.1239
 1788SOL    HW117000   2.223   2.507  13.778 -0.4485  0.5087  0.8108
 1788SOL    HW217001   2.085   2.565  13.747 -0.5148  0.1750  2.1192
 1789SOL     OW17002   3.734   3.809   5.334  0.0327  0.1162 -1.0034
 1789SOL    HW117003   3.827   3.809   5.315 -0.2664 -0.5956 -2.4398
 1789SOL    HW217004   3.733   3.749   5.408 -1.4598  0.8731 -0.3927
 1790SOL     OW17005   2.381   4.275  15.807  0.5648  0.2794 -0.5626
 1790SOL    HW117006   2.354   4.256  15.897 -0.6384 -0.4830 -1.0745
 1790SOL    HW217007   2.470   4.310  15.814  1.4954 -1.8036 -2.1008
 1791SOL     OW17008   3.472   1.547   4.931  0.4646 -0.2507 -0.7481
 1791SOL    HW117009   3.419   1.469   4.914  0.7388 -0.9731  1.7421
 1791SOL    HW217010   3.465   1.591   4.846  0.5438 -0.1122 -0.6833
 1792SOL     OW17011   1.428   3.760   1.787  0.4099  0.0554 -0.2787
 1792SOL    HW117012   1.484   3.706   1.843  0.4961 -1.1578 -1.5200
 1792SOL    HW217013   1.493   3.830   1.787  1.3651 -0.8254 -0.9400
 1793SOL     OW17014   0.836   3.336   9.672  0.3281 -0.3266 -0.1036
 1793SOL    HW117015   0.894   3.287   9.730  0.9319  0.2105 -0.2595
 1793SOL    HW217016   0.896   3.338   9.598 -2.9353 -0.7643 -2.7363
 1794SOL     OW17017   1.994   3.351  15.979  0.3589 -0.2952 -0.0921
 1794SOL    HW117018   2.086   3.378  15.979 -0.3447  2.0985  1.0975
 1794SOL    HW217019   1.974   3.391  15.894  0.1755 -2.5003 -1.0803
 1795SOL     OW17020   4.083   4.214   7.321 -0.2020  0.2659  0.5157
 1795SOL    HW117021   4.093   4.281   7.389  2.5158  0.5588 -0.1887
 1795SOL    HW217022   4.145   4.147   7.348  0.2568  1.1489  1.6626
 1796SOL     OW17023   1.842   3.415   1.987 -0.3042  0.7963  0.5596
 1796SOL    HW117024   1.777   3.346   1.974  2.0583 -1.0259 -1.4314
 1796SOL    HW217025   1.863   3.405   2.080 -1.6416 -1.6516  0.6145
 1797SOL     OW17026   1.904   0.014   8.677 -0.0119 -0.2168  0.4386
 1797SOL    HW117027   1.844   0.038   8.606  0.3979 -0.4166  0.0248
 1797SOL    HW217028   1.845   4.688   8.704 -0.6403 -0.5304 -1.7843
 1798SOL     OW17029   3.719   2.981   9.467 -0.0553  0.0337 -0.3043
 1798SOL    HW117030   3.768   3.062   9.477 -0.6605  0.3792 -0.1410
 1798SOL    HW217031   3.753   2.945   9.385 -1.7519  2.5132 -2.0749
 1799SOL     OW17032   3.263   3.139  14.024 -0.4396 -0.2728 -0.0824
 1799SOL    HW117033   3.260   3.213  14.084 -0.2586  1.5396 -2.2825
 1799SOL    HW217034   3.230   3.178  13.943  3.6751  2.6961 -0.3438
 1800SOL     OW17035   0.737   0.506   3.036 -0.1526 -0.6192 -0.5293
 1800SOL    HW117036   0.673   0.550   2.981  1.0918  0.1090 -1.4046
 1800SOL    HW217037   0.706   0.542   3.119  2.4293 -0.7999  0.5403
 1801SOL     OW17038   4.117   2.653   3.884 -0.2768 -0.5647 -0.5432
 1801SOL    HW117039   4.177   2.648   3.959 -0.8564 -1.2386 -0.1167
 1801SOL    HW217040   4.107   2.748   3.879 -0.4778 -0.7172 -2.8325
 1802SOL     OW17041   1.338   0.423   8.287 -0.1161 -0.1515 -0.0281
 1802SOL    HW117042   1.274   0.463   8.229 -2.5280 -3.0015  0.6723
 1802SOL    HW217043   1.375   0.500   8.330  1.3401 -0.4977 -0.6424
 1803SOL     OW17044   4.225   1.971   6.910 -0.1528  0.9955  0.2567
 1803SOL    HW117045   4.206   1.892   6.860  0.6538  0.8071  0.2497
 1803SOL    HW217046   4.203   2.035   6.843 -1.2829  0.5785  0.2139
 1804SOL     OW17047   3.212   3.241  17.447  0.5840  0.0855  0.0990
 1804SOL    HW117048   3.246   3.275  17.530 -1.6856  0.3511  0.9188
 1804SOL    HW217049   3.291   3.251  17.393  1.6260 -1.1550  1.3677
 1805SOL     OW17050   0.796   3.082   4.088  0.3833 -0.6820 -0.3284
 1805SOL    HW117051   0.731   3.145   4.057  0.6295  0.9332  2.4502
 1805SOL    HW217052   0.801   3.021   4.014 -0.3460 -1.5015  0.3086
 1806SOL     OW17053   0.649   0.956   0.780 -0.4897  0.0491 -0.4559
 1806SOL    HW117054   0.593   0.911   0.843  0.4599 -0.6662 -0.1176
 1806SOL    HW217055   0.617   1.044   0.802 -1.2328 -0.3592  0.1041
 1807SOL     OW17056   0.803   1.499   9.248 -0.1830  0.3835 -0.3477
 1807SOL    HW117057   0.792   1.594   9.238 -0.3581  0.4507  0.4650
 1807SOL    HW217058   0.738   1.454   9.194  1.3742  0.0573 -1.9456
 1808SOL     OW17059   4.614   0.017  10.949 -0.7537  0.4692  0.0281
 1808SOL    HW117060   4.569   4.730  11.028  0.9439 -2.1162  0.0233
 1808SOL    HW217061   4.702   0.008  10.985 -0.8056  2.6444  0.6731
 1809SOL     OW17062   4.080   1.353   8.720 -0.0447 -0.2457 -0.0319
 1809SOL    HW117063   4.104   1.412   8.792  1.9937 -0.2250 -0.7231
 1809SOL    HW217064   3.984   1.348   8.723 -0.0837  0.3017 -0.2925
 1810SOL     OW17065   1.290   2.388   6.821  0.3310  0.4335 -0.1671
 1810SOL    HW117066   1.254   2.405   6.908  1.4406  2.8977 -0.1969
 1810SOL    HW217067   1.319   2.297   6.831  2.4821  1.3617  1.8294
 1811SOL     OW17068   2.062   2.758   9.300  0.0300  0.6462 -0.3477
 1811SOL    HW117069   2.111   2.819   9.245  0.1375  0.5023 -0.4086
 1811SOL    HW217070   2.126   2.749   9.371  0.1503 -1.2018 -0.7061
 1812SOL     OW17071   4.067   3.985   6.978 -0.8361  0.4389  0.7718
 1812SOL    HW117072   4.005   3.911   6.976 -0.3576  0.1586 -3.2729
 1812SOL    HW217073   4.020   4.051   7.028  0.2754  1.5064  0.4137
 1813SOL     OW17074   3.932   2.637   5.389 -0.2418  0.0639  0.2143
 1813SOL    HW117075   3.939   2.565   5.451 -1.6862 -0.7669 -0.5936
 1813SOL    HW217076   3.919   2.588   5.308  1.7929 -1.4696  0.8187
 1814SOL     OW17077   1.454   0.621   7.453  0.4039 -0.0970 -0.1814
 1814SOL    HW117078   1.500   0.603   7.534 -0.0967 -1.1601 -0.1296
 1814SOL    HW217079   1.369   0.647   7.489  0.0967 -1.3798  0.0153
 1815SOL     OW17080   3.800   4.418   4.008  0.9610  0.2099 -0.1175
 1815SOL    HW117081   3.746   4.353   3.963  1.2921 -0.6190  0.6745
 1815SOL    HW217082   3.741   4.443   4.079  1.1593  1.0634 -0.2562
 1816SOL     OW17083   1.716   3.939   6.760 -0.3583  0.7923 -0.5847
 1816SOL    HW117084   1.791   3.882   6.774 -0.4441  1.0169  0.8096
 1816SOL    HW217085   1.652   3.900   6.820  1.2648  0.2159  0.7569
 1817SOL     OW17086   2.197   4.281  10.786  0.1604 -0.3682 -0.0199
 1817SOL    HW117087   2.198   4.204  10.843  0.4533  1.4522  2.4288
 1817SOL    HW217088   2.260   4.339  10.830 -0.2316 -0.6387  0.9065
 1818SOL     OW17089   2.725   0.286   4.536  0.1475  0.2469 -0.1480
 1818SOL    HW117090   2.701   0.247   4.620  0.6763  1.7827  0.7182
 1818SOL    HW217091   2.649   0.338   4.509  2.4062  2.3010 -2.5432
 1819SOL     OW17092   0.252   1.131   8.867 -0.5309 -0.5589 -0.0689
 1819SOL    HW117093   0.243   1.191   8.794 -1.1874 -0.2186  0.2890
 1819SOL    HW217094   0.174   1.083   8.837 -1.5099  1.9399 -1.4944
 1820SOL     OW17095   0.812   4.570   7.528  0.2342  0.0753  0.4365
 1820SOL    HW117096   0.886   4.629   7.541  0.3470 -0.1877  0.9603
 1820SOL    HW217097   0.848   4.488   7.495 -2.6656 -1.1274  0.2452
 1821SOL     OW17098   1.160   2.613  16.794  0.3296  0.1104 -0.1021
 1821SOL    HW117099   1.110   2.539  16.827  1.1828 -0.8211 -0.9056
 1821SOL    HW217100   1.093   2.673  16.762  0.6788  1.0804  0.9838
 1822SOL     OW17101   2.226   0.526   7.378 -0.7823 -0.4098  0.0705
 1822SOL    HW117102   2.134   0.512   7.401 -1.2070  0.4020 -1.1523
 1822SOL    HW217103   2.240   0.456   7.315 -0.9347 -2.4587  2.3409
 1823SOL     OW17104   2.016   4.271   8.317  0.3894  0.0995 -0.4775
 1823SOL    HW117105   1.944   4.244   8.261  1.6008 -0.5046 -1.7260
 1823SOL    HW217106   2.041   4.184   8.348 -1.0053  0.4980  1.7829
 1824SOL     OW17107   0.485   1.442   2.316 -0.2705 -0.4001  0.0741
 1824SOL    HW117108   0.539   1.471   2.242 -0.2567 -1.7283 -0.4444
 1824SOL    HW217109   0.549   1.459   2.385  0.2543 -3.2952  0.3034
 1825SOL     OW17110   0.223   1.683   9.522  0.0643 -0.2371  0.5263
 1825SOL    HW117111   0.153   1.747   9.537 -0.6836 -1.3959  1.9036
 1825SOL    HW217112   0.265   1.726   9.447 -0.8074  3.7032  2.2731
 1826SOL     OW17113   1.989   0.263   7.070  0.1445 -0.0252  0.4432
 1826SOL    HW117114   1.974   0.175   7.104  2.4013 -0.9303 -0.9422
 1826SOL    HW217115   1.901   0.300   7.080  0.4068  0.6441  0.2998
 1827SOL     OW17116   3.681   0.177  11.629 -0.5496  0.2603 -0.0774
 1827SOL    HW117117   3.588   0.179  11.652 -0.7094  0.5702 -0.7542
 1827SOL    HW217118   3.697   0.272  11.631  2.4269 -0.2475 -0.6156
 1828SOL     OW17119   4.433   3.935  12.514  0.4660 -0.0300  0.0176
 1828SOL    HW117120   4.420   4.025  12.484  1.5754 -0.0469 -0.5384
 1828SOL    HW217121   4.396   3.891  12.437  1.3396  0.8753 -0.9268
 1829SOL     OW17122   1.468   2.722  16.723 -0.3981 -0.1620 -0.1900
 1829SOL    HW117123   1.459   2.771  16.805 -0.0922 -0.9090  0.2861
 1829SOL    HW217124   1.434   2.791  16.666 -1.5461 -0.3170  0.2987
 1830SOL     OW17125   2.943   3.739   2.562 -0.3563 -0.5475 -0.3287
 1830SOL    HW117126   2.965   3.832   2.566 -1.4889 -0.2633 -0.6219
 1830SOL    HW217127   2.970   3.726   2.471  1.1681  0.5764 -0.0344
 1831SOL     OW17128   1.338   2.271   2.387  0.2912 -0.4937  0.1026
 1831SOL    HW117129   1.396   2.342   2.360  1.2760 -0.7689  1.4808
 1831SOL    HW217130   1.251   2.301   2.360 -0.3200  0.8389  3.5572
 1832SOL     OW17131   1.198   4.248   2.923  0.9555 -1.0721 -0.1592
 1832SOL    HW117132   1.216   4.207   2.839  0.3195  0.5297 -1.0903
 1832SOL    HW217133   1.263   4.200   2.974 -0.8883 -2.1711  1.1559
 1833SOL     OW17134   2.736   3.563   3.084  0.8330 -0.1872  0.2308
 1833SOL    HW117135   2.737   3.469   3.102  2.5768 -0.3209 -0.5029
 1833SOL    HW217136   2.832   3.568   3.088  0.7842 -1.8563  3.1571
 1834SOL     OW17137   4.264   2.674   4.376  0.6675  0.1829  0.5156
 1834SOL    HW117138   4.274   2.632   4.461  1.0708 -2.0967 -0.6555
 1834SOL    HW217139   4.354   2.708   4.367  0.0574  1.8995  0.9727
 1835SOL     OW17140   2.650   2.865  10.884 -0.0519  0.6203  0.2605
 1835SOL    HW117141   2.708   2.858  10.959 -1.2314 -1.1587  0.9875
 1835SOL    HW217142   2.571   2.891  10.930  0.4221  1.9432  0.3463
 1836SOL     OW17143   1.297   3.989  17.651  0.5858 -0.5391  0.4557
 1836SOL    HW117144   1.305   4.028  17.738  0.4155  3.5313 -1.3641
 1836SOL    HW217145   1.321   3.901  17.682  3.3572 -0.1962 -0.7192
 1837SOL     OW17146   4.674   4.130   6.458 -0.8490 -0.1424 -0.1334
 1837SOL    HW117147   4.722   4.175   6.389  1.4455 -1.2905  0.7033
 1837SOL    HW217148   4.690   4.193   6.528  1.5952 -1.1052  0.1877
 1838SOL     OW17149   1.131   3.960  12.315  0.4052  0.9790 -0.5658
 1838SOL    HW117150   1.220   3.957  12.351  0.0561 -0.1866  0.1950
 1838SOL    HW217151   1.113   3.867  12.301  0.2265  1.0423 -0.7567
 1839SOL     OW17152   0.216   0.953   0.710  0.0191  0.7019  0.3676
 1839SOL    HW117153   0.195   1.045   0.726  5.0630  1.8588  0.2546
 1839SOL    HW217154   0.274   0.943   0.786 -1.3562  0.9251  1.4350
 1840SOL     OW17155   2.654   1.598   0.456  0.7044  0.5814 -0.7147
 1840SOL    HW117156   2.683   1.689   0.452  3.3522 -0.2759 -1.1213
 1840SOL    HW217157   2.564   1.622   0.435 -0.2293  0.4390  3.2005
 1841SOL     OW17158   3.083   0.350   2.304 -0.1737  0.4610 -0.4251
 1841SOL    HW117159   3.177   0.331   2.308 -0.4116 -1.0153 -1.9082
 1841SOL    HW217160   3.079   0.418   2.371  0.3561  0.7801 -0.7193
 1842SOL     OW17161   3.384   3.934   4.615  0.2666 -0.0290  0.1577
 1842SOL    HW117162   3.469   3.943   4.571  0.4936 -1.1001  0.3617
 1842SOL    HW217163   3.349   4.015   4.579 -0.3056  0.2887  1.4393
 1843SOL     OW17164   3.692   2.822   3.809  0.4979 -0.1133 -0.4472
 1843SOL    HW117165   3.736   2.812   3.724 -1.5032 -2.4557 -1.1943
 1843SOL    HW217166   3.604   2.796   3.785  1.8372 -2.7104 -2.5083
 1844SOL     OW17167   3.260   1.622  11.712  0.1608 -0.3886 -0.2955
 1844SOL    HW117168   3.188   1.567  11.743  1.4361 -2.3438 -0.8220
 1844SOL    HW217169   3.320   1.559  11.672  0.8741  0.0711  0.0712
 1845SOL     OW17170   4.582   1.278   4.390 -0.6523 -0.3884  0.2817
 1845SOL    HW117171   4.578   1.361   4.342 -0.6334 -1.4081 -1.4655
 1845SOL    HW217172   4.648   1.298   4.457  1.3722  0.4520 -1.9591
 1846SOL     OW17173   0.751   2.995   9.656  0.0613 -0.4836 -0.4190
 1846SOL    HW117174   0.758   3.052   9.732  1.8732 -1.3862  0.1006
 1846SOL    HW217175   0.841   2.960   9.657  0.0652 -0.4771 -0.5181
 1847SOL     OW17176   3.946   0.915   3.253  0.6083 -0.4047  0.2354
 1847SOL    HW117177   3.901   0.996   3.229  0.4592 -0.3322  0.7550
 1847SOL    HW217178   4.008   0.899   3.182  2.7198  2.3327  1.4683
 1848SOL     OW17179   2.163   4.377   8.021  0.4702  0.0018 -0.0993
 1848SOL    HW117180   2.114   4.312   8.073 -0.2078 -1.1154 -2.1458
 1848SOL    HW217181   2.113   4.457   8.036 -0.3106 -1.0122  2.7511
 1849SOL     OW17182   0.817   1.079   3.414  0.1694  0.3580  0.5287
 1849SOL    HW117183   0.877   1.138   3.367 -1.0373  0.2497 -1.1707
 1849SOL    HW217184   0.810   1.120   3.500  2.0006  1.0621  0.3372
 1850SOL     OW17185   4.432   3.041  12.191 -0.4779  0.1451 -0.5201
 1850SOL    HW117186   4.425   3.126  12.147 -0.3217 -1.0608 -2.8817
 1850SOL    HW217187   4.358   2.987  12.161 -1.6419  1.8126 -0.6378
 1851SOL     OW17188   4.438   1.310   1.857 -0.2627  0.0703 -0.1382
 1851SOL    HW117189   4.433   1.406   1.856  3.0682  0.2585  0.8205
 1851SOL    HW217190   4.345   1.288   1.862  0.0097 -1.0283 -0.0597
 1852SOL     OW17191   0.358   0.451   2.437  0.5688  0.1961 -0.1482
 1852SOL    HW117192   0.332   0.365   2.471 -0.8139  0.2072 -1.1822
 1852SOL    HW217193   0.356   0.439   2.342  0.1632 -1.0053  0.0171
 1853SOL     OW17194   3.748   3.716   8.743  0.6359  0.4196 -0.7391
 1853SOL    HW117195   3.807   3.751   8.811  1.5504 -1.0461 -0.7768
 1853SOL    HW217196   3.792   3.633   8.726  1.1432  0.5738 -0.1948
 1854SOL     OW17197   2.741   3.195   8.502 -0.8977 -0.2140  0.4447
 1854SOL    HW117198   2.682   3.187   8.577 -1.9973 -2.0828 -0.6255
 1854SOL    HW217199   2.733   3.109   8.461  2.9097 -1.1544  1.6738
 1855SOL     OW17200   3.742   4.201   3.759 -0.1326 -0.4490 -0.2144
 1855SOL    HW117201   3.794   4.127   3.789 -0.3389 -1.0665 -1.3682
 1855SOL    HW217202   3.669   4.203   3.820  0.8447 -2.1504  0.9990
 1856SOL     OW17203   1.974   3.209   1.758 -0.3478 -0.7180 -0.7117
 1856SOL    HW117204   1.889   3.251   1.770  0.5624  1.1754 -0.9542
 1856SOL    HW217205   1.939   3.119   1.759 -0.8182 -0.4887  4.0232
 1857SOL     OW17206   3.816   2.236   3.511 -0.3865  0.3743  0.3369
 1857SOL    HW117207   3.772   2.244   3.595  1.1820  1.8810  1.0127
 1857SOL    HW217208   3.750   2.189   3.459  0.5821 -0.9286  0.2712
 1858SOL     OW17209   3.443   0.470   3.238  0.2656  0.0845  0.0933
 1858SOL    HW117210   3.436   0.559   3.272 -0.9527 -1.0548  2.7499
 1858SOL    HW217211   3.517   0.445   3.293  0.2084 -1.4608 -0.5457
 1859SOL     OW17212   0.814   2.508   5.483  0.2656  0.3197 -0.8012
 1859SOL    HW117213   0.780   2.547   5.563  0.8732  1.1179 -0.9344
 1859SOL    HW217214   0.762   2.555   5.418 -0.4189  1.0939  0.2955
 1860SOL     OW17215   3.105   0.622   6.535  0.2149 -0.2896  0.3307
 1860SOL    HW117216   3.160   0.668   6.599 -0.9795  0.5622  0.7310
 1860SOL    HW217217   3.106   0.535   6.576 -0.3227  0.6309  2.3197
 1861SOL     OW17218   1.993   2.245   6.794 -0.8045 -0.8237 -0.3258
 1861SOL    HW117219   2.012   2.155   6.822  1.1510 -0.9150 -1.9547
 1861SOL    HW217220   1.973   2.242   6.700  1.2576 -1.6615 -0.7286
 1862SOL     OW17221   3.723   2.008  12.529  0.0723 -0.2305  0.4848
 1862SOL    HW117222   3.755   2.095  12.506 -1.3862 -0.1670 -1.2710
 1862SOL    HW217223   3.639   2.040  12.561 -0.4819 -0.6440 -0.5465
 1863SOL     OW17224   1.920   0.054   8.128  0.0421  0.1585  0.4957
 1863SOL    HW117225   1.878   0.080   8.046 -2.7805 -1.1342  1.5081
 1863SOL    HW217226   1.956   0.132   8.168  1.4137 -0.4795  0.4916
 1864SOL     OW17227   2.518   0.218   5.881 -0.1235 -0.3367 -0.6643
 1864SOL    HW117228   2.506   0.228   5.976  0.2395 -0.6752 -0.5845
 1864SOL    HW217229   2.427   0.203   5.854  0.4173 -1.4564 -1.8445
 1865SOL     OW17230   3.182   1.144   3.569 -0.1057 -0.3702 -0.8128
 1865SOL    HW117231   3.167   1.119   3.660  0.1341  1.1643 -0.3650
 1865SOL    HW217232   3.119   1.213   3.551 -0.1261  0.3138  1.9823
 1866SOL     OW17233   3.967   1.085   4.433 -0.0631  0.0866  0.6617
 1866SOL    HW117234   3.996   1.134   4.510  0.6091  1.2325 -0.3178
 1866SOL    HW217235   3.928   1.147   4.372  0.3476  1.4290  1.7517
 1867SOL     OW17236   1.222   1.312   1.943  0.7626  0.3726 -0.8494
 1867SOL    HW117237   1.275   1.340   1.868  0.0511 -1.8206 -2.1900
 1867SOL    HW217238   1.143   1.280   1.899  0.5699 -2.1746  1.3416
 1868SOL     OW17239   4.406   2.733   9.531  0.2435 -0.1127 -0.3134
 1868SOL    HW117240   4.464   2.746   9.456  2.4861 -0.7134  1.3396
 1868SOL    HW217241   4.461   2.774   9.597  0.6815  0.6630 -1.1600
 1869SOL     OW17242   2.355   4.345   4.888 -0.1068 -0.7162  0.1691
 1869SOL    HW117243   2.270   4.326   4.928 -0.1436  0.6925  0.7454
 1869SOL    HW217244   2.328   4.389   4.807  0.0137 -1.8900 -0.5075
 1870SOL     OW17245   3.550   3.751  17.051  0.5750 -0.2003 -0.0868
 1870SOL    HW117246   3.545   3.675  17.108  1.5131 -0.7183 -0.6889
 1870SOL    HW217247   3.555   3.713  16.963 -0.6364 -0.9371  0.1716
 1871SOL     OW17248   0.930   1.904   4.562 -0.1101 -0.2863 -0.2025
 1871SOL    HW117249   0.858   1.966   4.574  0.0068 -0.2339  0.2329
 1871SOL    HW217250   0.983   1.943   4.632  2.4275 -0.4952 -2.0153
 1872SOL     OW17251   3.305   4.069  11.381 -0.1525 -0.6708  0.1750
 1872SOL    HW117252   3.263   4.143  11.337 -5.0990 -3.0050  1.0202
 1872SOL    HW217253   3.303   4.007  11.308 -0.6493 -1.7816  1.1189
 1873SOL     OW17254   1.408   0.567   1.070  0.4098  0.1548  0.1558
 1873SOL    HW117255   1.441   0.478   1.086  1.8928  0.8920  1.1087
 1873SOL    HW217256   1.403   0.602   1.159 -2.8321 -0.7843  0.3598
 1874SOL     OW17257   2.580   1.984   2.060 -0.5909 -0.3248  0.5572
 1874SOL    HW117258   2.548   2.051   2.000 -1.7362 -0.6174  0.8319
 1874SOL    HW217259   2.648   2.029   2.111 -0.0347  0.1313 -0.5980
 1875SOL     OW17260   1.927   3.605   9.215  0.1369 -0.2749 -0.2239
 1875SOL    HW117261   1.899   3.616   9.306  0.2135  0.6285 -0.3057
 1875SOL    HW217262   1.906   3.693   9.183 -0.2306  0.2240  1.3353
 1876SOL     OW17263   0.164   1.761   4.160 -0.4107  0.2100 -0.4307
 1876SOL    HW117264   0.157   1.676   4.203  1.6994 -0.1066 -0.7111
 1876SOL    HW217265   0.187   1.757   4.067  0.0323  1.4911 -0.3716
 1877SOL     OW17266   3.079   3.127   6.789  0.3713  0.2678 -0.2898
 1877SOL    HW117267   3.084   3.200   6.727  4.3186  0.7557  0.6163
 1877SOL    HW217268   2.988   3.135   6.818 -0.1838 -0.3493 -1.8244
 1878SOL     OW17269   2.134   3.960  14.543 -0.0395 -0.0457  0.4303
 1878SOL    HW117270   2.057   3.954  14.486  1.0360 -0.8065 -0.9297
 1878SOL    HW217271   2.127   4.055  14.554 -0.0995  0.0593 -0.5668
 1879SOL     OW17272   3.424   0.466  15.951 -0.6632  0.1680  0.2823
 1879SOL    HW117273   3.425   0.370  15.947  1.6336  0.1450  1.2754
 1879SOL    HW217274   3.506   0.484  15.997 -0.9949  0.3898  0.7849
 1880SOL     OW17275   0.822   2.004   0.585  0.6827  0.3085  0.4982
 1880SOL    HW117276   0.742   1.996   0.533  2.8265 -0.6450 -2.6290
 1880SOL    HW217277   0.872   2.061   0.528  0.5045  1.2746  1.3203
 1881SOL     OW17278   1.365   2.380   3.633 -0.5199  0.0108 -0.2961
 1881SOL    HW117279   1.271   2.382   3.616 -0.6125 -0.2790  0.1706
 1881SOL    HW217280   1.371   2.284   3.629  0.0941  0.0964 -1.5430
 1882SOL     OW17281   4.699   0.127  11.405  0.5896  0.1137  0.4779
 1882SOL    HW117282   4.706   0.144  11.499 -0.0070  0.6494  0.4243
 1882SOL    HW217283   0.002   0.044  11.396 -1.5011 -0.8495 -1.5673
 1883SOL     OW17284   3.436   2.010  14.789  0.3502  0.5202  0.2555
 1883SOL    HW117285   3.423   1.929  14.838 -0.5712  0.1861 -0.5618
 1883SOL    HW217286   3.351   2.002  14.746  0.1004  1.7858  0.5264
 1884SOL     OW17287   4.664   1.910   4.304 -0.3051  0.0927 -0.1863
 1884SOL    HW117288   4.714   1.974   4.254  1.9993  0.4039  2.5264
 1884SOL    HW217289   4.669   1.829   4.253 -0.2297  1.6080 -2.5991
 1885SOL     OW17290   0.891   3.156   8.007  0.0246  0.4273  0.5660
 1885SOL    HW117291   0.801   3.144   8.037 -0.6202  0.0885 -1.4963
 1885SOL    HW217292   0.897   3.230   7.946 -1.9844 -0.1214 -0.2864
 1886SOL     OW17293   4.589   1.746   4.062 -0.1401 -0.3244 -0.6137
 1886SOL    HW117294   4.653   1.744   3.990  1.5219 -1.6511  0.9080
 1886SOL    HW217295   4.620   1.673   4.116  1.5111  1.6875  1.1568
 1887SOL     OW17296   3.352   3.412   5.126 -0.3261  0.0616  0.0486
 1887SOL    HW117297   3.422   3.472   5.152 -0.9671  1.0756 -0.5678
 1887SOL    HW217298   3.318   3.468   5.056 -0.6738 -0.3179 -0.0844
 1888SOL     OW17299   1.676   2.498   7.778 -0.0141 -0.0962 -1.0911
 1888SOL    HW117300   1.592   2.492   7.822  0.6559 -2.1357 -0.0826
 1888SOL    HW217301   1.711   2.581   7.811  0.4656 -0.9193  0.4863
 1889SOL     OW17302   0.472   2.076   8.962 -0.8846  0.3020  0.2118
 1889SOL    HW117303   0.531   2.149   8.982 -1.1208  0.7074 -0.5977
 1889SOL    HW217304   0.491   2.067   8.869 -1.1635 -0.1973  0.2024
 1890SOL     OW17305   2.487   1.057  14.948  0.4204  0.2176  0.1514
 1890SOL    HW117306   2.553   1.039  14.881  1.3622  2.8967  0.3761
 1890SOL    HW217307   2.415   1.003  14.914 -1.3585  0.5602  3.3954
 1891SOL     OW17308   0.505   2.759   3.968 -0.9058  0.0413  0.0176
 1891SOL    HW117309   0.463   2.845   3.958  1.7719  1.0210 -2.5135
 1891SOL    HW217310   0.571   2.775   4.035 -1.7963  1.4331  0.5623
 1892SOL     OW17311   2.139   3.087  15.812 -0.0610 -0.8249  0.3388
 1892SOL    HW117312   2.228   3.084  15.849  0.0714 -0.3542  0.0595
 1892SOL    HW217313   2.090   3.086  15.894 -0.9941 -0.3592 -0.2124
 1893SOL     OW17314   2.164   3.366   1.988 -0.4645  0.2336  0.6617
 1893SOL    HW117315   2.086   3.325   2.025 -0.9267  1.5269  1.1028
 1893SOL    HW217316   2.122   3.450   1.971 -1.1998 -0.1860  0.3691
 1894SOL     OW17317   3.757   0.081   5.850 -0.0267 -0.0582 -0.5038
 1894SOL    HW117318   3.848   0.059   5.833  0.0186  0.2176 -0.6237
 1894SOL    HW217319   3.764   0.137   5.928  3.6130  0.1935 -1.0095
 1895SOL     OW17320   2.838   3.595   1.593 -0.0878  0.0525  0.0291
 1895SOL    HW117321   2.798   3.672   1.553  2.3204  0.6245 -1.2726
 1895SOL    HW217322   2.758   3.551   1.622  0.6788 -0.8691  0.7549
 1896SOL     OW17323   0.801   4.162   3.643 -0.4019 -0.0165  0.4193
 1896SOL    HW117324   0.759   4.106   3.578 -1.9176  1.1288  0.4103
 1896SOL    HW217325   0.882   4.111   3.648 -0.7672 -0.6254  0.1330
 1897SOL     OW17326   3.695   4.453   0.564  0.3415  0.4308  0.2675
 1897SOL    HW117327   3.605   4.468   0.534  0.7016  1.5338 -0.2627
 1897SOL    HW217328   3.709   4.543   0.594  1.1073  0.4745 -0.2335
 1898SOL     OW17329   3.666   4.372  16.746  0.6384 -0.5808 -0.3558
 1898SOL    HW117330   3.740   4.432  16.732  1.8438 -2.0305 -0.1645
 1898SOL    HW217331   3.691   4.307  16.811  0.2860  0.7724  1.1285
 1899SOL     OW17332   2.848   0.638   3.112 -0.2729  0.8479 -0.1595
 1899SOL    HW117333   2.925   0.597   3.151  0.9748 -0.0560 -3.5601
 1899SOL    HW217334   2.826   0.584   3.036 -0.3322  0.4476  0.1456
 1900SOL     OW17335   0.228   0.582   9.750 -0.2762 -0.0038  0.4029
 1900SOL    HW117336   0.234   0.674   9.726  1.7818 -0.5633 -1.1985
 1900SOL    HW217337   0.155   0.592   9.811 -0.0653 -0.7414  0.7887
 1901SOL     OW17338   1.701   3.240   3.484  0.0171 -0.1872  0.4956
 1901SOL    HW117339   1.753   3.208   3.558  0.6580 -0.5963 -0.1319
 1901SOL    HW217340   1.674   3.159   3.442 -1.1471  0.8777 -0.8202
 1902SOL     OW17341   1.559   2.149   4.512 -0.6689  0.1412 -0.2434
 1902SOL    HW117342   1.640   2.123   4.557 -1.2099  1.2343  1.3775
 1902SOL    HW217343   1.561   2.082   4.444 -1.0665  1.0516 -1.1574
 1903SOL     OW17344   0.553   2.584   9.287 -0.3013  0.3587  0.0974
 1903SOL    HW117345   0.615   2.650   9.316 -2.0159  1.6978  0.7370
 1903SOL    HW217346   0.509   2.549   9.365  0.0304 -0.2838 -0.0021
 1904SOL     OW17347   4.458   1.190   3.152 -0.4983 -0.3595  0.3566
 1904SOL    HW117348   4.475   1.191   3.057 -1.3828 -0.3109  0.1941
 1904SOL    HW217349   4.521   1.256   3.182  1.0234 -1.4566 -0.4094
 1905SOL     OW17350   1.941   1.005   9.263  0.4562 -0.6083  0.0275
 1905SOL    HW117351   1.909   1.009   9.173  1.0651 -0.9104 -0.2060
 1905SOL    HW217352   1.874   0.941   9.289 -0.7585  0.0304 -1.5356
 1906SOL     OW17353   4.419   1.799   8.471 -0.2586 -0.0992  0.0218
 1906SOL    HW117354   4.453   1.714   8.499  0.9717  0.6977  0.9924
 1906SOL    HW217355   4.330   1.804   8.505  0.1031 -0.3620  1.0144
 1907SOL     OW17356   1.626   0.823   5.837 -0.2629  0.1379 -0.1802
 1907SOL    HW117357   1.619   0.764   5.912  0.1294 -0.3000 -0.4827
 1907SOL    HW217358   1.709   0.786   5.807 -0.8456 -1.2213 -0.1357
 1908SOL     OW17359   1.063   1.479   6.677 -0.2559  0.3560 -0.1918
 1908SOL    HW117360   1.034   1.426   6.603  0.0883 -1.5135  0.9939
 1908SOL    HW217361   1.078   1.413   6.745 -0.0126  1.1382  0.5183
 1909SOL     OW17362   2.780   2.450   4.050  0.1772  0.1132  0.3115
 1909SOL    HW117363   2.781   2.511   4.124  2.6176  0.5354 -0.0668
 1909SOL    HW217364   2.815   2.497   3.975  0.0375  0.7743  0.6629
 1910SOL     OW17365   4.144   4.028   3.787 -0.0398  0.0170 -0.4993
 1910SOL    HW117366   4.217   3.984   3.831  1.2650  2.0860 -0.5857
 1910SOL    HW217367   4.175   4.118   3.794  1.3021 -0.3994 -1.1167
 1911SOL     OW17368   1.532   3.520  16.976 -0.0608 -0.2272  0.1059
 1911SOL    HW117369   1.569   3.595  16.930  0.2336 -0.3063  0.2133
 1911SOL    HW217370   1.573   3.518  17.063 -1.6344  1.2897  0.8711
 1912SOL     OW17371   3.023   4.004   2.572  0.3132  0.4409  0.6474
 1912SOL    HW117372   3.114   4.027   2.558  0.3490 -0.3365 -0.3946
 1912SOL    HW217373   3.004   4.045   2.656 -1.0658  1.2790 -0.0804
 1913SOL     OW17374   1.502   1.395  16.985 -0.6809 -0.3210 -0.5977
 1913SOL    HW117375   1.522   1.488  16.974  0.7181 -0.6001 -0.3474
 1913SOL    HW217376   1.592   1.364  16.975 -0.8841  0.0151 -3.4789
 1914SOL     OW17377   1.513   3.990   6.987 -0.2888  0.5120  0.5019
 1914SOL    HW117378   1.564   4.061   6.948  2.1819 -1.5614 -0.0995
 1914SOL    HW217379   1.574   3.972   7.059  1.4340 -1.3950 -1.4034
 1915SOL     OW17380   2.184   3.288   0.653 -0.2018 -0.1705  0.2276
 1915SOL    HW117381   2.221   3.216   0.704  2.0350  0.8964  0.1258
 1915SOL    HW217382   2.255   3.348   0.676 -1.4507  1.1899  0.6042
 1916SOL     OW17383   1.058   4.242   5.849  0.0446  0.2300 -0.2126
 1916SOL    HW117384   1.149   4.238   5.820 -0.2311  1.5980 -1.2506
 1916SOL    HW217385   1.047   4.165   5.905 -1.4098 -0.3659 -1.3338
 1917SOL     OW17386   3.678   2.086  13.507  0.4370  0.2780  0.2888
 1917SOL    HW117387   3.616   2.025  13.548  0.4428 -0.4969 -0.8512
 1917SOL    HW217388   3.720   2.027  13.445 -2.7553 -1.5086 -0.1883
 1918SOL     OW17389   3.241   1.654  16.904  0.1959 -0.2474  0.0483
 1918SOL    HW117390   3.329   1.650  16.867 -0.3657 -0.0401 -1.3320
 1918SOL    HW217391   3.191   1.580  16.869  1.6717 -1.2318  0.0390
 1919SOL     OW17392   1.152   1.172   9.299 -0.1409  0.3295  0.3684
 1919SOL    HW117393   1.085   1.115   9.262  0.1934 -0.2878  0.7194
 1919SOL    HW217394   1.227   1.116   9.282  1.6455  2.9136 -0.3502
 1920SOL     OW17395   0.922   3.597   6.398 -0.0554 -0.1449  0.1614
 1920SOL    HW117396   0.880   3.529   6.451  2.4301 -1.9585 -0.1829
 1920SOL    HW217397   0.908   3.549   6.316 -0.0968 -0.4930  0.3691
 1921SOL     OW17398   1.201   1.132   2.947  0.7933 -0.0697 -0.2549
 1921SOL    HW117399   1.185   1.104   2.857 -0.2876 -0.3685  0.0384
 1921SOL    HW217400   1.201   1.227   2.939 -1.2375  0.0172  1.0153
 1922SOL     OW17401   2.188   3.537   6.202  0.1886 -0.0161 -0.0189
 1922SOL    HW117402   2.182   3.619   6.251  1.2821  0.9361 -1.4808
 1922SOL    HW217403   2.112   3.490   6.235  0.7104 -0.0680  1.1140
 1923SOL     OW17404   4.312   1.355   7.423 -0.3795  0.1815  0.1780
 1923SOL    HW117405   4.354   1.422   7.369 -1.0629 -1.2766 -2.1604
 1923SOL    HW217406   4.265   1.409   7.486  0.8648  2.4508 -0.8416
 1924SOL     OW17407   0.504   0.207   7.976 -0.2725  0.9799  0.1670
 1924SOL    HW117408   0.574   0.144   7.997 -0.2522  0.6206 -0.9900
 1924SOL    HW217409   0.435   0.141   7.982 -1.4282  2.0310 -1.9325
 1925SOL     OW17410   4.590   3.549   7.042 -0.3381  0.0260 -0.0138
 1925SOL    HW117411   4.520   3.614   7.046 -0.0738  0.2021  1.7333
 1925SOL    HW217412   4.542   3.466   7.045 -0.7180  0.1876 -1.5673
 1926SOL     OW17413   0.809   1.071   8.259 -0.0190  0.7229 -0.2371
 1926SOL    HW117414   0.879   1.013   8.288 -1.1185 -0.7792 -0.5600
 1926SOL    HW217415   0.775   1.026   8.181  0.5151  1.8981 -1.1519
 1927SOL     OW17416   4.399   1.070   7.125 -0.5466  0.0647  0.0691
 1927SOL    HW117417   4.452   1.066   7.045 -0.6691  0.6666 -0.0420
 1927SOL    HW217418   4.462   1.085   7.196  2.1090  0.5577 -2.3671
 1928SOL     OW17419   0.182   0.969   9.166  0.0328  0.5208 -0.0310
 1928SOL    HW117420   0.151   1.058   9.148 -1.7004 -0.4351 -1.8248
 1928SOL    HW217421   0.185   0.957   9.261  0.6209  2.9827  0.2422
 1929SOL     OW17422   2.975   0.851  17.259  0.1993 -0.1183  0.1516
 1929SOL    HW117423   3.002   0.925  17.204 -1.9064 -0.3691 -1.2287
 1929SOL    HW217424   2.892   0.829  17.216 -0.0522  0.2862  0.4250
 1930SOL     OW17425   2.486   3.435  16.089 -0.0831  0.3084 -0.1968
 1930SOL    HW117426   2.539   3.453  16.167  1.0083  0.5666 -0.9920
 1930SOL    HW217427   2.525   3.496  16.026 -0.4335  0.9283  0.1832
 1931SOL     OW17428   0.191   0.520  13.015 -0.2823  0.5000 -0.0673
 1931SOL    HW117429   0.115   0.506  13.071 -0.9971  0.3881 -1.0630
 1931SOL    HW217430   0.241   0.578  13.072  2.1524 -0.0825 -1.6085
 1932SOL     OW17431   3.162   1.746  13.651 -0.6054 -0.4182 -0.1875
 1932SOL    HW117432   3.207   1.686  13.710 -0.8056 -0.7306 -0.3524
 1932SOL    HW217433   3.072   1.713  13.651 -1.5790  2.2085  2.0886
 1933SOL     OW17434   2.189   4.576   5.206  0.3511  0.1843  0.6260
 1933SOL    HW117435   2.117   4.600   5.264  0.5983  1.1772  0.5168
 1933SOL    HW217436   2.122   4.567   5.138  0.1474 -1.3840  1.0228
 1934SOL     OW17437   2.938   1.765   8.485  0.1542 -0.7932  0.2935
 1934SOL    HW117438   3.031   1.749   8.471  0.0591 -1.3639  0.3082
 1934SOL    HW217439   2.917   1.810   8.404 -0.9956 -0.5197  0.7306
 1935SOL     OW17440   3.774   0.842  11.330  0.2697 -0.3251  0.0835
 1935SOL    HW117441   3.700   0.781  11.334  0.6373 -0.5796  2.9237
 1935SOL    HW217442   3.803   0.824  11.241 -1.9015  2.4020 -1.1470
 1936SOL     OW17443   1.937   4.497   9.031  0.3048 -0.0399 -0.5700
 1936SOL    HW117444   1.999   4.449   9.087 -0.7739  1.2783  1.7769
 1936SOL    HW217445   1.948   4.454   8.946 -0.2975 -0.7024 -0.3239
 1937SOL     OW17446   4.250   1.929   1.193  0.3911 -0.5393  0.6311
 1937SOL    HW117447   4.291   1.905   1.277  1.7121  0.4572  0.2757
 1937SOL    HW217448   4.224   1.841   1.166 -1.4347 -0.5915  2.5569
 1938SOL     OW17449   2.333   2.859   1.726  0.4780 -0.4053  0.4226
 1938SOL    HW117450   2.379   2.929   1.680  1.1997  0.7371  2.8806
 1938SOL    HW217451   2.268   2.913   1.770  0.6199  1.5143 -1.7333
 1939SOL     OW17452   0.982   4.052   6.755  0.5764  0.2394 -0.1471
 1939SOL    HW117453   1.070   4.038   6.791 -0.5051 -0.5453  2.2093
 1939SOL    HW217454   0.975   3.972   6.704  0.1849  0.2729 -0.1491
 1940SOL     OW17455   1.691   3.932  16.312  0.4899  0.1820  0.3871
 1940SOL    HW117456   1.718   3.859  16.255 -0.4955 -0.2304  0.4511
 1940SOL    HW217457   1.625   3.981  16.263  1.1221  0.5070 -0.1464
 1941SOL     OW17458   1.369   3.535   3.848  0.0114  0.1709  0.4546
 1941SOL    HW117459   1.429   3.463   3.827  0.0003  0.0789  0.7326
 1941SOL    HW217460   1.432   3.606   3.831 -1.7362  1.7162  0.4564
 1942SOL     OW17461   0.700   4.280   4.702  0.5132  0.2738 -0.4436
 1942SOL    HW117462   0.748   4.270   4.784 -0.2367 -0.8023 -0.1354
 1942SOL    HW217463   0.609   4.250   4.714 -0.2771  2.4549 -0.9268
 1943SOL     OW17464   0.131   4.002   6.951 -0.4395  0.4949 -0.2992
 1943SOL    HW117465   0.160   3.970   6.866 -0.8952  2.4278 -1.1629
 1943SOL    HW217466   0.210   3.991   7.005 -1.1338  2.5722  1.1305
 1944SOL     OW17467   1.209   4.594   1.241  0.1295  0.0581 -0.1303
 1944SOL    HW117468   1.190   4.650   1.317  2.5223  1.2965 -0.4357
 1944SOL    HW217469   1.291   4.547   1.254  0.3458  0.1057 -1.4020
 1945SOL     OW17470   2.760   3.227   5.434  0.0014  0.2701  0.2973
 1945SOL    HW117471   2.687   3.217   5.372  1.4440 -0.2430 -1.3284
 1945SOL    HW217472   2.709   3.250   5.511 -0.6642 -1.0893  0.2594
 1946SOL     OW17473   1.633   0.345   3.247  0.7361 -0.5636  0.7717
 1946SOL    HW117474   1.554   0.387   3.282 -0.7246 -1.6783 -1.1925
 1946SOL    HW217475   1.707   0.377   3.298  1.2712 -3.5834  1.8795
 1947SOL     OW17476   1.057   3.254   1.244  0.0323 -0.5864 -0.0877
 1947SOL    HW117477   1.108   3.182   1.279  2.2357  0.9513 -0.1610
 1947SOL    HW217478   0.969   3.234   1.277 -0.6247  1.0806 -0.8039
 1948SOL     OW17479   3.721   2.561   7.738 -0.0010 -0.2816  0.1943
 1948SOL    HW117480   3.759   2.648   7.745 -0.1306 -0.1007 -1.4548
 1948SOL    HW217481   3.774   2.533   7.663 -0.9540 -0.0589 -0.5633
 1949SOL     OW17482   1.210   0.783   1.620 -0.0739 -0.2041 -0.3016
 1949SOL    HW117483   1.299   0.811   1.602 -0.4425  1.5438  0.6398
 1949SOL    HW217484   1.162   0.850   1.670  2.1595  0.6900  0.6181
 1950SOL     OW17485   0.367   3.276   5.388  0.1839 -0.3498  0.0742
 1950SOL    HW117486   0.368   3.367   5.359 -0.0559 -1.0687 -2.2001
 1950SOL    HW217487   0.277   3.258   5.414 -0.0919 -0.9649 -1.3045
 1951SOL     OW17488   0.528   2.920   3.152  0.1657  0.1215 -0.3344
 1951SOL    HW117489   0.621   2.915   3.174  0.0345 -0.1407  0.1600
 1951SOL    HW217490   0.524   3.013   3.129 -0.1193  0.0863 -0.4373
 1952SOL     OW17491   2.156   1.222   4.073  0.2437 -0.1772  1.0675
 1952SOL    HW117492   2.147   1.316   4.063  0.0604 -0.3972 -0.8923
 1952SOL    HW217493   2.247   1.213   4.043 -0.4377  1.4883 -1.4699
 1953SOL     OW17494   3.378   3.040   2.579 -0.1704 -0.1252 -0.3614
 1953SOL    HW117495   3.295   2.992   2.588 -1.5873  2.5114  0.6297
 1953SOL    HW217496   3.440   2.971   2.601 -0.6233 -0.2038  0.6499
 1954SOL     OW17497   4.018   1.816  13.505 -0.0206  0.0013  0.0248
 1954SOL    HW117498   4.029   1.834  13.598 -0.8984 -0.2878  0.1887
 1954SOL    HW217499   4.108   1.816  13.472 -0.6659 -1.1852 -1.7813
 1955SOL     OW17500   3.788   0.127   0.870 -0.2359  0.5532  0.0785
 1955SOL    HW117501   3.881   0.124   0.892 -0.3810 -2.6309  0.2282
 1955SOL    HW217502   3.791   0.177   0.788 -3.6572  2.3807  1.0517
 1956SOL     OW17503   3.141   2.768  15.938  0.0163 -0.4608  0.0400
 1956SOL    HW117504   3.230   2.750  15.909 -0.4111 -1.7897 -0.4352
 1956SOL    HW217505   3.113   2.678  15.957  0.8142 -1.0622 -1.6253
 1957SOL     OW17506   3.901   1.123   2.354 -0.0123 -0.3641  0.0528
 1957SOL    HW117507   3.946   1.125   2.438  2.1692 -2.5040 -1.0503
 1957SOL    HW217508   3.880   1.030   2.341  3.3182 -1.2860  1.0756
 1958SOL     OW17509   0.558   0.692   3.609  0.2813 -0.4451  0.1639
 1958SOL    HW117510   0.600   0.615   3.571 -1.1863 -0.0783 -2.1872
 1958SOL    HW217511   0.566   0.764   3.546 -0.7092  1.3203  2.0494
 1959SOL     OW17512   2.933   3.815   0.233 -0.0493 -0.1706  0.4080
 1959SOL    HW117513   2.856   3.764   0.260 -0.3829  0.1279  0.0164
 1959SOL    HW217514   2.992   3.789   0.303  0.4953  1.4277  0.5408
 1960SOL     OW17515   2.953   1.123   7.228 -0.4926 -0.3878  0.2319
 1960SOL    HW117516   2.908   1.039   7.237 -2.3179  0.9459  3.6090
 1960SOL    HW217517   3.043   1.090   7.231 -0.7782 -1.4558 -3.3994
 1961SOL     OW17518   4.485   1.770  16.935  0.0780 -0.1313  0.1207
 1961SOL    HW117519   4.552   1.774  16.867  2.2583  0.2741  2.3063
 1961SOL    HW217520   4.415   1.736  16.879  0.3043 -1.2313  0.5216
 1962SOL     OW17521   3.827   4.130  16.331 -0.0011  0.1268  0.4586
 1962SOL    HW117522   3.882   4.128  16.409  1.4905  1.2937 -0.5563
 1962SOL    HW217523   3.742   4.153  16.368  0.5787  2.8523  0.1263
 1963SOL     OW17524   2.683   4.126   4.635 -0.2727  0.1281 -0.0861
 1963SOL    HW117525   2.660   4.039   4.604 -2.4181  1.0763 -1.2006
 1963SOL    HW217526   2.716   4.107   4.723  1.2767 -2.0098 -1.1542
 1964SOL     OW17527   0.661   1.827  11.784  0.0821 -0.7960 -0.0245
 1964SOL    HW117528   0.708   1.746  11.762  0.1619 -1.4024  2.3047
 1964SOL    HW217529   0.598   1.794  11.848 -0.9429  2.0637  0.4239
 1965SOL     OW17530   3.765   4.446  13.428  0.0622  0.6182  0.2614
 1965SOL    HW117531   3.802   4.533  13.410  0.4981  0.4648  0.4195
 1965SOL    HW217532   3.671   4.463  13.418 -0.0477 -0.4025 -0.5271
 1966SOL     OW17533   2.395   0.241   9.858  0.1631  0.0727 -0.4186
 1966SOL    HW117534   2.412   0.228   9.952 -1.2493  2.6080  0.1809
 1966SOL    HW217535   2.443   0.168   9.818 -0.0951 -0.3348  0.0160
 1967SOL     OW17536   3.660   1.759   3.389  0.1945 -0.2152  0.1317
 1967SOL    HW117537   3.685   1.671   3.360 -0.0791 -1.1878  2.8390
 1967SOL    HW217538   3.566   1.744   3.392  0.0195  0.9915  0.5313
 1968SOL     OW17539   2.868   4.596  16.753 -0.0982  0.3086 -0.0305
 1968SOL    HW117540   2.809   4.628  16.684 -2.1478 -0.2264  1.4777
 1968SOL    HW217541   2.942   4.653  16.732  0.7533 -1.4423 -1.8501
 1969SOL     OW17542   3.063   0.195   3.782 -0.0933 -0.0951  0.0625
 1969SOL    HW117543   3.018   0.137   3.844 -0.6803  0.1118 -0.1664
 1969SOL    HW217544   2.986   0.241   3.748  0.4788  1.9741  1.5638
 1970SOL     OW17545   3.257   0.240  10.865 -0.0575  0.0052  0.0415
 1970SOL    HW117546   3.259   0.307  10.796 -0.0447 -0.4685 -0.4156
 1970SOL    HW217547   3.212   0.171  10.817  0.3379 -0.6914  0.6866
 1971SOL     OW17548   2.370   1.470  12.050  0.1048  0.2837  0.2834
 1971SOL    HW117549   2.387   1.530  12.123  0.4186  0.1863  0.2906
 1971SOL    HW217550   2.392   1.389  12.097  0.3690  1.3006  1.9355
 1972SOL     OW17551   2.778   2.930  13.618 -0.0467  0.2624  0.1868
 1972SOL    HW117552   2.843   2.866  13.644  0.1084  0.1861 -0.3865
 1972SOL    HW217553   2.739   2.952  13.703  1.0856 -2.3468  1.3613
 1973SOL     OW17554   2.068   3.049   9.167  0.4472 -0.2919 -0.5249
 1973SOL    HW117555   2.001   3.114   9.144 -1.6341 -2.1486  0.2626
 1973SOL    HW217556   2.096   3.075   9.255  0.9723  1.9924 -1.3800
 1974SOL     OW17557   0.804   2.770   5.036 -0.6007  0.1876  0.3268
 1974SOL    HW117558   0.755   2.851   5.051 -0.8083  0.6009 -2.5334
 1974SOL    HW217559   0.817   2.767   4.941  0.2462 -0.1693  0.4598
 1975SOL     OW17560   3.324   4.444  16.035 -0.1073  0.1821  0.3565
 1975SOL    HW117561   3.337   4.364  15.983 -0.7714 -0.6744  1.5109
 1975SOL    HW217562   3.331   4.510  15.966 -0.3579  1.3566  1.4542
 1976SOL     OW17563   3.770   2.366  13.518 -0.3835 -0.1899 -0.1199
 1976SOL    HW117564   3.821   2.358  13.598 -2.2364 -2.0363  0.8765
 1976SOL    HW217565   3.760   2.271  13.514  1.3684 -0.4215  1.0461
 1977SOL     OW17566   4.645   2.840   4.957  0.3616  0.3281 -0.3854
 1977SOL    HW117567   4.711   2.896   4.915 -0.1476  1.7052  0.6440
 1977SOL    HW217568   4.560   2.866   4.921  0.2765  1.5152  0.6699
 1978SOL     OW17569   0.982   2.880   7.971 -0.2183  0.3359 -0.4286
 1978SOL    HW117570   1.067   2.911   7.938 -1.6130  4.0079 -0.5473
 1978SOL    HW217571   0.936   2.964   7.981 -0.9368 -0.1237  0.0765
 1979SOL     OW17572   3.534   2.978   3.071  0.5881 -0.1426  0.3536
 1979SOL    HW117573   3.538   3.020   3.157 -0.0989 -0.1581  0.3933
 1979SOL    HW217574   3.598   3.030   3.024 -1.0127  0.1500 -1.4844
 1980SOL     OW17575   4.428   0.403  12.251  0.1463 -0.1432  0.7922
 1980SOL    HW117576   4.350   0.353  12.276  0.5283 -0.5573  1.1647
 1980SOL    HW217577   4.400   0.485  12.210  0.5832  0.8569  2.4733
 1981SOL     OW17578   2.733   4.575   8.611  0.1116  0.1852 -0.1279
 1981SOL    HW117579   2.807   4.516   8.594  0.4155  0.2987  0.7957
 1981SOL    HW217580   2.786   4.652   8.629  1.1491 -0.0608 -2.0912
 1982SOL     OW17581   3.134   2.769   6.332 -0.2251  0.0483  0.1184
 1982SOL    HW117582   3.136   2.823   6.254  1.7594  2.0649  1.5728
 1982SOL    HW217583   3.135   2.682   6.293 -1.4237 -0.7140  1.7779
 1983SOL     OW17584   4.015   3.803   2.331  0.2716  0.4883 -0.1593
 1983SOL    HW117585   3.989   3.749   2.256  0.9487 -1.0713  0.7319
 1983SOL    HW217586   3.954   3.774   2.398  1.9584 -0.2126  1.0727
 1984SOL     OW17587   2.163   2.838   5.172 -0.0761 -0.2316 -0.1618
 1984SOL    HW117588   2.178   2.890   5.092 -0.2204  1.4070  0.8881
 1984SOL    HW217589   2.212   2.758   5.151 -1.1002 -0.8922 -0.0456
 1985SOL     OW17590   2.153   3.476   4.651 -0.2414  0.2331 -0.4532
 1985SOL    HW117591   2.207   3.548   4.684 -0.1108 -1.6180  3.4973
 1985SOL    HW217592   2.181   3.405   4.710 -1.8871 -1.5924 -1.8578
 1986SOL     OW17593   1.653   2.469   4.823  0.3506  0.1012 -0.1514
 1986SOL    HW117594   1.704   2.433   4.896 -2.3481 -0.6217  1.3895
 1986SOL    HW217595   1.566   2.451   4.859  0.8905 -2.8869 -0.3983
 1987SOL     OW17596   3.533   0.563   4.691  0.4447 -0.0337 -0.0638
 1987SOL    HW117597   3.610   0.525   4.649  0.5528  2.8870 -2.5177
 1987SOL    HW217598   3.494   0.609   4.617 -1.3187  1.8107  1.9750
 1988SOL     OW17599   1.797   2.011  13.136 -0.0891  0.4764 -0.1664
 1988SOL    HW117600   1.823   2.091  13.090  1.2499  0.3779  0.4173
 1988SOL    HW217601   1.705   2.031  13.150  0.0856  1.0035  0.2198
 1989SOL     OW17602   4.434   4.477  16.492  0.6595  0.3179 -0.2576
 1989SOL    HW117603   4.474   4.407  16.441 -0.2018 -0.7039  0.4524
 1989SOL    HW217604   4.341   4.482  16.469  1.1739  0.9514 -2.1129
 1990SOL     OW17605   4.706   4.664   6.610 -0.2693 -0.3003 -0.0980
 1990SOL    HW117606   4.649   4.599   6.569 -0.0030  0.5046 -1.7856
 1990SOL    HW217607   0.042   4.629   6.569 -0.7526  0.3909 -1.6348
 1991SOL     OW17608   0.639   2.264  12.940 -0.6412  0.4935 -0.1269
 1991SOL    HW117609   0.684   2.348  12.945  0.9074 -0.3066 -0.7042
 1991SOL    HW217610   0.606   2.270  12.850 -2.6794 -1.0509  0.5213
 1992SOL     OW17611   3.340   0.013  17.701  0.3298  0.0180 -0.7925
 1992SOL    HW117612   3.320   4.684  17.641 -1.2635 -0.5275  0.3866
 1992SOL    HW217613   3.280   4.739   0.004 -0.5754 -0.3810 -1.6409
 1993SOL     OW17614   3.062   1.831  16.826 -0.3128  0.2774  0.2167
 1993SOL    HW117615   3.111   1.756  16.859  1.4249  1.5896  0.6147
 1993SOL    HW217616   3.027   1.791  16.746  0.9025  2.0083 -1.1850
 1994SOL     OW17617   3.061   3.361  16.574 -0.0225 -0.1533 -0.5765
 1994SOL    HW117618   3.087   3.309  16.650  0.5791 -1.0022 -1.3680
 1994SOL    HW217619   2.978   3.399  16.604  0.4039 -0.5020  1.0292
 1995SOL     OW17620   1.057   4.713   2.945  0.4120 -0.1342  0.3143
 1995SOL    HW117621   1.124   0.006   3.003  1.2066  0.5509 -1.0257
 1995SOL    HW217622   0.997   4.677   3.010  1.4803  0.1883  1.4927
 1996SOL     OW17623   2.685   3.472   8.138 -0.0993  0.0877  0.3744
 1996SOL    HW117624   2.771   3.457   8.099 -0.1624  1.6721 -0.4030
 1996SOL    HW217625   2.701   3.491   8.231  1.7195  2.2537 -0.3617
 1997SOL     OW17626   0.564   1.222  17.413  0.8650  0.7033 -0.2299
 1997SOL    HW117627   0.488   1.234  17.356 -0.8669 -1.2204  1.6846
 1997SOL    HW217628   0.526   1.191  17.496  0.6261 -0.9606 -0.9604
 1998SOL     OW17629   2.774   2.983   7.376 -0.0806  0.3842 -0.3524
 1998SOL    HW117630   2.722   2.933   7.313  0.7944 -0.3285 -0.4994
 1998SOL    HW217631   2.721   2.970   7.455  3.1792 -1.7779  1.4521
 1999SOL     OW17632   0.717   3.209   7.513  0.6234 -0.5159  0.2085
 1999SOL    HW117633   0.632   3.251   7.497  0.3025 -0.9437  0.7903
 1999SOL    HW217634   0.753   3.225   7.426  0.4451  2.0609  0.6015
 2000SOL     OW17635   4.362   3.488   9.293  0.5483 -0.2922 -0.8980
 2000SOL    HW117636   4.456   3.498   9.280  0.6562  0.6869  0.7167
 2000SOL    HW217637   4.361   3.489   9.389 -2.6123 -1.9954 -0.9189
 2001SOL     OW17638   2.126   0.388   6.547 -0.3118 -0.7971 -0.2932
 2001SOL    HW117639   2.164   0.344   6.623 -1.7874  1.4861  1.7640
 2001SOL    HW217640   2.124   0.315   6.485  1.5147 -0.3311 -0.9171
 2002SOL     OW17641   3.951   1.955   3.328 -0.0877 -0.4276  0.1384
 2002SOL    HW117642   3.870   1.924   3.289  0.1085 -0.9902  0.1687
 2002SOL    HW217643   3.926   1.920   3.414 -0.8102 -0.2568 -0.0097
 2003SOL     OW17644   1.680   0.590  12.337  0.4098 -0.3911  0.3035
 2003SOL    HW117645   1.661   0.564  12.427  0.8960 -2.1359 -0.0884
 2003SOL    HW217646   1.632   0.521  12.291  0.5540  0.2074 -0.7349
 2004SOL     OW17647   1.574   0.900   2.218 -0.0116 -0.4015 -0.2441
 2004SOL    HW117648   1.548   0.960   2.148 -1.9220 -1.4410 -0.4313
 2004SOL    HW217649   1.664   0.878   2.195  0.1890  1.7011 -1.5293
 2005SOL     OW17650   1.258   1.737   7.777 -0.5124 -0.0178 -0.0024
 2005SOL    HW117651   1.176   1.751   7.825  0.3390 -0.2617  1.5154
 2005SOL    HW217652   1.235   1.664   7.720 -1.8716  0.5529 -0.2042
 2006SOL     OW17653   0.509   3.903  15.043  0.0771 -0.1054 -0.4605
 2006SOL    HW117654   0.435   3.843  15.034 -1.9819  2.5213 -1.3031
 2006SOL    HW217655   0.564   3.850  15.100  0.4358 -0.4209 -1.0972
 2007SOL     OW17656   1.493   2.262  16.683  0.3834 -0.7387 -0.7520
 2007SOL    HW117657   1.579   2.304  16.677 -0.0785  0.5856  2.1770
 2007SOL    HW217658   1.449   2.316  16.748  1.5396 -2.1719  1.2327
 2008SOL     OW17659   3.731   1.294   7.679  0.5117 -0.2704 -0.3063
 2008SOL    HW117660   3.702   1.362   7.740  0.8934  0.6710 -1.1678
 2008SOL    HW217661   3.687   1.215   7.712  1.4776 -0.4543  0.5674
 2009SOL     OW17662   4.401   4.653  13.479 -0.3946  0.3199 -0.1570
 2009SOL    HW117663   4.416   4.649  13.384  1.6498  3.4451  0.0291
 2009SOL    HW217664   4.488   4.657  13.518  0.1197  2.0088 -1.4499
 2010SOL     OW17665   1.668   2.377   8.347 -0.3181  0.3275 -0.1744
 2010SOL    HW117666   1.734   2.333   8.293  0.6979  2.1355 -0.3655
 2010SOL    HW217667   1.715   2.371   8.429 -0.9374  0.5615  0.1978
 2011SOL     OW17668   2.248   4.228  17.064  0.2195  0.3076 -0.2735
 2011SOL    HW117669   2.203   4.258  16.985 -1.1133  3.0342  1.5258
 2011SOL    HW217670   2.173   4.209  17.121 -0.8590  3.0183 -0.7996
 2012SOL     OW17671   4.064   3.936   5.463 -0.5066  0.6193 -0.2807
 2012SOL    HW117672   4.002   4.009   5.471 -1.2123  0.2832 -2.7829
 2012SOL    HW217673   4.138   3.965   5.517 -0.5040 -0.1243  0.1043
 2013SOL     OW17674   3.487   2.124  11.476 -0.2904 -0.2414 -0.4302
 2013SOL    HW117675   3.397   2.152  11.491  0.4609  0.9357  1.8055
 2013SOL    HW217676   3.504   2.155  11.387 -3.6480  0.3800 -0.8500
 2014SOL     OW17677   0.108   2.766   7.632  0.5599 -0.2954 -0.2540
 2014SOL    HW117678   0.040   2.779   7.698 -0.3387  1.6258 -1.5656
 2014SOL    HW217679   0.065   2.818   7.564 -0.0209 -1.3190 -0.6779
 2015SOL     OW17680   4.200   2.892  12.133 -0.1406 -0.4181  0.3243
 2015SOL    HW117681   4.143   2.838  12.079  0.2362  0.1222 -0.6167
 2015SOL    HW217682   4.136   2.942  12.184  0.6237  0.2035  0.6904
 2016SOL     OW17683   3.833   3.906   6.514  0.4326  0.0869  0.1945
 2016SOL    HW117684   3.836   3.929   6.422 -3.5691  0.0641  0.0191
 2016SOL    HW217685   3.884   3.973   6.558 -2.2919  0.6646  2.4993
 2017SOL     OW17686   2.404   4.739   8.536  0.3540  0.2104  0.2267
 2017SOL    HW117687   2.392   4.717   8.443  0.1956  1.2400  0.0042
 2017SOL    HW217688   2.313   4.742   8.567 -0.3733 -2.9833 -1.5311
 2018SOL     OW17689   2.968   2.713   4.803 -0.2308  0.2321  0.4644
 2018SOL    HW117690   2.894   2.678   4.753  0.1199 -0.7503  0.6333
 2018SOL    HW217691   2.959   2.804   4.777  1.4345  0.3760  0.3786
 2019SOL     OW17692   2.583   1.166   6.221 -0.3323  0.2833 -0.1365
 2019SOL    HW117693   2.590   1.134   6.311 -0.4083 -2.8249 -1.2681
 2019SOL    HW217694   2.565   1.256   6.249 -1.7568 -0.2184  0.5518
 2020SOL     OW17695   1.461   3.419   7.294 -0.1520 -0.4407 -0.1040
 2020SOL    HW117696   1.511   3.342   7.266  0.9529 -0.3869  1.7311
 2020SOL    HW217697   1.506   3.493   7.253 -1.8223  1.0619  0.7979
 2021SOL     OW17698   3.617   4.498   4.202 -0.2517  0.1137 -0.4044
 2021SOL    HW117699   3.585   4.412   4.228 -1.5848  0.6794 -0.1502
 2021SOL    HW217700   3.553   4.530   4.139  1.4257  1.3526 -1.4705
 2022SOL     OW17701   2.019   4.741  13.368 -0.5768  0.2251 -0.0101
 2022SOL    HW117702   2.036   0.070  13.428 -0.8369 -0.4365  0.8645
 2022SOL    HW217703   2.079   0.018  13.296  0.0578  0.3561  0.5579
 2023SOL     OW17704   3.697   2.395   2.514 -0.5425 -0.1360 -0.2074
 2023SOL    HW117705   3.760   2.371   2.582 -0.4613  0.4981 -0.0572
 2023SOL    HW217706   3.730   2.347   2.438 -3.3800 -0.9091 -0.9216
 2024SOL     OW17707   1.135   1.547   4.965 -0.1660 -0.4150  0.2023
 2024SOL    HW117708   1.074   1.536   4.892 -1.5296 -2.5303  1.6240
 2024SOL    HW217709   1.200   1.605   4.925 -0.5603 -0.5414 -0.6182
 2025SOL     OW17710   2.251   0.741   6.103  0.5023 -0.4546 -0.0155
 2025SOL    HW117711   2.305   0.820   6.109  0.5628 -0.5205  0.2754
 2025SOL    HW217712   2.278   0.694   6.181  0.2869  2.0965  1.5806
 2026SOL     OW17713   4.420   3.187   2.358  0.3864  0.0431 -0.2874
 2026SOL    HW117714   4.434   3.219   2.269  0.8656 -1.0317 -0.5947
 2026SOL    HW217715   4.454   3.099   2.346  1.9105  0.6166 -0.2962
 2027SOL     OW17716   2.676   4.677  14.580  0.5607 -0.2206  0.1797
 2027SOL    HW117717   2.737   4.667  14.507 -3.3732 -0.2852 -3.0670
 2027SOL    HW217718   2.638   4.590  14.587 -0.3387 -0.0282 -2.2901
 2028SOL     OW17719   4.463   0.181  10.190  0.1078 -0.5874  0.3308
 2028SOL    HW117720   4.438   0.252  10.131 -0.1931  0.3727  1.6196
 2028SOL    HW217721   4.378   0.138  10.188  0.6910 -1.7385  0.1085
 2029SOL     OW17722   3.500   1.935   5.294 -0.0323  0.2999  0.2832
 2029SOL    HW117723   3.528   1.844   5.286 -2.3311 -0.5029  1.1779
 2029SOL    HW217724   3.496   1.969   5.205 -2.0335  0.4452  0.4268
 2030SOL     OW17725   2.171   2.343   3.535  0.0324  0.3402  0.4515
 2030SOL    HW117726   2.155   2.323   3.627 -0.9190 -0.7804  0.0226
 2030SOL    HW217727   2.264   2.319   3.534  0.1272  0.6688  1.9994
 2031SOL     OW17728   4.085   2.418   3.714 -0.3947 -0.2532  0.3562
 2031SOL    HW117729   4.149   2.393   3.780 -0.7677 -1.6673  0.1866
 2031SOL    HW217730   4.071   2.508   3.742  1.0141  0.4767 -1.2247
 2032SOL     OW17731   0.867   1.380  11.819  0.2718 -0.1151 -0.0800
 2032SOL    HW117732   0.956   1.393  11.853  1.4145 -1.9630 -2.3354
 2032SOL    HW217733   0.852   1.294  11.857 -0.2217 -0.7044 -1.5906
 2033SOL     OW17734   1.998   1.145   1.501  0.5641  0.1277  0.1855
 2033SOL    HW117735   1.991   1.049   1.498 -1.0548  0.3719 -3.7831
 2033SOL    HW217736   2.034   1.168   1.415 -0.4851  2.7396  0.4691
 2034SOL     OW17737   4.105   0.421   6.176 -0.0490  0.3150 -0.1369
 2034SOL    HW117738   4.130   0.484   6.243  1.3770 -1.0994  0.6444
 2034SOL    HW217739   4.120   0.335   6.215 -0.6237  0.3329  0.1282
 2035SOL     OW17740   3.587   3.894  17.303  0.0163  0.6948  0.5807
 2035SOL    HW117741   3.677   3.868  17.289  1.0218  2.9181  2.9273
 2035SOL    HW217742   3.561   3.827  17.367 -2.5597  0.0754 -1.1138
 2036SOL     OW17743   0.282   0.167   2.447  0.0429  0.8636 -0.5872
 2036SOL    HW117744   0.258   0.101   2.383  0.3935 -0.0276  0.2029
 2036SOL    HW217745   0.349   0.121   2.497 -1.4794  1.0891  1.6716
 2037SOL     OW17746   3.673   4.058  13.638 -0.1316  0.0424 -0.0957
 2037SOL    HW117747   3.702   4.011  13.717 -2.8158 -0.7783  0.4188
 2037SOL    HW217748   3.602   4.117  13.663 -1.3935 -1.8387  0.7539
 2038SOL     OW17749   4.154   3.280   6.890  0.2629  0.1098 -0.4823
 2038SOL    HW117750   4.238   3.313   6.857 -0.0152  2.3842  1.1142
 2038SOL    HW217751   4.179   3.187   6.895 -0.9595 -0.2142 -0.4896
 2039SOL     OW17752   2.917   4.066   6.288  0.6617  0.2024  0.0028
 2039SOL    HW117753   2.990   4.003   6.286  0.5124  0.0276  0.0659
 2039SOL    HW217754   2.938   4.124   6.215 -0.9712  0.7330 -0.0444
 2040SOL     OW17755   0.326   0.092   7.008  0.7750 -0.6862  0.7288
 2040SOL    HW117756   0.304   0.136   6.926  0.8973  1.1686  1.7093
 2040SOL    HW217757   0.394   0.041   6.963  3.0763  3.2373 -0.1742
 2041SOL     OW17758   1.704   3.051   8.008  0.0717  0.2928 -0.0578
 2041SOL    HW117759   1.743   3.051   8.096  0.3406 -0.8075 -0.1886
 2041SOL    HW217760   1.772   3.085   7.949  1.4626  0.4453  1.6351
 2042SOL     OW17761   1.989   0.790   7.301  0.5623 -0.2850  0.0771
 2042SOL    HW117762   2.043   0.851   7.351 -0.4783 -0.3426  1.2362
 2042SOL    HW217763   1.917   0.758   7.355 -1.0718  3.6151  0.1479
 2043SOL     OW17764   1.291   0.818   1.020  0.1747 -0.0616  0.1006
 2043SOL    HW117765   1.335   0.734   1.011  1.1523  0.4869 -0.2151
 2043SOL    HW217766   1.273   0.839   0.928 -0.2485 -0.0412  0.1906
 2044SOL     OW17767   1.178   2.928  13.854  0.1018  0.1954  0.0156
 2044SOL    HW117768   1.181   2.919  13.950  0.9578 -0.4232 -0.0687
 2044SOL    HW217769   1.161   3.021  13.845 -0.3288  0.4091  3.0175
 2045SOL     OW17770   2.415   3.498   1.463 -0.4116  0.3521 -0.5852
 2045SOL    HW117771   2.509   3.501   1.450 -0.6517 -0.7984 -2.4866
 2045SOL    HW217772   2.399   3.593   1.459 -0.8054  0.2814 -0.7119
 2046SOL     OW17773   3.728   2.113   9.126  0.4435 -0.0567 -0.1116
 2046SOL    HW117774   3.684   2.189   9.164  0.0497  0.2392 -1.1608
 2046SOL    HW217775   3.793   2.097   9.195  0.3847 -1.9553 -0.5056
 2047SOL     OW17776   3.902   3.782   8.316 -0.4281 -0.0518 -0.8372
 2047SOL    HW117777   3.874   3.872   8.304 -2.1798 -0.6093 -0.9026
 2047SOL    HW217778   3.814   3.744   8.318 -0.7642  0.7385 -0.7718
 2048SOL     OW17779   2.357   0.440  14.021 -0.0661 -0.5432  0.3992
 2048SOL    HW117780   2.275   0.406  13.987  0.5354 -0.4854 -1.1212
 2048SOL    HW217781   2.333   0.497  14.094  0.3486  0.4666 -0.2431
 2049SOL     OW17782   2.141   3.276  15.613  0.5364  0.1300 -0.2773
 2049SOL    HW117783   2.214   3.247  15.560 -0.2626  0.2037 -1.4190
 2049SOL    HW217784   2.160   3.215  15.684  0.3011  0.0805 -0.2547
 2050SOL     OW17785   2.089   3.982   4.542 -0.0800  0.0326  0.0973
 2050SOL    HW117786   2.098   4.064   4.590 -1.0824  1.2333 -1.7479
 2050SOL    HW217787   2.086   3.917   4.612  0.3395 -0.4719 -0.3496
 2051SOL     OW17788   2.266   1.070   9.514 -0.4140  0.2775 -0.7944
 2051SOL    HW117789   2.204   1.002   9.541 -0.1731 -0.3778 -1.9209
 2051SOL    HW217790   2.238   1.143   9.570  1.9783 -1.1879  2.3187
 2052SOL     OW17791   1.775   2.009   1.904  0.2418  0.1808  0.3541
 2052SOL    HW117792   1.695   2.032   1.950 -1.0382 -0.0283 -1.7942
 2052SOL    HW217793   1.793   2.082   1.844  0.2670  0.5300  0.7833
 2053SOL     OW17794   3.522   1.180   3.092  0.3533 -0.0879 -0.4021
 2053SOL    HW117795   3.497   1.109   3.033  1.0974  0.0634 -0.8976
 2053SOL    HW217796   3.483   1.247   3.037  1.3836 -0.5101 -1.6527
 2054SOL     OW17797   0.843   3.848   5.241  0.6242 -0.1527  0.5714
 2054SOL    HW117798   0.799   3.889   5.167  1.9524 -0.3971 -0.3471
 2054SOL    HW217799   0.936   3.856   5.217  0.6720 -2.2137  0.0181
 2055SOL     OW17800   0.965   0.543   0.218 -0.0486 -0.0317 -0.3807
 2055SOL    HW117801   0.993   0.589   0.297 -0.6510 -0.8605  0.3150
 2055SOL    HW217802   1.043   0.500   0.182  0.2866 -1.0456  1.5805
 2056SOL     OW17803   4.402   2.408   5.697 -0.2434 -0.3177  0.0754
 2056SOL    HW117804   4.462   2.480   5.679 -1.5930  1.3676  2.2195
 2056SOL    HW217805   4.338   2.452   5.754 -0.5192 -2.2197  1.2244
 2057SOL     OW17806   1.115   0.249  14.885  0.0444  0.7042 -0.3536
 2057SOL    HW117807   1.156   0.255  14.799  0.6536  1.9039  0.0356
 2057SOL    HW217808   1.146   0.330  14.924  3.0069 -0.7695  0.3761
 2058SOL     OW17809   4.637   4.567  16.952  0.9339 -0.5234  0.3697
 2058SOL    HW117810   4.729   4.547  16.932  0.9097 -0.0295 -0.2250
 2058SOL    HW217811   4.595   4.501  16.897 -0.8139  2.1075 -1.4607
 2059SOL     OW17812   2.292   3.145   5.251 -0.0900  0.4611  0.3515
 2059SOL    HW117813   2.260   3.232   5.272  0.0086  0.1714  1.6826
 2059SOL    HW217814   2.245   3.134   5.168  2.3898  0.8998 -1.1145
 2060SOL     OW17815   2.960   4.235   6.069  0.2869 -0.1482  0.4365
 2060SOL    HW117816   3.055   4.219   6.075  0.1146 -0.0087  3.3505
 2060SOL    HW217817   2.951   4.270   5.980 -0.5604 -1.8517 -0.1524
 2061SOL     OW17818   1.175   2.331   8.290  0.4986 -0.6852 -0.2271
 2061SOL    HW117819   1.170   2.364   8.380  0.1751  2.5028 -1.3941
 2061SOL    HW217820   1.083   2.325   8.266  0.0316 -1.5755  1.7400
 2062SOL     OW17821   1.593   1.642   8.069  0.1751  0.1115  0.4641
 2062SOL    HW117822   1.509   1.597   8.076 -0.1192  0.2461 -2.4496
 2062SOL    HW217823   1.628   1.567   8.022  0.2187 -1.0025  2.2819
 2063SOL     OW17824   3.858   0.946  17.688 -0.1818 -0.2147 -0.1943
 2063SOL    HW117825   3.933   0.936  17.747 -0.4326 -0.4379  0.0856
 2063SOL    HW217826   3.803   1.002  17.743  1.9618 -1.2175  2.9566
 2064SOL     OW17827   0.255   1.301  17.510 -0.1732  0.0621 -0.3006
 2064SOL    HW117828   0.201   1.374  17.477 -1.1486 -0.1540  0.8057
 2064SOL    HW217829   0.268   1.250  17.430  1.5752 -0.4017  0.2752
 2065SOL     OW17830   0.352   0.123   5.684  0.0752 -0.1773  0.2410
 2065SOL    HW117831   0.318   0.211   5.694  0.3543 -0.1981  1.3319
 2065SOL    HW217832   0.417   0.117   5.754  1.2126 -1.2640 -0.8925
 2066SOL     OW17833   3.383   1.657   6.912 -0.0035  0.8382 -0.0056
 2066SOL    HW117834   3.366   1.742   6.871 -0.6259  1.4379  1.4894
 2066SOL    HW217835   3.389   1.672   7.007  0.2387  0.9095 -0.0338
 2067SOL     OW17836   3.047   2.222  13.937  0.1636  0.6676 -0.5319
 2067SOL    HW117837   2.959   2.192  13.959  0.9719 -1.9992 -0.9615
 2067SOL    HW217838   3.054   2.288  14.006 -1.2080  0.1994  0.0464
 2068SOL     OW17839   4.583   1.486   7.708 -0.0165  0.0040 -0.0936
 2068SOL    HW117840   4.614   1.480   7.617 -0.5976 -0.2404 -0.2770
 2068SOL    HW217841   4.558   1.578   7.715 -2.4520 -0.7876  1.5152
 2069SOL     OW17842   0.664   3.738  12.160  0.1721 -0.4917 -0.5306
 2069SOL    HW117843   0.654   3.683  12.083  1.0967  0.6684 -1.4747
 2069SOL    HW217844   0.697   3.823  12.131 -0.7576 -0.4618 -1.4993
 2070SOL     OW17845   1.623   1.589   1.563  0.0118 -0.2285 -0.0289
 2070SOL    HW117846   1.666   1.669   1.591 -0.2745 -0.0531 -0.0931
 2070SOL    HW217847   1.698   1.533   1.542 -0.3180 -1.4952  2.1511
 2071SOL     OW17848   3.333   3.780   7.510 -0.1716  0.3685  0.2475
 2071SOL    HW117849   3.336   3.875   7.521  2.2325  0.2100  1.1250
 2071SOL    HW217850   3.239   3.767   7.504 -0.3649  2.5400 -1.2639
 2072SOL     OW17851   2.468   0.635  17.633 -0.5071  0.2382 -0.1188
 2072SOL    HW117852   2.499   0.601  17.549 -1.8638  0.5539 -0.7446
 2072SOL    HW217853   2.377   0.654  17.609 -1.2300  0.0350  2.5231
 2073SOL     OW17854   1.327   1.554   5.639 -0.0213  0.0749  0.2038
 2073SOL    HW117855   1.238   1.549   5.602 -0.9487  0.6659  2.3413
 2073SOL    HW217856   1.383   1.549   5.562 -0.6201  0.4051 -0.2568
 2074SOL     OW17857   4.053   0.238   3.182  0.1094 -0.1657 -0.9750
 2074SOL    HW117858   3.966   0.273   3.162 -0.2822  0.2417  1.4327
 2074SOL    HW217859   4.058   0.249   3.277  0.5279  2.7251 -1.3336
 2075SOL     OW17860   2.753   2.897   7.813  0.2256  0.0946 -0.0116
 2075SOL    HW117861   2.847   2.882   7.805  0.2217 -0.5858  1.1729
 2075SOL    HW217862   2.749   2.984   7.853 -2.4959 -0.3906  0.7618
 2076SOL     OW17863   2.638   1.498   8.020 -0.1433  0.0160 -0.0898
 2076SOL    HW117864   2.614   1.511   7.928  3.3758  0.1521 -1.0148
 2076SOL    HW217865   2.560   1.462   8.060 -1.6879  1.1778 -2.0520
 2077SOL     OW17866   3.153   0.665   6.039 -0.0485  0.2773 -0.1478
 2077SOL    HW117867   3.194   0.610   5.973  0.1497  0.8392 -0.4915
 2077SOL    HW217868   3.216   0.736   6.035 -0.6428  0.7881 -0.5135
 2078SOL     OW17869   2.448   4.305   9.100  0.1456  0.1445  0.4853
 2078SOL    HW117870   2.489   4.219   9.103  0.0330  0.0946  0.5417
 2078SOL    HW217871   2.524   4.352   9.064 -0.1260 -0.3422 -0.7091
 2079SOL     OW17872   4.425   1.204   5.845 -0.2838  0.7975 -0.9887
 2079SOL    HW117873   4.483   1.205   5.769  1.2597 -2.0828  0.1331
 2079SOL    HW217874   4.456   1.122   5.885 -1.0137  2.3507  2.7575
 2080SOL     OW17875   3.745   0.403   7.076  0.3311  0.7157  0.4876
 2080SOL    HW117876   3.839   0.389   7.067  0.3754  0.5531  1.2233
 2080SOL    HW217877   3.709   0.317   7.056  1.7213 -0.2659  2.2222
 2081SOL     OW17878   4.527   3.996   5.471  0.0978 -0.4070  0.1956
 2081SOL    HW117879   4.472   4.023   5.544  0.7235  2.2784 -0.3313
 2081SOL    HW217880   4.544   4.079   5.426  0.1583  0.3854  1.6801
 2082SOL     OW17881   1.141   4.253   4.359  0.4076  0.0308 -0.1749
 2082SOL    HW117882   1.105   4.178   4.313  0.7848 -1.5466  2.1340
 2082SOL    HW217883   1.230   4.217   4.358 -0.2526 -1.5911  0.3819
 2083SOL     OW17884   3.669   0.302  12.045  0.1456 -0.0512 -0.4431
 2083SOL    HW117885   3.624   0.225  12.010  0.3175 -0.5067  0.3576
 2083SOL    HW217886   3.600   0.349  12.092  0.4968  0.2141 -0.2012
 2084SOL     OW17887   4.316   4.069  13.139  0.2630 -0.6822 -0.3182
 2084SOL    HW117888   4.399   4.032  13.109  0.5127  1.1744 -1.9611
 2084SOL    HW217889   4.328   4.064  13.234  0.4591 -0.2905 -0.3207
 2085SOL     OW17890   3.231   4.458  13.060  0.4413  0.1410  0.7071
 2085SOL    HW117891   3.257   4.548  13.080 -1.0746  0.3133  1.9259
 2085SOL    HW217892   3.154   4.475  13.006  0.2757 -0.4618  0.7524
 2086SOL     OW17893   3.250   3.802   5.292 -0.3639 -0.2212  0.5203
 2086SOL    HW117894   3.285   3.891   5.299  3.0142 -1.5209  0.0101
 2086SOL    HW217895   3.266   3.784   5.199  3.6800 -0.3623  1.2344
 2087SOL     OW17896   2.858   3.826   3.840 -0.0716 -0.2023  0.0706
 2087SOL    HW117897   2.768   3.840   3.867 -0.2052  2.0373 -1.4597
 2087SOL    HW217898   2.885   3.776   3.916 -1.3573  1.6714  1.7632
 2088SOL     OW17899   4.132   4.533   3.603  0.2342  0.3937  0.4149
 2088SOL    HW117900   4.225   4.535   3.583 -0.4317  0.9791 -2.6630
 2088SOL    HW217901   4.122   4.458   3.661  2.0269 -1.9163 -2.2733
 2089SOL     OW17902   0.985   1.427  12.066 -0.1369 -0.3648  0.4549
 2089SOL    HW117903   1.007   1.334  12.065  1.5901  0.0203  2.0158
 2089SOL    HW217904   1.072   1.467  12.069 -0.5881  0.6808 -0.2328
 2090SOL     OW17905   0.577   4.675  15.264 -0.6937 -0.0327  0.0488
 2090SOL    HW117906   0.564   0.027  15.254  1.5802  0.1716 -0.9201
 2090SOL    HW217907   0.671   4.681  15.251 -0.6548  2.3370  1.2474
 2091SOL     OW17908   3.818   0.749   0.238  0.2429 -0.4155  0.0270
 2091SOL    HW117909   3.773   0.667   0.213 -2.5687  1.4679 -1.0887
 2091SOL    HW217910   3.803   0.797   0.157  1.4658  0.0191  0.0587
 2092SOL     OW17911   3.863   3.863  17.256 -0.7217  0.3388  0.6432
 2092SOL    HW117912   3.956   3.841  17.261 -0.8599 -0.4514 -0.3722
 2092SOL    HW217913   3.852   3.882  17.163 -1.1202 -1.0854  0.3959
 2093SOL     OW17914   1.811   2.688   8.699  0.3994  0.3710 -0.2093
 2093SOL    HW117915   1.879   2.751   8.675  1.0257 -0.4098 -0.4558
 2093SOL    HW217916   1.772   2.674   8.612  0.5724 -1.2367 -0.0255
 2094SOL     OW17917   4.578   2.006   7.937  0.2872  0.1804 -0.2113
 2094SOL    HW117918   4.495   2.003   7.986 -0.7166  1.2989 -1.8577
 2094SOL    HW217919   4.638   2.009   8.012 -0.9499  1.0836  0.7390
 2095SOL     OW17920   2.261   2.328  13.710 -0.2419  0.4116  0.2520
 2095SOL    HW117921   2.202   2.291  13.776 -2.3340  0.6942 -1.4295
 2095SOL    HW217922   2.257   2.268  13.636  0.1503 -0.3101  0.8182
 2096SOL     OW17923   4.619   4.193   2.325 -0.0702 -0.0587  0.6278
 2096SOL    HW117924   4.695   4.162   2.375 -0.8969 -0.5553  1.5653
 2096SOL    HW217925   4.592   4.111   2.283 -1.4001  0.6612  0.0806
 2097SOL     OW17926   3.104   0.225   4.142  0.3171 -0.8069 -0.3129
 2097SOL    HW117927   3.191   0.201   4.172  0.4734  0.6880  0.4198
 2097SOL    HW217928   3.106   0.320   4.155 -0.4940 -0.7187 -0.8161
 2098SOL     OW17929   4.060   3.333   4.180  0.7397  0.1992 -0.5323
 2098SOL    HW117930   4.031   3.285   4.103 -1.2035 -0.6673  0.7366
 2098SOL    HW217931   4.095   3.270   4.243  1.2213  0.0671 -0.9343
 2099SOL     OW17932   3.722   2.600   6.959  0.2475  0.1149  0.7719
 2099SOL    HW117933   3.627   2.585   6.957  0.2249  0.3414  0.1220
 2099SOL    HW217934   3.742   2.588   7.052 -0.7209 -1.5579  0.7605
 2100SOL     OW17935   2.410   2.377   2.577 -0.5565  0.0185 -0.3940
 2100SOL    HW117936   2.348   2.309   2.604  0.1794  0.2425  1.8550
 2100SOL    HW217937   2.358   2.457   2.570  1.5434  1.3663 -0.5255
 2101SOL     OW17938   2.346   1.949   4.827 -0.0355  0.2736  0.6182
 2101SOL    HW117939   2.387   2.036   4.825  2.6064 -1.0494 -1.8176
 2101SOL    HW217940   2.314   1.936   4.916 -1.2348 -0.8999 -0.0017
 2102SOL     OW17941   3.553   0.811  13.902  0.2513 -0.3531  0.2093
 2102SOL    HW117942   3.633   0.860  13.923  1.1287 -1.2597 -1.0850
 2102SOL    HW217943   3.539   0.750  13.975 -1.1987  0.7683  0.8644
 2103SOL     OW17944   1.794   2.100   4.634  0.0111 -0.0813 -0.3012
 2103SOL    HW117945   1.883   2.117   4.663  0.3525 -0.6649 -1.0034
 2103SOL    HW217946   1.805   2.058   4.548  0.4757  0.0980 -0.3275
 2104SOL     OW17947   0.700   4.717   3.621  0.5035 -1.1320 -0.3421
 2104SOL    HW117948   0.636   4.645   3.620 -0.9548  0.1830 -1.0554
 2104SOL    HW217949   0.684   0.010   3.708 -1.0612  0.7861 -1.4243
 2105SOL     OW17950   2.236   4.048  10.933 -0.5336  0.5660 -0.5625
 2105SOL    HW117951   2.249   4.031  11.026  1.3659  0.9475 -0.7484
 2105SOL    HW217952   2.323   4.022  10.902  0.3189  0.9507  1.5353
 2106SOL     OW17953   2.764   1.898   4.871 -0.3196  0.6035 -0.1943
 2106SOL    HW117954   2.784   1.984   4.833  0.8009  1.0592  1.4579
 2106SOL    HW217955   2.837   1.890   4.932  0.4143  0.4790 -1.0886
 2107SOL     OW17956   0.826   0.029  15.260 -0.2145  0.3720  0.2663
 2107SOL    HW117957   0.853   0.075  15.181 -0.2974 -0.9682 -0.5413
 2107SOL    HW217958   0.908   0.025  15.309 -1.5034 -0.7422  2.3548
 2108SOL     OW17959   1.122   0.631   1.170  0.0695 -0.2854  0.2067
 2108SOL    HW117960   1.193   0.626   1.235  0.8628  2.2416 -0.4931
 2108SOL    HW217961   1.118   0.723   1.145  0.8209  0.2508  2.0507
 2109SOL     OW17962   1.696   1.564   4.776  0.0580  0.0336  0.3957
 2109SOL    HW117963   1.649   1.485   4.803 -0.1782  0.4957  1.3542
 2109SOL    HW217964   1.785   1.530   4.787  0.6823  1.1473 -1.1891
 2110SOL     OW17965   3.043   3.374   8.921  0.0124 -0.6277  0.1543
 2110SOL    HW117966   2.988   3.412   8.990 -0.1929  0.8674 -0.8253
 2110SOL    HW217967   3.130   3.405   8.947  1.0990 -2.0900 -1.7312
 2111SOL     OW17968   0.570   3.197  17.430 -0.1084  0.0324  0.3735
 2111SOL    HW117969   0.610   3.110  17.430  0.2151  0.1672 -1.7179
 2111SOL    HW217970   0.650   3.245  17.450  1.5726 -1.5021 -2.6795
 2112SOL     OW17971   1.277   3.198   2.744 -0.4337  0.7964 -0.3752
 2112SOL    HW117972   1.306   3.114   2.780 -0.6101  0.3157 -1.3559
 2112SOL    HW217973   1.297   3.243   2.826  1.4836 -0.3672 -0.2069
 2113SOL     OW17974   1.618   3.139   1.338 -0.0684  0.4178  0.1465
 2113SOL    HW117975   1.562   3.173   1.408  0.7821  0.3946  0.8454
 2113SOL    HW217976   1.580   3.174   1.258  0.6863 -0.4074 -0.5718
 2114SOL     OW17977   3.455   1.289   6.118 -0.3804 -0.5439 -0.0637
 2114SOL    HW117978   3.461   1.328   6.205  0.6900  1.1608 -0.9074
 2114SOL    HW217979   3.431   1.200   6.143  2.7521 -1.3905 -0.1051
 2115SOL     OW17980   0.197   4.546   6.006  0.1020 -0.2259 -0.3432
 2115SOL    HW117981   0.267   4.530   6.069 -0.0358 -1.3024 -0.4575
 2115SOL    HW217982   0.213   4.492   5.928 -3.0949 -1.0621 -0.4059
 2116SOL     OW17983   2.492   1.919   4.568  0.4530  0.9024  0.4508
 2116SOL    HW117984   2.537   1.834   4.571  0.6762  1.0706  2.0041
 2116SOL    HW217985   2.442   1.910   4.648 -1.2344  1.2334 -0.5822
 2117SOL     OW17986   1.996   3.243  16.978 -0.3353  0.2495  0.2927
 2117SOL    HW117987   1.997   3.300  16.901 -2.4234  1.8418  1.4573
 2117SOL    HW217988   1.905   3.243  17.007 -1.5069  2.8131 -3.3912
 2118SOL     OW17989   0.349   2.814   3.347  0.7655  0.0830 -1.0700
 2118SOL    HW117990   0.411   2.856   3.287 -0.5603  1.6514 -1.3349
 2118SOL    HW217991   0.290   2.769   3.285  0.3489  0.0916 -0.6785
 2119SOL     OW17992   3.489   4.197   7.971 -0.1243  0.2266  0.1952
 2119SOL    HW117993   3.450   4.181   8.057  0.4691  0.7628  0.5606
 2119SOL    HW217994   3.417   4.212   7.910  0.5159 -0.8349 -0.8293
 2120SOL     OW17995   3.997   2.486  15.821 -0.0182  0.3636  0.1838
 2120SOL    HW117996   4.062   2.551  15.796  1.6852 -1.9906 -1.5225
 2120SOL    HW217997   3.938   2.478  15.746  0.1533  0.1007  0.0768
 2121SOL     OW17998   3.309   4.216   8.726 -0.0717 -0.8311  0.1760
 2121SOL    HW117999   3.329   4.131   8.688 -0.3629  0.5268 -3.0451
 2121SOL    HW218000   3.338   4.198   8.815  1.7951 -1.2482 -0.5033
 2122SOL     OW18001   3.824   2.265   1.943 -0.3473 -0.4442 -0.0906
 2122SOL    HW118002   3.806   2.230   1.856 -1.3618 -0.7085  0.2278
 2122SOL    HW218003   3.919   2.261   1.938 -0.4572 -1.1944 -1.4192
 2123SOL     OW18004   0.009   1.078   9.590 -0.6301 -0.2070  0.2070
 2123SOL    HW118005   0.082   1.139   9.603  0.0155 -0.8031 -0.6024
 2123SOL    HW218006   4.699   1.114   9.520 -0.2481 -0.7348 -0.3561
 2124SOL     OW18007   0.837   0.417  15.166 -0.1811 -0.1809  0.0737
 2124SOL    HW118008   0.851   0.500  15.119 -0.4750 -1.3011 -2.0116
 2124SOL    HW218009   0.743   0.399  15.160 -0.3885  1.0929 -0.5392
 2125SOL     OW18010   1.599   0.740   0.438 -0.2762  0.2077  0.4728
 2125SOL    HW118011   1.625   0.761   0.348  1.1877  1.3822  1.1665
 2125SOL    HW218012   1.563   0.653   0.425  0.7061 -0.1404  0.0960
 2126SOL     OW18013   2.737   2.868  15.486  0.3433  0.3700  0.1088
 2126SOL    HW118014   2.727   2.779  15.454 -0.2050  0.5669 -0.2546
 2126SOL    HW218015   2.820   2.853  15.532  0.6620 -1.2657 -1.0033
 2127SOL     OW18016   0.596   3.923   2.240 -0.4794 -0.7389  0.6990
 2127SOL    HW118017   0.618   3.878   2.158 -1.2768 -0.1538  0.1701
 2127SOL    HW218018   0.501   3.934   2.233 -0.4808  0.8741  3.2544
 2128SOL     OW18019   4.648   4.025   9.694  0.2884  0.2811 -0.1152
 2128SOL    HW118020   4.740   4.049   9.695 -0.1468  1.9138 -0.1699
 2128SOL    HW218021   4.624   4.065   9.610 -0.4095  0.5306  0.2009
 2129SOL     OW18022   1.619   4.311   2.895 -0.2922  0.1650 -0.0844
 2129SOL    HW118023   1.575   4.247   2.951  0.1634 -0.5568 -0.5496
 2129SOL    HW218024   1.602   4.384   2.955 -1.4002 -1.0410  1.0752
 2130SOL     OW18025   3.327   0.468   2.741  0.0210  0.5123 -0.3538
 2130SOL    HW118026   3.369   0.397   2.693 -0.1751 -1.4835  2.4074
 2130SOL    HW218027   3.275   0.500   2.668 -0.0825 -0.5133 -0.7352
 2131SOL     OW18028   1.168   3.724   2.017 -0.1569 -0.4029  0.3371
 2131SOL    HW118029   1.244   3.755   1.969  0.5790 -0.3257  1.5351
 2131SOL    HW218030   1.204   3.725   2.106 -2.1227  0.3253  1.1196
 2132SOL     OW18031   3.362   3.591   1.126  0.0279  0.7115 -0.0558
 2132SOL    HW118032   3.376   3.610   1.033  1.1360  0.1907  0.0087
 2132SOL    HW218033   3.390   3.500   1.128 -1.9580  0.0655 -1.7447
 2133SOL     OW18034   4.307   3.190   6.495  0.5600 -0.0168 -0.5414
 2133SOL    HW118035   4.365   3.118   6.472 -0.0564 -0.1989 -1.5184
 2133SOL    HW218036   4.221   3.149   6.509  1.2586 -1.5484 -0.7447
 2134SOL     OW18037   1.622   1.726   9.296  0.2792  0.4184 -0.1252
 2134SOL    HW118038   1.604   1.783   9.372  2.2481  0.4229  0.3349
 2134SOL    HW218039   1.714   1.708   9.314  0.1147 -0.8619 -0.6129
 2135SOL     OW18040   4.684   4.233   4.323  0.1442  1.0562 -0.0105
 2135SOL    HW118041   0.012   4.188   4.368  0.3307 -0.3338 -1.7040
 2135SOL    HW218042   4.665   4.157   4.269 -1.0486  0.1552  1.6967
 2136SOL     OW18043   3.681   1.102   7.238  0.2607  0.7885 -0.6407
 2136SOL    HW118044   3.594   1.142   7.241 -0.6972 -1.5466  2.3035
 2136SOL    HW218045   3.663   1.032   7.175 -3.2079  0.8787  0.2993
 2137SOL     OW18046   4.606   2.663   7.403  0.0218  0.3073 -0.2625
 2137SOL    HW118047   4.582   2.746   7.442 -1.7507 -1.0311  1.5195
 2137SOL    HW218048   4.559   2.676   7.321 -0.5606 -3.7977 -0.6149
 2138SOL     OW18049   2.344   0.455  14.657 -0.5720 -0.1867  0.3119
 2138SOL    HW118050   2.412   0.436  14.592 -0.3194  1.7822 -0.0006
 2138SOL    HW218051   2.270   0.422  14.606 -0.3504 -0.6991  0.3279
 2139SOL     OW18052   0.110   3.016   4.413 -0.3950 -0.0950  0.0124
 2139SOL    HW118053   0.071   2.954   4.474  1.4498  0.1908  1.4950
 2139SOL    HW218054   0.203   3.018   4.436 -0.1431  0.9433 -1.0466
 2140SOL     OW18055   3.320   2.838  10.638 -0.0259 -0.1165  0.5679
 2140SOL    HW118056   3.314   2.745  10.660 -0.8065  0.3129  2.1432
 2140SOL    HW218057   3.241   2.873  10.679  0.4887  0.4678  1.0442
 2141SOL     OW18058   0.561   2.758   4.835 -0.1340 -0.1401  0.0518
 2141SOL    HW118059   0.503   2.778   4.760  0.3866  1.1736  0.0039
 2141SOL    HW218060   0.649   2.771   4.800 -1.2169  2.2755 -1.7843
 2142SOL     OW18061   1.821   3.716   1.732 -0.7196 -0.2690  0.1921
 2142SOL    HW118062   1.779   3.702   1.818 -1.9845 -1.2742 -0.5910
 2142SOL    HW218063   1.898   3.761   1.766  0.9453 -1.6934 -1.7245
 2143SOL     OW18064   3.025   1.812   4.044  0.2223  0.3916  0.4572
 2143SOL    HW118065   3.030   1.777   4.133  0.5431  0.5376  0.4962
 2143SOL    HW218066   2.948   1.869   4.054  0.1580  0.6124 -1.2171
 2144SOL     OW18067   3.751   3.620   5.529  0.1665  0.1461 -0.0059
 2144SOL    HW118068   3.695   3.560   5.480  0.1268  1.0109 -1.0254
 2144SOL    HW218069   3.700   3.641   5.607  1.0232  1.3891  0.2202
 2145SOL     OW18070   1.018   4.141  14.314 -0.4553  0.5589 -0.3642
 2145SOL    HW118071   1.053   4.138  14.225  0.3199  1.5554 -0.0971
 2145SOL    HW218072   1.097   4.155  14.366 -0.6750 -0.3017  0.2012
 2146SOL     OW18073   3.706   3.446   6.919 -0.1283  0.0735 -0.3202
 2146SOL    HW118074   3.751   3.456   6.836  0.7367 -2.3062 -0.1481
 2146SOL    HW218075   3.642   3.378   6.901  0.2942 -0.9299  1.8633
 2147SOL     OW18076   1.446   0.004  14.671 -0.2205  0.6439  0.1523
 2147SOL    HW118077   1.454   0.007  14.767 -1.9965  0.3654  0.3117
 2147SOL    HW218078   1.513   0.066  14.642  0.0409 -0.5406 -1.7246
 2148SOL     OW18079   1.852   0.022   3.429  0.0292 -0.0828  0.4212
 2148SOL    HW118080   1.778   4.733   3.377  0.8773  0.3499 -1.0439
 2148SOL    HW218081   1.908   4.688   3.427  1.1487  0.7553 -0.1072
 2149SOL     OW18082   3.696   3.520   7.890  1.1385 -0.2082 -0.1104
 2149SOL    HW118083   3.691   3.600   7.838 -0.5460 -1.0244 -1.2451
 2149SOL    HW218084   3.604   3.503   7.911  1.6242 -2.3991  0.2943
 2150SOL     OW18085   4.634   0.493  10.015 -0.9891 -0.4520 -0.3521
 2150SOL    HW118086   4.689   0.531   9.946  0.6259 -3.7761 -0.8808
 2150SOL    HW218087   4.606   0.571  10.064  1.9532  0.8142 -0.6997
 2151SOL     OW18088   3.898   2.745   6.361  0.0982  0.3840  0.7122
 2151SOL    HW118089   3.859   2.744   6.273  1.2595 -1.6416  0.2174
 2151SOL    HW218090   3.916   2.839   6.370  0.5997  0.1295  2.4135
 2152SOL     OW18091   2.859   0.275   2.088  0.1873 -0.1334  0.4577
 2152SOL    HW118092   2.884   0.189   2.052 -0.5532 -0.2544  0.2221
 2152SOL    HW218093   2.932   0.292   2.147  0.9855 -2.0711  0.0421
 2153SOL     OW18094   0.670   1.249   8.919 -0.1151  0.0746  0.2929
 2153SOL    HW118095   0.671   1.344   8.919 -0.8090  0.0835  2.4208
 2153SOL    HW218096   0.760   1.228   8.943  0.2976 -0.6273 -1.7821
 2154SOL     OW18097   3.927   1.355   9.980  0.3268 -0.0339  0.4504
 2154SOL    HW118098   3.861   1.289   9.997  1.1034 -0.3582  2.1836
 2154SOL    HW218099   3.972   1.316   9.905 -0.2063 -0.2220  0.2285
 2155SOL     OW18100   4.343   3.995   3.989 -0.1640 -0.1391 -0.0484
 2155SOL    HW118101   4.369   3.943   4.065  0.6057  1.2338  0.6373
 2155SOL    HW218102   4.266   4.037   4.026  1.7680  1.4963  2.1512
 2156SOL     OW18103   0.769   2.930   3.247 -0.0369  0.2818  0.4259
 2156SOL    HW118104   0.834   2.958   3.182  0.4429  0.4393  0.9775
 2156SOL    HW218105   0.804   2.977   3.323  0.1358 -1.0232  1.1649
 2157SOL     OW18106   4.695   0.072  16.825  0.0611 -0.5669 -0.4489
 2157SOL    HW118107   0.040   0.108  16.821 -0.3298  0.7555  2.3951
 2157SOL    HW218108   4.707   4.742  16.886  0.5012  1.1102  1.4927
 2158SOL     OW18109   1.903   3.452   9.987  0.1899 -0.1319  0.1939
 2158SOL    HW118110   1.835   3.456  10.054 -1.4590 -1.5760 -1.4169
 2158SOL    HW218111   1.852   3.443   9.906 -1.1514  0.4996  0.9716
 2159SOL     OW18112   2.091   2.029   8.953  0.3802 -0.1805 -0.0076
 2159SOL    HW118113   2.017   1.986   8.996 -0.2385  0.1984 -0.6874
 2159SOL    HW218114   2.081   2.002   8.862  0.9318 -0.1538 -0.0716
 2160SOL     OW18115   3.781   0.783   5.381  0.2060 -0.6741 -0.2478
 2160SOL    HW118116   3.735   0.837   5.446  1.9338 -0.6686  0.9833
 2160SOL    HW218117   3.815   0.854   5.326 -0.5709  0.8390  1.2126
 2161SOL     OW18118   3.609   0.795   8.155  1.1282 -0.2614  0.1045
 2161SOL    HW118119   3.631   0.868   8.097  1.1693 -1.1929 -1.0644
 2161SOL    HW218120   3.538   0.831   8.207  0.4326  2.3801 -2.6563
 2162SOL     OW18121   3.052   1.146   3.860 -0.7666  0.4674  0.7524
 2162SOL    HW118122   2.968   1.188   3.843 -0.6407  0.2084 -0.4910
 2162SOL    HW218123   3.118   1.215   3.869  0.2365 -0.5694  1.5104
 2163SOL     OW18124   1.065   1.407   4.379  0.3904 -0.2698  0.4490
 2163SOL    HW118125   1.012   1.480   4.412  1.5370  1.6178 -1.8761
 2163SOL    HW218126   1.041   1.340   4.443  1.0792 -0.5448  0.4095
 2164SOL     OW18127   4.604   3.933   8.477  0.2575 -0.7401 -0.4066
 2164SOL    HW118128   4.548   4.006   8.453  0.5003  0.4441  2.6179
 2164SOL    HW218129   4.548   3.855   8.479 -1.2003  0.3916  2.1816
 2165SOL     OW18130   1.724   3.247  12.179  0.4003 -0.1382 -0.1332
 2165SOL    HW118131   1.738   3.243  12.084  0.4091 -1.6553 -0.0612
 2165SOL    HW218132   1.810   3.210  12.200  0.6463  0.8103  0.5399
 2166SOL     OW18133   3.605   1.041  10.365  0.0933 -0.3962 -0.6814
 2166SOL    HW118134   3.669   0.976  10.338  0.1757 -0.7893  0.4448
 2166SOL    HW218135   3.592   1.008  10.454  3.2858  1.7686  0.5943
 2167SOL     OW18136   2.567   3.624   6.489 -0.4860 -0.0596 -0.7001
 2167SOL    HW118137   2.653   3.582   6.496 -1.5250 -2.0307  0.4529
 2167SOL    HW218138   2.596   3.695   6.432  1.9576 -1.6923 -1.5271
 2168SOL     OW18139   2.961   1.400   0.267 -0.5568 -0.4867 -0.1294
 2168SOL    HW118140   2.918   1.372   0.186 -2.1571  0.5610  0.3588
 2168SOL    HW218141   3.034   1.445   0.224 -0.6748  0.8959  1.1065
 2169SOL     OW18142   1.952   0.374   8.511  0.0577 -0.2414 -0.5780
 2169SOL    HW118143   1.876   0.365   8.570  0.8924 -2.0107  0.2379
 2169SOL    HW218144   1.948   0.468   8.493  1.1886  0.2274  1.5361
 2170SOL     OW18145   3.985   4.357   6.827  0.2130 -0.0632 -0.1611
 2170SOL    HW118146   3.908   4.375   6.882  0.2374  1.5458 -0.6398
 2170SOL    HW218147   4.058   4.358   6.890 -0.1289  0.1529  0.2371
 2171SOL     OW18148   1.518   2.564   1.227 -0.4478  0.4158 -0.3089
 2171SOL    HW118149   1.523   2.609   1.312 -1.6290 -0.3710  0.1709
 2171SOL    HW218150   1.427   2.575   1.199  0.0311 -0.2262 -2.1299
 2172SOL     OW18151   3.402   2.703  15.861 -0.0997 -0.0223  0.5836
 2172SOL    HW118152   3.478   2.760  15.861  1.4873 -2.1354 -0.1727
 2172SOL    HW218153   3.377   2.718  15.769 -0.0807 -1.9099  0.2675
 2173SOL     OW18154   0.627   2.378   6.703  0.0524  0.1867 -0.0472
 2173SOL    HW118155   0.689   2.367   6.775  1.9851  1.9306 -1.4468
 2173SOL    HW218156   0.639   2.302   6.647 -0.4232 -1.8956  2.6530
 2174SOL     OW18157   0.961   2.627   2.611 -0.6072  0.2377 -0.4436
 2174SOL    HW118158   1.029   2.580   2.660  0.4678  2.0777 -0.1547
 2174SOL    HW218159   1.002   2.713   2.595  2.3584 -0.6703  2.1383
 2175SOL     OW18160   2.554   3.426   5.292 -0.5499 -0.2196  0.3782
 2175SOL    HW118161   2.484   3.476   5.334  0.0526  0.1188  0.9768
 2175SOL    HW218162   2.521   3.425   5.202 -1.7047  1.6362  0.7711
 2176SOL     OW18163   2.596   3.869   3.939  0.2211  0.2788  0.3429
 2176SOL    HW118164   2.545   3.825   4.006 -0.9847  0.4351 -0.4826
 2176SOL    HW218165   2.529   3.882   3.872 -0.9777 -0.8063  1.3404
 2177SOL     OW18166   1.387   3.693   6.428  0.7269 -0.7369 -0.5196
 2177SOL    HW118167   1.431   3.608   6.417  1.2983 -0.8051  2.2299
 2177SOL    HW218168   1.318   3.680   6.493 -0.1700  0.6002 -1.2095
 2178SOL     OW18169   3.290   1.306  17.432 -0.4821  0.1721  0.1988
 2178SOL    HW118170   3.248   1.380  17.388  1.2988  0.0760 -1.6459
 2178SOL    HW218171   3.354   1.354  17.484  0.0826 -0.5160  0.1424
 2179SOL     OW18172   4.371   0.294   1.306  0.2957 -0.1390 -0.6528
 2179SOL    HW118173   4.461   0.319   1.326  0.4879 -1.4497  0.0943
 2179SOL    HW218174   4.356   0.235   1.379  2.1802 -1.5745 -1.4227
 2180SOL     OW18175   4.450   2.927   8.641 -0.6354  0.6724  0.4391
 2180SOL    HW118176   4.386   2.926   8.570  3.3033  1.1615 -3.1222
 2180SOL    HW218177   4.446   2.838   8.674 -1.1450  0.2227 -0.8199
 2181SOL     OW18178   2.825   3.976   8.537  0.0058 -0.4547  0.4112
 2181SOL    HW118179   2.919   3.990   8.531  0.1357 -1.5813 -0.1225
 2181SOL    HW218180   2.811   3.881   8.533  2.5111 -0.7704 -0.5435
 2182SOL     OW18181   2.334   3.620   8.222 -0.3934  0.7838  0.3818
 2182SOL    HW118182   2.346   3.632   8.316 -0.5648 -1.4859  0.7011
 2182SOL    HW218183   2.396   3.689   8.199 -0.7327  1.5059  1.6621
 2183SOL     OW18184   4.279   2.018   7.320  0.5111 -0.2076  0.1792
 2183SOL    HW118185   4.313   2.040   7.407 -0.6492  0.6622  0.4120
 2183SOL    HW218186   4.306   2.093   7.268  0.5529  1.0688  2.0311
 2184SOL     OW18187   3.243   1.808   5.327 -0.3466 -0.4614 -0.1003
 2184SOL    HW118188   3.313   1.870   5.309 -0.7401 -0.3475 -1.1976
 2184SOL    HW218189   3.266   1.715   5.323  0.1461 -0.2951 -1.0728
 2185SOL     OW18190   3.297   4.633   6.045 -0.3424 -0.9331  0.3248
 2185SOL    HW118191   3.363   4.689   6.006 -2.6009  0.9640 -0.7799
 2185SOL    HW218192   3.242   4.622   5.967 -0.5467 -0.2542  0.3770
 2186SOL     OW18193   0.013   4.319   7.407 -0.1005  0.1212  0.1651
 2186SOL    HW118194   4.688   4.375   7.443  0.3506  0.1528  0.9601
 2186SOL    HW218195   0.081   4.315   7.474 -0.6043  1.5398  0.7483
 2187SOL     OW18196   3.865   0.687   6.263  0.5038  0.8887  0.1772
 2187SOL    HW118197   3.809   0.627   6.214  0.8354 -1.3043  2.4611
 2187SOL    HW218198   3.871   0.762   6.204 -1.7305  1.3878  0.5816
 2188SOL     OW18199   2.915   4.508   8.912 -0.1017 -0.4972  0.3081
 2188SOL    HW118200   2.902   4.422   8.953  2.8209 -0.7200  0.7565
 2188SOL    HW218201   2.981   4.482   8.847 -0.1811  0.3990 -0.1267
 2189SOL     OW18202   0.566   0.452   8.584  0.0914 -0.4476 -0.2208
 2189SOL    HW118203   0.573   0.372   8.532  1.7591  0.3213 -1.1505
 2189SOL    HW218204   0.502   0.432   8.653  0.0381  1.1978  0.2020
 2190SOL     OW18205   1.233   1.082   1.423 -0.4410  0.2495  0.6731
 2190SOL    HW118206   1.242   1.143   1.496 -0.1982 -0.4440  1.2190
 2190SOL    HW218207   1.276   1.002   1.453  0.4140  0.5605  0.2868
 2191SOL     OW18208   4.650   3.113  13.139  0.5999 -0.0864  0.0133
 2191SOL    HW118209   4.598   3.076  13.210 -0.5756 -2.1945 -1.9478
 2191SOL    HW218210   4.621   3.203  13.151  0.9477 -0.1357  1.2812
 2192SOL     OW18211   0.076   1.815   3.532  0.0268  0.0041  0.1843
 2192SOL    HW118212   0.006   1.869   3.495 -0.9711  0.2717  2.3965
 2192SOL    HW218213   0.120   1.887   3.578  1.0300 -0.1029 -0.6179
 2193SOL     OW18214   1.588   3.407   8.622  0.1868 -0.7520  0.0713
 2193SOL    HW118215   1.558   3.359   8.699 -1.4248  1.2840  0.7509
 2193SOL    HW218216   1.515   3.467   8.602  0.0946 -1.4172 -1.6353
 2194SOL     OW18217   1.818   3.889   5.181 -1.1349  0.1378  0.5898
 2194SOL    HW118218   1.778   3.802   5.177  0.4956 -0.5898  0.1435
 2194SOL    HW218219   1.851   3.877   5.270  0.3111  0.1983  0.0611
 2195SOL     OW18220   3.941   1.765   5.630  0.1174  0.0858  0.1264
 2195SOL    HW118221   3.933   1.673   5.606  1.0984  0.3319 -1.1007
 2195SOL    HW218222   3.853   1.795   5.609 -0.1559  1.1247  2.7269
 2196SOL     OW18223   3.253   4.220   2.112  0.2450  0.2027  0.2294
 2196SOL    HW118224   3.328   4.279   2.115  0.9852 -0.6453 -1.5023
 2196SOL    HW218225   3.223   4.224   2.022  1.1264  0.1792 -0.0664
 2197SOL     OW18226   0.471   2.935  13.487  0.0666  0.8206 -0.4719
 2197SOL    HW118227   0.474   2.848  13.526 -1.3839  0.5471 -0.9723
 2197SOL    HW218228   0.504   2.907  13.402 -2.6741 -2.6102 -0.3812
 2198SOL     OW18229   2.708   4.354   3.742  0.0946 -0.4308 -0.0368
 2198SOL    HW118230   2.777   4.415   3.717 -1.1545  0.6294 -0.8957
 2198SOL    HW218231   2.758   4.273   3.756  1.1826 -0.4339 -4.0148
 2199SOL     OW18232   3.492   1.426   6.356 -0.0166  0.2578  0.8579
 2199SOL    HW118233   3.572   1.440   6.407  0.7475  2.0681 -0.8656
 2199SOL    HW218234   3.422   1.433   6.422  0.2119  1.1516  0.9991
 2200SOL     OW18235   1.522   0.301   6.001 -0.4457 -0.5377  0.0149
 2200SOL    HW118236   1.447   0.241   5.996 -0.2366 -0.8114  0.1178
 2200SOL    HW218237   1.496   0.372   5.943 -0.4492 -0.7291 -0.2222
 2201SOL     OW18238   2.964   0.153   4.686 -0.4231  0.7567  0.3145
 2201SOL    HW118239   3.000   0.241   4.669  1.2646  0.2374  1.2005
 2201SOL    HW218240   2.894   0.169   4.749  0.0789 -1.3966  1.4012
 2202SOL     OW18241   1.875   1.603   0.556  0.2598 -0.2122  0.5402
 2202SOL    HW118242   1.851   1.551   0.479  0.5158 -0.4622  0.6292
 2202SOL    HW218243   1.850   1.545   0.628 -2.1144 -1.6003 -1.3626
 2203SOL     OW18244   0.964   3.300   5.759  0.2124  0.1410  0.4385
 2203SOL    HW118245   0.986   3.378   5.809  1.7055  0.0521 -0.0826
 2203SOL    HW218246   1.017   3.304   5.679  0.1025 -0.9814  0.3129
 2204SOL     OW18247   2.095   4.441   5.986 -0.0406  0.6406 -0.2236
 2204SOL    HW118248   2.151   4.469   5.914  1.4276 -1.8418 -0.0840
 2204SOL    HW218249   2.025   4.504   5.971 -0.0391  0.8683  0.7666
 2205SOL     OW18250   3.054   0.149   5.099 -0.1612  0.1145  0.4298
 2205SOL    HW118251   3.133   0.179   5.144  1.3907 -1.1635 -1.4176
 2205SOL    HW218252   3.067   0.177   5.008 -0.5099 -0.9159  0.0632
 2206SOL     OW18253   3.355   2.259   9.392  0.4066 -0.6769  0.8998
 2206SOL    HW118254   3.293   2.329   9.414 -0.0162 -1.0065  0.7707
 2206SOL    HW218255   3.317   2.230   9.309  1.1585 -1.4166  0.8203
 2207SOL     OW18256   2.445   1.083   0.948 -1.0505  0.0583 -0.1025
 2207SOL    HW118257   2.506   1.142   0.904 -1.2672  1.2173  1.1501
 2207SOL    HW218258   2.455   0.992   0.918 -0.5606 -0.8676  2.9213
 2208SOL     OW18259   3.240   3.218  12.217 -0.3565 -0.1031  0.0763
 2208SOL    HW118260   3.181   3.287  12.248 -1.8163 -1.1728 -0.2908
 2208SOL    HW218261   3.318   3.247  12.264  0.0230 -3.1424  1.2878
 2209SOL     OW18262   3.044   2.946   2.627 -0.5517 -0.1297 -0.2915
 2209SOL    HW118263   3.068   2.926   2.537  0.9926  0.0305  0.0827
 2209SOL    HW218264   2.976   3.012   2.612  0.2341  1.0644  1.4002
 2210SOL     OW18265   3.845   2.387   5.303  0.0298 -0.4356  0.0073
 2210SOL    HW118266   3.792   2.406   5.225 -0.2659  1.8077  0.7518
 2210SOL    HW218267   3.802   2.302   5.315  1.1120 -0.9131  0.4441
 2211SOL     OW18268   1.800   0.328   4.470 -0.0349 -0.1161 -0.4236
 2211SOL    HW118269   1.731   0.389   4.443  0.1863  0.8406  1.2329
 2211SOL    HW218270   1.838   0.368   4.548  2.3299 -0.0592 -1.6269
 2212SOL     OW18271   0.567   2.804  17.630 -0.7556 -0.0655 -0.6143
 2212SOL    HW118272   0.484   2.803  17.581 -1.4269 -0.2318  0.5399
 2212SOL    HW218273   0.547   2.774  17.719  0.2082 -0.3213 -0.4858
 2213SOL     OW18274   3.720   2.235   7.652 -0.3073  0.4255 -0.3621
 2213SOL    HW118275   3.764   2.155   7.621 -2.4297 -0.4258 -1.1400
 2213SOL    HW218276   3.635   2.201   7.680  0.5615 -1.0463  0.5100
 2214SOL     OW18277   0.269   2.980   1.874  0.4138  0.4944  0.1120
 2214SOL    HW118278   0.245   2.893   1.843  1.2770  0.2230  0.2015
 2214SOL    HW218279   0.194   3.002   1.929  0.3006 -1.8361  0.8802
 2215SOL     OW18280   2.585   2.972   7.608 -0.1891 -0.5604  0.5715
 2215SOL    HW118281   2.565   3.055   7.651 -1.8036 -1.2988  1.2508
 2215SOL    HW218282   2.649   2.931   7.667  1.1278  3.7591  2.1536
 2216SOL     OW18283   1.570   1.346  10.868  0.3466 -0.5981 -0.8257
 2216SOL    HW118284   1.550   1.364  10.776  0.2569 -1.2618 -0.9359
 2216SOL    HW218285   1.572   1.252  10.883 -0.4686 -0.6733 -1.1991
 2217SOL     OW18286   0.737   4.674   7.259 -0.2045 -0.2604  0.4003
 2217SOL    HW118287   0.743   4.670   7.355  0.6534  1.8919  0.4337
 2217SOL    HW218288   0.653   4.711   7.235 -0.3117 -1.4390 -1.0320
 2218SOL     OW18289   0.437   0.835  12.625  0.2745  0.3715  0.2853
 2218SOL    HW118290   0.512   0.789  12.586 -0.0773  0.5161 -0.5636
 2218SOL    HW218291   0.388   0.782  12.688 -0.3702 -0.1847 -0.6902
 2219SOL     OW18292   4.438   4.289  15.200 -0.2719  0.3364 -0.2722
 2219SOL    HW118293   4.464   4.327  15.284 -0.5367  3.0622 -1.4346
 2219SOL    HW218294   4.487   4.351  15.145 -2.0484 -0.7065 -3.0034
 2220SOL     OW18295   2.668   2.568   1.952  0.8155 -0.2912  0.2370
 2220SOL    HW118296   2.657   2.660   1.976  0.5656  0.3839 -2.4353
 2220SOL    HW218297   2.672   2.565   1.856 -0.8703  2.0562  0.0834
 2221SOL     OW18298   1.847   0.407   6.628  0.3426  0.0388 -0.4724
 2221SOL    HW118299   1.841   0.502   6.615  1.7207  0.3543  1.1383
 2221SOL    HW218300   1.910   0.409   6.700 -0.9743  0.2021  0.6822
 2222SOL     OW18301   4.056   3.685   8.096  0.0742  0.2262  0.1417
 2222SOL    HW118302   3.969   3.690   8.055  0.5598 -1.4943 -1.0890
 2222SOL    HW218303   4.037   3.692   8.190 -1.4499 -0.2715 -0.1387
 2223SOL     OW18304   2.609   0.953  14.706 -0.0506  0.2082 -0.8678
 2223SOL    HW118305   2.702   0.930  14.701 -0.4721 -1.5917 -0.3447
 2223SOL    HW218306   2.572   0.865  14.702 -1.2634  0.7524 -1.5862
 2224SOL     OW18307   4.058   0.922   7.876  0.6440  0.1206 -0.4813
 2224SOL    HW118308   4.037   0.830   7.861  3.8014 -0.8750  1.2431
 2224SOL    HW218309   4.058   0.968   7.792 -0.4660 -0.0692 -0.5936
 2225SOL     OW18310   0.033   2.383  10.352  0.2149  0.2095 -0.0072
 2225SOL    HW118311   4.727   2.425  10.423  1.2673  1.7840 -0.2214
 2225SOL    HW218312   0.037   2.453  10.287  0.2750  0.1064 -0.1145
 2226SOL     OW18313   4.227   4.274   3.776  0.3066 -0.2526 -0.6885
 2226SOL    HW118314   4.247   4.296   3.685 -0.7984  0.4657 -0.7635
 2226SOL    HW218315   4.293   4.320   3.827  0.9381 -0.1749 -1.5748
 2227SOL     OW18316   2.206   2.818   2.152  0.0661 -0.4241 -0.3844
 2227SOL    HW118317   2.130   2.876   2.157  0.2837 -0.1798  0.0596
 2227SOL    HW218318   2.280   2.867   2.187 -1.3292  4.1073 -3.7569
 2228SOL     OW18319   3.876   3.888   7.438  0.3789 -0.2323 -0.0389
 2228SOL    HW118320   3.809   3.953   7.419  2.0611  1.7028  0.6678
 2228SOL    HW218321   3.950   3.941   7.467  0.8066 -0.4423 -0.7694
 2229SOL     OW18322   0.259   0.272   1.616 -0.7393  0.6726  0.1869
 2229SOL    HW118323   0.213   0.221   1.683  1.0190 -1.1463 -0.0122
 2229SOL    HW218324   0.189   0.299   1.556 -1.4247 -2.7777 -0.5458
 2230SOL     OW18325   1.894   1.937   8.342  0.0671  0.3886 -0.0069
 2230SOL    HW118326   1.861   1.891   8.264  4.0747 -0.3117 -1.2722
 2230SOL    HW218327   1.984   1.906   8.346  0.9599  3.3006  2.3721
 2231SOL     OW18328   2.009   1.058   0.708  0.1957  0.4276  0.2748
 2231SOL    HW118329   1.973   0.972   0.683 -0.7266  0.6267  0.9037
 2231SOL    HW218330   2.023   1.097   0.622  1.6204 -1.0426 -0.1677
 2232SOL     OW18331   4.660   4.345   5.416  0.1886  0.0222 -0.2401
 2232SOL    HW118332   0.001   4.354   5.460 -0.6075  0.5731  1.1528
 2232SOL    HW218333   4.689   4.375   5.329  0.7984 -0.1321 -0.0894
 2233SOL     OW18334   0.182   1.753  12.118  0.4456 -0.1795 -0.0465
 2233SOL    HW118335   0.260   1.727  12.168  1.3184  0.4952 -1.0817
 2233SOL    HW218336   0.105   1.760  12.176  1.8211  0.6198  1.6859
 2234SOL     OW18337   4.126   3.500  16.028  0.4164  0.5170  0.3733
 2234SOL    HW118338   4.032   3.516  16.018  0.9893  3.3946 -0.2462
 2234SOL    HW218339   4.162   3.506  15.940  1.5839  2.2697  0.9816
 2235SOL     OW18340   2.022   0.382   6.829 -0.0351  0.2864 -0.1638
 2235SOL    HW118341   2.017   0.355   6.920 -1.9313  0.3579 -0.2563
 2235SOL    HW218342   2.069   0.301   6.805  1.2621  0.7597  0.7780
 2236SOL     OW18343   4.192   0.886   6.966 -0.1612 -0.0389 -0.3257
 2236SOL    HW118344   4.198   0.866   7.059 -0.7072  0.5545 -0.1636
 2236SOL    HW218345   4.271   0.844   6.932 -1.0378 -1.0712 -1.0893
 2237SOL     OW18346   2.331   2.562   1.250 -0.8047 -0.5631  0.2475
 2237SOL    HW118347   2.275   2.618   1.303  0.9646 -0.0335  1.5551
 2237SOL    HW218348   2.308   2.593   1.162 -1.0418  1.6653  1.1128
 2238SOL     OW18349   2.112   0.639   6.493 -0.9066  0.2866 -0.1229
 2238SOL    HW118350   2.101   0.544   6.497 -0.6942  0.3522  2.1123
 2238SOL    HW218351   2.138   0.659   6.583  0.7996  0.3652 -0.6226
 2239SOL     OW18352   1.111   2.894   3.923  0.3468 -0.0816  0.0532
 2239SOL    HW118353   1.159   2.943   3.990 -0.4969 -0.0906  0.6692
 2239SOL    HW218354   1.174   2.883   3.852  0.3692  0.7247 -0.0510
 2240SOL     OW18355   1.830   2.328  16.163  0.4597 -0.0030  0.0736
 2240SOL    HW118356   1.759   2.266  16.149  0.7875  0.4155 -3.4828
 2240SOL    HW218357   1.819   2.343  16.257  0.2647  3.2262 -0.4591
 2241SOL     OW18358   1.132   3.565  11.576 -0.6012 -0.0293  0.1592
 2241SOL    HW118359   1.129   3.644  11.630 -3.2912  0.7848 -1.1870
 2241SOL    HW218360   1.196   3.518  11.630 -2.2464 -1.8467  0.5132
 2242SOL     OW18361   2.954   2.703  15.599 -0.4832 -0.1693 -0.4178
 2242SOL    HW118362   2.968   2.622  15.647 -1.3230  0.8643  1.6025
 2242SOL    HW218363   3.019   2.763  15.636 -1.5579  2.1010 -2.2116
 2243SOL     OW18364   4.128   3.187   3.850 -0.6099  0.1643  0.3442
 2243SOL    HW118365   4.148   3.254   3.785  0.6919 -0.7218 -0.1675
 2243SOL    HW218366   4.205   3.209   3.902 -0.4554 -0.2853  0.3074
 2244SOL     OW18367   1.189   2.154  16.737 -0.1326 -0.3609 -0.1800
 2244SOL    HW118368   1.211   2.109  16.819  2.7954 -0.5533 -1.0912
 2244SOL    HW218369   1.126   2.220  16.769  1.0028 -0.2785  1.8620
 2245SOL     OW18370   1.744   4.518  17.019 -0.0850  0.4970 -0.3633
 2245SOL    HW118371   1.704   4.519  16.932 -0.4072 -2.6960 -0.2611
 2245SOL    HW218372   1.670   4.555  17.069 -0.9291 -1.0853 -0.4328
 2246SOL     OW18373   3.114   0.431   6.809  0.4878 -0.4584  1.1080
 2246SOL    HW118374   3.126   0.338   6.826 -2.4052 -0.8872  0.7307
 2246SOL    HW218375   3.195   0.468   6.845 -0.3868  1.0772  1.4892
 2247SOL     OW18376   3.337   4.068   7.490  0.0726 -0.4725 -0.0184
 2247SOL    HW118377   3.404   4.134   7.470 -0.3938 -0.3969 -1.3179
 2247SOL    HW218378   3.260   4.115   7.460 -1.5543 -1.9927  1.7945
 2248SOL     OW18379   3.532   1.262   6.921  0.2400 -0.0184 -0.1798
 2248SOL    HW118380   3.450   1.221   6.946 -0.1790  0.9250 -0.0209
 2248SOL    HW218381   3.520   1.263   6.827  0.8007  2.3258 -0.2219
 2249SOL     OW18382   4.282   0.280   4.286 -0.0116 -0.5875  0.2050
 2249SOL    HW118383   4.252   0.238   4.205  1.5974  2.4952 -2.0217
 2249SOL    HW218384   4.200   0.322   4.308  1.4530  2.8987 -1.0291
 2250SOL     OW18385   4.396   3.538   6.571  0.1491 -0.3391 -0.7053
 2250SOL    HW118386   4.325   3.531   6.634 -0.0948  3.8597 -0.5302
 2250SOL    HW218387   4.346   3.575   6.498 -1.9522  0.0158  0.9105
 2251SOL     OW18388   2.006   3.170   2.940 -0.6627 -0.5353 -0.3031
 2251SOL    HW118389   1.920   3.145   2.973 -0.5436 -0.1860  0.2570
 2251SOL    HW218390   1.981   3.235   2.875  1.8048 -0.7038 -1.4385
 2252SOL     OW18391   0.311   2.284   1.474  0.3731 -0.3395 -0.3851
 2252SOL    HW118392   0.285   2.343   1.544  2.1364 -1.9836  1.6469
 2252SOL    HW218393   0.377   2.342   1.435  0.5849  0.2410  0.8203
 2253SOL     OW18394   3.310   4.005   9.337  0.1453  0.9357 -0.0043
 2253SOL    HW118395   3.313   3.947   9.413 -1.9735 -0.4667 -1.0009
 2253SOL    HW218396   3.223   4.045   9.332 -0.5481 -0.8908 -2.7207
 2254SOL     OW18397   0.884   3.114   5.047  0.2540  0.1035  0.5289
 2254SOL    HW118398   0.800   3.069   5.056  0.2527  0.3927  2.0342
 2254SOL    HW218399   0.904   3.108   4.954 -1.7585 -1.7017  0.1997
 2255SOL     OW18400   3.072   0.321  13.805 -0.1867 -0.3767 -0.0352
 2255SOL    HW118401   3.124   0.400  13.815 -0.1473 -0.3176 -0.6853
 2255SOL    HW218402   3.014   0.352  13.735 -0.4128 -1.5498 -0.3679
 2256SOL     OW18403   2.530   1.675   2.281  0.6659 -0.0706 -0.3944
 2256SOL    HW118404   2.491   1.761   2.292  0.8796  0.0962 -0.9581
 2256SOL    HW218405   2.593   1.677   2.353 -1.4302  0.3512  1.4222
 2257SOL     OW18406   2.469   2.079  11.844  0.5671 -0.4864 -0.1470
 2257SOL    HW118407   2.464   2.162  11.892  1.0899  0.7392 -2.2044
 2257SOL    HW218408   2.508   2.093  11.757  0.3293 -0.5060 -0.2558
 2258SOL     OW18409   0.021   1.840   3.850 -0.2481  0.8465  0.0970
 2258SOL    HW118410   4.687   1.865   3.799  0.2312  1.6293 -0.2479
 2258SOL    HW218411   0.042   1.928   3.883 -0.8950  1.1527 -0.3135
 2259SOL     OW18412   2.278   3.026  11.350  0.5296 -0.2935  0.0366
 2259SOL    HW118413   2.355   3.061  11.305  0.7334  0.0697  0.6673
 2259SOL    HW218414   2.277   2.933  11.330  2.3795 -0.4552  0.6819
 2260SOL     OW18415   0.595   1.391   4.208 -0.0717 -0.1243  0.2387
 2260SOL    HW118416   0.640   1.403   4.124 -1.5087  2.3165 -0.1836
 2260SOL    HW218417   0.503   1.380   4.187 -0.0979  1.8910 -0.7118
 2261SOL     OW18418   2.590   4.247  17.239  0.8881  0.1016 -0.4388
 2261SOL    HW118419   2.539   4.314  17.194  0.7523 -1.8116 -3.1429
 2261SOL    HW218420   2.570   4.175  17.179  3.8995 -2.5563  1.7234
 2262SOL     OW18421   1.642   3.490   2.247  0.3963 -0.3326  0.4691
 2262SOL    HW118422   1.589   3.569   2.231 -0.6894 -1.1908 -0.1656
 2262SOL    HW218423   1.579   3.419   2.235 -0.3969  0.3764  0.4105
 2263SOL     OW18424   2.134   4.563  13.128  0.3314 -0.0539 -0.2073
 2263SOL    HW118425   2.137   4.542  13.034  0.9272 -0.0585 -0.1875
 2263SOL    HW218426   2.051   4.523  13.155 -0.9862  2.6177 -0.2892
 2264SOL     OW18427   0.565   2.045   3.201  0.0603 -0.1487  0.0000
 2264SOL    HW118428   0.472   2.047   3.179 -0.0257  0.5166  0.4274
 2264SOL    HW218429   0.590   1.994   3.124 -0.0158  0.0560 -0.1632
 2265SOL     OW18430   1.464   0.402  14.611  0.2945  0.0375  0.0135
 2265SOL    HW118431   1.454   0.497  14.616 -0.4129 -0.0026 -0.7072
 2265SOL    HW218432   1.542   0.407  14.555 -0.5308  1.2988 -1.0322
 2266SOL     OW18433   1.107   0.063   4.489 -0.4966  0.1960  0.3198
 2266SOL    HW118434   1.140   0.150   4.464  0.7341  0.3626  2.5086
 2266SOL    HW218435   1.189   0.026   4.521  1.1035  3.3701 -0.0480
 2267SOL     OW18436   3.156   0.583  11.614 -0.5813 -0.5380  0.7804
 2267SOL    HW118437   3.127   0.673  11.629  0.9103 -0.4530  3.1428
 2267SOL    HW218438   3.229   0.580  11.676 -2.0467 -1.1957  2.4442
 2268SOL     OW18439   4.353   1.299   6.347  0.0083  0.7008 -0.5822
 2268SOL    HW118440   4.353   1.303   6.443 -4.1959  1.0494 -0.5886
 2268SOL    HW218441   4.282   1.237   6.333 -0.9938  1.1835  2.2177
 2269SOL     OW18442   2.101   0.904   8.285 -0.3431 -0.1384 -0.3268
 2269SOL    HW118443   2.058   0.988   8.299  0.9678  0.8030 -2.0070
 2269SOL    HW218444   2.194   0.922   8.278  0.4365 -2.4549  4.2398
 2270SOL     OW18445   0.293   0.716   0.362  0.0176  0.2885 -0.0232
 2270SOL    HW118446   0.268   0.627   0.335  0.3193 -0.4148  2.0414
 2270SOL    HW218447   0.271   0.707   0.454 -1.0445  1.1496 -0.2010
 2271SOL     OW18448   0.831   2.852   9.936  0.3772 -0.7717 -0.5833
 2271SOL    HW118449   0.848   2.792  10.008  0.2995  1.5328  1.3722
 2271SOL    HW218450   0.839   2.800   9.856  0.2576 -1.7276  0.0297
 2272SOL     OW18451   2.296   2.669   0.349  0.1507  0.1457 -0.1581
 2272SOL    HW118452   2.244   2.739   0.389 -0.4109  0.5040 -1.5426
 2272SOL    HW218453   2.342   2.718   0.282  1.0581  0.4158  0.6590
 2273SOL     OW18454   2.961   3.017   6.102  0.2108  0.4529  0.2224
 2273SOL    HW118455   2.934   2.925   6.100  0.1109  0.4864  0.0628
 2273SOL    HW218456   2.875   3.055   6.083  0.2875  0.0851 -0.8436
 2274SOL     OW18457   0.789   3.197  16.345 -0.2000  0.4624  0.3196
 2274SOL    HW118458   0.796   3.279  16.297  0.8396  1.6038  2.4146
 2274SOL    HW218459   0.801   3.231  16.433  0.7653 -0.1349  0.4229
 2275SOL     OW18460   4.234   3.484   5.285 -0.0957  0.5568  0.4745
 2275SOL    HW118461   4.145   3.520   5.286 -0.5518 -0.5758 -0.5444
 2275SOL    HW218462   4.238   3.449   5.374  2.1533  0.7915  0.4701
 2276SOL     OW18463   1.293   4.593   3.706 -0.4280  0.7512  0.5436
 2276SOL    HW118464   1.374   4.571   3.752 -0.4040 -0.6931 -0.1864
 2276SOL    HW218465   1.250   4.658   3.762 -0.2353  1.1545  0.2224
 2277SOL     OW18466   4.072   2.963  11.811  0.1883  0.2610  0.2133
 2277SOL    HW118467   4.165   2.938  11.807  0.8668  3.0912 -1.7438
 2277SOL    HW218468   4.054   2.956  11.717  2.1155  3.8288 -0.4343
 2278SOL     OW18469   3.378   2.439   2.180  0.5442 -0.2566  0.1587
 2278SOL    HW118470   3.437   2.480   2.243  1.2990 -1.6654  0.3647
 2278SOL    HW218471   3.437   2.413   2.109  0.3846  0.3189 -0.1814
 2279SOL     OW18472   1.179   3.658   1.241  0.4753 -0.3869 -0.1902
 2279SOL    HW118473   1.171   3.716   1.317  2.1591 -2.8005  1.8046
 2279SOL    HW218474   1.266   3.684   1.210 -0.3148  2.2873 -0.2039
 2280SOL     OW18475   3.061   3.452   7.488 -0.4907 -0.1688 -0.2078
 2280SOL    HW118476   2.972   3.417   7.497 -0.4075 -0.8871 -2.3304
 2280SOL    HW218477   3.069   3.432   7.395 -0.4812 -1.6615  0.1199
 2281SOL     OW18478   2.581   1.532   7.745  0.2344  0.4074 -0.6859
 2281SOL    HW118479   2.631   1.467   7.696  1.6425  2.0202 -1.3994
 2281SOL    HW218480   2.547   1.589   7.677 -0.6094  0.7230  0.0009
 2282SOL     OW18481   1.811   2.571   3.610 -0.3718  0.3348  0.1359
 2282SOL    HW118482   1.736   2.617   3.572  1.2102  2.8316  0.0629
 2282SOL    HW218483   1.781   2.485   3.640 -0.8863 -0.4131 -2.5208
 2283SOL     OW18484   2.420   3.111   6.507 -0.8628 -0.5668 -0.2937
 2283SOL    HW118485   2.377   3.038   6.553 -0.3989 -0.7747 -0.1950
 2283SOL    HW218486   2.457   3.147   6.587  0.8945 -0.0666 -1.3407
 2284SOL     OW18487   2.692   2.901  15.802 -0.2820  0.2122  0.1456
 2284SOL    HW118488   2.647   2.844  15.864 -0.5117  1.9361  1.5759
 2284SOL    HW218489   2.651   2.880  15.718  0.0388  1.5619 -0.3457
 2285SOL     OW18490   0.542   0.205   1.837  0.3505  0.7534 -0.8891
 2285SOL    HW118491   0.624   0.235   1.874  0.8292 -2.3692  0.5144
 2285SOL    HW218492   0.572   0.226   1.748 -1.6244 -3.0922 -2.4362
 2286SOL     OW18493   3.080   1.950   6.511 -0.3349  0.2510 -0.0306
 2286SOL    HW118494   3.013   2.018   6.511  0.8910  1.4679 -0.6900
 2286SOL    HW218495   3.145   1.993   6.568  0.3512 -1.2985  0.3380
 2287SOL     OW18496   1.334   3.359   4.111 -1.0852 -0.5039 -0.0342
 2287SOL    HW118497   1.287   3.307   4.046  0.7564 -0.3520 -1.5052
 2287SOL    HW218498   1.323   3.449   4.080 -0.4628 -1.3557 -2.7148
 2288SOL     OW18499   1.243   1.135  11.813  0.4832  0.1145  0.2278
 2288SOL    HW118500   1.251   1.221  11.855  2.2108  0.4352 -0.7664
 2288SOL    HW218501   1.287   1.078  11.876  1.2223 -0.4357 -0.7919
 2289SOL     OW18502   4.272   3.012   3.600  0.0373 -0.3502 -0.3780
 2289SOL    HW118503   4.339   3.079   3.610  0.3853 -0.5724 -1.2859
 2289SOL    HW218504   4.278   2.961   3.681 -1.8577 -0.2620 -0.1926
 2290SOL     OW18505   1.880   1.352   2.418 -0.1778  0.1266 -0.3999
 2290SOL    HW118506   1.915   1.402   2.492  0.6559  0.9834 -1.3932
 2290SOL    HW218507   1.942   1.376   2.350  0.2602  0.0534 -0.0298
 2291SOL     OW18508   2.007   3.385   0.173  0.0269 -0.4436 -0.1160
 2291SOL    HW118509   2.061   3.307   0.191 -1.9667 -1.6624  0.5430
 2291SOL    HW218510   1.969   3.359   0.090  1.1238  2.6834 -1.5864
 2292SOL     OW18511   3.590   3.082   7.704  0.5753 -0.0045  0.2075
 2292SOL    HW118512   3.509   3.131   7.717 -0.1905 -1.0541 -0.5328
 2292SOL    HW218513   3.653   3.138   7.748  2.3049 -1.1373 -0.8006
 2293SOL     OW18514   2.099   4.408  15.898 -0.4417 -0.4049  0.2335
 2293SOL    HW118515   2.122   4.469  15.828 -0.0705 -0.4298  0.3347
 2293SOL    HW218516   2.152   4.332  15.875 -0.1505 -0.4751  1.1561
 2294SOL     OW18517   1.823   3.779   6.270  0.1742 -0.2880 -0.0891
 2294SOL    HW118518   1.866   3.698   6.299 -1.1007 -0.7968  0.3575
 2294SOL    HW218519   1.885   3.817   6.207 -0.1843  0.9697  0.3319
 2295SOL     OW18520   4.618   4.536   4.159 -0.0738  0.1153  0.0067
 2295SOL    HW118521   4.683   4.574   4.101  1.3658 -1.0713  0.8641
 2295SOL    HW218522   4.625   4.448   4.121  0.4147 -0.0708  0.5312
 2296SOL     OW18523   3.696   2.393   8.882 -0.4968  0.2738 -0.0055
 2296SOL    HW118524   3.668   2.437   8.962  1.4794 -1.4438  1.6353
 2296SOL    HW218525   3.642   2.314   8.873  0.2393 -0.2001 -0.3084
 2297SOL     OW18526   4.017   4.242   6.284 -0.0369 -0.3710  0.2124
 2297SOL    HW118527   3.942   4.290   6.250 -0.6863 -1.1230  0.5680
 2297SOL    HW218528   4.095   4.283   6.246 -1.1780 -0.7129 -2.5088
 2298SOL     OW18529   1.459   2.291   2.641  0.8049 -0.4304 -0.4338
 2298SOL    HW118530   1.376   2.295   2.688  2.4293  0.4138  2.4086
 2298SOL    HW218531   1.422   2.262   2.557 -1.3945 -0.3329  0.5020
 2299SOL     OW18532   1.537   2.586   7.523  0.0449  0.1681  0.1724
 2299SOL    HW118533   1.508   2.677   7.529  2.7738  1.1241 -1.0175
 2299SOL    HW218534   1.630   2.595   7.545  0.3396 -1.7544 -0.3664
 2300SOL     OW18535   0.599   1.897   2.992  0.3222 -0.2758  0.2000
 2300SOL    HW118536   0.612   1.830   2.925  0.4635 -0.1277  0.0776
 2300SOL    HW218537   0.603   1.975   2.937 -2.5474  0.0944  0.5205
 2301SOL     OW18538   4.363   3.017   3.319  0.1903  0.2893  0.1163
 2301SOL    HW118539   4.449   2.993   3.283  0.0615 -0.9638  0.6287
 2301SOL    HW218540   4.375   2.984   3.408  1.8817  0.8780  0.1061
 2302SOL     OW18541   0.758   0.323   0.305 -0.0748 -0.1641  0.2960
 2302SOL    HW118542   0.852   0.310   0.299  0.0912  0.3525  1.7080
 2302SOL    HW218543   0.734   0.371   0.226 -1.5831 -0.6235  0.4604
 2303SOL     OW18544   3.737   1.665   6.024 -0.1234 -0.2244  0.2633
 2303SOL    HW118545   3.650   1.671   6.064  0.3184 -1.0935  1.3619
 2303SOL    HW218546   3.744   1.742   5.968  0.5300  0.7294  1.6468
 2304SOL     OW18547   2.391   3.428  14.547 -0.0680 -0.4045 -0.2861
 2304SOL    HW118548   2.428   3.481  14.476  0.6931  0.1005  0.4891
 2304SOL    HW218549   2.388   3.485  14.623 -0.4826 -0.2263 -0.4323
 2305SOL     OW18550   3.413   3.543   8.012 -0.0909 -0.5143  0.1818
 2305SOL    HW118551   3.360   3.523   7.935 -0.4426  0.8469  0.0809
 2305SOL    HW218552   3.351   3.600   8.057 -0.9715  0.6033 -2.4860
 2306SOL     OW18553   1.265   4.101  14.095 -0.1794  0.3072 -0.4984
 2306SOL    HW118554   1.264   4.130  14.003  1.2550  2.1267  0.0486
 2306SOL    HW218555   1.243   4.182  14.141 -1.7429  0.0621 -0.8195
 2307SOL     OW18556   1.979   1.943  17.133  0.1062 -0.1115  0.3132
 2307SOL    HW118557   2.044   1.881  17.166 -1.0387 -1.1146  0.6578
 2307SOL    HW218558   1.924   1.945  17.211  0.4650 -0.0782  0.5631
 2308SOL     OW18559   0.127   0.683  11.481  0.5559 -0.2238  0.1097
 2308SOL    HW118560   0.062   0.635  11.430 -0.7525  1.5005  0.1775
 2308SOL    HW218561   0.208   0.694  11.431 -0.4943 -0.8076 -1.6969
 2309SOL     OW18562   4.468   1.916   8.858  0.0544  0.1755  0.4934
 2309SOL    HW118563   4.432   1.959   8.781  2.9809 -0.8503 -1.4743
 2309SOL    HW218564   4.559   1.941   8.843 -0.7452  1.3371 -2.3861
 2310SOL     OW18565   1.947   2.417   4.198 -0.4680  0.3475 -0.1577
 2310SOL    HW118566   1.940   2.466   4.280 -0.3572  0.7683 -0.3960
 2310SOL    HW218567   2.038   2.429   4.168 -0.4579  3.8968  1.2402
 2311SOL     OW18568   3.838   4.487   3.383  0.0393 -0.1820  0.5018
 2311SOL    HW118569   3.929   4.487   3.354 -0.6836 -2.5332 -1.8886
 2311SOL    HW218570   3.838   4.474   3.477  0.5067  1.4834  0.7292
 2312SOL     OW18571   4.530   2.795   4.317 -0.3495  0.4881 -0.5420
 2312SOL    HW118572   4.592   2.728   4.345  1.3314  1.4818 -1.8867
 2312SOL    HW218573   4.605   2.849   4.290 -0.9608  0.0159 -3.1084
 2313SOL     OW18574   3.610   1.572   1.904  0.1895 -0.4673  0.1267
 2313SOL    HW118575   3.563   1.492   1.877 -0.5304  0.6623 -2.0072
 2313SOL    HW218576   3.649   1.599   1.820 -2.0346  1.3157 -0.3293
 2314SOL     OW18577   4.209   1.278   0.723 -0.3152 -0.1854 -0.2915
 2314SOL    HW118578   4.148   1.216   0.685  0.4194 -0.6912 -0.6585
 2314SOL    HW218579   4.256   1.300   0.643 -1.4341  0.7417 -0.6900
 2315SOL     OW18580   2.284   2.597  12.884 -0.2910  0.2680 -0.3120
 2315SOL    HW118581   2.278   2.590  12.789 -1.0761 -3.5794  0.0006
 2315SOL    HW218582   2.204   2.642  12.909  0.2887  1.8520 -1.3751
 2316SOL     OW18583   4.741   4.061   7.450  0.1547 -0.1979 -0.5104
 2316SOL    HW118584   4.654   4.063   7.409 -0.5694 -1.8805  0.9186
 2316SOL    HW218585   0.029   4.134   7.397 -1.1316 -0.4790 -1.6511
 2317SOL     OW18586   1.111   3.157   7.606  0.4932 -0.0143  0.3018
 2317SOL    HW118587   1.149   3.154   7.519 -1.9176  1.9639 -0.8241
 2317SOL    HW218588   1.173   3.203   7.662  0.6275 -0.7161  0.7411
 2318SOL     OW18589   3.000   1.274   0.502  0.0496  0.0962 -0.1345
 2318SOL    HW118590   3.009   1.358   0.546 -2.0490 -0.7897  1.9382
 2318SOL    HW218591   3.024   1.303   0.413  0.6417  0.2061  0.0567
 2319SOL     OW18592   1.312   4.020   4.934  0.3847  0.7890  0.4319
 2319SOL    HW118593   1.318   3.929   4.962  1.1906  0.4219 -0.9393
 2319SOL    HW218594   1.344   4.007   4.845  2.7903  1.7869  1.1398
 2320SOL     OW18595   3.540   4.253   7.710  0.0226 -0.9666  0.0387
 2320SOL    HW118596   3.509   4.342   7.696 -0.2858 -1.0710  0.0453
 2320SOL    HW218597   3.541   4.249   7.806  0.2099 -1.7320  0.0011
 2321SOL     OW18598   3.610   4.229  16.475  0.1695 -0.4555 -0.0599
 2321SOL    HW118599   3.655   4.312  16.484 -0.7204 -0.0666  0.7951
 2321SOL    HW218600   3.522   4.255  16.448 -0.0864 -0.4001  0.8400
 2322SOL     OW18601   2.929   2.577  13.931  0.4801  0.3967  0.0019
 2322SOL    HW118602   3.019   2.607  13.946  0.5790  0.2001 -0.2017
 2322SOL    HW218603   2.930   2.490  13.968  1.7168 -0.1093 -1.2099
 2323SOL     OW18604   2.695   1.811   8.860 -0.1497  0.3960  0.5852
 2323SOL    HW118605   2.600   1.825   8.859  0.1292  1.8804 -3.7591
 2323SOL    HW218606   2.720   1.741   8.800  2.8048  0.7213  1.4203
 2324SOL     OW18607   0.901   2.997   5.671 -0.6224  0.2358 -0.0820
 2324SOL    HW118608   0.880   2.975   5.581 -0.1070  4.5054 -1.2725
 2324SOL    HW218609   0.996   2.986   5.676 -0.6707 -0.7102 -1.2552
 2325SOL     OW18610   1.589   1.510   0.665 -0.3612  0.3010  0.1733
 2325SOL    HW118611   1.636   1.433   0.634 -0.8434 -0.1941  0.6532
 2325SOL    HW218612   1.568   1.551   0.581 -1.6057  0.2683  0.4592
 2326SOL     OW18613   4.686   0.609   1.990  0.4703 -0.0024  0.0852
 2326SOL    HW118614   4.665   0.532   1.937  0.8510 -1.0889  1.4942
 2326SOL    HW218615   4.613   0.667   1.971  1.3231  0.7448 -0.9575
 2327SOL     OW18616   1.306   3.635   4.193 -0.3933 -0.0718  0.4677
 2327SOL    HW118617   1.278   3.703   4.133  2.4318 -0.7659 -1.6497
 2327SOL    HW218618   1.328   3.685   4.272 -2.8697  2.7253 -0.6320
 2328SOL     OW18619   1.647   4.578  14.434 -0.5821 -0.2841 -0.0045
 2328SOL    HW118620   1.681   4.509  14.376 -0.3546 -0.0403 -0.1614
 2328SOL    HW218621   1.569   4.617  14.395 -1.4303 -0.2533  1.7360
 2329SOL     OW18622   3.984   4.692   6.995  0.1376  0.3802 -0.1381
 2329SOL    HW118623   4.065   4.706   6.946 -1.1182  1.9404 -1.7905
 2329SOL    HW218624   3.919   4.720   6.931 -0.7287  0.6877  0.8694
 2330SOL     OW18625   3.680   1.620  16.010 -0.6326  0.3881  0.1302
 2330SOL    HW118626   3.647   1.565  15.939 -0.4650 -0.3372  0.6059
 2330SOL    HW218627   3.677   1.546  16.071  0.5618 -0.1911 -0.5287
 2331SOL     OW18628   4.475   2.496   6.541 -0.2857  0.1722  0.1328
 2331SOL    HW118629   4.384   2.490   6.512 -0.2337  0.0097  0.0066
 2331SOL    HW218630   4.464   2.446   6.622  0.0254 -0.4549 -0.2111
 2332SOL     OW18631   3.149   3.409  11.926 -0.5461  0.5251 -0.2635
 2332SOL    HW118632   3.056   3.410  11.947 -0.5192 -0.4960 -0.1155
 2332SOL    HW218633   3.178   3.321  11.949 -2.7991 -0.2470 -0.3589
 2333SOL     OW18634   3.161   4.596  16.503 -0.0814  0.0875 -0.4166
 2333SOL    HW118635   3.092   4.533  16.484 -1.1561  1.2219 -0.3023
 2333SOL    HW218636   3.222   4.572  16.433 -0.2195 -0.9260 -0.1780
 2334SOL     OW18637   1.792   2.790   6.754  0.4279  0.5931  0.0275
 2334SOL    HW118638   1.849   2.863   6.730  1.0997  0.0268 -0.1157
 2334SOL    HW218639   1.833   2.739   6.824 -2.4620 -0.7068  0.7866
 2335SOL     OW18640   2.499   3.674  13.370  0.2990 -0.6271  0.1932
 2335SOL    HW118641   2.581   3.722  13.355 -1.2133  2.1035  0.8891
 2335SOL    HW218642   2.442   3.748  13.386  1.6060  0.3877  0.1472
 2336SOL     OW18643   4.408   3.128   9.033 -0.1146 -0.2874  0.2990
 2336SOL    HW118644   4.477   3.064   9.014 -1.1473 -0.8674 -1.4847
 2336SOL    HW218645   4.389   3.106   9.124 -1.9928 -0.0543 -0.0504
 2337SOL     OW18646   3.908   2.882   5.508 -0.6297 -0.1695 -0.5248
 2337SOL    HW118647   3.982   2.932   5.474  0.4848  0.4296  2.7764
 2337SOL    HW218648   3.925   2.798   5.465  0.0797 -0.6910  0.7762
 2338SOL     OW18649   0.039   1.844  12.484 -0.2058  0.1824  0.2552
 2338SOL    HW118650   0.063   1.929  12.448  1.3961 -1.2330 -1.9806
 2338SOL    HW218651   0.109   1.823  12.545 -2.0330 -0.9470  1.9974
 2339SOL     OW18652   3.541   2.606   8.767 -0.2409 -0.0956  0.1146
 2339SOL    HW118653   3.534   2.597   8.862 -0.3993 -0.3459  0.0765
 2339SOL    HW218654   3.612   2.543   8.750  0.3219  0.8145 -0.9471
 2340SOL     OW18655   1.011   2.050  14.801  0.0810 -0.1528 -0.0838
 2340SOL    HW118656   1.041   2.059  14.711  1.5310 -0.3102  0.3805
 2340SOL    HW218657   1.036   1.959  14.821  0.8829 -0.0199 -0.4671
 2341SOL     OW18658   3.850   3.732   3.531 -0.4479 -0.5500 -0.1058
 2341SOL    HW118659   3.816   3.778   3.455 -0.7189  1.4342  1.2228
 2341SOL    HW218660   3.894   3.804   3.576  0.7763 -1.0809 -0.4492
 2342SOL     OW18661   4.409   0.947   4.649 -0.4751 -0.2452 -0.1210
 2342SOL    HW118662   4.478   0.963   4.585 -0.3317  0.4839  0.2193
 2342SOL    HW218663   4.363   1.031   4.650  2.0203  1.1088  1.2797
 2343SOL     OW18664   3.250   3.171   3.187  0.4437 -0.3540  0.0421
 2343SOL    HW118665   3.205   3.178   3.271  0.4711 -1.8635  0.1728
 2343SOL    HW218666   3.314   3.102   3.203  0.6876  0.2041  1.4655
 2344SOL     OW18667   3.467   0.735   6.371 -0.1434  0.3176 -0.0964
 2344SOL    HW118668   3.380   0.774   6.379 -0.5364 -0.5089 -0.3284
 2344SOL    HW218669   3.447   0.671   6.303 -0.3038  0.3238 -0.0565
 2345SOL     OW18670   4.255   2.645   5.070 -0.7950  0.0567  0.1843
 2345SOL    HW118671   4.257   2.727   5.022 -3.8108  0.7409  1.2420
 2345SOL    HW218672   4.308   2.652   5.150 -1.9207  0.8291  0.8484
 2346SOL     OW18673   1.411   2.055   9.135  0.2447  0.1979  0.1114
 2346SOL    HW118674   1.400   1.991   9.064 -1.8146  0.7179 -0.0578
 2346SOL    HW218675   1.400   1.998   9.211  1.0168  1.6850  1.3156
 2347SOL     OW18676   0.437   3.562  14.018 -0.3514 -0.3218 -0.3499
 2347SOL    HW118677   0.414   3.652  13.996  0.2640 -0.1686 -0.3632
 2347SOL    HW218678   0.385   3.526  13.946  0.2316 -2.5298  0.3402
 2348SOL     OW18679   1.706   1.453  16.551 -0.0407  0.2350 -0.5828
 2348SOL    HW118680   1.694   1.517  16.482 -2.3039 -1.2047 -1.5557
 2348SOL    HW218681   1.743   1.508  16.620  0.5725 -0.3824 -0.4182
 2349SOL     OW18682   2.268   0.243   8.328  0.7334  0.1224  0.1475
 2349SOL    HW118683   2.363   0.236   8.337  0.7407 -1.4788 -1.1657
 2349SOL    HW218684   2.258   0.150   8.306 -0.5814  0.4235 -0.5226
 2350SOL     OW18685   4.563   0.080   6.205 -0.5410  0.2851  0.4086
 2350SOL    HW118686   4.589   4.734   6.184 -1.7235  0.4450 -1.7416
 2350SOL    HW218687   4.589   0.089   6.296 -1.4374 -2.3070  0.8886
 2351SOL     OW18688   1.321   2.006   5.543 -0.3285 -0.5877 -0.2579
 2351SOL    HW118689   1.347   1.930   5.490 -0.6267  0.9759 -2.6274
 2351SOL    HW218690   1.277   1.961   5.615 -0.5588  0.1304  0.0424
 2352SOL     OW18691   2.638   1.785   7.512 -0.2383  0.4324 -0.0516
 2352SOL    HW118692   2.641   1.832   7.596  0.5796 -0.5470  0.4592
 2352SOL    HW218693   2.703   1.833   7.461  0.0141 -1.6835 -1.6798
 2353SOL     OW18694   2.832   1.189   7.460  0.0053 -0.6671  0.2276
 2353SOL    HW118695   2.846   1.169   7.367  2.6298 -0.4577  0.5754
 2353SOL    HW218696   2.891   1.125   7.498  1.0577  0.8194  1.1246
 2354SOL     OW18697   1.062   3.436  13.657  0.0644  0.2535 -0.2932
 2354SOL    HW118698   1.147   3.396  13.638  0.5608  0.5142  1.3356
 2354SOL    HW218699   1.017   3.387  13.727  0.5822 -0.9250 -0.7768
 2355SOL     OW18700   1.162   3.000   5.806  0.1484 -0.2459 -0.3623
 2355SOL    HW118701   1.191   2.995   5.898 -0.3591 -0.9654 -0.2389
 2355SOL    HW218702   1.245   3.018   5.763  0.2216  2.1945  0.8064
 2356SOL     OW18703   3.573   2.016   2.220  0.4623  0.5082 -0.0350
 2356SOL    HW118704   3.597   1.970   2.140 -0.7172  0.7192 -0.5115
 2356SOL    HW218705   3.479   1.998   2.228 -0.0195  2.3245 -1.8408
 2357SOL     OW18706   1.682   4.180   5.271  0.0214  0.6748  0.1946
 2357SOL    HW118707   1.647   4.267   5.250 -0.2594  0.0622 -1.8248
 2357SOL    HW218708   1.599   4.133   5.281  1.6698 -2.0108  1.3922
 2358SOL     OW18709   3.694   2.921   7.531 -0.4890 -0.9032 -0.6362
 2358SOL    HW118710   3.672   2.995   7.586 -0.1467  1.6294 -3.8763
 2358SOL    HW218711   3.740   2.864   7.593  1.6789  0.7628 -0.6770
 2359SOL     OW18712   2.268   1.300  12.927 -0.1559  0.2923 -0.0236
 2359SOL    HW118713   2.335   1.259  12.981  0.3381 -0.2689 -1.0605
 2359SOL    HW218714   2.190   1.245  12.935 -0.6883  0.8975 -1.0353
 2360SOL     OW18715   0.799   0.787   3.923  0.1143  0.4312  0.0342
 2360SOL    HW118716   0.830   0.714   3.869  2.9623  1.1811  0.6540
 2360SOL    HW218717   0.816   0.860   3.864  2.3553 -0.8555 -0.9159
 2361SOL     OW18718   3.257   0.351  17.601  0.0965 -0.1262 -0.1416
 2361SOL    HW118719   3.332   0.298  17.575 -0.9018 -0.7980 -1.6461
 2361SOL    HW218720   3.297   0.436  17.618 -1.0204  0.5741 -1.0195
 2362SOL     OW18721   3.775   3.916   4.804 -0.2421  1.0031  0.2323
 2362SOL    HW118722   3.818   3.993   4.767  1.2683  1.1752  2.3558
 2362SOL    HW218723   3.728   3.947   4.882  1.6173  1.6642  1.0702
 2363SOL     OW18724   3.665   3.096  16.737 -0.3679  0.9017  0.5394
 2363SOL    HW118725   3.740   3.125  16.789  1.2335 -2.0015 -0.1641
 2363SOL    HW218726   3.628   3.048  16.812 -2.6796  1.0776 -0.4774
 2364SOL     OW18727   2.911   1.893  14.523  0.7489 -0.4420 -0.3856
 2364SOL    HW118728   2.838   1.946  14.491  1.9053  1.8218  0.7602
 2364SOL    HW218729   2.967   1.907  14.447  0.8051  0.2405 -0.2129
 2365SOL     OW18730   1.960   0.104  17.119 -0.0540  0.2126  0.5071
 2365SOL    HW118731   2.029   0.121  17.183  0.7509 -0.7005 -0.1239
 2365SOL    HW218732   1.992   0.029  17.069  0.8980  0.7575  0.3050
 2366SOL     OW18733   2.239   3.065   8.702 -0.1600 -0.4103 -0.4837
 2366SOL    HW118734   2.232   2.970   8.698 -3.6617 -0.1517 -0.0505
 2366SOL    HW218735   2.247   3.085   8.795 -0.8783  0.4625 -0.6053
 2367SOL     OW18736   2.392   2.166   6.694  0.1246  0.6576  0.4578
 2367SOL    HW118737   2.346   2.226   6.637 -0.2931 -0.7729 -0.7188
 2367SOL    HW218738   2.328   2.095   6.691 -1.7458  2.4000 -0.1870
 2368SOL     OW18739   4.491   3.293   6.989  0.3545 -0.0380 -0.4683
 2368SOL    HW118740   4.469   3.312   6.898  0.1794 -0.3539 -0.4882
 2368SOL    HW218741   4.546   3.216   6.979  1.8111  0.6291  2.2424
 2369SOL     OW18742   3.900   0.010   3.592  0.3653  0.2373 -0.8224
 2369SOL    HW118743   3.980   4.703   3.579  0.8972  1.1188 -0.9483
 2369SOL    HW218744   3.931   0.032   3.680 -2.9646 -0.8002  0.6378
 2370SOL     OW18745   0.020   3.990   2.682  0.0021 -0.4162  0.5383
 2370SOL    HW118746   4.683   3.957   2.724 -0.4656  1.2058  0.9228
 2370SOL    HW218747   0.028   4.077   2.721  1.0341 -0.5446  0.6198
 2371SOL     OW18748   3.466   3.851  13.842 -0.0535 -0.0959 -0.5035
 2371SOL    HW118749   3.555   3.866  13.876 -0.5332  0.3187  0.5676
 2371SOL    HW218750   3.419   3.864  13.924  1.1519 -0.0758  0.1953
 2372SOL     OW18751   4.294   1.099   8.153  0.0852 -0.4446  0.3834
 2372SOL    HW118752   4.232   1.151   8.102  1.3741 -0.6215 -1.3654
 2372SOL    HW218753   4.249   1.016   8.171 -1.0405  0.4134  1.5206
 2373SOL     OW18754   1.740   0.363   1.823  0.1772  0.0561  0.0082
 2373SOL    HW118755   1.805   0.433   1.828 -1.1489  1.3544 -0.8385
 2373SOL    HW218756   1.727   0.329   1.911 -1.5554  4.3437  1.4512
 2374SOL     OW18757   2.328   3.251   1.431  0.0656  0.6841 -0.1758
 2374SOL    HW118758   2.354   3.342   1.440 -1.4768  0.9321  1.5864
 2374SOL    HW218759   2.292   3.235   1.518 -1.5785 -0.1604 -1.0259
 2375SOL     OW18760   0.475   3.917  15.419 -0.4643 -0.0928  0.0396
 2375SOL    HW118761   0.384   3.890  15.410 -0.1551 -0.5320 -1.9538
 2375SOL    HW218762   0.522   3.857  15.360  0.3531  0.1763  0.4131
 2376SOL     OW18763   4.358   0.686  15.407 -0.2147  0.3765  0.1614
 2376SOL    HW118764   4.436   0.713  15.456 -0.0265 -0.4768  0.3174
 2376SOL    HW218765   4.281   0.693  15.463 -0.9053 -1.3534 -0.5807
 2377SOL     OW18766   4.730   1.259   6.982 -0.0645  0.3106 -0.6030
 2377SOL    HW118767   4.687   1.317   7.045  1.0052 -1.5598  1.8406
 2377SOL    HW218768   0.057   1.320   6.959  1.6615 -0.9704  1.3372
 2378SOL     OW18769   0.880   3.878   2.867 -0.4415  0.6314  0.0839
 2378SOL    HW118770   0.966   3.883   2.910 -0.2371 -0.5738 -0.1878
 2378SOL    HW218771   0.913   3.857   2.779 -1.4751 -0.9336  0.0803
 2379SOL     OW18772   4.580   4.540   7.131  0.3122 -0.1642  0.6983
 2379SOL    HW118773   4.572   4.633   7.109  1.9570  0.0739  1.0776
 2379SOL    HW218774   4.617   4.501   7.052 -0.0685  0.9343 -0.0204
 2380SOL     OW18775   0.794   1.522   7.938 -0.1569  0.1941 -0.2734
 2380SOL    HW118776   0.787   1.468   7.859  1.6455 -3.0372  1.7466
 2380SOL    HW218777   0.704   1.553   7.934 -0.2628  0.1844  2.1314
 2381SOL     OW18778   0.175   4.335   3.634  0.0832  0.5649  0.5074
 2381SOL    HW118779   0.181   4.363   3.725 -1.2876  2.4301  0.0357
 2381SOL    HW218780   0.229   4.256   3.630 -2.3684 -1.0435 -0.5885
 2382SOL     OW18781   1.542   2.298   9.333 -0.4977  0.3333  0.0983
 2382SOL    HW118782   1.602   2.336   9.398  0.3197 -1.5565  0.4433
 2382SOL    HW218783   1.605   2.250   9.280 -1.0764 -0.2499 -0.0730
 2383SOL     OW18784   1.886   1.966   5.833 -0.0358 -0.0794 -0.0285
 2383SOL    HW118785   1.894   1.907   5.757 -0.1203  1.1562 -0.9984
 2383SOL    HW218786   1.872   1.908   5.908  0.9593  0.3150  0.4570
 2384SOL     OW18787   3.288   2.269   4.397 -0.5976  0.1007 -0.5847
 2384SOL    HW118788   3.260   2.344   4.345 -1.3739 -0.3166 -0.7661
 2384SOL    HW218789   3.211   2.214   4.389  0.5078 -1.5324  0.0608
 2385SOL     OW18790   4.134   2.411  16.781 -0.1998  0.2678  0.6789
 2385SOL    HW118791   4.073   2.392  16.710  0.2364  0.6869  0.1972
 2385SOL    HW218792   4.107   2.359  16.857 -2.9984  2.2507  1.0548
 2386SOL     OW18793   2.412   4.168  14.745  0.0050  0.2010  0.2325
 2386SOL    HW118794   2.472   4.095  14.762  1.4640  1.3483 -0.0480
 2386SOL    HW218795   2.432   4.221  14.822 -0.8348 -0.9121  1.2269
 2387SOL     OW18796   0.666   3.813   2.470  0.6057 -0.2584  0.1114
 2387SOL    HW118797   0.642   3.833   2.379 -0.4557  2.1129  0.9320
 2387SOL    HW218798   0.647   3.719   2.469  1.7185 -0.5117  2.6479
 2388SOL     OW18799   4.461   2.451  12.793 -0.6445  0.2469 -0.2099
 2388SOL    HW118800   4.514   2.451  12.714  1.8225 -0.5428  1.4337
 2388SOL    HW218801   4.504   2.383  12.846  0.5522  1.6417  0.6225
 2389SOL     OW18802   2.595   2.883  12.996 -0.1531 -0.1638  0.6946
 2389SOL    HW118803   2.554   2.969  12.993  3.5216  1.5117 -1.6963
 2389SOL    HW218804   2.675   2.897  13.047 -0.2548  0.9180  0.5586
 2390SOL     OW18805   0.313   4.598  17.079 -0.1301 -0.2664 -0.1453
 2390SOL    HW118806   0.377   4.584  17.010  1.9687  3.2358  1.0628
 2390SOL    HW218807   0.334   4.688  17.102 -0.6263 -0.5338  1.3693
 2391SOL     OW18808   3.085   3.329   7.261  0.0813 -0.4339 -0.1053
 2391SOL    HW118809   2.998   3.302   7.233  0.3803  0.1215 -1.5787
 2391SOL    HW218810   3.121   3.245   7.289 -0.7353 -0.2711  1.4299
 2392SOL     OW18811   2.880   1.952   8.268  0.6353 -0.0389  0.4830
 2392SOL    HW118812   2.965   1.996   8.269  0.7355 -0.2336  0.4949
 2392SOL    HW218813   2.826   2.006   8.325 -0.4635 -0.7311  0.1010
 2393SOL     OW18814   3.096   2.443   7.222  0.0862  0.1691  0.2050
 2393SOL    HW118815   3.001   2.443   7.213  0.2703  1.6608 -1.6258
 2393SOL    HW218816   3.123   2.527   7.258 -0.9261  1.0230 -1.0421
 2394SOL     OW18817   2.383   1.898   2.573  0.8521  0.3535 -0.4326
 2394SOL    HW118818   2.329   1.834   2.526 -0.2024 -0.0606  1.3328
 2394SOL    HW218819   2.397   1.841   2.649  0.1147  1.0864  0.2443
 2395SOL     OW18820   3.815   2.978  15.616 -0.0648  0.0435 -0.0253
 2395SOL    HW118821   3.858   2.946  15.695  0.0223  0.6854  0.1851
 2395SOL    HW218822   3.777   2.896  15.585  2.5780 -0.7214 -1.2456
 2396SOL     OW18823   1.897   2.022   9.520 -0.3320 -0.3249 -0.3907
 2396SOL    HW118824   1.840   2.070   9.581  0.0799 -0.6540  0.2560
 2396SOL    HW218825   1.956   2.084   9.478  1.0898 -3.0241 -2.3414
 2397SOL     OW18826   3.613   3.358  10.151  0.4411  0.1449  0.0894
 2397SOL    HW118827   3.691   3.363  10.096 -1.4478 -0.9252 -2.6805
 2397SOL    HW218828   3.576   3.272  10.129 -1.8254  1.3895 -0.9468
 2398SOL     OW18829   3.688   1.996   6.617 -0.1650 -0.0699  0.0220
 2398SOL    HW118830   3.684   2.089   6.593  2.3955 -0.5487 -2.2155
 2398SOL    HW218831   3.735   2.004   6.700  1.6707  2.0283 -1.2049
 2399SOL     OW18832   2.677   3.714   8.786  0.5398 -0.5564  0.6799
 2399SOL    HW118833   2.764   3.747   8.764 -0.2425 -0.3395 -2.1700
 2399SOL    HW218834   2.629   3.790   8.819 -0.8824 -0.8576 -0.6739
 2400SOL     OW18835   1.879   4.725   6.815 -0.1244 -0.6253  0.2934
 2400SOL    HW118836   1.896   0.076   6.818 -2.7700 -0.1161 -0.1427
 2400SOL    HW218837   1.812   4.721   6.747 -0.9327 -1.5090  1.1325
 2401SOL     OW18838   3.879   3.426   7.147 -0.1560 -0.4854  0.4022
 2401SOL    HW118839   3.808   3.417   7.084 -0.7269 -0.6968  1.0828
 2401SOL    HW218840   3.848   3.500   7.199  0.5590 -1.7454  2.6113
 2402SOL     OW18841   3.692   3.270  17.344 -0.3167 -0.0279 -0.0333
 2402SOL    HW118842   3.759   3.207  17.319  1.6805  2.3148 -0.6396
 2402SOL    HW218843   3.680   3.320  17.263  1.3769  0.0189 -0.2591
 2403SOL     OW18844   3.532   2.512  12.495  0.0773 -0.1061  0.3054
 2403SOL    HW118845   3.621   2.536  12.466 -0.7075  1.9569 -0.3828
 2403SOL    HW218846   3.504   2.597  12.527 -2.4426 -0.8119 -0.0678
 2404SOL     OW18847   1.712   1.518   1.157 -0.4791 -0.1518 -0.1258
 2404SOL    HW118848   1.771   1.442   1.157  0.6193  0.7045  0.6308
 2404SOL    HW218849   1.756   1.574   1.220 -1.3614 -0.3149  0.6330
 2405SOL     OW18850   4.580   3.872   0.715 -0.1422 -0.0828  0.0461
 2405SOL    HW118851   4.491   3.851   0.744  0.0196 -0.9479 -0.0837
 2405SOL    HW218852   4.554   3.939   0.652 -3.7819 -0.6178  0.9680
 2406SOL     OW18853   0.627   3.991   7.015  0.4879 -0.3976 -0.1759
 2406SOL    HW118854   0.718   4.008   7.039 -0.1181  0.7379  1.3596
 2406SOL    HW218855   0.623   4.031   6.928 -0.4573 -2.0955 -0.9067
 2407SOL     OW18856   0.803   3.904   5.499 -0.0511 -0.2828  0.0087
 2407SOL    HW118857   0.773   3.995   5.504 -0.2269 -0.4257  1.8372
 2407SOL    HW218858   0.811   3.878   5.408 -0.4987  1.6658 -0.5918
 2408SOL     OW18859   4.085   1.501   5.614  0.2375 -0.4643  0.3557
 2408SOL    HW118860   4.081   1.419   5.663 -1.7841 -1.3915 -1.3332
 2408SOL    HW218861   4.143   1.472   5.544  0.8395  2.2869 -0.3009
 2409SOL     OW18862   0.681   1.810   3.642  0.3079 -0.3052 -0.2188
 2409SOL    HW118863   0.681   1.827   3.548 -0.9019  0.6998 -0.0480
 2409SOL    HW218864   0.740   1.880   3.670  0.6297  0.4303 -2.7737
 2410SOL     OW18865   1.562   4.672   7.220 -0.4104 -0.3628  0.5257
 2410SOL    HW118866   1.526   4.687   7.133 -0.0941 -0.7155  0.3356
 2410SOL    HW218867   1.519   4.592   7.248 -0.9574 -0.8293 -1.7233
 2411SOL     OW18868   1.331   2.625   5.815  0.5181 -0.6985  0.1581
 2411SOL    HW118869   1.363   2.648   5.902  2.6747 -1.8025 -0.3508
 2411SOL    HW218870   1.293   2.537   5.824 -1.2579  0.2357  1.9055
 2412SOL     OW18871   1.602   0.632  12.847 -0.4311 -0.5041 -0.0983
 2412SOL    HW118872   1.632   0.579  12.921 -2.5620 -0.4098  0.8327
 2412SOL    HW218873   1.603   0.715  12.896 -2.1279 -0.7471  0.3432
 2413SOL     OW18874   1.114   1.997   4.761  0.7160  0.1681  0.3904
 2413SOL    HW118875   1.180   2.066   4.755  0.0964  0.4699 -3.0427
 2413SOL    HW218876   1.038   2.051   4.779  1.9631  0.9208  3.3695
 2414SOL     OW18877   3.335   0.198  15.685  0.8401 -0.0583 -0.4829
 2414SOL    HW118878   3.377   0.206  15.771  0.8652  0.0445 -0.5049
 2414SOL    HW218879   3.266   0.264  15.684 -0.2841 -1.1711  2.3491
 2415SOL     OW18880   2.803   1.673   9.205  0.3845 -0.0353  0.0796
 2415SOL    HW118881   2.849   1.739   9.257 -0.6036  1.0570 -0.4293
 2415SOL    HW218882   2.859   1.598   9.190  2.4296  1.7584 -1.3170
 2416SOL     OW18883   0.520   1.651  17.644 -0.6514 -0.1559  0.7714
 2416SOL    HW118884   0.545   1.590  17.713  2.3441  0.9066  0.6578
 2416SOL    HW218885   0.431   1.672  17.670 -1.7593 -3.9816  0.1833
 2417SOL     OW18886   3.735   2.215   2.281  0.3402 -0.0536 -0.4101
 2417SOL    HW118887   3.710   2.269   2.206 -2.6271 -1.0477 -0.1231
 2417SOL    HW218888   3.677   2.141   2.265  1.4350 -0.2297 -3.4289
 2418SOL     OW18889   2.853   2.610  14.598  0.4801 -0.1728 -0.2178
 2418SOL    HW118890   2.836   2.674  14.667  2.7154 -1.1936  1.2872
 2418SOL    HW218891   2.836   2.531  14.651 -0.7749 -0.9433 -1.7874
 2419SOL     OW18892   0.405   3.366   9.505  0.1592 -0.4168  0.3178
 2419SOL    HW118893   0.457   3.428   9.454 -2.2523  1.0181 -0.3946
 2419SOL    HW218894   0.356   3.421   9.566 -0.8744  1.2344 -1.9953
 2420SOL     OW18895   2.994   1.687   0.456  0.0487  0.0290  0.4672
 2420SOL    HW118896   2.927   1.741   0.413 -0.7145  0.5970  2.3664
 2420SOL    HW218897   2.949   1.677   0.540 -2.1349  1.0812 -0.5715
 2421SOL     OW18898   4.231   3.633   0.550  0.9977  0.1605  0.2785
 2421SOL    HW118899   4.256   3.578   0.624  2.1952  0.1736 -0.1121
 2421SOL    HW218900   4.255   3.720   0.580  0.7146  0.6860 -1.0210
 2422SOL     OW18901   0.989   1.854  10.277  0.3766  0.4472  0.3370
 2422SOL    HW118902   1.057   1.901  10.325  1.1559 -0.9522  0.5933
 2422SOL    HW218903   0.960   1.790  10.341  1.5520 -0.3865  0.0380
 2423SOL     OW18904   2.649   1.606   4.036  0.4914  0.0738 -0.1952
 2423SOL    HW118905   2.699   1.551   4.096  0.5903 -0.5842 -0.8885
 2423SOL    HW218906   2.658   1.687   4.087  0.6931  0.0547 -0.1999
 2424SOL     OW18907   3.869   0.139   4.035 -0.5735 -0.3398 -0.6652
 2424SOL    HW118908   3.952   0.109   4.073 -1.8605 -2.3882  0.5469
 2424SOL    HW218909   3.904   0.204   3.974 -1.6282  1.6985  0.9029
 2425SOL     OW18910   2.939   0.432   5.621 -0.3291 -0.1135 -0.0301
 2425SOL    HW118911   2.874   0.463   5.684 -0.6305  0.7256 -0.7531
 2425SOL    HW218912   2.975   0.514   5.589 -3.8703  1.2645 -0.4578
 2426SOL     OW18913   1.838   0.316  14.147  0.4883 -0.1006  0.4710
 2426SOL    HW118914   1.780   0.272  14.209  0.1113  0.6810  0.6703
 2426SOL    HW218915   1.781   0.345  14.076 -0.3296 -0.8962  0.7862
 2427SOL     OW18916   3.509   1.980   7.373  0.0959 -0.2830 -0.3546
 2427SOL    HW118917   3.476   2.070   7.374 -0.0867 -0.3640  1.6620
 2427SOL    HW218918   3.597   1.991   7.408 -0.2719  1.9239 -0.0978
 2428SOL     OW18919   0.385   1.748  16.274  0.3214  0.8846  0.1782
 2428SOL    HW118920   0.412   1.795  16.195  0.5719 -2.5518 -1.8182
 2428SOL    HW218921   0.414   1.660  16.252  2.1461  1.1213  1.6568
 2429SOL     OW18922   0.399   4.582  15.985  0.0245  0.1851  0.0628
 2429SOL    HW118923   0.450   4.625  16.055  0.5753 -1.1735  0.4896
 2429SOL    HW218924   0.460   4.594  15.912  0.0640  0.3411  0.1211
 2430SOL     OW18925   2.980   2.836   3.308 -0.2600  0.3463 -0.7564
 2430SOL    HW118926   2.997   2.886   3.387 -0.7381  0.9416 -1.0373
 2430SOL    HW218927   2.892   2.804   3.325 -1.4927  2.9532 -2.3214
 2431SOL     OW18928   0.848   0.166   8.636 -0.3984 -0.1819  0.2196
 2431SOL    HW118929   0.837   0.202   8.724 -0.2153  2.2833 -0.7815
 2431SOL    HW218930   0.768   0.199   8.595  0.7722  1.0532 -1.0550
 2432SOL     OW18931   3.461   3.708   8.739  0.0197 -0.2332  0.3602
 2432SOL    HW118932   3.444   3.711   8.834  1.1153 -2.1704  0.6063
 2432SOL    HW218933   3.557   3.705   8.740 -0.0451 -1.7321  2.5657
 2433SOL     OW18934   0.399   4.465   6.193  0.1116  0.0055 -1.0546
 2433SOL    HW118935   0.476   4.433   6.145  0.8341 -0.4740  0.3928
 2433SOL    HW218936   0.380   4.383   6.238  1.2527  0.5162  0.3781
 2434SOL     OW18937   3.539   0.040   6.255  0.8055  0.4867 -0.6020
 2434SOL    HW118938   3.548   4.724   6.181 -0.3196 -0.6375  0.1588
 2434SOL    HW218939   3.448   0.070   6.257  0.9336  0.8175  0.6687
 2435SOL     OW18940   0.142   4.549  16.857  0.3787 -0.1649 -0.3415
 2435SOL    HW118941   0.196   4.481  16.819  1.3924  0.1694  0.5050
 2435SOL    HW218942   0.190   4.631  16.855  0.5735 -0.3862 -3.6885
 2436SOL     OW18943   3.151   3.958  10.463 -0.1610  0.5993 -0.2160
 2436SOL    HW118944   3.183   3.917  10.544  1.4122  0.4230 -0.9281
 2436SOL    HW218945   3.166   3.883  10.404 -1.5636  0.8777 -0.9225
 2437SOL     OW18946   1.861   4.629   3.965  0.5583 -0.0624 -0.3298
 2437SOL    HW118947   1.833   4.708   4.011  0.7607  0.5319 -1.2346
 2437SOL    HW218948   1.947   4.611   4.002  0.2171  0.2149  0.5843
 2438SOL     OW18949   1.575   3.144  16.748 -0.4607 -0.2327 -0.1056
 2438SOL    HW118950   1.540   3.088  16.816 -0.7821 -0.8953 -0.8224
 2438SOL    HW218951   1.513   3.216  16.762  0.3115  0.4983 -0.4008
 2439SOL     OW18952   4.490   1.279   9.192 -0.0216  0.2190  0.2916
 2439SOL    HW118953   4.535   1.293   9.109  1.4725  0.6346  1.1805
 2439SOL    HW218954   4.413   1.231   9.161  0.1173 -0.0870  0.4187
 2440SOL     OW18955   3.309   3.094  17.714  0.5970 -0.4965 -0.2163
 2440SOL    HW118956   3.365   3.123  17.642 -2.6607  1.8710 -1.8038
 2440SOL    HW218957   3.257   3.034  17.661  2.0761 -1.7711 -0.1974
 2441SOL     OW18958   0.301   3.172  12.667  0.0548 -0.1313  0.4852
 2441SOL    HW118959   0.243   3.170  12.744 -0.2442  0.9847  0.2869
 2441SOL    HW218960   0.258   3.114  12.605 -1.2277 -0.6683  1.8771
 2442SOL     OW18961   2.664   4.111   5.868  0.5750  0.8647  0.1754
 2442SOL    HW118962   2.728   4.040   5.879 -1.1999 -0.6454  0.8353
 2442SOL    HW218963   2.723   4.181   5.840  1.0151  1.0272  1.5245
 2443SOL     OW18964   0.259   1.978  11.698  0.3512  0.1668 -0.1826
 2443SOL    HW118965   0.309   1.954  11.620 -0.0173 -0.3836 -0.2502
 2443SOL    HW218966   0.268   1.897  11.749  1.7771  0.7636  0.5067
 2444SOL     OW18967   3.846   0.287   5.036 -0.0867  0.2760  0.0430
 2444SOL    HW118968   3.783   0.359   5.031  0.9317  1.0621 -1.4668
 2444SOL    HW218969   3.821   0.255   5.123  1.5267 -1.2632 -0.0528
 2445SOL     OW18970   1.251   3.108   5.209 -0.3654 -0.1855 -0.7505
 2445SOL    HW118971   1.253   3.157   5.127  0.2354  0.1947 -0.5129
 2445SOL    HW218972   1.278   3.168   5.279  0.9557 -0.4004 -1.0648
 2446SOL     OW18973   1.873   3.737   0.245  0.2337  0.3381 -0.2520
 2446SOL    HW118974   1.834   3.824   0.230 -0.4113 -0.7140 -4.6437
 2446SOL    HW218975   1.936   3.735   0.172  0.9379 -2.3614  0.4553
 2447SOL     OW18976   2.593   4.572   0.603 -0.0858 -0.0846 -0.0365
 2447SOL    HW118977   2.542   4.528   0.671 -0.4626 -0.6918 -0.7207
 2447SOL    HW218978   2.655   4.505   0.573  0.0655 -0.0220  0.1309
 2448SOL     OW18979   0.927   3.858   7.611  0.7179 -0.4553  0.1554
 2448SOL    HW118980   0.957   3.947   7.630 -0.9370  0.2979 -0.8040
 2448SOL    HW218981   1.010   3.821   7.580  0.7224 -1.3331  1.2259
 2449SOL     OW18982   1.140   4.586   2.671 -0.4345  0.0893  0.2873
 2449SOL    HW118983   1.126   4.664   2.618 -1.9566 -0.2845  0.1528
 2449SOL    HW218984   1.053   4.574   2.709 -1.5236  0.1860 -2.1560
 2450SOL     OW18985   1.708   1.008   0.213 -0.6210  0.2276 -0.4522
 2450SOL    HW118986   1.675   1.038   0.128  0.4184 -0.1361 -0.9835
 2450SOL    HW218987   1.709   0.913   0.196 -1.5478  0.0905  0.2232
 2451SOL     OW18988   0.321   2.970   1.316 -1.1297 -0.4687  0.2598
 2451SOL    HW118989   0.269   2.932   1.387 -1.6523 -1.6483 -0.7569
 2451SOL    HW218990   0.377   3.029   1.366 -1.4704 -0.2296  0.3625
 2452SOL     OW18991   0.221   0.688   3.922 -0.0850  0.3734 -0.0066
 2452SOL    HW118992   0.144   0.698   3.977  0.5910 -0.3355  1.0699
 2452SOL    HW218993   0.204   0.766   3.868  0.3248  0.9152  0.6389
 2453SOL     OW18994   0.336   1.363   4.098  0.1222  0.5022  0.4742
 2453SOL    HW118995   0.388   1.283   4.091 -1.2269 -0.1216 -2.3361
 2453SOL    HW218996   0.321   1.391   4.008 -0.8754  0.9245  0.7776
 2454SOL     OW18997   2.072   3.681   5.685  0.0696 -0.0448  0.3663
 2454SOL    HW118998   2.019   3.610   5.723 -1.4206  0.0887 -1.4102
 2454SOL    HW218999   2.096   3.736   5.759 -1.1831 -0.0925  0.8162
 2455SOL     OW19000   0.238   4.315   4.215  0.1987  0.2296  0.3680
 2455SOL    HW119001   0.166   4.301   4.154  0.5400  0.0176  0.0126
 2455SOL    HW219002   0.301   4.245   4.201 -1.5005 -0.5699 -3.3701
 2456SOL     OW19003   4.735   2.326   8.018  0.9412  0.2109 -0.2749
 2456SOL    HW119004   0.021   2.373   7.940 -1.1082  1.0936 -0.4884
 2456SOL    HW219005   0.070   2.289   8.060  0.3030  0.1591  0.8545
 2457SOL     OW19006   4.103   2.668  15.004  0.6635 -0.6716  0.1536
 2457SOL    HW119007   4.033   2.604  14.992  2.8828 -2.9668 -0.4889
 2457SOL    HW219008   4.064   2.726  15.070  0.0631 -0.3713 -0.4650
 2458SOL     OW19009   0.992   1.153   6.889 -0.0511  0.2625  0.5359
 2458SOL    HW119010   1.021   1.077   6.940 -3.0237 -1.7147 -0.7000
 2458SOL    HW219011   1.073   1.189   6.855 -0.4799  0.6227 -0.1035
 2459SOL     OW19012   3.680   4.064  10.650 -0.2215  0.0508 -0.2185
 2459SOL    HW119013   3.630   4.146  10.658 -0.8444 -0.2997 -0.4697
 2459SOL    HW219014   3.637   4.023  10.575  0.1792  0.7449 -0.8257
 2460SOL     OW19015   3.540   2.826   2.674 -0.2802 -0.2062 -0.6206
 2460SOL    HW119016   3.507   2.759   2.614 -3.0053  0.2001  0.4428
 2460SOL    HW219017   3.606   2.766   2.708  1.0565  1.2321 -0.7078
 2461SOL     OW19018   2.346   4.018   4.118  0.3915  0.1513  0.1142
 2461SOL    HW119019   2.369   3.932   4.152 -1.6771  0.1221  1.4503
 2461SOL    HW219020   2.263   4.020   4.165  1.4892  2.0332  1.9943
 2462SOL     OW19021   2.556   0.384  13.423 -0.1683  0.2478 -0.6568
 2462SOL    HW119022   2.482   0.436  13.454 -1.5754 -2.2528  0.1803
 2462SOL    HW219023   2.538   0.291  13.434 -0.0955  0.3489  0.3255
 2463SOL     OW19024   2.936   3.188  17.463 -0.3284  0.4073  0.2066
 2463SOL    HW119025   3.027   3.217  17.460  0.0978 -0.9467  0.5054
 2463SOL    HW219026   2.901   3.250  17.398 -2.4885 -2.3433 -1.2400
 2464SOL     OW19027   2.860   0.427  13.641  0.1684 -0.6578  0.3593
 2464SOL    HW119028   2.772   0.441  13.677  0.2186  1.9288 -0.4657
 2464SOL    HW219029   2.850   0.488  13.568  3.4945 -1.6936 -0.9164
 2465SOL     OW19030   3.053   0.680   5.573  0.0644  0.2835 -0.3195
 2465SOL    HW119031   3.106   0.734   5.631  1.3653 -1.3218 -0.0166
 2465SOL    HW219032   3.037   0.738   5.498 -0.1211  0.7793  0.0999
 2466SOL     OW19033   4.735   3.398   3.395 -0.4539  0.4290  0.0890
 2466SOL    HW119034   0.024   3.436   3.313  0.5435  2.0405  1.2163
 2466SOL    HW219035   4.707   3.470   3.451 -2.6338  0.8274 -1.5255
 2467SOL     OW19036   2.702   0.635   9.146  0.3159 -0.1185 -0.3471
 2467SOL    HW119037   2.653   0.555   9.127 -1.2356  1.2506 -2.1090
 2467SOL    HW219038   2.667   0.668   9.229  0.2131 -1.3550  0.1125
 2468SOL     OW19039   2.152   4.318   3.258  0.0144  0.2690  0.1110
 2468SOL    HW119040   2.099   4.304   3.180 -0.8923  0.0112  0.7697
 2468SOL    HW219041   2.158   4.229   3.294  1.2102  0.1654 -0.3559
 2469SOL     OW19042   2.167   0.673   4.838  0.3631  0.3628 -0.3246
 2469SOL    HW119043   2.132   0.753   4.877 -1.2305 -1.1073  1.2659
 2469SOL    HW219044   2.206   0.626   4.912 -1.2695  0.1654  0.4184
 2470SOL     OW19045   1.831   0.679   9.076 -0.6995 -0.1071  0.2589
 2470SOL    HW119046   1.855   0.702   9.166 -0.3255  1.3701 -0.2209
 2470SOL    HW219047   1.792   0.761   9.048  0.0872 -1.1543 -3.8975
 2471SOL     OW19048   0.489   0.969  16.893  0.2639  0.8088 -0.4175
 2471SOL    HW119049   0.478   1.064  16.893  1.2372  0.9256 -0.2806
 2471SOL    HW219050   0.568   0.954  16.841 -0.3888 -3.0189 -0.2647
 2472SOL     OW19051   4.022   1.587   2.175  0.4663  0.0092  0.1611
 2472SOL    HW119052   3.932   1.554   2.178  0.2960  0.5082  0.4675
 2472SOL    HW219053   4.010   1.679   2.196  1.8837 -0.3088  2.4272
 2473SOL     OW19054   2.768   0.810   6.756 -0.8027 -0.0725  0.1629
 2473SOL    HW119055   2.749   0.892   6.710 -0.1151 -0.0567 -0.0888
 2473SOL    HW219056   2.749   0.828   6.848  1.3527  1.2525  0.3364
 2474SOL     OW19057   2.465   2.599   9.379 -0.2832 -0.5595 -0.6751
 2474SOL    HW119058   2.469   2.666   9.311  0.8582 -0.0028 -0.0672
 2474SOL    HW219059   2.396   2.542   9.345 -1.1725 -0.1523  0.4537
 2475SOL     OW19060   1.880   4.246   2.337  0.4446  0.4432 -0.5818
 2475SOL    HW119061   1.861   4.227   2.245 -0.2534 -1.0188 -0.1340
 2475SOL    HW219062   1.975   4.255   2.333  0.4962  0.5900  0.9436
 2476SOL     OW19063   2.159   1.762   2.243 -0.2454  0.2236  0.4823
 2476SOL    HW119064   2.087   1.802   2.194 -1.6602 -1.0377  1.5241
 2476SOL    HW219065   2.236   1.798   2.199 -1.0034  0.7332 -0.4295
 2477SOL     OW19066   3.222   1.893   9.451  0.6545  0.1057 -0.3119
 2477SOL    HW119067   3.241   1.830   9.521  2.5935 -0.3950 -1.2987
 2477SOL    HW219068   3.253   1.976   9.489  1.2685  0.1689 -0.9509
 2478SOL     OW19069   3.408   2.498   1.022  0.3231  0.6285  0.2796
 2478SOL    HW119070   3.499   2.470   1.039  0.6811  1.6291 -0.0226
 2478SOL    HW219071   3.406   2.499   0.927  2.1371 -2.5945  0.1829
 2479SOL     OW19072   2.500   0.519   1.588 -0.1440 -0.0094 -0.1231
 2479SOL    HW119073   2.440   0.590   1.610  1.3731  1.4251 -0.6181
 2479SOL    HW219074   2.486   0.509   1.494 -1.6691  0.4881  0.0558
 2480SOL     OW19075   2.765   2.312   3.315  0.3045 -0.3055 -0.2893
 2480SOL    HW119076   2.675   2.318   3.285 -0.2878  0.3658  1.6419
 2480SOL    HW219077   2.811   2.309   3.231 -1.7577 -1.4957 -1.3567
 2481SOL     OW19078   4.725   2.010  14.154  0.0879 -0.4748  0.4431
 2481SOL    HW119079   4.700   1.958  14.078 -0.9439  1.2401 -0.4071
 2481SOL    HW219080   0.028   2.086  14.117 -1.7729  0.2199 -0.4741
 2482SOL     OW19081   4.550   1.977   1.310  0.1641  0.0859  0.0315
 2482SOL    HW119082   4.637   2.018   1.312 -0.2977  0.9547  1.8556
 2482SOL    HW219083   4.503   2.028   1.376  1.5476 -1.1853  1.9993
 2483SOL     OW19084   0.215   1.431   7.032  0.2263  0.1967  0.0322
 2483SOL    HW119085   0.204   1.509   6.978 -3.6134 -0.9681 -0.8134
 2483SOL    HW219086   0.305   1.436   7.064  0.2725  1.0887 -0.2161
 2484SOL     OW19087   1.613   0.578   7.202 -0.3424 -0.5697 -0.2240
 2484SOL    HW119088   1.615   0.664   7.160  0.1486 -0.5966 -0.2498
 2484SOL    HW219089   1.565   0.609   7.279 -0.5893 -2.8910  0.5513
 2485SOL     OW19090   1.994   0.507   1.816 -0.0115  0.4054 -0.5232
 2485SOL    HW119091   2.008   0.570   1.744  0.6868  1.4538  0.5269
 2485SOL    HW219092   2.037   0.549   1.890  1.3437 -1.7960 -0.0796
 2486SOL     OW19093   3.637   1.162   5.820 -0.3538  0.0236 -0.3114
 2486SOL    HW119094   3.689   1.084   5.844 -1.4112 -0.6927 -0.3576
 2486SOL    HW219095   3.684   1.223   5.877  1.6699 -0.7299 -1.1420
 2487SOL     OW19096   3.519   0.991   3.301 -0.0990  0.7019 -0.4508
 2487SOL    HW119097   3.521   1.049   3.225 -0.0000 -1.2291 -1.9227
 2487SOL    HW219098   3.481   1.055   3.362  0.6166 -0.2004  0.9474
 2488SOL     OW19099   3.631   0.950   0.084  0.0840 -0.2763  0.0610
 2488SOL    HW119100   3.595   0.996   0.160 -0.7301 -0.7026 -0.0643
 2488SOL    HW219101   3.571   0.979   0.014 -0.5584 -1.5109  0.1031
 2489SOL     OW19102   2.473   1.423   8.728  0.2702  0.6890 -0.0270
 2489SOL    HW119103   2.507   1.386   8.809 -0.2656  3.9545  1.7126
 2489SOL    HW219104   2.535   1.407   8.657 -0.5153 -2.6664  0.0447
 2490SOL     OW19105   0.180   0.102   1.288  0.1373  0.2200 -0.4811
 2490SOL    HW119106   0.157   0.019   1.330 -0.3690  0.9789  0.7401
 2490SOL    HW219107   0.096   0.127   1.249  0.2745  1.3110 -0.0855
 2491SOL     OW19108   3.091   3.834   7.289 -0.2434 -0.0953  0.5901
 2491SOL    HW119109   3.086   3.925   7.259 -0.5887 -0.9157 -1.8266
 2491SOL    HW219110   3.167   3.794   7.247 -0.4234 -0.2760  0.4390
 2492SOL     OW19111   0.707   4.505  14.216 -0.4186 -0.0575 -0.1141
 2492SOL    HW119112   0.792   4.463  14.225 -0.9269 -1.1120 -0.2224
 2492SOL    HW219113   0.710   4.567  14.289  0.8851 -1.1283  0.7303
 2493SOL     OW19114   4.596   4.700  10.659  0.2493 -0.3014  0.5500
 2493SOL    HW119115   4.623   4.707  10.750  1.5980 -0.3322  0.1414
 2493SOL    HW219116   4.636   0.039  10.632  0.8492 -0.3074  1.4198
 2494SOL     OW19117   3.998   3.398   5.945  0.2031  0.4854 -0.4397
 2494SOL    HW119118   3.941   3.393   6.022  0.0780  3.6442 -0.3157
 2494SOL    HW219119   3.984   3.313   5.905  0.0760  0.3936 -0.2044
 2495SOL     OW19120   1.756   3.605   5.181 -0.1483 -0.5121  0.2940
 2495SOL    HW119121   1.844   3.608   5.218 -0.8310  1.6830  1.6963
 2495SOL    HW219122   1.752   3.518   5.141 -0.0313  0.0995 -1.0401
 2496SOL     OW19123   1.933   3.400   1.497  0.3254 -0.0456  0.0095
 2496SOL    HW119124   1.893   3.400   1.583 -2.4683 -0.3897 -1.2894
 2496SOL    HW219125   2.022   3.429   1.519 -0.3602 -0.6811  3.5150
 2497SOL     OW19126   4.595   4.475  15.085 -0.3182  0.4591 -0.7651
 2497SOL    HW119127   4.675   4.492  15.134 -0.2186  0.0142 -0.7688
 2497SOL    HW219128   4.631   4.494  14.998  0.4693 -1.0647 -0.7851
 2498SOL     OW19129   1.134   1.634   2.567  0.4537 -0.0472 -0.6240
 2498SOL    HW119130   1.072   1.668   2.502  0.7988  1.2181 -0.3008
 2498SOL    HW219131   1.193   1.588   2.508 -0.1824  1.3308 -2.3427
 2499SOL     OW19132   1.490   2.834   7.867  0.2051 -0.6331 -1.0091
 2499SOL    HW119133   1.468   2.752   7.910 -0.3978  1.0943  1.9782
 2499SOL    HW219134   1.579   2.860   7.890 -0.7113  0.3165  1.5286
 2500SOL     OW19135   3.937   4.659   9.021 -0.2935 -0.2603  0.4150
 2500SOL    HW119136   3.871   4.709   8.972  0.8228 -0.9107 -1.7858
 2500SOL    HW219137   3.882   4.636   9.095  0.9069 -0.0845  1.3541
 2501SOL     OW19138   1.814   4.663   7.353  0.2420  0.3356 -0.4749
 2501SOL    HW119139   1.737   4.662   7.297  0.2877  1.1216 -0.5431
 2501SOL    HW219140   1.875   4.626   7.289  1.8779  2.4054 -0.1046
 2502SOL     OW19141   2.344   2.058   6.031 -0.1625  0.0619 -0.4560
 2502SOL    HW119142   2.266   2.003   6.043  0.4358 -0.7901 -0.4986
 2502SOL    HW219143   2.403   2.008   5.975  0.3798 -0.7413  0.8408
 2503SOL     OW19144   0.441   3.388   1.508 -0.0461  0.4695 -0.3623
 2503SOL    HW119145   0.389   3.316   1.544 -1.4784  1.7048  0.0595
 2503SOL    HW219146   0.523   3.340   1.496  0.3316  1.6385 -2.4619
 2504SOL     OW19147   3.813   1.154   3.200  0.3537  0.3309  0.3398
 2504SOL    HW119148   3.719   1.168   3.206  0.5090  2.3212 -1.9817
 2504SOL    HW219149   3.834   1.177   3.109  0.6641 -1.2514  0.0048
 2505SOL     OW19150   2.283   2.778  16.004 -0.0975  0.1604  0.0435
 2505SOL    HW119151   2.257   2.724  16.078  4.7976 -1.3705  0.6409
 2505SOL    HW219152   2.376   2.783  16.027  0.0313  1.3170 -0.6992
 2506SOL     OW19153   4.066   2.955   3.455 -0.1197 -0.1391  0.1621
 2506SOL    HW119154   4.148   2.983   3.495 -0.2376 -0.6483  0.7505
 2506SOL    HW219155   4.102   2.910   3.378  2.3898  0.9661  0.7049
 2507SOL     OW19156   3.321   0.702   8.966 -0.5341  0.1506  0.0558
 2507SOL    HW119157   3.262   0.697   8.891  0.7335  0.8695 -0.9939
 2507SOL    HW219158   3.335   0.609   8.985  1.0281  0.0846 -1.3611
 2508SOL     OW19159   1.295   2.820  14.090  0.5962 -0.3927 -0.2929
 2508SOL    HW119160   1.235   2.751  14.116 -1.5636  1.5383 -0.1664
 2508SOL    HW219161   1.354   2.820  14.166 -1.2952  3.4420  1.1731
 2509SOL     OW19162   2.288   2.312  12.638  0.4138 -0.1094  0.5571
 2509SOL    HW119163   2.227   2.283  12.570  0.9564  0.5750 -0.2258
 2509SOL    HW219164   2.366   2.328  12.584  1.3411  0.0600  1.9356
 2510SOL     OW19165   4.499   3.723   4.905 -0.1246 -0.3604  0.3993
 2510SOL    HW119166   4.546   3.797   4.944  0.8775 -1.5188  1.3905
 2510SOL    HW219167   4.455   3.670   4.971 -0.2738 -2.5771 -1.4664
 2511SOL     OW19168   0.942   0.927   7.371  0.1763  0.0714 -0.4419
 2511SOL    HW119169   0.957   0.873   7.449 -0.1395 -0.0231 -0.4447
 2511SOL    HW219170   0.877   0.995   7.394 -0.2133 -0.8691  1.2632
 2512SOL     OW19171   2.904   3.715  10.230  1.3088 -0.5091 -0.0191
 2512SOL    HW119172   2.879   3.629  10.262  0.1165 -0.0928  0.1595
 2512SOL    HW219173   2.852   3.719  10.149  0.9410 -0.0744  0.2398
 2513SOL     OW19174   4.086   4.560  12.819  0.3480  0.0329  0.0105
 2513SOL    HW119175   4.178   4.541  12.800  0.6821  0.1689  1.4983
 2513SOL    HW219176   4.070   4.519  12.904  1.5788  0.1979  0.3317
 2514SOL     OW19177   0.576   3.584  14.891 -0.1780  0.2303 -0.0934
 2514SOL    HW119178   0.635   3.514  14.865  0.7593  0.9267  0.1208
 2514SOL    HW219179   0.637   3.657  14.878 -0.4810  0.7155  1.1909
 2515SOL     OW19180   2.708   0.088   3.846 -0.3753 -0.1801  0.0104
 2515SOL    HW119181   2.746   0.145   3.913 -0.5799  0.7421 -0.6470
 2515SOL    HW219182   2.641   0.047   3.901  0.6266 -3.0895 -0.9495
 2516SOL     OW19183   4.529   4.510   2.897 -0.4752  0.0893 -0.3713
 2516SOL    HW119184   4.450   4.521   2.951 -1.7569  0.6837 -2.3615
 2516SOL    HW219185   4.533   4.591   2.845  2.7748  1.0410  1.3807
 2517SOL     OW19186   0.463   2.011   3.493 -0.2438 -0.0760 -0.1291
 2517SOL    HW119187   0.435   1.925   3.526  0.7948 -1.2949 -2.4395
 2517SOL    HW219188   0.380   2.059   3.494  0.0762  0.4799 -0.4446
 2518SOL     OW19189   2.081   0.267   3.263  0.5361  0.2692 -0.1937
 2518SOL    HW119190   2.118   0.292   3.348  0.5637  0.9265 -0.3997
 2518SOL    HW219191   2.165   0.246   3.222  1.0122 -1.5546  1.7322
 2519SOL     OW19192   0.990   4.174  13.506  0.1036  0.1605 -0.4721
 2519SOL    HW119193   0.978   4.081  13.487 -0.3212  0.4092 -1.4095
 2519SOL    HW219194   1.035   4.170  13.591  1.5968  0.2163 -1.2479
 2520SOL     OW19195   4.011   0.840   9.645 -0.5256  0.1538  0.1489
 2520SOL    HW119196   4.085   0.886   9.686 -0.7073  0.1013  0.5411
 2520SOL    HW219197   3.974   0.794   9.720  0.6069 -0.4894  0.3167
 2521SOL     OW19198   1.194   2.465   8.525  0.0055 -0.3248 -0.9354
 2521SOL    HW119199   1.283   2.437   8.544 -1.9978 -4.9417  1.5802
 2521SOL    HW219200   1.225   2.540   8.474 -2.0142  2.0474  1.2937
 2522SOL     OW19201   3.045   1.408  16.912  0.0409 -0.2271  0.1784
 2522SOL    HW119202   2.986   1.448  16.848 -0.6216 -1.1842  0.1924
 2522SOL    HW219203   3.065   1.321  16.876 -1.0053  0.4367 -1.9498
 2523SOL     OW19204   4.312   2.379  13.336  0.1168  0.0631  0.6088
 2523SOL    HW119205   4.318   2.397  13.243 -2.4512  0.3846  0.5065
 2523SOL    HW219206   4.241   2.317  13.352  1.5608 -2.2496 -2.0022
 2524SOL     OW19207   3.339   3.122  16.159  0.1418 -0.4165  0.5144
 2524SOL    HW119208   3.332   3.200  16.214 -1.0575  0.1763 -0.4670
 2524SOL    HW219209   3.414   3.085  16.204  0.6443 -1.1105 -0.9066
 2525SOL     OW19210   3.226   1.540   2.971 -0.0209 -0.5506  0.1284
 2525SOL    HW119211   3.190   1.597   2.903 -0.0880 -0.8302 -0.0703
 2525SOL    HW219212   3.172   1.587   3.035 -0.8666  0.0179 -0.9968
 2526SOL     OW19213   2.642   3.314   2.599 -0.7104  0.0625 -0.0787
 2526SOL    HW119214   2.632   3.244   2.664  0.2477 -0.3119 -0.3302
 2526SOL    HW219215   2.690   3.379   2.649  0.2205  1.9420 -3.3683
 2527SOL     OW19216   1.268   1.396  11.940 -0.2717 -0.8688 -0.3988
 2527SOL    HW119217   1.231   1.454  11.874 -1.8326  1.2133  2.3038
 2527SOL    HW219218   1.348   1.446  11.959 -0.0211 -1.8603  1.1694
 2528SOL     OW19219   1.540   1.491   6.914 -0.0481 -0.4589  0.4415
 2528SOL    HW119220   1.580   1.550   6.979 -1.3149 -0.2791  1.0492
 2528SOL    HW219221   1.595   1.413   6.923  1.7878  0.6310 -1.3675
 2529SOL     OW19222   4.310   1.509   2.828 -0.4605  0.5409 -0.0581
 2529SOL    HW119223   4.301   1.476   2.739  3.7996 -0.2770 -0.2123
 2529SOL    HW219224   4.395   1.554   2.828  0.9396 -2.0843 -0.1240
 2530SOL     OW19225   3.326   0.722  15.943  0.6867  0.1205  0.6188
 2530SOL    HW119226   3.403   0.743  15.890  1.8337 -0.6486  1.9613
 2530SOL    HW219227   3.355   0.631  15.952  0.3978  0.3998  4.4197
 2531SOL     OW19228   0.961   1.022   9.179 -0.1901  0.0319  0.2184
 2531SOL    HW119229   0.915   1.090   9.130  0.8996  1.0064  0.5457
 2531SOL    HW219230   0.966   0.957   9.109 -0.1855  0.1251  0.1306
 2532SOL     OW19231   0.514   4.485   3.631 -0.2026 -0.4443  0.7235
 2532SOL    HW119232   0.482   4.532   3.708  0.3901  0.7366  0.2483
 2532SOL    HW219233   0.552   4.406   3.670  0.1808 -1.5367 -1.8862
 2533SOL     OW19234   4.374   0.040   6.491  0.5306 -0.0541 -0.7021
 2533SOL    HW119235   4.464   0.071   6.484  0.4665  0.4528  0.9060
 2533SOL    HW219236   4.357   0.012   6.581 -0.9212  1.5888 -0.4731
 2534SOL     OW19237   1.578   0.224  12.558 -0.4540 -0.4886  0.3718
 2534SOL    HW119238   1.633   0.160  12.603  1.0165  0.6355  0.1838
 2534SOL    HW219239   1.492   0.186  12.572 -1.0259  0.0755 -1.6982
 2535SOL     OW19240   2.373   3.648   4.782 -0.5616  0.1363 -0.3135
 2535SOL    HW119241   2.423   3.567   4.787 -1.4782 -0.4742 -0.8864
 2535SOL    HW219242   2.422   3.702   4.844  1.1023  0.0994 -1.6135
 2536SOL     OW19243   4.174   3.674   7.869  0.2651 -0.8079  0.0881
 2536SOL    HW119244   4.136   3.682   7.957 -0.0229  0.3429 -0.1468
 2536SOL    HW219245   4.136   3.593   7.835  1.6527 -1.4270  0.0230
 2537SOL     OW19246   1.219   1.736   0.884  0.0882 -0.6420  0.0535
 2537SOL    HW119247   1.256   1.648   0.871  2.2441  0.1857  0.4823
 2537SOL    HW219248   1.227   1.776   0.797  2.8108  0.7074  0.9006
 2538SOL     OW19249   4.133   0.575   7.594  0.1831  0.1513  0.3181
 2538SOL    HW119250   4.175   0.611   7.516  1.6536 -2.4331 -0.0834
 2538SOL    HW219251   4.149   0.481   7.589 -1.2323 -0.1047  0.6196
 2539SOL     OW19252   3.478   3.855  10.508 -0.1188 -0.0185 -0.3570
 2539SOL    HW119253   3.396   3.842  10.556 -1.0708 -0.8029 -2.1900
 2539SOL    HW219254   3.504   3.764  10.492 -1.8551 -0.1404 -2.4326
 2540SOL     OW19255   4.109   1.335   9.704 -0.2926  0.3271 -0.4558
 2540SOL    HW119256   4.178   1.269   9.698  0.6701  1.2391  0.5802
 2540SOL    HW219257   4.164   1.412   9.691 -1.0532  0.8493 -0.5487
 2541SOL     OW19258   1.943   3.451   8.185 -0.5323  0.0510  0.2844
 2541SOL    HW119259   1.963   3.541   8.160  1.0950 -0.3298  0.1742
 2541SOL    HW219260   1.869   3.417   8.135  0.2491 -0.8763 -0.2550
 2542SOL     OW19261   0.973   1.212  16.437 -0.5738  0.4013 -0.2008
 2542SOL    HW119262   1.039   1.278  16.458  1.0523 -0.7707 -1.5688
 2542SOL    HW219263   0.915   1.278  16.400 -1.6010 -0.7910 -0.7241
 2543SOL     OW19264   3.443   4.000   2.189  0.2228 -0.3844 -0.3375
 2543SOL    HW119265   3.430   3.994   2.283  0.2390 -1.7693 -0.4141
 2543SOL    HW219266   3.375   4.061   2.160 -0.1706 -0.2597  0.8635
 2544SOL     OW19267   1.414   0.878   1.471 -0.2395  0.3605 -0.9536
 2544SOL    HW119268   1.470   0.935   1.524  1.1378 -1.5118 -0.4023
 2544SOL    HW219269   1.441   0.889   1.380  0.0384  1.2959 -0.7605
 2545SOL     OW19270   1.443   0.133   0.372 -0.2392  0.1218  0.2451
 2545SOL    HW119271   1.375   0.098   0.429  0.1053 -1.6814 -0.4555
 2545SOL    HW219272   1.434   0.228   0.371  0.3850  0.1471 -2.8674
 2546SOL     OW19273   1.831   2.245   1.772  0.5783 -0.2849 -0.0041
 2546SOL    HW119274   1.828   2.317   1.836 -1.2039  0.0871 -0.5228
 2546SOL    HW219275   1.895   2.271   1.706 -0.8201 -1.6074 -1.8719
 2547SOL     OW19276   4.024   2.580  13.636  0.1704 -0.3617 -0.3540
 2547SOL    HW119277   3.991   2.588  13.546 -0.7238 -0.7177 -0.0581
 2547SOL    HW219278   4.006   2.663  13.681 -1.9276  0.0193 -1.8741
 2548SOL     OW19279   0.948   4.027  15.949 -0.5278 -0.4723  0.0041
 2548SOL    HW119280   0.992   4.016  16.033  0.4805 -0.5576 -0.5335
 2548SOL    HW219281   0.929   3.938  15.921 -0.4746 -0.8094  1.0490
 2549SOL     OW19282   1.649   4.338  12.365  0.0778 -0.1804  0.4696
 2549SOL    HW119283   1.669   4.431  12.350 -0.5795 -0.0514  0.3939
 2549SOL    HW219284   1.707   4.308  12.434  1.6614 -0.3066 -0.8955
 2550SOL     OW19285   0.390   0.627  13.189  0.1762 -0.0692  0.4751
 2550SOL    HW119286   0.455   0.558  13.189 -0.6967 -0.8905 -0.0614
 2550SOL    HW219287   0.441   0.689  13.138  0.2347 -0.5281 -0.0161
 2551SOL     OW19288   3.532   1.982   2.807  0.0985 -0.4643  0.1197
 2551SOL    HW119289   3.510   1.962   2.716  0.6372 -0.9527  0.1005
 2551SOL    HW219290   3.518   1.897   2.848 -0.0191  0.1788  1.4035
 2552SOL     OW19291   1.666   1.080   1.877  0.1388  0.1817  0.1076
 2552SOL    HW119292   1.663   1.138   1.954 -1.2355  1.8807 -1.2397
 2552SOL    HW219293   1.757   1.096   1.851 -0.0049 -0.8182 -0.9781
 2553SOL     OW19294   0.065   2.500   3.857  0.9327  0.0883 -0.1566
 2553SOL    HW119295   4.720   2.487   3.892  1.3664  1.1783  1.3493
 2553SOL    HW219296   0.100   2.562   3.921  0.5322 -1.3710  1.4821
 2554SOL     OW19297   1.233   2.549  14.053  0.8910 -0.2007 -0.2406
 2554SOL    HW119298   1.214   2.456  14.042 -1.3245  0.4134 -1.5213
 2554SOL    HW219299   1.149   2.590  14.030  0.4729 -0.5790  0.6047
 2555SOL     OW19300   4.310   1.198  16.838  0.3682  0.0255 -0.3983
 2555SOL    HW119301   4.324   1.289  16.813 -0.6497  0.6284  1.2567
 2555SOL    HW219302   4.385   1.148  16.807 -1.2003 -2.2117 -0.5973
 2556SOL     OW19303   1.775   0.388   1.022  0.6131 -0.1127  0.2507
 2556SOL    HW119304   1.754   0.465   1.074  0.3097 -0.0398  0.0204
 2556SOL    HW219305   1.745   0.316   1.077  2.5379 -2.3772 -1.6293
 2557SOL     OW19306   1.915   1.807   4.629 -0.3402 -0.4630  0.9172
 2557SOL    HW119307   1.992   1.843   4.586 -1.2558  0.1569 -0.2181
 2557SOL    HW219308   1.887   1.750   4.557 -1.6553  1.3978 -0.0442
 2558SOL     OW19309   2.326   3.793  17.747  0.4105 -0.1590 -0.2766
 2558SOL    HW119310   2.231   3.803  17.755  0.5338  0.5698  0.2262
 2558SOL    HW219311   2.354   3.832  17.664 -1.0796  3.3747  0.8899
 2559SOL     OW19312   2.790   4.319   7.915 -0.1582  0.2945  0.2561
 2559SOL    HW119313   2.738   4.398   7.901 -2.4012 -0.9920  1.2626
 2559SOL    HW219314   2.724   4.253   7.894  1.1487 -1.4076  1.4776
 2560SOL     OW19315   4.293   1.689   1.906 -0.3768 -0.2804 -0.0313
 2560SOL    HW119316   4.369   1.729   1.865  0.5943 -1.4158  0.6543
 2560SOL    HW219317   4.286   1.597   1.882 -2.5436 -0.6611  2.0777
 2561SOL     OW19318   1.264   2.620   4.937 -0.4707 -0.3091 -0.2999
 2561SOL    HW119319   1.338   2.582   4.984 -0.3759  0.0947 -0.1195
 2561SOL    HW219320   1.281   2.715   4.942  2.8495 -0.9354  0.7577
 2562SOL     OW19321   1.237   4.267  13.874  0.0528  0.1293  0.5619
 2562SOL    HW119322   1.319   4.299  13.835 -0.4065 -0.0331 -0.5479
 2562SOL    HW219323   1.211   4.338  13.933 -0.2321  0.6293 -0.1507
 2563SOL     OW19324   0.695   3.753  11.363  0.0688  0.2858  0.1839
 2563SOL    HW119325   0.618   3.808  11.351  0.1560  0.1993 -0.7355
 2563SOL    HW219326   0.766   3.782  11.306 -1.5278 -0.0692 -1.9471
 2564SOL     OW19327   4.002   3.531   8.890 -0.0354 -0.2034 -0.2513
 2564SOL    HW119328   4.093   3.510   8.910 -0.4239 -0.7670  0.9373
 2564SOL    HW219329   4.000   3.625   8.908  2.5744  0.1426 -1.7408
 2565SOL     OW19330   4.406   2.275   2.082  0.0501 -0.4995  0.6202
 2565SOL    HW119331   4.499   2.255   2.070 -0.1844 -0.6672 -0.8636
 2565SOL    HW219332   4.363   2.190   2.084 -1.3523  0.2477  3.0234
 2566SOL     OW19333   0.010   0.867   6.311  0.1562 -0.2293 -0.5740
 2566SOL    HW119334   0.088   0.914   6.283  0.2839  1.3570  2.4685
 2566SOL    HW219335   4.691   0.938   6.296  1.2151  0.8152  0.0184
 2567SOL     OW19336   0.159   3.044  12.476 -0.8967  0.1372  0.0583
 2567SOL    HW119337   0.104   2.995  12.537  0.8844 -0.4490  1.2034
 2567SOL    HW219338   0.097   3.065  12.406 -0.8576 -0.3128 -0.1085
 2568SOL     OW19339   4.299   0.806   8.653 -0.8024  0.2541  0.3975
 2568SOL    HW119340   4.360   0.768   8.589  0.3072 -0.0574  1.6439
 2568SOL    HW219341   4.231   0.832   8.590 -0.9611 -0.4027  0.3013
 2569SOL     OW19342   1.012   0.093   4.196 -0.7988 -0.2125 -0.4858
 2569SOL    HW119343   1.009   0.158   4.126 -0.6086 -1.6769 -1.8365
 2569SOL    HW219344   0.960   0.137   4.264 -1.4779 -2.6580  0.5734
 2570SOL     OW19345   2.318   0.136   3.196  0.1040 -0.3379 -0.5526
 2570SOL    HW119346   2.380   0.074   3.157  0.8862 -1.7775  2.9097
 2570SOL    HW219347   2.382   0.166   3.261 -0.3272 -0.9204  0.1496
 2571SOL     OW19348   4.462   3.109   6.073 -0.0817 -0.3977  0.4244
 2571SOL    HW119349   4.375   3.146   6.059 -0.2573 -0.9148  0.1341
 2571SOL    HW219350   4.492   3.145   6.156  0.9115 -0.6313  0.1575
 2572SOL     OW19351   2.972   3.795   8.825 -0.6536 -0.6710  0.2545
 2572SOL    HW119352   2.984   3.713   8.778  3.0218  0.2987 -0.5438
 2572SOL    HW219353   3.038   3.801   8.895 -1.1795  1.4762  0.5629
 2573SOL     OW19354   0.654   1.796   9.721  0.1845  0.1038  0.3083
 2573SOL    HW119355   0.747   1.774   9.720 -0.6503 -3.3618 -0.3134
 2573SOL    HW219356   0.627   1.750   9.641  0.8305  2.1816 -1.1030
 2574SOL     OW19357   0.051   0.171   3.488 -0.5437 -0.2721  0.0402
 2574SOL    HW119358   4.714   0.172   3.436 -1.2235  0.4306  1.0871
 2574SOL    HW219359   0.106   0.185   3.411  2.1180  0.0684  2.0216
 2575SOL     OW19360   1.563   2.813  11.070  0.0373  0.4036  0.1202
 2575SOL    HW119361   1.656   2.836  11.068  0.3312 -0.7051  0.6853
 2575SOL    HW219362   1.538   2.899  11.038 -0.3368  0.0742 -0.4855
 2576SOL     OW19363   4.125   2.555  15.449  0.4831  0.4203  0.8598
 2576SOL    HW119364   4.033   2.580  15.461  0.4906  1.2648 -0.8731
 2576SOL    HW219365   4.134   2.527  15.358  2.0788  2.0187  0.5196
 2577SOL     OW19366   0.194   0.311   9.808  0.2231  0.6261  0.7334
 2577SOL    HW119367   0.260   0.274   9.748 -0.4286 -1.9867  1.6079
 2577SOL    HW219368   0.200   0.403   9.784 -0.4802 -0.6166 -4.1837
 2578SOL     OW19369   1.586   0.990   6.471  0.0864 -0.4666  0.1410
 2578SOL    HW119370   1.567   0.896   6.476  0.7989 -0.5304  1.5897
 2578SOL    HW219371   1.626   0.985   6.385  2.5159 -1.7415  1.3498
 2579SOL     OW19372   1.285   1.979  15.966  0.1606 -0.3011 -0.1557
 2579SOL    HW119373   1.237   1.898  15.983 -0.9565  0.5148  0.5872
 2579SOL    HW219374   1.289   2.016  16.054  1.5676 -2.1605  0.5390
 2580SOL     OW19375   4.699   2.176   0.519 -0.0877 -0.4924 -0.0501
 2580SOL    HW119376   0.009   2.183   0.598  1.0566  1.8378 -1.0244
 2580SOL    HW219377   4.608   2.190   0.547  1.2335  1.7659  3.0593
 2581SOL     OW19378   0.670   2.006   4.630 -0.0656  0.2552 -0.5310
 2581SOL    HW119379   0.655   2.065   4.704 -1.3923  0.0434 -0.6312
 2581SOL    HW219380   0.578   1.997   4.608  0.0105 -2.1522  0.1763
 2582SOL     OW19381   2.154   1.213   1.261  0.2409  0.3799 -0.0023
 2582SOL    HW119382   2.117   1.289   1.216  0.3048  0.4356  0.0397
 2582SOL    HW219383   2.120   1.138   1.211  0.5439 -2.1712  3.5867
 2583SOL     OW19384   1.146   4.662   7.875 -0.2204 -0.3210 -0.0982
 2583SOL    HW119385   1.072   4.711   7.912  0.7373  1.3387 -0.3495
 2583SOL    HW219386   1.189   4.740   7.839  1.3688 -2.4543 -2.8375
 2584SOL     OW19387   2.071   1.823  17.601  0.1747  0.2926 -0.2628
 2584SOL    HW119388   2.156   1.862  17.580  0.5978 -0.4206  0.1216
 2584SOL    HW219389   2.091   1.730  17.611 -1.3779  0.2794  2.6924
 2585SOL     OW19390   4.422   4.660  13.828  0.3184 -0.3886  0.0919
 2585SOL    HW119391   4.359   4.722  13.791  0.8507  0.2563  0.2590
 2585SOL    HW219392   4.505   4.707  13.823  0.4196 -0.8525 -2.3594
 2586SOL     OW19393   4.735   1.988   1.883 -0.1489 -1.0591 -0.2388
 2586SOL    HW119394   4.735   2.020   1.793  3.2633  1.9435  0.8294
 2586SOL    HW219395   0.086   1.989   1.899 -0.0022  0.0906 -1.1904
 2587SOL     OW19396   0.756   1.630   4.177  0.1785  0.2568  0.1716
 2587SOL    HW119397   0.665   1.653   4.158  0.0093 -0.7058 -0.1706
 2587SOL    HW219398   0.732   1.546   4.215  0.7814  1.1322  2.4893
 2588SOL     OW19399   4.510   3.369   5.283 -0.1378  1.0049  0.6236
 2588SOL    HW119400   4.480   3.285   5.319 -1.4353  0.9235 -0.6563
 2588SOL    HW219401   4.427   3.416   5.273 -2.0185 -2.9387 -2.5657
 2589SOL     OW19402   3.547   4.577   7.095 -0.7240 -0.3056  0.0184
 2589SOL    HW119403   3.465   4.533   7.072 -2.5659  3.6483 -1.0148
 2589SOL    HW219404   3.524   4.614   7.180  2.2885  2.8715 -0.5816
 2590SOL     OW19405   3.569   0.055   8.451  0.3412 -0.8746 -0.1466
 2590SOL    HW119406   3.516   0.046   8.530 -0.2550  0.2159 -0.4334
 2590SOL    HW219407   3.606   0.140   8.476  0.6662 -1.1989  0.4728
 2591SOL     OW19408   3.017   1.169  15.890 -0.4465  0.1220 -0.7844
 2591SOL    HW119409   3.107   1.202  15.893 -0.5767  0.5003 -0.9187
 2591SOL    HW219410   3.016   1.117  15.810 -3.4744 -0.2418 -0.4924
 2592SOL     OW19411   2.332   2.735   9.019  0.6690 -0.2659 -0.3840
 2592SOL    HW119412   2.333   2.641   9.039 -2.5255 -0.7042 -2.3528
 2592SOL    HW219413   2.380   2.740   8.937  1.1140 -0.1263 -0.1161
 2593SOL     OW19414   4.440   3.439   8.975  0.0060 -0.2074 -0.5752
 2593SOL    HW119415   4.384   3.511   9.005  2.4216  0.6575  1.8818
 2593SOL    HW219416   4.437   3.383   9.053  0.6750  3.1757  1.8878
 2594SOL     OW19417   0.629   3.889  13.145  0.7003 -0.0574  0.3087
 2594SOL    HW119418   0.697   3.922  13.087 -0.2189  0.4981 -0.4616
 2594SOL    HW219419   0.687   3.848  13.210  2.9303  2.1425 -0.3079
 2595SOL     OW19420   3.549   2.748  16.139  0.1997 -0.0819  0.0809
 2595SOL    HW119421   3.549   2.827  16.193  2.4638  0.0162 -0.0599
 2595SOL    HW219422   3.549   2.789  16.052  0.1355  0.1471  0.1891
 2596SOL     OW19423   4.135   4.091   4.854  0.8941  0.4878  0.4967
 2596SOL    HW119424   4.122   3.999   4.875 -0.2928  0.1665 -1.5993
 2596SOL    HW219425   4.212   4.111   4.907 -1.6652  0.2190  4.2904
 2597SOL     OW19426   0.643   1.050  15.325 -0.1545 -0.2034  0.3343
 2597SOL    HW119427   0.639   1.000  15.406 -0.6450  0.6937  0.8628
 2597SOL    HW219428   0.615   1.136  15.357  0.8579 -0.2453  1.3237
 2598SOL     OW19429   1.740   1.116   2.648  0.2222 -0.6699 -0.2148
 2598SOL    HW119430   1.828   1.081   2.634  0.6497 -0.1489  1.1337
 2598SOL    HW219431   1.692   1.110   2.565  2.4457  0.3197 -1.5484
 2599SOL     OW19432   3.181   1.433   0.114  0.0749 -0.7806  0.4444
 2599SOL    HW119433   3.247   1.460   0.051 -0.7115 -1.6643 -0.7570
 2599SOL    HW219434   3.187   1.338   0.119  0.5822 -0.8084 -0.7787
 2600SOL     OW19435   2.590   4.715   4.546  0.5607 -0.0684  0.1548
 2600SOL    HW119436   2.684   4.699   4.549  0.5539  0.2567  2.0367
 2600SOL    HW219437   2.579   0.028   4.622  0.6227 -0.7816  0.6811
 2601SOL     OW19438   0.615   0.093   4.187 -0.0275  0.3998  0.6027
 2601SOL    HW119439   0.578   0.015   4.228 -1.4582  1.6601  1.7110
 2601SOL    HW219440   0.552   0.104   4.116  2.6997 -1.6821 -2.1493
 2602SOL     OW19441   1.721   1.969   2.548  0.1973  0.3161 -0.0548
 2602SOL    HW119442   1.758   2.010   2.626 -0.3130 -0.7069  0.7116
 2602SOL    HW219443   1.703   2.054   2.507  0.2301  0.4902  0.2953
 2603SOL     OW19444   2.013   3.029   2.119  0.1312  1.4664  0.4435
 2603SOL    HW119445   2.031   3.120   2.142  0.5198  1.1482  1.4006
 2603SOL    HW219446   1.922   3.022   2.149 -0.0925 -1.9138 -1.0341
 2604SOL     OW19447   0.269   1.088   1.619 -0.3987  0.0113  0.1495
 2604SOL    HW119448   0.205   1.019   1.636  1.9568 -2.3783 -0.5786
 2604SOL    HW219449   0.228   1.164   1.660 -0.4230 -0.6134  1.3101
 2605SOL     OW19450   0.578   3.206   9.102 -0.3157 -0.0729  0.0387
 2605SOL    HW119451   0.524   3.280   9.131  1.4579  0.8620  0.9106
 2605SOL    HW219452   0.511   3.137   9.103 -0.7095  0.2850 -1.1852
 2606SOL     OW19453   0.481   3.590  17.221 -0.4255  0.3651 -0.0048
 2606SOL    HW119454   0.497   3.604  17.314  0.7759  0.5547 -0.2408
 2606SOL    HW219455   0.404   3.645  17.207  0.9018  2.2025 -0.0747
 2607SOL     OW19456   4.319   2.500   8.521  0.0036  0.2263 -0.5271
 2607SOL    HW119457   4.380   2.456   8.461 -0.2018 -1.1830  0.2949
 2607SOL    HW219458   4.250   2.435   8.505 -0.4057  0.6157 -0.3516
 2608SOL     OW19459   3.414   0.259   2.592  0.4583 -0.2955  0.0317
 2608SOL    HW119460   3.378   0.280   2.506  1.0000  1.8335  0.3198
 2608SOL    HW219461   3.369   0.175   2.599 -1.2893  0.7512  1.3632
 2609SOL     OW19462   0.948   1.007   4.701  0.6591 -0.4908  0.3871
 2609SOL    HW119463   0.960   1.079   4.762  1.5828  2.2830 -3.1105
 2609SOL    HW219464   1.034   0.966   4.712  0.9434  0.0657  0.2046
 2610SOL     OW19465   0.008   2.079   7.322  0.3311 -0.5870 -0.1151
 2610SOL    HW119466   4.726   2.033   7.403 -1.0490 -2.3354 -1.5329
 2610SOL    HW219467   0.095   2.112   7.344  0.1492  0.3699 -0.8107
 2611SOL     OW19468   1.260   0.641   1.863  0.2414  0.2985 -0.3180
 2611SOL    HW119469   1.344   0.594   1.862  0.6653  1.0966 -2.5124
 2611SOL    HW219470   1.262   0.659   1.769  0.2774 -0.0401 -0.3816
 2612SOL     OW19471   1.775   1.541  12.405 -0.0675 -0.0028  0.3052
 2612SOL    HW119472   1.867   1.541  12.430  0.2359 -0.3533 -0.8633
 2612SOL    HW219473   1.779   1.539  12.310 -2.1777  0.9192  0.1910
 2613SOL     OW19474   4.012   2.988  13.537 -0.4335  0.0026  0.0881
 2613SOL    HW119475   4.105   2.969  13.527  0.1609  1.3199  3.1351
 2613SOL    HW219476   3.973   2.955  13.457  0.2366 -2.6205  0.8593
 2614SOL     OW19477   0.926   3.601  13.409 -0.0762  0.3472  0.8632
 2614SOL    HW119478   0.938   3.582  13.316 -3.2124  2.3349  0.0490
 2614SOL    HW219479   1.004   3.564  13.449  0.2373 -1.1018 -1.0601
 2615SOL     OW19480   0.622   3.219   5.231 -0.6210 -0.1136 -0.3395
 2615SOL    HW119481   0.679   3.255   5.299 -0.2930 -2.7053  0.7601
 2615SOL    HW219482   0.544   3.208   5.285 -1.8645  3.1376 -1.4964
 2616SOL     OW19483   0.871   0.658  13.883 -0.6307  0.0003 -0.3884
 2616SOL    HW119484   0.921   0.632  13.960 -1.5477 -1.2543 -0.2259
 2616SOL    HW219485   0.893   0.752  13.883 -0.3576 -0.0619  1.4156
 2617SOL     OW19486   0.483   3.290   4.530 -0.3494  0.2928  0.2045
 2617SOL    HW119487   0.440   3.375   4.535 -0.9333  0.0082  0.0273
 2617SOL    HW219488   0.574   3.320   4.534  0.5013 -2.3673  0.7191
 2618SOL     OW19489   3.366   0.042   8.633  0.5135  0.1515  0.1511
 2618SOL    HW119490   3.289   0.095   8.615  0.6243  0.6327  1.0658
 2618SOL    HW219491   3.395   0.082   8.716  1.5505 -0.9617  0.3240
 2619SOL     OW19492   4.714   1.823   0.790  0.6332 -0.1841 -0.1276
 2619SOL    HW119493   0.007   1.902   0.750 -2.2194  1.5339  0.7386
 2619SOL    HW219494   4.638   1.862   0.832  1.1621  0.0299  0.6388
 2620SOL     OW19495   4.350   2.809   7.938 -1.0799  0.5468  0.2729
 2620SOL    HW119496   4.335   2.899   7.911  2.1643  1.0505  0.1582
 2620SOL    HW219497   4.315   2.766   7.860 -1.2306  1.5952 -0.2349
 2621SOL     OW19498   3.948   4.237  11.018 -0.0150  0.0146  0.7973
 2621SOL    HW119499   3.935   4.150  11.057  2.2063  0.4984  2.6227
 2621SOL    HW219500   4.021   4.275  11.067 -0.1144 -2.1367  2.6215
 2622SOL     OW19501   1.091   0.205   8.549 -0.1821  0.2286 -0.1427
 2622SOL    HW119502   1.101   0.293   8.586  2.9206 -0.2346  0.0819
 2622SOL    HW219503   1.003   0.185   8.582  0.6116  0.1768  1.9329
 2623SOL     OW19504   2.993   3.639   7.812 -0.6593  0.4046  0.1454
 2623SOL    HW119505   3.000   3.682   7.727  0.6682  0.4823  0.2961
 2623SOL    HW219506   3.050   3.700   7.859 -0.5651 -0.0609  0.6475
 2624SOL     OW19507   4.546   2.256   7.593 -0.5034  0.5005  0.1147
 2624SOL    HW119508   4.490   2.216   7.660 -0.5121  2.8427  1.4852
 2624SOL    HW219509   4.609   2.191   7.563 -1.0125 -0.6122  1.4804
 2625SOL     OW19510   1.297   4.553  11.552 -0.5146 -0.0142 -0.5345
 2625SOL    HW119511   1.296   4.649  11.559 -0.1603  0.1199 -2.3329
 2625SOL    HW219512   1.227   4.534  11.490  1.7200 -1.7067 -2.5217
 2626SOL     OW19513   4.154   1.182  13.815  0.2261 -0.1334 -0.7738
 2626SOL    HW119514   4.223   1.177  13.749 -0.7503  0.5895 -1.8329
 2626SOL    HW219515   4.087   1.130  13.771 -0.7377  1.1289 -0.7849
 2627SOL     OW19516   3.963   2.794   6.046  0.0739  0.2434  0.4272
 2627SOL    HW119517   4.044   2.841   6.029 -0.2377  0.0500 -1.5360
 2627SOL    HW219518   3.904   2.866   6.065  0.4232  0.5814  0.2235
 2628SOL     OW19519   2.896   0.564   5.271  0.4962 -0.2241 -0.3311
 2628SOL    HW119520   2.817   0.522   5.236 -0.9934  1.9589  0.4152
 2628SOL    HW219521   2.855   0.621   5.336 -2.0000 -1.5894 -0.7044
 2629SOL     OW19522   2.819   1.764  16.417 -0.4287  0.1713 -0.5309
 2629SOL    HW119523   2.905   1.758  16.459 -0.2073 -3.1404 -1.4705
 2629SOL    HW219524   2.763   1.719  16.479 -1.3017 -0.5843 -1.8612
 2630SOL     OW19525   0.703   3.298   2.161  0.2088  0.0601  0.0316
 2630SOL    HW119526   0.774   3.248   2.121  1.2336 -0.0354  1.9810
 2630SOL    HW219527   0.639   3.322   2.095 -1.0636 -0.1255  1.2082
 2631SOL     OW19528   1.629   3.853   3.309  0.4209 -0.2876 -0.0723
 2631SOL    HW119529   1.639   3.761   3.285  2.2360 -0.3614  1.0412
 2631SOL    HW219530   1.558   3.884   3.253 -0.9782 -1.5209  1.0044
 2632SOL     OW19531   0.369   0.308  17.750 -0.3978  0.2525  0.9342
 2632SOL    HW119532   0.380   0.233   0.040 -1.2645 -1.1525 -0.6579
 2632SOL    HW219533   0.411   0.380   0.028  0.5441 -1.3316  2.5008
 2633SOL     OW19534   3.125   2.547   2.173  0.3082  0.6614 -0.4691
 2633SOL    HW119535   3.080   2.538   2.257 -0.3404  2.0338 -0.6668
 2633SOL    HW219536   3.216   2.532   2.199  0.4037 -0.4880 -1.4684
 2634SOL     OW19537   4.207   2.034   8.624 -0.3728  0.2636  0.0895
 2634SOL    HW119538   4.185   2.117   8.582  0.2562  1.2165  1.6505
 2634SOL    HW219539   4.163   2.059   8.705  0.6457  0.6237  0.5342
 2635SOL     OW19540   1.116   0.911   4.900  0.5330 -0.3052 -0.7103
 2635SOL    HW119541   1.149   0.874   4.982 -0.2087 -0.9586 -0.7063
 2635SOL    HW219542   1.021   0.906   4.906  0.7503 -2.3834  0.8116
 2636SOL     OW19543   2.869   3.524   0.806 -0.0610 -0.0042 -0.2428
 2636SOL    HW119544   2.958   3.560   0.800 -0.0728  0.4082  2.0007
 2636SOL    HW219545   2.865   3.467   0.882 -2.9180  1.5686  0.7765
 2637SOL     OW19546   1.777   2.731   7.864 -0.0473  0.0561 -1.0382
 2637SOL    HW119547   1.867   2.750   7.890 -0.1369  1.0838 -1.4532
 2637SOL    HW219548   1.763   2.806   7.807  2.4038  2.4016  1.4283
 2638SOL     OW19549   0.095   1.094  12.257 -0.2936 -0.9321 -0.0912
 2638SOL    HW119550   0.089   1.176  12.208  1.4339  0.7947  2.5881
 2638SOL    HW219551   0.116   1.122  12.346 -0.3988 -0.2592 -0.2856
 2639SOL     OW19552   0.617   1.055  11.062  0.1311  0.9836  0.3150
 2639SOL    HW119553   0.651   1.096  11.141  0.1354  0.3880  0.6235
 2639SOL    HW219554   0.663   1.109  10.998 -1.3606  0.0431 -1.5385
 2640SOL     OW19555   2.447   4.431   6.582 -0.0161 -0.1646  0.1824
 2640SOL    HW119556   2.386   4.369   6.542 -2.2939  1.8816  0.4780
 2640SOL    HW219557   2.525   4.407   6.531  0.2856  0.1148  0.5111
 2641SOL     OW19558   3.214   2.367   5.480  0.0621 -0.1186  0.2348
 2641SOL    HW119559   3.206   2.463   5.481 -0.3362 -0.1380 -0.9711
 2641SOL    HW219560   3.268   2.360   5.401 -0.7834 -1.5305 -0.2172
 2642SOL     OW19561   1.334   0.360   2.448  0.6190  0.1216  0.1005
 2642SOL    HW119562   1.337   0.282   2.505 -0.2426 -2.0216 -2.7960
 2642SOL    HW219563   1.427   0.370   2.431  0.3306  1.2157 -0.7884
 2643SOL     OW19564   0.631   4.638   9.236  0.3096  0.1645  0.2047
 2643SOL    HW119565   0.607   4.547   9.218  0.6627  0.1181 -0.0489
 2643SOL    HW219566   0.559   4.679   9.188  0.1058  1.4485  1.6182
 2644SOL     OW19567   3.246   1.631   2.435  0.0526  0.2839  0.1532
 2644SOL    HW119568   3.269   1.547   2.395  1.9387 -1.0999  4.1594
 2644SOL    HW219569   3.307   1.638   2.508  2.5235  3.0118 -2.1685
 2645SOL     OW19570   0.608   1.584   3.341  0.2889 -0.3388  0.2930
 2645SOL    HW119571   0.655   1.570   3.423  0.0438  0.1799  0.5254
 2645SOL    HW219572   0.609   1.679   3.331 -0.8403 -0.4218 -0.5727
 2646SOL     OW19573   3.487   3.260  10.931 -0.1055  0.0980 -0.3810
 2646SOL    HW119574   3.419   3.195  10.913  0.0818  0.4329 -2.2594
 2646SOL    HW219575   3.425   3.333  10.941 -0.6114 -0.7928  3.0810
 2647SOL     OW19576   1.023   4.014   5.983  0.0052 -0.3593  0.0289
 2647SOL    HW119577   0.947   3.963   5.957 -0.5178  0.0922  0.6614
 2647SOL    HW219578   1.003   4.024   6.076  0.2626  1.2387 -0.0818
 2648SOL     OW19579   4.652   0.221   1.648 -0.1593  0.6367  0.2373
 2648SOL    HW119580   4.656   0.301   1.596 -1.2544  0.1229 -0.6406
 2648SOL    HW219581   4.705   0.242   1.724 -1.1944 -0.1540  1.1888
 2649SOL     OW19582   3.061   3.457  15.036  0.2908  0.2183 -0.2541
 2649SOL    HW119583   3.037   3.449  15.129 -0.6152 -1.2016 -0.6056
 2649SOL    HW219584   3.141   3.404  15.034  0.8244  1.0201  0.0111
 2650SOL     OW19585   1.250   2.737   1.845  0.4427  0.2214  0.0019
 2650SOL    HW119586   1.259   2.753   1.939 -1.8837 -2.5150  0.6759
 2650SOL    HW219587   1.155   2.746   1.842  0.8145  3.9958  0.0604
 2651SOL     OW19588   2.574   2.412   2.145  0.5506 -0.0836 -0.7882
 2651SOL    HW119589   2.599   2.448   2.060  1.4643 -0.7444 -0.7991
 2651SOL    HW219590   2.484   2.445   2.145  0.9548  1.0333 -0.2940
 2652SOL     OW19591   4.338   0.145   7.088 -0.2417 -0.3963 -0.2298
 2652SOL    HW119592   4.417   0.118   7.041  2.0506  0.2674  3.2269
 2652SOL    HW219593   4.267   0.130   7.026 -1.5336 -1.1294  1.4393
 2653SOL     OW19594   1.234   0.457   7.835  0.0311 -0.0228 -0.4210
 2653SOL    HW119595   1.187   0.465   7.752 -1.8733 -0.1430  0.6442
 2653SOL    HW219596   1.300   0.525   7.821 -1.5083  1.7571  0.8162
 2654SOL     OW19597   1.930   0.228   7.569  0.2245 -0.0438  0.1675
 2654SOL    HW119598   1.977   0.169   7.628 -0.2037 -0.0901  0.4652
 2654SOL    HW219599   1.859   0.167   7.548 -0.1438  0.1946  0.7108
 2655SOL     OW19600   0.063   4.486   7.904 -1.1414 -0.2925  0.4899
 2655SOL    HW119601   0.026   4.399   7.912  3.3360 -2.1733  0.7400
 2655SOL    HW219602   0.048   4.530   7.988 -1.0507  1.1381 -0.2423
 2656SOL     OW19603   1.618   3.149   7.258 -0.7746  0.0588  0.1014
 2656SOL    HW119604   1.559   3.083   7.295  1.7250 -2.9411 -1.2542
 2656SOL    HW219605   1.672   3.092   7.204  0.6669  1.5414 -0.0112
 2657SOL     OW19606   3.271   3.655   5.797 -0.1670 -0.0312 -0.4756
 2657SOL    HW119607   3.214   3.580   5.813  0.7367 -0.6369 -0.0969
 2657SOL    HW219608   3.255   3.666   5.703  0.2564 -2.2367 -0.7951
 2658SOL     OW19609   0.171   1.127   6.581 -0.2960 -0.0628 -0.3482
 2658SOL    HW119610   0.191   1.220   6.567  0.1509 -0.3901 -1.9089
 2658SOL    HW219611   0.196   1.093   6.495  1.2416  1.2459 -0.4140
 2659SOL     OW19612   3.697   2.854   8.843 -0.2866 -0.4605  0.1448
 2659SOL    HW119613   3.656   2.893   8.920 -0.0887  2.0771 -1.0627
 2659SOL    HW219614   3.654   2.770   8.826 -0.3073 -0.1017 -1.5838
 2660SOL     OW19615   2.559   1.112   7.154 -0.3218 -0.0536 -0.6002
 2660SOL    HW119616   2.531   1.068   7.235  2.2547  0.3489  0.5032
 2660SOL    HW219617   2.539   1.199   7.186 -0.6283  0.9914 -3.6646
 2661SOL     OW19618   4.571   2.923   8.950  0.0190 -0.5321  0.1139
 2661SOL    HW119619   4.630   2.861   8.994  0.2046 -0.2842  0.2145
 2661SOL    HW219620   4.524   2.858   8.899  0.5137 -1.8096  1.2854
 2662SOL     OW19621   4.024   4.449   8.889 -0.0999  0.4778 -0.1906
 2662SOL    HW119622   3.998   4.530   8.934 -0.4848  0.6210 -0.6706
 2662SOL    HW219623   4.082   4.474   8.818  2.1293  1.3465  1.9336
 2663SOL     OW19624   1.571   0.734   6.469 -0.0259  0.2741 -0.0697
 2663SOL    HW119625   1.645   0.705   6.522 -0.1484  0.2641  0.0965
 2663SOL    HW219626   1.503   0.667   6.485  2.1688 -1.3322  2.5964
 2664SOL     OW19627   4.633   3.504   9.293 -0.4307 -0.4466 -0.1480
 2664SOL    HW119628   4.645   3.422   9.340  1.5519  0.1679  0.4363
 2664SOL    HW219629   4.671   3.482   9.208 -2.9030  2.3328 -1.9568
 2665SOL     OW19630   1.710   1.062   0.708 -0.1878  0.4457  0.0599
 2665SOL    HW119631   1.681   1.108   0.629 -2.2143  1.6781  1.5225
 2665SOL    HW219632   1.759   0.988   0.672 -0.9062 -0.8080  1.6536
 2666SOL     OW19633   1.067   1.842  11.388 -0.0373 -0.6159 -0.2414
 2666SOL    HW119634   1.005   1.915  11.385  1.5606  0.7473 -0.5103
 2666SOL    HW219635   1.107   1.850  11.301  0.6921  2.4918  0.3782
 2667SOL     OW19636   0.656   2.992   5.058  0.4052 -0.1030 -0.4920
 2667SOL    HW119637   0.571   2.994   5.014  0.6796  1.3907 -0.9179
 2667SOL    HW219638   0.630   3.048   5.131 -1.1447 -2.8334  1.0705
 2668SOL     OW19639   4.395   3.890   1.518 -0.9107  0.7511 -0.3835
 2668SOL    HW119640   4.424   3.878   1.428  1.8763 -1.7191  0.7957
 2668SOL    HW219641   4.387   3.985   1.520 -1.2851  0.6835  1.6143
 2669SOL     OW19642   1.893   0.023  11.538 -0.4315  0.5295 -0.0569
 2669SOL    HW119643   1.977   4.724  11.521 -0.6069  0.2682 -0.2830
 2669SOL    HW219644   1.830   4.707  11.496  0.4901  1.3976 -2.6805
 2670SOL     OW19645   3.154   1.406   3.888 -0.2176  0.2173 -0.3110
 2670SOL    HW119646   3.204   1.432   3.966  0.3725 -1.5397 -0.1085
 2670SOL    HW219647   3.080   1.466   3.897 -0.5616 -0.3097  0.4294
 2671SOL     OW19648   3.854   0.726  12.521 -0.2337 -0.2855 -0.0624
 2671SOL    HW119649   3.892   0.654  12.572  3.5148 -0.0831 -2.5568
 2671SOL    HW219650   3.794   0.750  12.592 -1.1582  0.0518 -0.9728
 2672SOL     OW19651   1.606   1.810   2.198 -0.0004  0.4382 -0.1337
 2672SOL    HW119652   1.567   1.894   2.174 -0.1511  1.2781  2.9370
 2672SOL    HW219653   1.538   1.773   2.254 -0.7388  1.9039 -0.0505
 2673SOL     OW19654   1.736   2.194   9.673  0.0838  0.3922  0.3847
 2673SOL    HW119655   1.660   2.249   9.658 -0.5853 -0.9318 -1.0673
 2673SOL    HW219656   1.742   2.191   9.769 -1.8443 -1.9349  0.4073
 2674SOL     OW19657   0.988   0.381   5.403  0.4383  0.5851 -0.0672
 2674SOL    HW119658   0.978   0.458   5.347  2.4801  1.6247  1.0097
 2674SOL    HW219659   1.083   0.366   5.409  0.0911 -2.0869 -1.2550
 2675SOL     OW19660   0.012   2.817   4.584  0.1750 -0.4212 -0.3270
 2675SOL    HW119661   0.029   2.853   4.671  1.0009  1.0370 -1.0869
 2675SOL    HW219662   4.723   2.729   4.605 -0.1705  0.3676  2.4568
 2676SOL     OW19663   0.685   2.694   5.293  0.7176  0.5971  0.1605
 2676SOL    HW119664   0.733   2.704   5.211  1.3566  0.5827  0.5328
 2676SOL    HW219665   0.604   2.657   5.258  0.7138  1.2636 -0.5316
 2677SOL     OW19666   3.768   3.287  10.983 -0.3879  0.3886 -0.0892
 2677SOL    HW119667   3.813   3.268  10.901 -2.1917  0.1803 -1.0303
 2677SOL    HW219668   3.685   3.250  10.953 -0.4450 -0.7140  1.4258
 2678SOL     OW19669   2.967   0.422  11.476  0.2459  0.2166 -0.3437
 2678SOL    HW119670   2.929   0.510  11.468  1.8922  0.8487 -1.2827
 2678SOL    HW219671   3.030   0.440  11.546 -1.3903  2.1186  0.6306
 2679SOL     OW19672   1.472   1.724   3.657  0.7242  0.1421  0.1786
 2679SOL    HW119673   1.387   1.746   3.695  0.8910 -0.3337  0.8245
 2679SOL    HW219674   1.445   1.679   3.577 -0.0684 -1.9600  1.6367
 2680SOL     OW19675   1.302   2.066   7.646  0.2303  0.0411 -0.5854
 2680SOL    HW119676   1.230   2.005   7.630 -0.4465 -0.1764  3.2765
 2680SOL    HW219677   1.346   2.057   7.561  1.7673  0.8541  0.1355
 2681SOL     OW19678   2.786   3.152  15.783  0.2187 -0.0139 -0.7855
 2681SOL    HW119679   2.741   3.169  15.866  0.2473  2.4232 -1.2640
 2681SOL    HW219680   2.766   3.059  15.773  1.0484 -0.1832 -0.8964
 2682SOL     OW19681   0.308   1.588   1.172  0.5785  0.2685  0.4413
 2682SOL    HW119682   0.284   1.679   1.154 -0.9178 -0.4739 -1.3140
 2682SOL    HW219683   0.403   1.587   1.161  0.4652 -0.6465 -0.5071
 2683SOL     OW19684   3.272   0.897   1.766 -0.2666  0.1285  0.1197
 2683SOL    HW119685   3.246   0.981   1.805  3.0566  1.2838 -0.1338
 2683SOL    HW219686   3.335   0.929   1.701 -0.4774  2.1977  0.9161
 2684SOL     OW19687   2.948   2.728   6.616 -0.6347  0.4897  0.4752
 2684SOL    HW119688   3.034   2.736   6.575 -1.4532  2.6235 -0.7944
 2684SOL    HW219689   2.936   2.634   6.633 -0.8647  0.1904 -1.4004
 2685SOL     OW19690   4.067   2.954   6.844 -0.3838  0.2552  0.1080
 2685SOL    HW119691   3.994   2.893   6.854  1.3160 -1.5619  1.1761
 2685SOL    HW219692   4.083   2.973   6.936  0.7913  1.1084 -0.2620
 2686SOL     OW19693   0.528   1.855   3.986  0.0218 -0.5705 -0.2638
 2686SOL    HW119694   0.440   1.866   3.950 -0.2153  2.3294  1.2289
 2686SOL    HW219695   0.505   1.800   4.061  0.8367  1.9184  1.8285
 2687SOL     OW19696   3.193   4.743   5.474  0.0516  0.4686 -0.2013
 2687SOL    HW119697   3.143   4.718   5.396  1.0122 -1.9044 -0.0568
 2687SOL    HW219698   3.133   0.061   5.516  0.0314  0.4162 -0.1553
 2688SOL     OW19699   1.476   0.770   6.212 -0.1089  0.3091  0.0860
 2688SOL    HW119700   1.509   0.752   6.300  4.8289  1.3045 -1.5701
 2688SOL    HW219701   1.536   0.839   6.184  0.3011  0.4478  1.3467
 2689SOL     OW19702   3.282   3.431   6.129 -0.0261  0.2222  0.2237
 2689SOL    HW119703   3.359   3.392   6.170 -0.5859 -0.9649  0.1658
 2689SOL    HW219704   3.279   3.401   6.038 -0.1835  1.2731 -0.1181
 2690SOL     OW19705   1.807   2.765   6.400  0.0247  0.2302  0.5302
 2690SOL    HW119706   1.755   2.761   6.480  1.2615 -2.6158  1.1900
 2690SOL    HW219707   1.788   2.678   6.366  1.7592  1.1972 -2.9891
 2691SOL     OW19708   0.701   1.865   3.392  0.1503  0.0096  0.1757
 2691SOL    HW119709   0.642   1.927   3.348  0.8098 -1.2494 -2.4975
 2691SOL    HW219710   0.780   1.878   3.339 -1.2792 -1.7567 -2.3911
 2692SOL     OW19711   4.660   2.272   9.141 -0.1450  0.0079 -0.0102
 2692SOL    HW119712   4.612   2.214   9.201  1.9327 -0.2992  1.3624
 2692SOL    HW219713   4.716   2.216   9.087 -0.0981  0.5275 -0.4967
 2693SOL     OW19714   0.844   3.918  12.959 -0.4521 -0.3482  0.0905
 2693SOL    HW119715   0.891   3.854  13.012 -2.6671 -2.0365  0.0209
 2693SOL    HW219716   0.903   3.917  12.883  0.2377 -1.7837  0.6379
 2694SOL     OW19717   4.357   0.732   5.747  0.0809 -0.4401  0.9633
 2694SOL    HW119718   4.449   0.723   5.724  0.6865  4.0654  1.5571
 2694SOL    HW219719   4.333   0.645   5.779 -0.6131 -1.2217 -1.7230
 2695SOL     OW19720   1.089   1.787  15.986  0.2797  0.4121  0.0519
 2695SOL    HW119721   1.033   1.823  16.055  1.4066  0.6102  0.8665
 2695SOL    HW219722   1.030   1.734  15.933 -0.2655  0.7599  0.3165
 2696SOL     OW19723   0.007   3.557   2.350 -0.0580  0.0452 -0.0188
 2696SOL    HW119724   4.690   3.515   2.412  1.7860  1.2575  2.5726
 2696SOL    HW219725   4.698   3.565   2.270 -1.6668 -0.5771  0.9526
 2697SOL     OW19726   3.110   3.113   2.065 -0.1208 -0.3845  0.4786
 2697SOL    HW119727   3.085   3.205   2.057  0.5712 -0.1671  0.8068
 2697SOL    HW219728   3.043   3.062   2.020 -2.2087  0.1861  2.9882
 2698SOL     OW19729   3.006   0.550  12.188 -0.0545 -0.2114  0.4711
 2698SOL    HW119730   3.057   0.608  12.132  0.1363  0.2531  1.1283
 2698SOL    HW219731   2.918   0.587  12.184 -0.1353 -0.4967 -0.2518
 2699SOL     OW19732   1.828   3.776   7.319 -0.5945 -0.0370 -0.2354
 2699SOL    HW119733   1.835   3.725   7.399 -0.1882 -3.4259 -2.4525
 2699SOL    HW219734   1.908   3.747   7.275 -0.8508 -2.2095  0.7498
 2700SOL     OW19735   4.708   1.169   3.642 -0.1922  0.3263  0.0065
 2700SOL    HW119736   4.649   1.232   3.600  0.0503 -0.5030 -1.5489
 2700SOL    HW219737   4.660   1.090   3.618 -0.4016  1.0006 -1.7899
 2701SOL     OW19738   2.615   0.482  13.834  0.5237  0.1613  0.2650
 2701SOL    HW119739   2.519   0.476  13.835  0.3997  1.9977  0.8623
 2701SOL    HW219740   2.639   0.425  13.907 -0.0045 -1.7643 -1.0749
 2702SOL     OW19741   0.796   4.015   8.949 -0.2513  0.3212  0.1339
 2702SOL    HW119742   0.788   4.034   9.043  0.4572 -1.4982  0.5658
 2702SOL    HW219743   0.728   4.072   8.913  0.1443  2.0790  2.1368
 2703SOL     OW19744   2.180   3.228   5.970  0.2620  0.0427  0.4932
 2703SOL    HW119745   2.232   3.164   5.922  0.3443 -0.2048  0.9155
 2703SOL    HW219746   2.126   3.170   6.023 -2.2874  2.3778  0.4687
 2704SOL     OW19747   1.459   2.948   5.297  0.0938 -0.1816 -0.0977
 2704SOL    HW119748   1.392   2.888   5.328 -0.6109 -0.4696 -2.1597
 2704SOL    HW219749   1.395   3.011   5.264 -0.6451 -0.5361  0.6691
 2705SOL     OW19750   2.742   2.039  16.929  0.0989  0.0316  0.1733
 2705SOL    HW119751   2.746   2.125  16.972 -1.6491 -0.0737  0.5172
 2705SOL    HW219752   2.705   2.060  16.843 -1.4363 -0.2819  0.7580
 2706SOL     OW19753   1.020   2.090   1.527  0.1872  0.0654 -0.3250
 2706SOL    HW119754   1.079   2.113   1.599 -0.2824 -0.9589  0.3927
 2706SOL    HW219755   1.065   2.025   1.473  1.7087  1.5458 -0.8393
 2707SOL     OW19756   4.687   0.684   4.936  0.5276  0.1468  0.3259
 2707SOL    HW119757   4.600   0.651   4.914  0.6553 -0.3501  0.5769
 2707SOL    HW219758   4.705   0.766   4.890 -0.3007  2.0743  3.4622
 2708SOL     OW19759   3.438   4.373   8.551 -0.7161 -0.0339  0.5453
 2708SOL    HW119760   3.394   4.312   8.610  0.0192 -0.0701  1.0588
 2708SOL    HW219761   3.379   4.449   8.550 -1.9495 -1.0166  0.0761
 2709SOL     OW19762   3.959   1.939  11.476 -0.4117 -0.1448 -0.7285
 2709SOL    HW119763   4.027   1.911  11.538  0.2932  1.8123 -0.6131
 2709SOL    HW219764   4.010   1.972  11.402 -0.7982  3.2034  0.5072
 2710SOL     OW19765   0.776   1.847  10.074 -0.3051  0.1047  0.2582
 2710SOL    HW119766   0.802   1.755  10.080 -0.7936  0.0281  1.1509
 2710SOL    HW219767   0.853   1.885  10.116  0.0980  1.5576 -1.8171
 2711SOL     OW19768   1.845   1.024   9.712 -0.2149 -0.4816  0.1366
 2711SOL    HW119769   1.933   1.007   9.679  0.5500  0.1417  1.8479
 2711SOL    HW219770   1.847   1.118   9.733 -1.3487  0.1159 -2.3910
 2712SOL     OW19771   2.144   1.172  15.555  0.6186  0.3391  0.1950
 2712SOL    HW119772   2.218   1.165  15.615 -0.3015 -0.6103  1.2422
 2712SOL    HW219773   2.194   1.220  15.490  1.7140  2.0975  2.3199
 2713SOL     OW19774   0.763   2.138   2.353  0.1365 -0.6394 -0.3722
 2713SOL    HW119775   0.700   2.069   2.374 -1.5678  0.6948 -1.0210
 2713SOL    HW219776   0.704   2.194   2.301  1.0253  2.6050  2.0946
 2714SOL     OW19777   3.685   0.520   6.111  0.2244 -0.1340 -0.2688
 2714SOL    HW119778   3.740   0.443   6.100  1.5436  0.7616  0.0280
 2714SOL    HW219779   3.612   0.480   6.158 -1.6641  2.7199 -0.7507
 2715SOL     OW19780   4.718   3.383  14.021 -0.2297  0.3002  0.1505
 2715SOL    HW119781   0.010   3.472  14.033  0.5252  0.0943 -0.5157
 2715SOL    HW219782   4.625   3.398  14.035 -0.1575  0.3376  0.6064
 2716SOL     OW19783   2.959   4.030   0.089 -0.1521  0.0345 -0.1302
 2716SOL    HW119784   2.999   4.095   0.148  1.1468 -2.1321  1.3520
 2716SOL    HW219785   2.949   3.954   0.146  0.6087 -0.4562 -0.6491
 2717SOL     OW19786   1.261   2.808   1.385  0.3109  0.0029 -0.0440
 2717SOL    HW119787   1.177   2.767   1.405  1.2772 -1.6904  0.5705
 2717SOL    HW219788   1.250   2.813   1.290 -1.3669 -1.8317  0.0368
 2718SOL     OW19789   1.035   0.351   4.655  0.2158 -0.8233  0.2808
 2718SOL    HW119790   1.098   0.344   4.583  2.1019 -1.6792  1.9819
 2718SOL    HW219791   1.089   0.377   4.730  2.2013 -0.4550 -1.2897
 2719SOL     OW19792   4.312   0.627  10.147 -0.1000  0.3024  0.1965
 2719SOL    HW119793   4.375   0.610  10.217  0.5711  0.4261 -0.3763
 2719SOL    HW219794   4.323   0.551  10.089 -1.3794  0.8312 -0.7358
 2720SOL     OW19795   3.802   0.081   2.757  0.4114 -0.1048  0.1843
 2720SOL    HW119796   3.889   0.051   2.781  0.3132 -0.4954  0.0472
 2720SOL    HW219797   3.767   4.739   2.732 -1.5854  1.4542 -2.3819
 2721SOL     OW19798   0.817   3.119   1.338 -0.5161 -0.1552 -0.1387
 2721SOL    HW119799   0.786   3.107   1.248 -0.0950  0.6076 -0.3854
 2721SOL    HW219800   0.737   3.113   1.390  0.1919 -0.3409  0.9233
 2722SOL     OW19801   2.607   0.497   5.197 -0.1425  0.2451  0.0296
 2722SOL    HW119802   2.583   0.405   5.208  0.4863  0.2077  1.0723
 2722SOL    HW219803   2.540   0.532   5.256 -1.3285 -1.5906 -0.2032
 2723SOL     OW19804   0.756   1.943   5.485 -0.3785  0.4407 -0.3750
 2723SOL    HW119805   0.783   2.021   5.436  0.3357  0.9575  0.8281
 2723SOL    HW219806   0.800   1.949   5.570  0.8846  0.7897 -1.0587
 2724SOL     OW19807   3.118   1.957   6.977  0.3719 -0.6957 -0.9628
 2724SOL    HW119808   3.193   1.956   7.036  0.3511 -0.3927 -0.9344
 2724SOL    HW219809   3.077   2.032   7.019  0.7790 -0.9891 -0.0523
 2725SOL     OW19810   3.772   2.444   5.019 -0.0494 -0.4628  0.4383
 2725SOL    HW119811   3.861   2.463   4.992  0.1058  2.1396  2.8332
 2725SOL    HW219812   3.752   2.367   4.966  0.0858 -0.9641  1.1043
 2726SOL     OW19813   3.861   2.456   6.361  0.2767 -0.1579 -0.2955
 2726SOL    HW119814   3.775   2.420   6.382 -0.5044  1.2718 -1.0245
 2726SOL    HW219815   3.862   2.539   6.407  0.6709 -0.5840  0.4651
 2727SOL     OW19816   2.753   1.859   4.070  0.2137 -0.4139 -0.7099
 2727SOL    HW119817   2.682   1.882   4.129 -2.3150 -0.8529 -3.5781
 2727SOL    HW219818   2.789   1.944   4.046 -1.8817  1.4971  3.0312
 2728SOL     OW19819   4.174   3.122   8.207 -0.9493  0.2770  0.4407
 2728SOL    HW119820   4.190   3.094   8.297 -0.9105  2.0009  0.9683
 2728SOL    HW219821   4.245   3.186   8.203 -1.9771  1.4845  2.0296
 2729SOL     OW19822   2.832   2.516   2.999  0.0214 -0.3051 -0.0185
 2729SOL    HW119823   2.822   2.461   2.921 -0.6137 -1.4155  0.8440
 2729SOL    HW219824   2.906   2.470   3.038 -0.6382 -1.5166 -0.1882
 2730SOL     OW19825   3.782   2.835  11.648 -0.3183  0.0125  0.1502
 2730SOL    HW119826   3.873   2.861  11.637  0.4325 -2.5002  0.4039
 2730SOL    HW219827   3.786   2.762  11.710 -1.1513 -1.3657 -1.4102
 2731SOL     OW19828   2.273   0.030   6.017 -0.1616  0.5944  0.1386
 2731SOL    HW119829   2.244   0.084   5.944 -0.1472 -0.2804 -0.5212
 2731SOL    HW219830   2.302   4.698   5.965 -0.9861 -0.4825  1.2275
 2732SOL     OW19831   0.706   3.699   9.106  0.3005 -0.3967  0.4842
 2732SOL    HW119832   0.712   3.617   9.056  2.0364 -0.1450  0.3087
 2732SOL    HW219833   0.656   3.750   9.042  0.7709  1.5036  1.6561
 2733SOL     OW19834   4.367   0.888  10.358 -0.2660 -0.5950  0.4294
 2733SOL    HW119835   4.362   0.794  10.342 -0.2382 -0.9918  2.7808
 2733SOL    HW219836   4.459   0.908  10.341  0.2381 -3.1644  0.2010
 2734SOL     OW19837   4.344   1.639   7.024  0.5604 -0.5492 -0.1010
 2734SOL    HW119838   4.290   1.659   6.948 -0.8884  1.0031  1.3502
 2734SOL    HW219839   4.395   1.720   7.013 -0.1137 -0.3886 -1.9563
 2735SOL     OW19840   4.197   1.027   9.911 -0.1192  0.1997 -0.4401
 2735SOL    HW119841   4.256   1.022   9.986 -0.6829  0.6931  0.0438
 2735SOL    HW219842   4.119   0.983   9.946  0.7292 -1.3291 -0.4611
 2736SOL     OW19843   3.014   3.903   3.165  0.3711 -0.0930 -0.0543
 2736SOL    HW119844   2.940   3.961   3.182  0.2062  0.1182 -1.4636
 2736SOL    HW219845   3.004   3.836   3.233  0.9216 -0.0613  0.0547
 2737SOL     OW19846   0.922   3.769  11.200 -0.1686 -0.6624  0.0499
 2737SOL    HW119847   0.963   3.837  11.147  0.2632 -0.9410  0.0275
 2737SOL    HW219848   0.980   3.698  11.173  0.6856 -0.9850  2.7220
 2738SOL     OW19849   3.565   3.986   5.515 -0.2613  0.4460  0.0473
 2738SOL    HW119850   3.608   3.948   5.439 -0.4382  1.7131 -0.6820
 2738SOL    HW219851   3.476   3.999   5.482 -0.1610  1.3788  0.1255
 2739SOL     OW19852   2.289   2.610   5.090  0.0720 -0.0555 -0.1708
 2739SOL    HW119853   2.352   2.594   5.020  2.1490  2.4072  1.1390
 2739SOL    HW219854   2.220   2.549   5.063  0.1426 -0.1230 -0.1995
 2740SOL     OW19855   0.372   2.953   4.989 -0.4851  0.8097 -0.1043
 2740SOL    HW119856   0.412   2.987   4.909 -1.8856  2.7396  0.0443
 2740SOL    HW219857   0.345   3.037   5.026 -0.7291  1.1955 -1.1625
 2741SOL     OW19858   0.718   1.441   5.146 -0.0620 -0.1201  0.5771
 2741SOL    HW119859   0.629   1.438   5.180 -0.7256  1.9633 -1.0064
 2741SOL    HW219860   0.735   1.347   5.145  1.3899  0.1486  0.5758
 2742SOL     OW19861   0.879   4.207   2.829  0.1748 -0.9290  0.4377
 2742SOL    HW119862   0.915   4.168   2.749  0.9050  3.3805 -1.3185
 2742SOL    HW219863   0.955   4.198   2.887  1.3583 -1.1532 -1.1516
 2743SOL     OW19864   4.381   1.019  16.589  0.2590 -0.4555 -0.2206
 2743SOL    HW119865   4.436   0.950  16.626 -1.0190 -2.0570 -1.2568
 2743SOL    HW219866   4.298   0.973  16.571  0.6069 -0.9962 -0.4588
 2744SOL     OW19867   2.796   4.396   2.462 -0.3580  0.1648  0.2525
 2744SOL    HW119868   2.758   4.415   2.548 -2.5244 -2.3961 -0.1545
 2744SOL    HW219869   2.885   4.404   2.496 -0.2142  1.4397 -0.4178
 2745SOL     OW19870   4.001   3.185  11.948 -0.1283  0.1155  0.1548
 2745SOL    HW119871   4.038   3.105  11.911  2.5479  1.5101 -0.1775
 2745SOL    HW219872   4.074   3.246  11.937  0.0508 -0.2808 -0.8438
 2746SOL     OW19873   4.036   1.511  11.025  0.0527  0.3800  0.3389
 2746SOL    HW119874   4.110   1.564  10.994  2.6628 -2.1719  2.2875
 2746SOL    HW219875   3.966   1.575  11.008 -1.4797 -1.2668  0.4988
 2747SOL     OW19876   0.312   2.287  12.909 -0.3296 -0.6185 -0.6493
 2747SOL    HW119877   0.270   2.229  12.845 -0.4506 -2.1575  0.8138
 2747SOL    HW219878   0.233   2.334  12.936 -0.4481 -0.0043 -2.0535
 2748SOL     OW19879   3.774   4.067   2.393  0.0320  0.3107  0.8044
 2748SOL    HW119880   3.758   4.010   2.318 -0.0026 -1.1644  1.9488
 2748SOL    HW219881   3.868   4.083   2.388  0.2113 -0.8626  0.5298
 2749SOL     OW19882   0.421   0.893   3.742  0.1318 -0.3224  0.4767
 2749SOL    HW119883   0.468   0.879   3.825 -0.3062 -0.6313  0.6775
 2749SOL    HW219884   0.454   0.815   3.697  0.4490 -1.0970  2.0389
 2750SOL     OW19885   2.307   3.292   3.316  0.0816 -0.3331  0.1072
 2750SOL    HW119886   2.367   3.306   3.389 -0.1893 -0.1212  0.2907
 2750SOL    HW219887   2.290   3.199   3.305 -1.3953 -0.2411  1.5200
 2751SOL     OW19888   1.184   0.374   3.685 -0.3406  0.7052  0.4395
 2751SOL    HW119889   1.201   0.413   3.599 -0.7554  0.4597  0.2480
 2751SOL    HW219890   1.133   0.298   3.658  1.8170  0.0152 -1.7498
 2752SOL     OW19891   3.887   1.625   5.197  0.1922  0.3060 -0.2104
 2752SOL    HW119892   3.895   1.701   5.139 -1.3187 -0.0108 -0.8466
 2752SOL    HW219893   3.825   1.661   5.260  1.0513 -1.8608  1.8486
 2753SOL     OW19894   4.011   2.939   0.090 -0.3553  0.1353 -0.0778
 2753SOL    HW119895   4.068   2.942   0.013  0.4957  1.6109  0.6098
 2753SOL    HW219896   3.981   2.848   0.099 -1.5558  0.6568  1.1028
 2754SOL     OW19897   4.112   0.459  11.101 -0.5179  0.0669 -0.8806
 2754SOL    HW119898   4.151   0.386  11.149  0.5187  1.3705  0.2451
 2754SOL    HW219899   4.069   0.417  11.026 -0.3671  0.4508 -1.1810
 2755SOL     OW19900   4.294   3.370   9.780 -0.0643  0.3858  0.4194
 2755SOL    HW119901   4.354   3.413   9.720  1.5079 -2.0767  0.2495
 2755SOL    HW219902   4.325   3.408   9.862  3.3896  0.9439 -1.1768
 2756SOL     OW19903   1.631   4.255   3.829 -0.1872 -0.2170 -0.0541
 2756SOL    HW119904   1.677   4.296   3.902  1.4532 -2.8219  0.3487
 2756SOL    HW219905   1.701   4.216   3.776  0.4247  1.5192 -0.5311
 2757SOL     OW19906   3.122   3.662  12.943 -0.0653 -0.0128 -0.7993
 2757SOL    HW119907   3.199   3.628  12.989 -1.3205  0.5802  1.7165
 2757SOL    HW219908   3.162   3.732  12.891  1.7829 -1.8175 -1.8292
 2758SOL     OW19909   3.464   3.101  10.196  0.3337  0.0181  0.1349
 2758SOL    HW119910   3.482   3.029  10.257  0.7429  0.1297  0.1450
 2758SOL    HW219911   3.388   3.061  10.154  1.1601 -0.2070 -1.1656
 2759SOL     OW19912   1.987   2.432   8.201  0.4977 -0.4413  0.6931
 2759SOL    HW119913   2.025   2.414   8.114 -2.3503  2.6798 -1.1665
 2759SOL    HW219914   1.941   2.348   8.205  1.3117 -0.8869  0.8825
 2760SOL     OW19915   2.861   2.184   2.071  0.3771  0.1044  1.1281
 2760SOL    HW119916   2.889   2.183   2.162 -1.5201  1.1890  1.7043
 2760SOL    HW219917   2.835   2.275   2.057  1.5104  0.0496 -1.4652
 2761SOL     OW19918   4.651   1.833   5.303 -0.0641 -0.1376  0.1278
 2761SOL    HW119919   4.647   1.746   5.345  2.3124 -0.0798  0.4363
 2761SOL    HW219920   4.663   1.888   5.381  2.3356 -0.1672 -0.2288
 2762SOL     OW19921   0.188   0.074   3.086 -0.0998  0.2421 -1.0882
 2762SOL    HW119922   0.275   0.054   3.120  0.3677 -1.4304 -3.2329
 2762SOL    HW219923   0.168   0.134   3.158 -2.5814 -1.1570 -0.6147
 2763SOL     OW19924   3.938   3.685   3.821 -0.3184 -0.0820 -0.3599
 2763SOL    HW119925   3.893   3.618   3.872 -0.2508 -1.0344 -1.5418
 2763SOL    HW219926   4.031   3.668   3.836  0.4204  4.3405  0.1854
 2764SOL     OW19927   1.693   3.106   4.207 -0.0115  0.3568 -0.0452
 2764SOL    HW119928   1.783   3.135   4.221 -0.1957 -0.5375  2.9771
 2764SOL    HW219929   1.651   3.190   4.222 -2.3214 -1.2971  2.8750
 2765SOL     OW19930   0.184   1.782  16.720  0.1003  0.1154 -0.4139
 2765SOL    HW119931   0.218   1.753  16.636 -1.5827 -0.8549 -0.7509
 2765SOL    HW219932   0.090   1.774  16.703 -0.2384  2.7388  0.2162
 2766SOL     OW19933   0.049   0.789   4.122 -0.0669 -0.1365 -0.6684
 2766SOL    HW119934   0.001   0.823   4.046  1.8977  3.7181 -0.1763
 2766SOL    HW219935   0.078   0.875   4.153  0.0905 -0.6521  0.5709
 2767SOL     OW19936   4.522   1.027   2.404 -0.1937  0.2177  0.3240
 2767SOL    HW119937   4.468   0.979   2.341  1.1424  1.9453 -2.1210
 2767SOL    HW219938   4.603   0.981   2.382 -0.4373 -0.7271  1.3315
 2768SOL     OW19939   1.253   1.221   6.766 -0.2138 -0.2077 -0.5906
 2768SOL    HW119940   1.304   1.297   6.737 -0.6120  0.5787  0.7718
 2768SOL    HW219941   1.262   1.171   6.685 -0.8635  0.0356 -0.8073
 2769SOL     OW19942   1.821   4.005   2.445  0.2034  0.0223  0.3679
 2769SOL    HW119943   1.830   4.093   2.408  2.0105 -0.2287  0.1936
 2769SOL    HW219944   1.902   3.957   2.426  0.2657 -0.0336  0.7849
 2770SOL     OW19945   1.182   0.905   2.457  0.0871  0.8510 -0.7799
 2770SOL    HW119946   1.238   0.943   2.525 -0.1264 -0.0610 -0.0955
 2770SOL    HW219947   1.169   0.819   2.497  0.8744  0.6252 -1.0031
 2771SOL     OW19948   0.145   0.871   7.159 -0.2308 -0.2740 -0.4613
 2771SOL    HW119949   0.205   0.945   7.150 -0.6534  0.4319  2.5703
 2771SOL    HW219950   0.208   0.801   7.172  0.7168  0.6544 -0.0740
 2772SOL     OW19951   0.979   1.073  17.144  0.1362 -0.2179  0.2098
 2772SOL    HW119952   1.070   1.046  17.155  0.2203  0.8671  2.1124
 2772SOL    HW219953   0.975   1.095  17.051  1.0679  1.4543  0.5676
 2773SOL     OW19954   1.455   2.336   6.155 -0.2599  0.4160  0.1235
 2773SOL    HW119955   1.538   2.294   6.177 -0.5643 -0.5391 -0.5166
 2773SOL    HW219956   1.467   2.431   6.160  0.5011  0.2394  1.4083
 2774SOL     OW19957   3.194   2.411  17.578 -0.2662 -0.0312  0.5576
 2774SOL    HW119958   3.138   2.389  17.653 -1.5895 -2.0648 -0.9971
 2774SOL    HW219959   3.208   2.328  17.532  0.4200  0.8108 -0.7621
 2775SOL     OW19960   4.078   2.192  13.502 -0.2021  0.4915  0.5787
 2775SOL    HW119961   4.005   2.200  13.564  1.3466 -1.4290  2.6187
 2775SOL    HW219962   4.041   2.149  13.425  2.1693  0.2515 -0.3937
 2776SOL     OW19963   3.042   0.484   7.455  0.4175  0.0555  0.1653
 2776SOL    HW119964   3.013   0.423   7.387 -0.7313  0.4596  0.2933
 2776SOL    HW219965   3.058   0.416   7.521 -1.5064  3.0448  3.6959
 2777SOL     OW19966   3.590   3.500   0.696  0.1023 -0.0550  0.4976
 2777SOL    HW119967   3.582   3.471   0.606  1.0475  0.7679  0.1487
 2777SOL    HW219968   3.543   3.431   0.743  0.3897 -1.1472 -0.8114
 2778SOL     OW19969   1.822   3.845   8.645  0.0752  0.4313 -0.2610
 2778SOL    HW119970   1.831   3.773   8.583  0.8290 -0.9128  1.4205
 2778SOL    HW219971   1.749   3.811   8.696  2.3327 -0.6648  2.2546
 2779SOL     OW19972   1.798   0.586   4.660 -0.1304 -0.5250  0.1121
 2779SOL    HW119973   1.874   0.529   4.657  1.2004  1.2795 -0.0184
 2779SOL    HW219974   1.826   0.651   4.725  1.0277  1.1075 -2.0126
 2780SOL     OW19975   0.423   3.038   7.479  0.2447 -0.5549  0.0411
 2780SOL    HW119976   0.470   3.035   7.396 -0.4177 -1.2584 -0.3138
 2780SOL    HW219977   0.481   3.101   7.522  3.2384 -1.7346 -2.3655
 2781SOL     OW19978   1.658   4.650   5.629 -0.3240 -0.2296  0.0300
 2781SOL    HW119979   1.658   4.626   5.536  1.4760 -0.3237  0.0621
 2781SOL    HW219980   1.753   4.640   5.634 -0.4744 -1.7100  0.1064
 2782SOL     OW19981   4.193   1.418   2.016 -0.1312  0.3666 -0.0952
 2782SOL    HW119982   4.182   1.355   2.087 -0.9492  0.2585 -0.3130
 2782SOL    HW219983   4.130   1.486   2.041 -0.2264 -0.4019  1.7444
 2783SOL     OW19984   0.112   0.047   6.319  0.3260 -0.0310  0.1922
 2783SOL    HW119985   0.127   0.001   6.402  0.9023 -1.2708 -0.5963
 2783SOL    HW219986   0.132   0.137   6.343 -0.8435  0.9725 -2.6125
 2784SOL     OW19987   0.871   3.407   4.845  0.0226  0.2853 -0.4938
 2784SOL    HW119988   0.784   3.379   4.873  0.1698 -0.1708 -0.5010
 2784SOL    HW219989   0.925   3.336   4.878 -0.2634  0.6197  0.7267
 2785SOL     OW19990   3.900   4.180   7.100  0.2305  0.5147  0.3029
 2785SOL    HW119991   3.925   4.170   7.192 -0.6281  0.1340  0.4956
 2785SOL    HW219992   3.882   4.273   7.086  1.9936  0.8328  0.1584
 2786SOL     OW19993   0.178   3.336   6.443  0.4662 -0.1226 -0.0905
 2786SOL    HW119994   0.110   3.281   6.404 -2.5404  1.8601  2.3973
 2786SOL    HW219995   0.133   3.368   6.521  0.3013 -0.9681  0.1641
 2787SOL     OW19996   1.497   4.309   1.786 -0.4402  0.9586  0.3531
 2787SOL    HW119997   1.449   4.309   1.868  0.5939  1.4857  0.9677
 2787SOL    HW219998   1.557   4.237   1.804 -1.1520  0.4851  0.8353
 2788SOL     OW19999   0.938   1.642   4.403  0.3717  0.4099  0.4820
 2788SOL    HW120000   0.924   1.730   4.438 -0.0393  0.1562  0.9484
 2788SOL    HW220001   0.890   1.645   4.320  0.1209 -2.1154  0.5445
 2789SOL     OW20002   3.460   2.478   0.764  0.0548 -0.8679 -0.1596
 2789SOL    HW120003   3.492   2.431   0.687 -0.0916 -1.4956  0.1614
 2789SOL    HW220004   3.381   2.524   0.733  1.0718 -0.2917 -1.8580
 2790SOL     OW20005   0.045   2.197   5.963  0.1443 -0.5812 -0.2971
 2790SOL    HW120006   4.694   2.184   5.958  0.2155 -0.5223 -1.6365
 2790SOL    HW220007   0.064   2.154   6.047 -2.6073 -2.9375 -0.8791
 2791SOL     OW20008   2.256   0.104   4.341  0.3605 -0.5935  0.4711
 2791SOL    HW120009   2.260   0.009   4.350 -1.7603 -0.7094  0.2521
 2791SOL    HW220010   2.201   0.109   4.263  2.9033  0.7023 -1.2376
 2792SOL     OW20011   2.819   3.009   8.308 -0.3593 -0.8095  0.5841
 2792SOL    HW120012   2.857   3.062   8.238 -3.0693 -2.4411 -2.1744
 2792SOL    HW220013   2.853   2.921   8.291 -0.2702 -1.1772  2.6369
 2793SOL     OW20014   0.967   1.378   9.422  0.4003  0.0523  0.2102
 2793SOL    HW120015   1.011   1.308   9.375 -0.5144  0.7881 -1.7097
 2793SOL    HW220016   0.895   1.406   9.366  0.6194  0.4945  0.1529
 2794SOL     OW20017   0.160   1.743   7.423  0.2532 -0.4437 -0.2367
 2794SOL    HW120018   0.195   1.831   7.440  0.2765 -0.4933 -0.0381
 2794SOL    HW220019   0.076   1.764   7.465  0.4287 -0.7575  0.2651
 2795SOL     OW20020   2.956   3.122   9.724  0.1089 -0.3509  0.1423
 2795SOL    HW120021   3.044   3.091   9.701  0.0490  0.2451 -0.9167
 2795SOL    HW220022   2.972   3.184   9.795 -1.7941 -0.2669  0.5067
 2796SOL     OW20023   0.926   1.346   8.317  0.2024  0.3821 -0.9787
 2796SOL    HW120024   0.992   1.323   8.382 -1.3076 -1.9362 -0.2355
 2796SOL    HW220025   0.926   1.264   8.267 -0.6451  0.2197 -0.7035
 2797SOL     OW20026   3.613   2.145   8.358 -0.6016  0.3123  0.2141
 2797SOL    HW120027   3.705   2.119   8.370  0.1870  2.4286 -1.2137
 2797SOL    HW220028   3.638   2.213   8.295 -2.0113  0.5421 -0.0938
 2798SOL     OW20029   2.285   2.684   7.158 -0.3063 -0.6804 -0.5263
 2798SOL    HW120030   2.261   2.610   7.215  0.5882  1.3052  2.4285
 2798SOL    HW220031   2.312   2.634   7.081  2.9213 -1.9057  1.3599
 2799SOL     OW20032   0.029   1.960   5.786  0.2054 -0.2778 -0.3153
 2799SOL    HW120033   0.053   2.033   5.729 -1.3708  0.4363 -0.0670
 2799SOL    HW220034   0.109   1.952   5.839 -1.0224  0.3500  1.6069
 2800SOL     OW20035   4.706   3.407   9.032 -0.0149 -0.6412 -0.3481
 2800SOL    HW120036   0.013   3.407   8.951  2.9326 -1.6567  1.4873
 2800SOL    HW220037   4.619   3.416   8.992  0.8160  0.8228 -1.8040
 2801SOL     OW20038   0.539   2.964   8.265  0.0660 -0.0235  0.4787
 2801SOL    HW120039   0.494   2.889   8.304 -0.3445 -0.1427 -0.2176
 2801SOL    HW220040   0.481   2.974   8.190 -1.1781 -0.2147  1.4084
 2802SOL     OW20041   1.216   1.287   9.001  0.2096 -0.0451 -0.6716
 2802SOL    HW120042   1.220   1.348   9.074 -1.7165 -0.0938 -0.5311
 2802SOL    HW220043   1.291   1.232   9.021 -0.2516 -0.5553 -0.3579
 2803SOL     OW20044   4.704   2.986  12.727  0.3781  0.0552 -0.2115
 2803SOL    HW120045   4.621   2.986  12.679  0.7479 -0.4795 -0.8512
 2803SOL    HW220046   4.685   2.946  12.812  1.0485 -0.3086 -0.2342
 2804SOL     OW20047   0.119   0.406   5.966  0.2574  0.4615  0.2808
 2804SOL    HW120048   0.201   0.367   5.998 -0.2959 -1.3456 -0.4765
 2804SOL    HW220049   0.064   0.389   6.043 -3.0645  0.4284 -2.1286
 2805SOL     OW20050   0.461   0.581   5.984 -0.1816 -0.3690  0.3828
 2805SOL    HW120051   0.526   0.594   6.054  0.4050  2.8174 -0.7246
 2805SOL    HW220052   0.401   0.651   6.010 -0.3018 -0.2454 -0.2282
 2806SOL     OW20053   3.661   3.813   0.969  0.0165 -0.2494 -0.3465
 2806SOL    HW120054   3.722   3.862   0.914  0.2164 -0.1499 -0.0343
 2806SOL    HW220055   3.579   3.841   0.928  0.3419 -3.3111 -3.0937
 2807SOL     OW20056   1.751   3.149   3.011 -0.2428  0.3405  0.0457
 2807SOL    HW120057   1.670   3.097   3.008  0.5714 -0.7247 -2.7966
 2807SOL    HW220058   1.751   3.184   3.101  0.0983  1.5082 -0.4136
 2808SOL     OW20059   2.858   0.026  11.893  0.4008  0.0891 -0.5785
 2808SOL    HW120060   2.896   4.685  11.917  0.5608  0.3328  0.0074
 2808SOL    HW220061   2.805   4.741  11.819  0.4039 -0.0314 -0.5350
 2809SOL     OW20062   0.367   4.500   0.647  0.3753 -0.0912 -0.1845
 2809SOL    HW120063   0.350   4.548   0.728  0.8204  0.1729 -0.2478
 2809SOL    HW220064   0.395   4.571   0.590  0.7419 -1.5493 -1.8086
 2810SOL     OW20065   0.388   2.185   2.685  0.0264  0.0229  0.0792
 2810SOL    HW120066   0.344   2.267   2.706 -0.3274 -0.1727  0.1107
 2810SOL    HW220067   0.477   2.218   2.694  0.1260 -0.1684 -0.1864
 2811SOL     OW20068   3.675   3.960  15.019  0.5986 -0.3992  0.5706
 2811SOL    HW120069   3.633   3.885  14.976  1.5555 -0.8398  0.3906
 2811SOL    HW220070   3.608   4.000  15.074  1.1477  0.5252  0.5732
 2812SOL     OW20071   0.288   0.656   5.622  0.2461 -0.3554  0.3320
 2812SOL    HW120072   0.324   0.568   5.613 -3.4197 -1.8852  0.5156
 2812SOL    HW220073   0.277   0.652   5.717 -1.0035 -2.2719  0.1034
 2813SOL     OW20074   0.849   2.114   9.514  0.3274  0.1649 -0.0550
 2813SOL    HW120075   0.770   2.077   9.474  1.2944 -0.0295 -1.7752
 2813SOL    HW220076   0.873   2.175   9.444  0.2626 -2.0292 -1.9969
 2814SOL     OW20077   4.421   1.363   2.145  0.0189  0.6756  0.1520
 2814SOL    HW120078   4.417   1.316   2.062 -1.6452  1.7375 -0.3861
 2814SOL    HW220079   4.373   1.443   2.124  2.5175  2.6249  1.9396
 2815SOL     OW20080   0.616   3.598   1.830  0.3491  0.5631  0.3584
 2815SOL    HW120081   0.578   3.649   1.759  0.0800  1.5320  1.1985
 2815SOL    HW220082   0.704   3.582   1.796  0.2328 -0.5348  0.5833
 2816SOL     OW20083   2.741   0.556   6.399  0.3847  0.0084  0.8745
 2816SOL    HW120084   2.690   0.536   6.321 -0.4450  2.1376  0.8713
 2816SOL    HW220085   2.670   0.567   6.461  0.7039 -0.9430  1.3955
 2817SOL     OW20086   3.709   0.341   7.567  0.5998  0.0370 -0.1462
 2817SOL    HW120087   3.633   0.375   7.614  0.1828 -2.8938  1.2917
 2817SOL    HW220088   3.740   0.271   7.625 -1.0950 -1.2224 -0.7398
 2818SOL     OW20089   4.469   1.459   1.258 -0.0131  0.0408  0.1054
 2818SOL    HW120090   4.411   1.385   1.276 -1.4467  1.6416  2.0166
 2818SOL    HW220091   4.423   1.535   1.292 -2.0512 -1.6017  0.9613
 2819SOL     OW20092   2.650   1.796   3.175 -0.1408  0.3216  0.1466
 2819SOL    HW120093   2.656   1.817   3.268 -2.0078 -0.3524  0.4324
 2819SOL    HW220094   2.639   1.701   3.168  0.1803  0.3888 -1.3390
 2820SOL     OW20095   3.891   4.497  16.639  0.2958  0.1073 -0.2387
 2820SOL    HW120096   3.891   4.502  16.544 -0.8282  2.7692 -0.1033
 2820SOL    HW220097   3.923   4.582  16.668  1.7526 -0.4616 -0.1859
 2821SOL     OW20098   2.782   4.668  14.328  0.1265  0.0385  0.6955
 2821SOL    HW120099   2.730   4.697  14.253  0.4214  1.4352  1.0371
 2821SOL    HW220100   2.864   4.708  14.300 -0.1223  0.5458  0.6993
 2822SOL     OW20101   1.008   2.276   4.242  0.2009  0.3792  0.5672
 2822SOL    HW120102   1.037   2.323   4.163  0.0887 -0.8523 -0.2031
 2822SOL    HW220103   1.055   2.196   4.218  1.2741  0.8158  1.2146
 2823SOL     OW20104   3.526   0.306   1.090  0.0150 -0.2858 -0.2554
 2823SOL    HW120105   3.491   0.379   1.039 -0.3043 -1.5067 -1.7780
 2823SOL    HW220106   3.574   0.356   1.156 -0.1701 -0.7186  0.2154
 2824SOL     OW20107   1.803   3.584   8.514 -0.2485 -0.2060  0.1485
 2824SOL    HW120108   1.784   3.564   8.423 -0.7379 -1.5043  0.5444
 2824SOL    HW220109   1.763   3.519   8.571 -2.3611  1.7036  0.8785
 2825SOL     OW20110   2.667   3.343   9.272 -0.1703 -0.3028 -0.2087
 2825SOL    HW120111   2.616   3.308   9.200  0.1334  1.7973 -1.4448
 2825SOL    HW220112   2.670   3.267   9.331 -0.9624  0.6584  1.0790
 2826SOL     OW20113   2.680   4.350  17.552 -0.3522  0.3752 -0.1248
 2826SOL    HW120114   2.601   4.297  17.540 -0.0376 -0.5290  1.8355
 2826SOL    HW220115   2.660   4.387  17.638 -1.2204 -2.4011  0.8617
 2827SOL     OW20116   3.470   3.277   8.114  0.6133 -0.2443  0.4528
 2827SOL    HW120117   3.429   3.276   8.200 -1.6177 -0.2341 -0.5997
 2827SOL    HW220118   3.464   3.369   8.090 -0.5299 -0.3560  0.3000
 2828SOL     OW20119   4.082   1.325   4.905  0.1076 -0.3355 -0.2289
 2828SOL    HW120120   4.121   1.253   4.955 -2.0483 -0.5044  1.2191
 2828SOL    HW220121   3.990   1.301   4.910  0.3484 -1.4374 -1.1174
 2829SOL     OW20122   1.560   3.366   0.450  0.3957 -0.3811  0.1992
 2829SOL    HW120123   1.586   3.458   0.461 -2.1187  0.3602 -0.0609
 2829SOL    HW220124   1.637   3.315   0.475  2.4342  1.5324 -2.1392
 2830SOL     OW20125   1.546   1.079   1.608  0.4208  0.0580  0.7171
 2830SOL    HW120126   1.622   1.124   1.572 -0.6367 -0.0129 -1.5891
 2830SOL    HW220127   1.571   1.085   1.700 -0.2030  0.3248  0.8683
 2831SOL     OW20128   4.703   3.258   4.449  0.4732  0.3086  0.2772
 2831SOL    HW120129   4.743   3.172   4.433 -1.7367 -0.2810 -1.9977
 2831SOL    HW220130   4.717   3.275   4.542 -1.6914  1.8313  0.3238
 2832SOL     OW20131   2.397   3.264   7.461  0.4562  0.1147  0.2232
 2832SOL    HW120132   2.442   3.191   7.418 -0.4527 -1.5628  2.1282
 2832SOL    HW220133   2.305   3.253   7.435 -0.1104  1.3943  1.7583
 2833SOL     OW20134   0.001   4.384   5.142 -0.7691  0.4864  0.2987
 2833SOL    HW120135   4.680   4.344   5.083 -2.1718  2.9201  0.1840
 2833SOL    HW220136   0.072   4.417   5.087 -0.6437 -1.8642 -0.9772
 2834SOL     OW20137   2.690   0.933   7.014  0.4041  0.4481 -0.0213
 2834SOL    HW120138   2.655   1.005   7.066  2.1229  1.2748 -0.0031
 2834SOL    HW220139   2.763   0.905   7.069  1.7507  1.4702 -1.2641
 2835SOL     OW20140   1.820   2.952  11.762 -0.0010 -0.2840  0.2558
 2835SOL    HW120141   1.736   2.971  11.720  0.0401 -2.8796 -1.0411
 2835SOL    HW220142   1.870   2.953  11.680 -0.0302 -1.8003  0.2085
 2836SOL     OW20143   3.110   2.916   8.408  0.1747  0.5694 -0.3226
 2836SOL    HW120144   3.151   2.841   8.364  0.6215  0.3351  0.4909
 2836SOL    HW220145   3.150   2.989   8.360 -1.9202  0.8056 -1.6955
 2837SOL     OW20146   1.315   0.074  17.037 -0.1507 -0.2875 -0.4568
 2837SOL    HW120147   1.370   0.043  16.964 -0.3400 -1.8351  0.0571
 2837SOL    HW220148   1.360   0.038  17.113  1.8603  0.1356 -1.4387
 2838SOL     OW20149   2.841   0.307   9.008  0.1890  0.2151 -0.1818
 2838SOL    HW120150   2.769   0.309   9.071 -0.0963  0.1082 -0.5018
 2838SOL    HW220151   2.864   0.215   9.010 -1.2135 -0.0591  3.3073
 2839SOL     OW20152   3.073   2.444   8.703 -0.0658  0.1500  0.2088
 2839SOL    HW120153   3.081   2.489   8.618 -1.7928  1.2356  0.6035
 2839SOL    HW220154   2.978   2.449   8.715 -0.0135 -1.4341  1.3192
 2840SOL     OW20155   4.073   1.057   5.120  0.5242  0.1136  0.0308
 2840SOL    HW120156   4.162   1.029   5.100  0.6235 -1.7433  2.9914
 2840SOL    HW220157   4.087   1.143   5.160 -1.0073  0.3145  0.1437
 2841SOL     OW20158   4.261   0.039  11.084 -0.3022 -0.1714  0.1230
 2841SOL    HW120159   4.339   4.732  11.106 -0.3181 -0.8841 -1.4540
 2841SOL    HW220160   4.187   4.723  11.092  1.0781 -2.0954 -1.3835
 2842SOL     OW20161   2.034   1.151   6.725 -0.3540 -0.0054  0.3486
 2842SOL    HW120162   2.070   1.095   6.656 -0.3307  0.4527 -0.0136
 2842SOL    HW220163   2.007   1.228   6.675 -1.0304  1.5070  3.0412
 2843SOL     OW20164   0.656   1.469  17.181  0.3521 -0.1280  0.1553
 2843SOL    HW120165   0.590   1.486  17.249  0.3607 -2.8633  0.8648
 2843SOL    HW220166   0.661   1.374  17.167  0.5457 -0.0245 -0.4495
 2844SOL     OW20167   1.490   1.430   1.026 -0.3415  0.3582 -0.0551
 2844SOL    HW120168   1.442   1.406   1.105  0.4251  0.5193  0.4551
 2844SOL    HW220169   1.574   1.464   1.055 -0.5722  1.3910 -0.5951
 2845SOL     OW20170   1.740   0.402  15.868 -0.2684  0.3814  0.3381
 2845SOL    HW120171   1.777   0.445  15.791 -2.8537  1.5279 -0.2554
 2845SOL    HW220172   1.715   0.474  15.926  0.9530  0.1411  1.1556
 2846SOL     OW20173   2.432   3.420   6.128  0.2457 -0.4838 -0.3823
 2846SOL    HW120174   2.365   3.488   6.136  1.1442  0.2093  1.3741
 2846SOL    HW220175   2.413   3.377   6.211 -1.1145 -1.1214 -1.0320
 2847SOL     OW20176   0.172   1.522  17.387  0.0885  0.6805  0.4214
 2847SOL    HW120177   0.213   1.572  17.316 -0.6924 -0.9777 -1.2217
 2847SOL    HW220178   0.147   1.594  17.444  0.5694  0.2672  1.1444
 2848SOL     OW20179   3.115   0.188   7.468 -0.4928 -0.0746 -0.1048
 2848SOL    HW120180   3.032   0.151   7.439 -0.0373 -1.5886  0.5263
 2848SOL    HW220181   3.168   0.166   7.391  1.5427 -1.0387  1.5597
 2849SOL     OW20182   0.491   2.772  16.284 -0.2511 -0.4136  0.5594
 2849SOL    HW120183   0.543   2.846  16.314 -1.2410  0.1073  0.9940
 2849SOL    HW220184   0.495   2.710  16.356  0.7361  0.8163  1.5648
 2850SOL     OW20185   0.028   2.041  11.486 -0.4727  0.9715  0.9954
 2850SOL    HW120186   0.109   2.090  11.502  0.6694  0.2314 -2.4253
 2850SOL    HW220187   0.016   2.031  11.392 -2.8446  2.4779  1.1653
 2851SOL     OW20188   4.101   2.209   8.121 -0.1416 -0.2260  0.4430
 2851SOL    HW120189   4.096   2.284   8.181  2.1708  0.1889  0.1105
 2851SOL    HW220190   4.049   2.241   8.047  0.4332 -2.2284 -0.8126
 2852SOL     OW20191   0.642   2.314   2.145 -0.3282 -0.0069 -0.1361
 2852SOL    HW120192   0.712   2.251   2.126 -0.0282  0.8352 -1.7905
 2852SOL    HW220193   0.616   2.335   2.055 -0.6767 -2.3352 -0.5998
 2853SOL     OW20194   3.438   3.222   5.761  0.3698 -0.1535  0.6174
 2853SOL    HW120195   3.346   3.230   5.736  0.0160 -0.5908  1.8070
 2853SOL    HW220196   3.483   3.216   5.676 -0.3309 -0.9523  0.3024
 2854SOL     OW20197   3.789   1.381   3.654 -0.2966 -0.1410  0.0754
 2854SOL    HW120198   3.821   1.471   3.649  1.3454 -0.8968 -3.0514
 2854SOL    HW220199   3.695   1.388   3.671 -0.1379  0.8400  0.5087
 2855SOL     OW20200   0.437   1.498   7.671  0.0909  0.0683  0.1241
 2855SOL    HW120201   0.389   1.475   7.591  1.6715 -0.8988 -0.5325
 2855SOL    HW220202   0.491   1.421   7.683  0.1718 -0.0044 -0.6937
 2856SOL     OW20203   3.241   1.467   9.304  0.1817 -1.0016 -0.3850
 2856SOL    HW120204   3.226   1.412   9.226  1.3829 -1.0633 -0.5672
 2856SOL    HW220205   3.257   1.553   9.263  0.2373 -1.1301 -0.6357
 2857SOL     OW20206   3.595   0.603   7.192 -0.0404 -0.4526 -0.2094
 2857SOL    HW120207   3.661   0.583   7.258 -0.0425 -0.2989 -0.1599
 2857SOL    HW220208   3.623   0.549   7.118 -0.6964  0.7112 -1.3137
 2858SOL     OW20209   3.979   2.548  16.125 -0.2528  0.0676  0.0978
 2858SOL    HW120210   3.968   2.529  16.032  0.6998  0.8907 -0.1843
 2858SOL    HW220211   4.030   2.628  16.114 -1.0550  0.4213 -1.0537
 2859SOL     OW20212   1.534   2.804   6.668  0.2276  0.4231 -0.3667
 2859SOL    HW120213   1.620   2.809   6.710  0.8601  1.5542 -1.7974
 2859SOL    HW220214   1.478   2.761   6.733 -0.1543  2.0986  0.4081
 2860SOL     OW20215   2.450   3.895   6.402  0.3771 -0.1335 -0.0369
 2860SOL    HW120216   2.503   3.947   6.343  0.4326  0.2478  0.3504
 2860SOL    HW220217   2.512   3.835   6.445  2.4991  1.7539 -0.5069
 2861SOL     OW20218   3.158   1.329   2.648  0.2765  0.0663  0.3548
 2861SOL    HW120219   3.094   1.295   2.710 -0.0804  1.6156  0.8342
 2861SOL    HW220220   3.102   1.383   2.593 -0.7577  0.2937  1.6371
 2862SOL     OW20221   4.706   4.141  11.133 -0.1938  0.7707  0.0110
 2862SOL    HW120222   0.017   4.164  11.209 -0.4242  0.8224  0.1581
 2862SOL    HW220223   4.725   4.214  11.074 -1.7807  0.9110 -0.3215
 2863SOL     OW20224   0.360   3.995   7.088  0.3586 -0.1243 -0.0292
 2863SOL    HW120225   0.451   4.015   7.065 -0.2316 -0.2699 -2.4319
 2863SOL    HW220226   0.343   4.040   7.171 -0.6020 -1.7472  0.6532
 2864SOL     OW20227   0.118   2.614   5.809 -0.3850  0.0273 -0.0034
 2864SOL    HW120228   0.093   2.583   5.896 -0.2325  0.6837  0.2711
 2864SOL    HW220229   0.102   2.708   5.817 -0.2782  0.0383  0.0774
 2865SOL     OW20230   2.538   0.699   7.120 -0.1243 -0.5680  0.0227
 2865SOL    HW120231   2.560   0.756   7.046 -1.7854 -1.0655 -0.8535
 2865SOL    HW220232   2.474   0.754   7.165  0.6183  0.9760 -0.8032
 2866SOL     OW20233   3.186   2.353  13.624  0.4874  0.0507 -0.4481
 2866SOL    HW120234   3.243   2.414  13.670  0.6164 -0.4612  0.0705
 2866SOL    HW220235   3.121   2.416  13.594 -1.6697 -1.4332  1.0772
 2867SOL     OW20236   1.973   4.272   2.053  0.2296  0.3670  0.6622
 2867SOL    HW120237   1.982   4.365   2.033 -3.3231  0.4694 -0.5431
 2867SOL    HW220238   2.063   4.245   2.073  1.0186  3.0071  0.6369
 2868SOL     OW20239   1.164   3.452  16.961 -0.3470 -0.2554 -0.3598
 2868SOL    HW120240   1.230   3.387  16.937  2.0486  1.2646  2.0892
 2868SOL    HW220241   1.107   3.395  17.013  1.5357 -2.2437 -0.5013
 2869SOL     OW20242   2.789   3.411   4.616  0.1865 -0.5287 -0.4636
 2869SOL    HW120243   2.835   3.488   4.583  1.1278  0.0275  2.1502
 2869SOL    HW220244   2.769   3.364   4.535  1.3188 -1.4633 -0.1920
 2870SOL     OW20245   3.310   2.096   3.791  0.5811 -0.5199 -0.2096
 2870SOL    HW120246   3.331   2.040   3.716 -0.7839 -2.8244  1.1556
 2870SOL    HW220247   3.238   2.145   3.750  1.2386  1.0573  0.4960
 2871SOL     OW20248   4.197   2.646  11.755  0.2707 -0.0981  0.1030
 2871SOL    HW120249   4.156   2.670  11.672 -0.4980  1.9874  1.0846
 2871SOL    HW220250   4.255   2.720  11.773  1.7352 -0.9219 -1.2434
 2872SOL     OW20251   3.062   4.407   6.322  0.1343 -0.0567  0.2078
 2872SOL    HW120252   3.071   4.357   6.241 -2.1084  1.0650 -0.7555
 2872SOL    HW220253   2.974   4.441   6.304 -0.3874 -1.7407 -0.3583
 2873SOL     OW20254   1.915   3.506  17.655  0.3765 -0.0073 -0.1527
 2873SOL    HW120255   1.958   3.524  17.572 -0.4732  2.4657 -0.0560
 2873SOL    HW220256   1.850   3.442  17.626 -1.3051  1.6214 -0.0213
 2874SOL     OW20257   3.145   3.967   0.775  0.1589  0.3460 -0.3379
 2874SOL    HW120258   3.097   3.962   0.858 -1.4868 -2.1220 -1.4207
 2874SOL    HW220259   3.149   4.063   0.769  0.5565  0.5265  3.0151
 2875SOL     OW20260   3.457   2.822   8.614  0.0190 -0.8883  0.2640
 2875SOL    HW120261   3.414   2.800   8.532 -1.4832 -1.7131  1.2648
 2875SOL    HW220262   3.462   2.739   8.662 -0.3919 -0.6407  0.7376
 2876SOL     OW20263   1.390   1.998   2.337  0.1019  0.8389  0.1936
 2876SOL    HW120264   1.448   1.969   2.407  2.6234  3.0794 -0.9680
 2876SOL    HW220265   1.386   2.092   2.352 -2.6028  0.7500  0.1134
 2877SOL     OW20266   3.108   2.472   6.057  0.6674 -0.4201 -0.0874
 2877SOL    HW120267   3.150   2.527   5.991  1.2372  0.0551  0.6685
 2877SOL    HW220268   3.141   2.383   6.047  2.5814  0.2585  0.3443
 2878SOL     OW20269   2.997   0.040   9.205  0.3669 -0.1946 -0.1914
 2878SOL    HW120270   3.007   4.723   9.279  0.7154 -1.0646 -0.9385
 2878SOL    HW220271   3.014   0.120   9.255  0.5098 -0.6906  0.5585
 2879SOL     OW20272   3.165   3.696   8.446  0.0142 -0.4326 -0.1907
 2879SOL    HW120273   3.243   3.649   8.475  0.9805  0.8980 -0.6293
 2879SOL    HW220274   3.105   3.693   8.520 -0.4532 -1.5522 -0.6270
 2880SOL     OW20275   3.797   0.872   2.350  0.2546  0.1089  0.4657
 2880SOL    HW120276   3.801   0.777   2.363 -0.9988 -0.1749 -1.3037
 2880SOL    HW220277   3.817   0.891   2.442  0.4477 -0.7477  0.5989
 2881SOL     OW20278   4.257   1.102   9.147  0.5169 -0.0175 -0.0921
 2881SOL    HW120279   4.256   1.011   9.119 -1.2916  0.3353 -1.1930
 2881SOL    HW220280   4.166   1.130   9.138 -0.2299 -2.2734  0.5170
 2882SOL     OW20281   0.816   2.549   5.965  0.0317 -0.2643 -0.0440
 2882SOL    HW120282   0.756   2.502   6.023  0.6540 -1.5599 -0.4613
 2882SOL    HW220283   0.812   2.641   5.991 -4.1421 -0.6676  0.6179
 2883SOL     OW20284   4.113   0.092  12.711  0.0519 -0.4638  0.3669
 2883SOL    HW120285   4.206   0.100  12.690  0.2785 -2.9337  0.4710
 2883SOL    HW220286   4.105   4.742  12.734  0.1194 -0.1285  1.7409
 2884SOL     OW20287   1.322   1.239  12.919  0.0357  0.3578 -0.8035
 2884SOL    HW120288   1.253   1.283  12.969  0.1409 -0.2290 -0.1340
 2884SOL    HW220289   1.292   1.255  12.830  0.8159  1.5404 -0.8602
 2885SOL     OW20290   0.812   2.913   2.399  0.0787  0.1786 -0.4504
 2885SOL    HW120291   0.824   2.880   2.309 -1.3409 -4.0439  0.9085
 2885SOL    HW220292   0.726   2.875   2.415 -0.4186  0.8424 -1.5292
 2886SOL     OW20293   0.310   2.996   8.748  0.1435  0.0320  0.3170
 2886SOL    HW120294   0.225   3.019   8.787 -0.8126  0.6824 -2.1370
 2886SOL    HW220295   0.316   2.902   8.765 -1.6698 -0.3921 -1.2690
 2887SOL     OW20296   2.695   3.924  11.799  0.0456 -0.1568  0.1753
 2887SOL    HW120297   2.724   4.002  11.847  0.1338 -1.4781  2.2446
 2887SOL    HW220298   2.742   3.848  11.833 -1.3386 -1.5239 -0.9525
 2888SOL     OW20299   1.802   2.280   8.829 -0.7594  0.6182 -0.0573
 2888SOL    HW120300   1.878   2.299   8.884  1.0006 -2.7993 -1.2832
 2888SOL    HW220301   1.768   2.201   8.870  1.3879 -1.1523 -1.6830
 2889SOL     OW20302   0.335   0.469  14.986 -0.9341 -0.1845  0.5741
 2889SOL    HW120303   0.260   0.503  14.938  0.4638  0.7631 -0.9486
 2889SOL    HW220304   0.290   0.454  15.069  0.1672  0.5552  1.2987
 2890SOL     OW20305   2.259   1.354   7.548 -0.1613 -0.0231  0.6951
 2890SOL    HW120306   2.300   1.268   7.552  0.4686  0.1215 -2.1643
 2890SOL    HW220307   2.225   1.375   7.635 -0.9264 -0.8821  0.6030
 2891SOL     OW20308   0.246   1.918   2.323  0.0711  0.3333  0.7474
 2891SOL    HW120309   0.186   1.887   2.392  0.0240  1.5209  1.2331
 2891SOL    HW220310   0.217   1.874   2.243  0.4653 -1.2603  1.4820
 2892SOL     OW20311   1.389   2.683   4.417 -0.2832 -0.1067 -0.1747
 2892SOL    HW120312   1.375   2.661   4.509  1.2367 -0.3046  0.0048
 2892SOL    HW220313   1.337   2.614   4.376  0.8108  0.3260 -2.2702
 2893SOL     OW20314   3.920   4.218   5.208 -0.5184 -0.3472 -0.0905
 2893SOL    HW120315   3.990   4.261   5.258 -2.0915 -0.3095  2.0884
 2893SOL    HW220316   3.859   4.220   5.282  1.4736 -1.4559  1.5882
 2894SOL     OW20317   0.438   3.130   1.655  0.0269 -0.3787  0.0130
 2894SOL    HW120318   0.515   3.127   1.711  0.4686 -2.6456 -0.7204
 2894SOL    HW220319   0.373   3.087   1.711  1.4303 -3.6524 -0.9108
 2895SOL     OW20320   1.802   1.883  17.328  0.4063 -0.0105  0.3001
 2895SOL    HW120321   1.712   1.856  17.341  0.4650  0.0316  0.7894
 2895SOL    HW220322   1.842   1.870  17.414 -0.6546  0.1063  0.8006
 2896SOL     OW20323   2.298   3.238   5.528  0.1329  0.1940  0.1145
 2896SOL    HW120324   2.275   3.182   5.454  2.1887 -2.5724  1.5316
 2896SOL    HW220325   2.380   3.281   5.505 -0.6175  1.1405 -0.7636
 2897SOL     OW20326   2.416   0.564   4.305 -0.0433  0.1070 -0.1985
 2897SOL    HW120327   2.421   0.478   4.263 -0.4807 -0.9322  1.8987
 2897SOL    HW220328   2.346   0.600   4.251 -0.0045  0.7344  0.1628
 2898SOL     OW20329   1.771   4.172   1.875  0.0454  0.1386 -0.3762
 2898SOL    HW120330   1.840   4.227   1.910 -0.6541  2.4605 -2.6395
 2898SOL    HW220331   1.706   4.172   1.945  0.8220  0.9587  0.3443
 2899SOL     OW20332   0.771   2.225   7.817  0.2389 -0.0832 -0.0665
 2899SOL    HW120333   0.779   2.177   7.735 -1.3043  0.1466 -0.3384
 2899SOL    HW220334   0.745   2.307   7.777 -3.2907 -0.8109  0.6922
 2900SOL     OW20335   0.771   0.996   2.429 -0.5231 -0.7552  0.3833
 2900SOL    HW120336   0.767   0.999   2.524 -1.0385 -1.1328  0.3779
 2900SOL    HW220337   0.803   0.908   2.408 -0.4886 -0.5573 -0.4167
 2901SOL     OW20338   1.668   2.867  12.038 -1.1092  0.3245  0.0482
 2901SOL    HW120339   1.626   2.935  12.090  1.8818  0.7172  1.9820
 2901SOL    HW220340   1.761   2.887  12.052 -0.9658 -0.3273  0.0608
 2902SOL     OW20341   3.560   2.553   9.053  0.1924  0.3276  0.3087
 2902SOL    HW120342   3.495   2.601   9.104  2.4245  1.8797  1.6900
 2902SOL    HW220343   3.640   2.589   9.092  0.5308 -0.1037  0.0149
 2903SOL     OW20344   4.551   1.309   2.390  0.6239 -0.0662 -0.1087
 2903SOL    HW120345   4.558   1.213   2.389  2.1262  0.0704 -1.8443
 2903SOL    HW220346   4.507   1.321   2.306  1.0580 -0.6791 -0.4246
 2904SOL     OW20347   2.694   1.985  13.143 -0.2693 -0.0635 -0.1949
 2904SOL    HW120348   2.671   2.048  13.075  0.5441 -0.4507 -0.8154
 2904SOL    HW220349   2.687   2.042  13.220  0.9779 -0.0843 -0.0679
 2905SOL     OW20350   2.922   2.104   5.365  0.3424  0.4510 -0.2869
 2905SOL    HW120351   2.918   2.195   5.395 -0.4069  0.3281 -0.0142
 2905SOL    HW220352   2.991   2.067   5.421  0.8284 -1.2084 -1.9879
 2906SOL     OW20353   1.309   4.269   0.570 -0.1616 -0.0977  0.6744
 2906SOL    HW120354   1.393   4.312   0.591  0.4096 -0.1330 -1.6030
 2906SOL    HW220355   1.287   4.238   0.658  1.0099 -1.4222  0.4860
 2907SOL     OW20356   0.634   1.312   6.320 -0.2953 -0.2263  0.2075
 2907SOL    HW120357   0.708   1.260   6.289  0.8594  0.1243  2.3855
 2907SOL    HW220358   0.562   1.264   6.279 -1.9206  1.2493  1.3106
 2908SOL     OW20359   2.059   4.302   1.658 -0.5300  0.3140  0.0840
 2908SOL    HW120360   2.087   4.335   1.744 -2.7243  1.3497  0.4037
 2908SOL    HW220361   2.062   4.209   1.677  0.0525  0.3033 -0.0532
 2909SOL     OW20362   3.960   4.032  12.299  0.1534 -0.0969 -0.2896
 2909SOL    HW120363   3.868   4.006  12.292  0.2180 -0.3617 -0.1632
 2909SOL    HW220364   3.981   4.047  12.391 -1.8420 -2.1313  0.5024
 2910SOL     OW20365   0.306   4.293  13.182  0.2425  0.2619  0.0244
 2910SOL    HW120366   0.336   4.202  13.181  0.3117  0.2847  0.0476
 2910SOL    HW220367   0.383   4.339  13.217 -0.0623  1.0371 -0.3241
 2911SOL     OW20368   1.368   4.017   4.661 -0.3947  0.0902 -0.0680
 2911SOL    HW120369   1.434   4.051   4.602  1.3098 -1.5219  0.8898
 2911SOL    HW220370   1.293   4.022   4.602 -0.3054  0.0735 -0.1817
 2912SOL     OW20371   1.756   0.552   9.878  0.3587 -0.2704 -0.0636
 2912SOL    HW120372   1.841   0.592   9.861  0.3398  0.2892  1.1266
 2912SOL    HW220373   1.776   0.503   9.958  0.2189 -0.7017 -0.2885
 2913SOL     OW20374   3.094   1.512   3.414  0.1881  0.2472 -0.6427
 2913SOL    HW120375   3.085   1.537   3.322  1.0684  0.2539 -0.7254
 2913SOL    HW220376   3.003   1.516   3.445  0.2155  0.1347 -0.5512
 2914SOL     OW20377   3.884   3.957   3.776 -0.0833 -0.5731 -0.4254
 2914SOL    HW120378   3.979   3.969   3.771  0.0673 -1.9984 -0.8478
 2914SOL    HW220379   3.890   3.867   3.808 -0.2493  0.5289  2.7603
 2915SOL     OW20380   2.831   0.715   8.227 -0.2206 -0.2796 -0.0408
 2915SOL    HW120381   2.925   0.705   8.216  0.1221  1.1757  1.7418
 2915SOL    HW220382   2.811   0.672   8.310  0.9361 -0.2581  0.2413
 2916SOL     OW20383   3.727   4.241  15.274 -0.0065 -0.0837 -0.2402
 2916SOL    HW120384   3.702   4.333  15.278  0.9729  0.2436 -1.6805
 2916SOL    HW220385   3.731   4.211  15.364 -2.7297 -0.7451 -0.3402
 2917SOL     OW20386   3.165   2.177  14.935 -0.5876 -0.2715  0.1095
 2917SOL    HW120387   3.170   2.105  14.873  0.7628 -0.9345  0.9825
 2917SOL    HW220388   3.070   2.180  14.939 -0.6193 -2.0121  0.3897
 2918SOL     OW20389   4.700   0.729  10.153  1.0047  0.2482  0.0911
 2918SOL    HW120390   0.035   0.686  10.187 -0.1409 -1.2257  0.8621
 2918SOL    HW220391   0.003   0.769  10.079 -1.5632  0.0964 -1.5954
 2919SOL     OW20392   2.846   3.184   6.884 -0.0135  0.2307  0.6337
 2919SOL    HW120393   2.808   3.105   6.846 -0.8915 -0.5036  3.0820
 2919SOL    HW220394   2.795   3.252   6.840  0.3357  1.2493  1.7925
 2920SOL     OW20395   3.449   1.171   4.912 -0.3781 -0.5211 -0.3539
 2920SOL    HW120396   3.532   1.130   4.936  0.5211  0.3219 -2.0285
 2920SOL    HW220397   3.394   1.097   4.886 -0.3582 -0.9739  0.8902
 2921SOL     OW20398   4.091   4.132  16.617 -0.0880 -0.8109  0.2893
 2921SOL    HW120399   4.117   4.113  16.527 -2.9881 -2.8589 -0.1005
 2921SOL    HW220400   4.010   4.083  16.632  2.2597 -3.9372  2.8563
 2922SOL     OW20401   2.132   0.507   1.068 -0.2607  0.0595  0.3738
 2922SOL    HW120402   2.090   0.464   0.994  0.1266 -0.1268  0.2598
 2922SOL    HW220403   2.217   0.462   1.069 -0.1556  0.2784  1.3336
 2923SOL     OW20404   3.569   0.841  15.230  0.6260  0.2354 -0.3295
 2923SOL    HW120405   3.505   0.778  15.198 -0.8818 -0.2709  3.7182
 2923SOL    HW220406   3.620   0.862  15.151  1.0032 -1.5590 -0.5466
 2924SOL     OW20407   0.184   0.560   2.933 -0.4593  0.7597 -0.1724
 2924SOL    HW120408   0.130   0.618   2.879 -0.6254  1.7133  1.0217
 2924SOL    HW220409   0.130   0.522   3.001  1.9576 -0.9371  0.7774
 2925SOL     OW20410   2.318   3.415   3.769  0.1198  0.1374 -0.3425
 2925SOL    HW120411   2.339   3.325   3.796 -0.6906 -0.3958 -1.4887
 2925SOL    HW220412   2.399   3.462   3.789  1.0993 -1.8011  0.3398
 2926SOL     OW20413   1.106   4.549  14.446 -0.0837 -0.0185 -0.0829
 2926SOL    HW120414   1.175   4.540  14.381 -1.9002 -1.2173 -1.8387
 2926SOL    HW220415   1.111   4.639  14.478  1.0728  1.0518 -3.3228
 2927SOL     OW20416   4.576   4.679   7.857 -0.1398 -0.1645 -0.2381
 2927SOL    HW120417   4.641   4.657   7.791 -0.0143 -0.9703  0.1585
 2927SOL    HW220418   4.635   4.673   7.931  0.4005  2.2497 -0.4887
 2928SOL     OW20419   3.666   2.951   6.261 -0.4295  0.0685  0.7846
 2928SOL    HW120420   3.733   2.967   6.194 -0.4168  0.3194  0.8610
 2928SOL    HW220421   3.694   3.014   6.327 -2.5434  3.4210 -1.5153
 2929SOL     OW20422   3.508   3.653   5.053 -0.8791  0.0324 -0.0682
 2929SOL    HW120423   3.465   3.697   4.980  1.4655 -0.4454 -1.7401
 2929SOL    HW220424   3.503   3.713   5.127 -0.2144  0.8841 -0.7138
 2930SOL     OW20425   2.107   1.482   2.589  0.1804  0.3868 -0.0101
 2930SOL    HW120426   2.197   1.457   2.570  0.0540 -0.8975  1.0695
 2930SOL    HW220427   2.079   1.434   2.667  0.7220 -0.3429 -0.2656
 2931SOL     OW20428   1.842   2.101   2.765  0.6625 -0.1604  0.2929
 2931SOL    HW120429   1.773   2.165   2.747  0.6843 -0.2144  0.0188
 2931SOL    HW220430   1.878   2.143   2.843  1.1852 -0.6800  0.3339
 2932SOL     OW20431   3.450   4.704   8.175  0.4863  0.0177 -0.2837
 2932SOL    HW120432   3.369   0.012   8.173  1.3306  1.3276 -0.8163
 2932SOL    HW220433   3.495   4.734   8.254 -3.2728 -0.6959  2.1453
 2933SOL     OW20434   3.719   2.277  12.501 -0.1052 -0.0019 -0.1708
 2933SOL    HW120435   3.757   2.360  12.473  0.6924 -0.9256 -1.8579
 2933SOL    HW220436   3.685   2.312  12.583 -1.3118  2.6801 -1.7840
 2934SOL     OW20437   0.045   4.698   4.646 -0.6887 -0.2501  0.0692
 2934SOL    HW120438   0.023   0.035   4.599 -1.3418  0.5649  1.7610
 2934SOL    HW220439   0.006   4.638   4.582  2.0832 -2.1385  0.1632
 2935SOL     OW20440   3.526   3.670   6.990 -0.2465 -0.5404  0.8554
 2935SOL    HW120441   3.577   3.589   6.997  1.3664  0.2921 -1.6340
 2935SOL    HW220442   3.599   3.730   6.977  0.2425 -1.0712  1.1125
 2936SOL     OW20443   0.451   3.830  12.940 -0.3542 -0.0313 -0.6222
 2936SOL    HW120444   0.506   3.828  13.019 -0.3941 -1.7778 -0.6284
 2936SOL    HW220445   0.487   3.903  12.891  1.5383  0.5754  1.6503
 2937SOL     OW20446   0.462   3.586   4.542 -0.6667  0.1609  0.2052
 2937SOL    HW120447   0.422   3.672   4.525 -0.3750  0.3843  0.6572
 2937SOL    HW220448   0.512   3.596   4.623 -0.3881 -1.1680  0.1941
 2938SOL     OW20449   2.926   1.733  12.260  0.1078 -0.1404 -0.6811
 2938SOL    HW120450   2.867   1.716  12.333 -1.7874  1.0002 -1.9374
 2938SOL    HW220451   3.013   1.741  12.298 -0.1626 -4.4801  0.8381
 2939SOL     OW20452   1.588   2.857   2.542 -0.2678  0.2077 -0.2419
 2939SOL    HW120453   1.559   2.790   2.604  2.7381  0.4707  1.4914
 2939SOL    HW220454   1.519   2.922   2.536  0.6590  1.1676 -0.6067
 2940SOL     OW20455   0.099   3.147   4.193 -1.3746 -0.1035  0.9334
 2940SOL    HW120456   0.104   3.060   4.232  1.5685  0.8705  2.7770
 2940SOL    HW220457   0.048   3.196   4.257  0.8052  4.4496 -0.8327
 2941SOL     OW20458   4.706   1.326   3.263 -0.3698  0.0327 -0.1855
 2941SOL    HW120459   4.730   1.388   3.194 -0.7335  0.4904  0.0954
 2941SOL    HW220460   0.049   1.286   3.270  0.3781  1.8154  0.5753
 2942SOL     OW20461   3.976   3.987   9.284 -0.5054 -0.1878 -0.1543
 2942SOL    HW120462   3.927   4.041   9.346  0.4127 -0.0128  0.4233
 2942SOL    HW220463   3.914   3.915   9.291  0.6463 -1.1669  0.0132
 2943SOL     OW20464   1.995   1.655   7.645 -0.0257 -0.5556 -0.2930
 2943SOL    HW120465   2.015   1.611   7.562  0.2905  1.4459 -1.2796
 2943SOL    HW220466   2.047   1.736   7.645  0.2264 -0.7189 -0.6988
 2944SOL     OW20467   3.245   0.430   4.533  0.0754 -0.0434  0.8564
 2944SOL    HW120468   3.150   0.432   4.520  0.4982 -2.8363 -2.6025
 2944SOL    HW220469   3.271   0.510   4.488 -0.1202 -1.4331 -1.6938
 2945SOL     OW20470   4.667   3.805   8.742  0.2542 -0.1860 -0.0373
 2945SOL    HW120471   4.662   3.830   8.650  1.8744 -0.0844 -0.0906
 2945SOL    HW220472   4.670   3.710   8.727 -2.3969 -0.4798  1.2470
 2946SOL     OW20473   0.650   4.301  16.422  0.0132 -0.2427 -0.6431
 2946SOL    HW120474   0.736   4.341  16.434 -1.3582  1.9358  2.1817
 2946SOL    HW220475   0.633   4.316  16.329 -0.1124 -0.8006 -0.7069
 2947SOL     OW20476   1.494   4.581   3.894  0.3134  0.4253  0.1439
 2947SOL    HW120477   1.584   4.560   3.868  0.1803  2.7537 -2.1802
 2947SOL    HW220478   1.493   4.676   3.885 -0.0634  0.5528  1.4956
 2948SOL     OW20479   3.801   2.477  15.629 -0.1838 -0.5327 -0.8362
 2948SOL    HW120480   3.767   2.561  15.598 -0.0895 -0.9571 -2.1108
 2948SOL    HW220481   3.826   2.440  15.544 -1.0569  0.8492 -1.6892
 2949SOL     OW20482   2.308   4.154   7.380  0.0252  0.5624  0.0734
 2949SOL    HW120483   2.218   4.165   7.349  0.8200  2.8930 -1.4402
 2949SOL    HW220484   2.307   4.177   7.472  0.8053  1.5279 -0.1624
 2950SOL     OW20485   1.428   1.553  16.507  0.2203  0.2368  0.2431
 2950SOL    HW120486   1.422   1.634  16.558  0.6203  1.2598 -1.3394
 2950SOL    HW220487   1.450   1.504  16.587  1.3553  0.8917  0.3235
 2951SOL     OW20488   3.612   0.146   3.274 -0.0799  0.1559 -0.2687
 2951SOL    HW120489   3.648   0.068   3.233 -1.1339  0.3214 -1.5281
 2951SOL    HW220490   3.600   0.111   3.362  1.8518 -0.4359 -0.2262
 2952SOL     OW20491   2.659   1.252   5.356  0.1124 -0.2507  0.4916
 2952SOL    HW120492   2.672   1.207   5.272 -0.5817  0.3781  0.0461
 2952SOL    HW220493   2.641   1.344   5.334 -0.7494 -0.2226  1.3325
 2953SOL     OW20494   1.761   1.506  11.058 -0.5046 -0.4308 -0.0088
 2953SOL    HW120495   1.709   1.500  11.138 -1.5354  0.1725 -0.6408
 2953SOL    HW220496   1.705   1.457  10.998 -0.8191  1.4235 -1.2148
 2954SOL     OW20497   1.531   0.082   3.138 -0.3477 -0.0077  0.2281
 2954SOL    HW120498   1.572   0.166   3.159 -1.5280  0.9105 -1.1612
 2954SOL    HW220499   1.499   0.103   3.051  1.3189  1.0994 -0.1018
 2955SOL     OW20500   3.457   4.119   0.617 -0.3499  0.0729  0.4494
 2955SOL    HW120501   3.484   4.188   0.677  1.1305 -0.3305  0.2505
 2955SOL    HW220502   3.433   4.176   0.545  1.2261  0.2437  0.0666
 2956SOL     OW20503   2.186   2.223   6.480 -0.1181 -0.1446 -0.0320
 2956SOL    HW120504   2.092   2.236   6.488 -0.1341  0.2727 -0.8469
 2956SOL    HW220505   2.186   2.132   6.450  0.7810 -0.1612  0.0127
 2957SOL     OW20506   1.232   1.379   2.421 -0.2227  0.0236 -0.1712
 2957SOL    HW120507   1.312   1.372   2.368  0.5989  0.9145  0.9546
 2957SOL    HW220508   1.167   1.339   2.364  0.8916  1.3633 -2.3618
 2958SOL     OW20509   1.449   4.661   2.340  0.3143 -0.3227  0.3764
 2958SOL    HW120510   1.389   4.719   2.294  0.6832 -0.1198  0.1495
 2958SOL    HW220511   1.393   4.596   2.383  1.4818 -1.9060 -0.5173
 2959SOL     OW20512   0.896   2.458   9.050 -0.0588  0.5462 -0.2706
 2959SOL    HW120513   0.983   2.496   9.058  0.0708  0.5768 -1.8917
 2959SOL    HW220514   0.855   2.519   8.988 -0.8543  0.5962  0.2991
 2960SOL     OW20515   3.444   2.899  10.404 -0.1537  0.0537 -0.3905
 2960SOL    HW120516   3.504   2.834  10.440  0.9524  0.4164 -1.5820
 2960SOL    HW220517   3.384   2.896  10.479 -0.3321 -0.0880 -0.5385
 2961SOL     OW20518   1.927   0.715   3.413  0.7563  0.2271 -0.8361
 2961SOL    HW120519   1.862   0.766   3.364  0.7034  0.1900 -0.8052
 2961SOL    HW220520   1.955   0.775   3.483  0.6606  0.0066 -0.6069
 2962SOL     OW20521   0.470   0.338   3.050  0.1537 -0.1035 -0.1905
 2962SOL    HW120522   0.556   0.344   3.093  0.4685 -1.6863 -0.5821
 2962SOL    HW220523   0.452   0.425   3.016 -2.8966 -0.4335  0.5875
 2963SOL     OW20524   4.717   1.780  11.588 -0.5012 -0.0723 -0.2480
 2963SOL    HW120525   4.694   1.768  11.495 -1.7588  2.0089 -0.2157
 2963SOL    HW220526   0.013   1.867  11.582  1.0756 -0.7982 -0.3105
 2964SOL     OW20527   2.883   0.487   9.560  0.5835  0.4292 -0.4525
 2964SOL    HW120528   2.899   0.540   9.482  1.5024 -0.8510 -1.1332
 2964SOL    HW220529   2.838   0.555   9.610 -1.0109 -1.7665  1.0823
 2965SOL     OW20530   0.530   3.091   3.474 -0.4246 -0.6020 -0.0210
 2965SOL    HW120531   0.531   3.129   3.386  0.3714 -1.6877 -0.4791
 2965SOL    HW220532   0.623   3.073   3.485  0.1997  1.3913 -2.0210
 2966SOL     OW20533   3.351   2.372   8.997  0.2629  0.5206  0.1698
 2966SOL    HW120534   3.312   2.451   8.960 -0.5779 -0.7999 -1.7120
 2966SOL    HW220535   3.432   2.402   9.039 -0.3628 -1.8932  3.1424
 2967SOL     OW20536   0.742   1.667  15.590 -0.5523 -0.5706 -0.2865
 2967SOL    HW120537   0.729   1.754  15.627  1.8790 -0.6275  0.7051
 2967SOL    HW220538   0.690   1.673  15.510 -1.9409 -0.6351  0.6022
 2968SOL     OW20539   1.540   0.580   1.848  0.4918  0.1219  0.2945
 2968SOL    HW120540   1.610   0.517   1.829 -0.2167 -0.0303 -1.8178
 2968SOL    HW220541   1.588   0.660   1.865  0.6775  0.0890 -0.0723
 2969SOL     OW20542   3.408   4.714   4.513  0.3020  0.7506  0.5971
 2969SOL    HW120543   3.441   0.057   4.488 -1.5997  1.3609  0.1798
 2969SOL    HW220544   3.313   4.726   4.509  0.7155  3.5564 -0.7487
 2970SOL     OW20545   1.231   4.281   8.969 -0.2074  0.1086 -0.6815
 2970SOL    HW120546   1.190   4.366   8.987 -0.8891 -0.2676 -0.4788
 2970SOL    HW220547   1.234   4.272   8.873 -0.0657  1.0812 -0.7704
 2971SOL     OW20548   1.373   1.115   6.540 -0.7639 -0.5120  0.8475
 2971SOL    HW120549   1.378   1.190   6.480 -0.2158  0.0730  1.6172
 2971SOL    HW220550   1.434   1.049   6.510  1.4593  2.3552 -0.9040
 2972SOL     OW20551   4.279   2.306  13.854 -0.1565  0.1933  0.2552
 2972SOL    HW120552   4.272   2.379  13.916 -2.5608  1.8937 -2.0610
 2972SOL    HW220553   4.279   2.357  13.773  1.7024  0.7968  0.6207
 2973SOL     OW20554   1.639   1.865   2.920 -0.4407 -0.2119  0.2109
 2973SOL    HW120555   1.594   1.902   2.997 -2.3576 -3.2163  0.5662
 2973SOL    HW220556   1.694   1.793   2.952  0.9387  1.3135  1.2284
 2974SOL     OW20557   3.040   2.297   4.947 -0.2437 -0.2387 -0.3425
 2974SOL    HW120558   2.959   2.347   4.945  0.2531  0.6456  1.1346
 2974SOL    HW220559   3.065   2.325   4.859  0.5761  3.0129  0.9018
 2975SOL     OW20560   3.656   3.721   6.376 -0.7803 -0.0440 -0.1458
 2975SOL    HW120561   3.590   3.724   6.307 -1.2587 -1.4518  0.2575
 2975SOL    HW220562   3.702   3.804   6.362  1.6782 -1.6692 -1.7167
 2976SOL     OW20563   2.536   3.848  10.068  0.2573 -0.0125 -0.2287
 2976SOL    HW120564   2.457   3.891  10.036 -0.1569 -0.2853  0.4178
 2976SOL    HW220565   2.512   3.758  10.049 -2.0527  0.5736 -0.0963
 2977SOL     OW20566   3.029   1.931   2.594 -0.5704  0.2038  0.2297
 2977SOL    HW120567   2.953   1.955   2.646  0.2008 -1.5563  2.1939
 2977SOL    HW220568   3.090   2.004   2.603 -0.0760 -0.3471  1.3451
 2978SOL     OW20569   2.179   4.455   2.507 -1.1158  0.6090  0.1359
 2978SOL    HW120570   2.119   4.526   2.488 -1.1921  0.1908 -1.1480
 2978SOL    HW220571   2.190   4.477   2.600 -0.1233  1.6953 -0.2409
 2979SOL     OW20572   4.605   3.888   2.866 -0.4190 -0.3733  0.1055
 2979SOL    HW120573   4.520   3.892   2.911 -0.6249 -1.2597 -0.2013
 2979SOL    HW220574   4.603   3.801   2.825  0.4948 -0.3854  0.0900
 2980SOL     OW20575   2.680   2.004   7.155  0.7907  0.4357  0.1658
 2980SOL    HW120576   2.665   2.061   7.230 -1.6587  0.7090 -0.5223
 2980SOL    HW220577   2.598   2.000   7.106  1.2246  0.5979 -0.5666
 2981SOL     OW20578   2.850   3.707   8.470 -0.5644 -0.1490  0.0822
 2981SOL    HW120579   2.905   3.735   8.397  1.3870  0.0350  1.6342
 2981SOL    HW220580   2.861   3.612   8.471 -2.7033 -0.4090 -0.1946
 2982SOL     OW20581   3.257   2.574  10.606 -0.4800 -0.2177  0.0913
 2982SOL    HW120582   3.253   2.554  10.512 -0.6706 -0.7394  0.2138
 2982SOL    HW220583   3.286   2.489  10.638  1.7173  0.2040 -0.7822
 2983SOL     OW20584   4.023   3.531   3.199 -0.0742 -0.2991 -0.7084
 2983SOL    HW120585   4.033   3.550   3.106  0.5133  1.9870 -0.1889
 2983SOL    HW220586   3.934   3.499   3.188 -0.2232  0.4611 -1.7482
 2984SOL     OW20587   3.149   4.721   4.325  0.6912 -0.2478 -0.1092
 2984SOL    HW120588   3.058   0.006   4.333  1.6638  3.4293 -1.6194
 2984SOL    HW220589   3.200   0.056   4.300  0.9985 -0.1383  0.8692
 2985SOL     OW20590   3.753   1.927   4.087 -0.1784  0.5473  0.0706
 2985SOL    HW120591   3.716   2.003   4.043  0.5206 -0.0895 -1.6129
 2985SOL    HW220592   3.677   1.915   4.144  0.5103 -0.6000  0.7656
 2986SOL     OW20593   2.488   2.800   6.410 -0.3735 -0.1472  0.5595
 2986SOL    HW120594   2.489   2.786   6.504  0.3957  0.9711  0.7147
 2986SOL    HW220595   2.574   2.765   6.384 -0.6875 -0.3503 -0.2220
 2987SOL     OW20596   1.154   2.348   5.030 -0.2172  0.2971  0.3331
 2987SOL    HW120597   1.215   2.393   4.972  0.3024 -0.1529  0.5316
 2987SOL    HW220598   1.079   2.407   5.036 -0.5017  0.0351 -0.6242
 2988SOL     OW20599   4.268   0.383   1.845  0.3770 -0.4007 -0.1140
 2988SOL    HW120600   4.245   0.294   1.819  0.0632  0.0121 -1.2428
 2988SOL    HW220601   4.274   0.379   1.941  0.1459 -1.9434 -0.1613
 2989SOL     OW20602   0.216   0.885   9.750 -0.5126 -0.0993  0.2321
 2989SOL    HW120603   0.227   0.979   9.739  1.1513 -0.1901  1.0506
 2989SOL    HW220604   0.282   0.861   9.815  0.2287 -0.0546 -0.5088
 2990SOL     OW20605   1.134   2.895   4.676 -0.7157 -0.4682 -0.4359
 2990SOL    HW120606   1.157   2.879   4.584  0.3818 -0.4532 -0.1640
 2990SOL    HW220607   1.124   2.804   4.702  0.8958 -1.3725 -2.9667
 2991SOL     OW20608   1.733   2.679   0.301 -0.4562  0.4623  0.0465
 2991SOL    HW120609   1.719   2.711   0.390 -2.0153 -0.2481  0.0654
 2991SOL    HW220610   1.821   2.715   0.291 -0.1220 -0.4310 -0.1917
 2992SOL     OW20611   0.781   4.637   1.896  1.1630 -0.1961  0.5457
 2992SOL    HW120612   0.807   4.729   1.893  0.0416  0.0585 -2.2439
 2992SOL    HW220613   0.800   4.601   1.809  0.7507  1.4739 -0.2404
 2993SOL     OW20614   1.076   3.377  13.141  0.7087 -0.5504 -0.2900
 2993SOL    HW120615   1.070   3.348  13.050  0.1538 -0.6541 -0.2240
 2993SOL    HW220616   0.988   3.414  13.152  2.1636  2.2419  1.8542
 2994SOL     OW20617   4.064   3.460   7.763 -0.0276  0.1493 -0.0531
 2994SOL    HW120618   4.017   3.398   7.706  0.1050  0.0197 -0.0219
 2994SOL    HW220619   4.017   3.541   7.746 -0.0825 -0.0781 -0.9730
 2995SOL     OW20620   1.104   0.680   4.114  0.0481  0.0905  0.1275
 2995SOL    HW120621   1.034   0.716   4.169 -1.7623 -0.1017 -2.0718
 2995SOL    HW220622   1.102   0.734   4.036 -1.6206 -0.6497 -0.3573
 2996SOL     OW20623   0.209   3.753   6.337 -0.7858  0.1005  0.5194
 2996SOL    HW120624   0.232   3.661   6.347 -0.3908 -0.0104 -1.2802
 2996SOL    HW220625   0.116   3.749   6.356 -1.0289 -0.9911 -0.8741
 2997SOL     OW20626   2.316   2.017   7.811 -0.4097  0.1154  0.2659
 2997SOL    HW120627   2.352   2.036   7.898  1.3535  0.9040 -0.6442
 2997SOL    HW220628   2.344   2.096   7.766  0.3343  0.7718  1.8522
 2998SOL     OW20629   4.124   1.895   1.808 -0.3493  0.1811 -0.4725
 2998SOL    HW120630   4.100   1.853   1.725  1.4262  0.8134 -1.2948
 2998SOL    HW220631   4.193   1.834   1.833  0.1525  0.2609 -1.6611
 2999SOL     OW20632   4.095   2.635  10.768  0.0968  0.3141  0.4547
 2999SOL    HW120633   4.064   2.566  10.710 -0.6957  1.1249 -0.0966
 2999SOL    HW220634   4.189   2.626  10.749 -0.1257  0.4284 -0.7216
 3000SOL     OW20635   0.403   1.369   9.612 -0.3953  0.7076 -0.0777
 3000SOL    HW120636   0.379   1.454   9.649 -0.5710  0.6307 -0.0165
 3000SOL    HW220637   0.413   1.394   9.520 -1.1446 -1.3742 -0.7186
 3001SOL     OW20638   3.971   3.260   8.073 -0.0453  0.5981 -0.0161
 3001SOL    HW120639   4.032   3.332   8.058  0.9179 -0.3686 -0.7133
 3001SOL    HW220640   4.039   3.196   8.096 -0.7866 -0.3699 -0.4715
 3002SOL     OW20641   4.624   4.500  15.805  0.5318  0.0170  0.1740
 3002SOL    HW120642   4.630   4.538  15.893 -1.2778  0.3020  0.1722
 3002SOL    HW220643   4.652   4.574  15.751  1.5529 -1.1844 -0.9374
 3003SOL     OW20644   4.712   4.156   3.420  0.3294 -0.2805  0.0961
 3003SOL    HW120645   4.696   4.250   3.414  4.1744  0.1500 -3.3681
 3003SOL    HW220646   4.651   4.125   3.353  0.7854 -1.4858  0.2425
 3004SOL     OW20647   2.993   3.751   2.298 -0.1121  0.0267 -0.1381
 3004SOL    HW120648   2.935   3.825   2.284 -0.5516  0.0135  1.5604
 3004SOL    HW220649   3.048   3.735   2.222  1.4962  0.0991  1.0002
 3005SOL     OW20650   2.938   2.841  15.264 -0.2742 -0.3388  0.6820
 3005SOL    HW120651   2.914   2.900  15.335 -0.3537 -0.9715  1.1768
 3005SOL    HW220652   2.870   2.775  15.275 -0.4668 -0.2957 -0.2140
 3006SOL     OW20653   2.323   1.862  17.464 -0.2407  0.3182 -0.0189
 3006SOL    HW120654   2.400   1.819  17.426 -1.3460 -0.9267 -0.8272
 3006SOL    HW220655   2.363   1.929  17.520 -0.0939 -0.4149  0.7628
 3007SOL     OW20656   2.040   3.890  16.162  0.5054  0.5649 -0.3507
 3007SOL    HW120657   1.967   3.868  16.103 -0.4698 -0.7798  1.3569
 3007SOL    HW220658   2.103   3.825  16.133  0.0226 -1.5302  3.3567
 3008SOL     OW20659   2.947   4.399   7.031 -0.1015  0.0342  0.3863
 3008SOL    HW120660   2.883   4.327   7.027 -1.8675  1.7743 -1.9496
 3008SOL    HW220661   2.931   4.438   6.946  0.0604 -1.4639 -0.3309
 3009SOL     OW20662   0.651   2.676   3.364  0.0892 -0.1834 -0.1477
 3009SOL    HW120663   0.719   2.636   3.419 -0.4863 -1.3108 -0.2685
 3009SOL    HW220664   0.671   2.769   3.355  0.0578 -0.0657  1.1088
 3010SOL     OW20665   1.557   1.900  13.376 -0.4769  0.3253  0.3636
 3010SOL    HW120666   1.645   1.907  13.340 -0.9866  0.5503 -0.8553
 3010SOL    HW220667   1.508   1.867  13.301 -0.3595 -0.8755  0.8173
 3011SOL     OW20668   2.811   3.579  16.946  0.0800  0.1654 -0.4828
 3011SOL    HW120669   2.797   3.562  17.039 -0.8908 -0.8750 -0.8181
 3011SOL    HW220670   2.797   3.674  16.949 -2.5138 -0.2442 -0.1570
 3012SOL     OW20671   0.773   0.805   0.298 -0.2911  0.0691  0.5277
 3012SOL    HW120672   0.787   0.715   0.324 -2.8294 -0.2820  0.7193
 3012SOL    HW220673   0.725   0.843   0.372 -0.7335  0.8091 -0.1310
 3013SOL     OW20674   1.326   2.911   4.884 -0.2029 -0.2290  0.2473
 3013SOL    HW120675   1.249   2.965   4.902 -0.2114 -0.0626 -0.2994
 3013SOL    HW220676   1.331   2.923   4.789 -3.6343 -1.2114 -0.0769
 3014SOL     OW20677   1.883   4.504  13.287 -0.2086  1.2078  0.7245
 3014SOL    HW120678   1.796   4.542  13.275 -0.4574 -0.3898 -2.5985
 3014SOL    HW220679   1.935   4.565  13.339  1.5189 -1.2573  1.9043
 3015SOL     OW20680   2.833   1.995  15.438  0.0468 -0.1348  0.0410
 3015SOL    HW120681   2.868   1.980  15.525  0.0078 -0.2189  0.0424
 3015SOL    HW220682   2.907   2.034  15.391 -0.2108  0.2526 -0.0393
 3016SOL     OW20683   4.198   2.722   9.144 -0.0435  0.5501  0.0458
 3016SOL    HW120684   4.227   2.648   9.197  0.9718  2.1603  1.7392
 3016SOL    HW220685   4.224   2.794   9.200  1.7194 -1.7971  2.2341
 3017SOL     OW20686   1.525   2.953  10.250  0.3197  0.0621  0.3531
 3017SOL    HW120687   1.540   3.047  10.260 -0.0027  0.2714 -1.1361
 3017SOL    HW220688   1.485   2.927  10.332  0.9670  0.0948  0.6802
 3018SOL     OW20689   3.062   0.520   6.280  0.0328  0.3685  0.5742
 3018SOL    HW120690   3.085   0.582   6.350 -0.5590 -1.6144  2.5023
 3018SOL    HW220691   3.094   0.563   6.201 -0.8757 -0.1562 -0.0813
 3019SOL     OW20692   3.235   3.156  17.139 -0.0902 -0.0200  0.4961
 3019SOL    HW120693   3.324   3.123  17.155  0.2606  0.8713  0.4203
 3019SOL    HW220694   3.246   3.244  17.177  1.0713  0.4843 -0.9987
 3020SOL     OW20695   4.218   0.869   7.227  0.2303 -0.0851 -0.0942
 3020SOL    HW120696   4.219   0.898   7.318  0.9009  0.9856 -0.4414
 3020SOL    HW220697   4.275   0.925   7.174 -0.5549 -0.4801 -1.3780
 3021SOL     OW20698   1.845   0.006   1.989  0.2589  0.4541 -0.0963
 3021SOL    HW120699   1.887   4.663   1.999 -2.2396 -0.6157  1.2278
 3021SOL    HW220700   1.818   0.035   2.076  0.5038  0.8462 -0.1520
 3022SOL     OW20701   1.070   3.427  16.671 -0.4070 -0.2860  0.7730
 3022SOL    HW120702   1.109   3.490  16.731 -0.5737 -1.3597  2.0178
 3022SOL    HW220703   1.017   3.492  16.624 -0.5447 -1.5314 -0.8033
 3023SOL     OW20704   0.154   4.618   7.289 -0.1850  0.0261  0.1219
 3023SOL    HW120705   0.091   4.585   7.354 -1.0389 -0.7182 -1.0927
 3023SOL    HW220706   0.162   4.551   7.222 -2.6699  0.5173 -0.6620
 3024SOL     OW20707   3.471   0.370   6.642 -0.2904 -0.5748  0.1706
 3024SOL    HW120708   3.507   0.457   6.628  2.6824 -1.9567 -0.6559
 3024SOL    HW220709   3.410   0.364   6.569 -0.3245  0.3572  0.1264
 3025SOL     OW20710   2.933   0.199  16.043  0.4136 -0.1389 -0.3447
 3025SOL    HW120711   2.939   0.168  15.952  1.5557 -0.1062 -0.2733
 3025SOL    HW220712   3.002   0.264  16.051  0.0550  0.0309  1.3754
 3026SOL     OW20713   4.581   1.936   3.393 -0.0745  0.3880  0.0754
 3026SOL    HW120714   4.509   1.878   3.367  0.9445 -1.0581  0.4943
 3026SOL    HW220715   4.558   1.954   3.484 -1.9376 -2.0407  0.1027
 3027SOL     OW20716   4.266   4.083  12.722  0.4009 -0.2830  0.5368
 3027SOL    HW120717   4.237   4.000  12.761 -2.0499 -0.3283 -1.4552
 3027SOL    HW220718   4.321   4.128  12.786  3.2944 -2.6558 -0.2675
 3028SOL     OW20719   1.829   2.372   2.018 -0.0057 -0.3287  0.1007
 3028SOL    HW120720   1.812   2.381   2.111 -0.0368 -0.9596  0.1559
 3028SOL    HW220721   1.760   2.433   1.990  2.4660  2.5958  0.3687
 3029SOL     OW20722   1.632   2.516   1.915 -0.0496 -0.6575 -0.1578
 3029SOL    HW120723   1.647   2.575   1.841 -3.4340  0.4634  0.0793
 3029SOL    HW220724   1.548   2.476   1.895 -0.1824  0.1112 -1.1390
 3030SOL     OW20725   2.095   2.221   5.388 -0.2947  0.0418 -0.3969
 3030SOL    HW120726   2.048   2.196   5.467 -0.8726  2.6500  0.0996
 3030SOL    HW220727   2.091   2.143   5.334 -0.9374  0.9718 -1.7061
 3031SOL     OW20728   1.202   0.130   9.087 -0.2262  0.4338  0.3061
 3031SOL    HW120729   1.174   0.092   9.170 -0.9869  0.5432  0.1014
 3031SOL    HW220730   1.132   0.196   9.086 -1.1543 -0.5966 -2.8122
 3032SOL     OW20731   1.978   0.623  15.969  0.4550 -0.2315  0.2546
 3032SOL    HW120732   2.020   0.708  15.955  0.1842  0.3231  2.9156
 3032SOL    HW220733   1.885   0.645  15.967  0.4499 -0.1182  2.2646
 3033SOL     OW20734   2.747   3.063   9.215 -0.1061 -0.5727  0.1168
 3033SOL    HW120735   2.835   3.059   9.251 -0.7985  1.4877  2.0587
 3033SOL    HW220736   2.762   3.114   9.136 -1.5678  1.4053  1.1079
 3034SOL     OW20737   2.128   0.392  17.242 -0.1899 -0.1690  0.2000
 3034SOL    HW120738   2.068   0.415  17.171 -1.5991 -2.1637  0.7494
 3034SOL    HW220739   2.148   0.303  17.213 -2.5469 -0.3777 -0.7927
 3035SOL     OW20740   2.348   1.031   8.517 -0.1662  0.7346  0.2317
 3035SOL    HW120741   2.431   1.003   8.556  0.5822  0.3694 -1.6413
 3035SOL    HW220742   2.286   1.015   8.588  1.3110  0.2492  1.4055
 3036SOL     OW20743   2.326   4.319   5.707  0.1389 -0.5325  0.3048
 3036SOL    HW120744   2.295   4.234   5.739  0.6908 -1.3103 -1.2052
 3036SOL    HW220745   2.398   4.284   5.655  1.0799 -1.2649  2.0782
 3037SOL     OW20746   3.765   4.308   8.264  0.1094 -0.6937 -0.4237
 3037SOL    HW120747   3.773   4.394   8.225 -0.0749  0.3427  1.8258
 3037SOL    HW220748   3.748   4.342   8.351 -0.3656 -2.4918  0.1998
 3038SOL     OW20749   3.807   0.850   2.632 -0.2627  0.8137 -0.0534
 3038SOL    HW120750   3.827   0.911   2.703  0.0738  1.7375 -0.9390
 3038SOL    HW220751   3.763   0.774   2.669  1.4135 -1.0615 -1.8888
 3039SOL     OW20752   2.499   1.438   5.753  0.1530  0.7744 -0.4233
 3039SOL    HW120753   2.493   1.417   5.846 -0.3849  2.3005 -0.1158
 3039SOL    HW220754   2.429   1.386   5.713 -0.3666 -0.1423  1.6565
 3040SOL     OW20755   1.244   3.382   6.226 -0.0158 -0.4689 -0.4914
 3040SOL    HW120756   1.175   3.320   6.202 -0.5953  0.7557 -1.9976
 3040SOL    HW220757   1.206   3.470   6.218  0.5580 -0.5202 -3.6302
 3041SOL     OW20758   3.849   3.955   7.741  0.0533  0.0207  0.1243
 3041SOL    HW120759   3.769   3.984   7.695 -0.5691 -2.4193 -0.3263
 3041SOL    HW220760   3.913   3.996   7.683 -0.3444  0.2694 -0.1480
 3042SOL     OW20761   2.297   4.473   4.646 -0.2234  0.3364  0.3560
 3042SOL    HW120762   2.222   4.532   4.636 -0.7295 -0.3397  0.1741
 3042SOL    HW220763   2.348   4.512   4.575 -0.5644  0.2213  0.0461
 3043SOL     OW20764   1.543   0.038   3.563  0.6438 -0.2920  0.2634
 3043SOL    HW120765   1.605   4.709   3.574 -0.7614 -1.7004 -1.0390
 3043SOL    HW220766   1.528   0.056   3.655 -0.1902  0.2881  0.0202
 3044SOL     OW20767   2.492   1.657   4.353 -0.1238  0.2317  0.5642
 3044SOL    HW120768   2.536   1.573   4.334 -0.2171  0.2349  0.3251
 3044SOL    HW220769   2.538   1.683   4.432  1.3807  1.4935 -0.7377
 3045SOL     OW20770   1.902   3.152   1.404 -0.3433  0.5494  0.7546
 3045SOL    HW120771   1.914   3.246   1.422 -0.9666  0.9944 -1.2060
 3045SOL    HW220772   1.809   3.148   1.379 -0.5029 -1.0396  1.6108
 3046SOL     OW20773   3.432   3.933   0.871 -0.9928 -0.2949 -0.3790
 3046SOL    HW120774   3.420   3.972   0.784 -0.6436 -0.5879 -0.5564
 3046SOL    HW220775   3.385   3.986   0.937 -1.0315  0.8528 -1.3237
 3047SOL     OW20776   2.378   0.904   4.880 -0.1343 -0.2744  0.3435
 3047SOL    HW120777   2.464   0.898   4.838 -0.8594 -1.7038 -0.9638
 3047SOL    HW220778   2.329   0.834   4.836 -0.1394 -1.9904  3.1120
 3048SOL     OW20779   1.071   2.230   5.267 -0.0300 -0.3678  0.1624
 3048SOL    HW120780   1.081   2.145   5.224  2.6575  0.6223 -1.1654
 3048SOL    HW220781   1.094   2.286   5.193  0.7369 -0.1929  0.5368
 3049SOL     OW20782   3.255   1.665   6.020 -0.2014 -0.1514  0.9408
 3049SOL    HW120783   3.347   1.642   6.031  0.5955  2.1948 -0.7330
 3049SOL    HW220784   3.228   1.683   6.110 -0.4558  2.2740  0.3809
 3050SOL     OW20785   1.077   1.178  12.055  0.1554  0.0032 -0.8127
 3050SOL    HW120786   1.013   1.140  11.994  0.9462  0.5268 -1.9653
 3050SOL    HW220787   1.154   1.153  12.004  0.7795 -0.8203  0.5553
 3051SOL     OW20788   2.826   1.348   6.019 -0.0306  0.5108 -0.3452
 3051SOL    HW120789   2.805   1.363   5.927 -1.4925  1.2181  0.0931
 3051SOL    HW220790   2.793   1.430   6.056  1.2577  0.2853  1.3180
 3052SOL     OW20791   2.573   4.590  17.317 -0.5694 -0.6900  0.0515
 3052SOL    HW120792   2.517   4.536  17.260 -0.7424 -2.5351  1.9715
 3052SOL    HW220793   2.513   4.617  17.386  1.1360  0.3073  1.1296
 3053SOL     OW20794   2.651   2.937   5.014 -0.1182 -0.4458 -0.1393
 3053SOL    HW120795   2.726   2.972   4.965  0.7053 -0.3218  1.1971
 3053SOL    HW220796   2.622   3.015   5.063  0.0270 -0.1738 -0.4880
 3054SOL     OW20797   1.870   2.276   3.547 -0.0167  0.2156  0.5631
 3054SOL    HW120798   1.950   2.228   3.568  0.0669  0.5370  0.9801
 3054SOL    HW220799   1.865   2.272   3.452  1.4497 -0.3225  0.5077
 3055SOL     OW20800   4.402   2.367   6.752  0.0639 -0.5005  0.1937
 3055SOL    HW120801   4.407   2.443   6.810 -0.1350 -0.8770  0.7052
 3055SOL    HW220802   4.307   2.357   6.760  0.1998 -0.2877  2.1773
 3056SOL     OW20803   3.388   4.226   4.944 -0.1869 -0.1250 -0.0295
 3056SOL    HW120804   3.375   4.285   4.869  0.8765  0.1743  0.0196
 3056SOL    HW220805   3.471   4.241   4.989 -0.2219  0.8937 -0.3016
 3057SOL     OW20806   4.457   4.663  11.191 -0.3762  0.2666  0.2822
 3057SOL    HW120807   4.437   4.692  11.280 -2.2655  1.4363 -0.5335
 3057SOL    HW220808   4.516   4.590  11.211 -0.4097  0.4045  0.8608
 3058SOL     OW20809   4.738   1.759   3.083 -0.9647 -0.1093 -0.2717
 3058SOL    HW120810   4.702   1.745   2.996 -0.8016 -0.1933 -0.3252
 3058SOL    HW220811   4.725   1.853   3.095  0.1765  0.0753 -0.4500
 3059SOL     OW20812   4.620   0.790   8.942 -0.7337 -0.4276  0.1258
 3059SOL    HW120813   4.571   0.870   8.925  2.6483  1.2340 -1.7576
 3059SOL    HW220814   4.568   0.747   9.010  1.0703 -4.4461 -1.0348
 3060SOL     OW20815   1.369   4.079   9.084  0.1573  0.6138 -0.3595
 3060SOL    HW120816   1.321   4.143   9.031 -0.2416  0.5110 -0.1166
 3060SOL    HW220817   1.305   4.011   9.101 -0.8417  1.7228  0.3261
 3061SOL     OW20818   2.444   3.728   6.725  0.5310 -0.2491 -0.6491
 3061SOL    HW120819   2.375   3.771   6.675 -0.4212 -0.1332  0.7486
 3061SOL    HW220820   2.476   3.660   6.666 -1.2138 -0.2079 -1.6252
 3062SOL     OW20821   0.892   0.374   8.857  0.8633 -0.0427  0.3436
 3062SOL    HW120822   0.886   0.458   8.812  0.4188 -0.6302 -0.7025
 3062SOL    HW220823   0.817   0.368   8.917  0.8052 -0.3763  0.2390
 3063SOL     OW20824   1.596   4.707  16.446  0.0171  0.1652  0.7068
 3063SOL    HW120825   1.593   4.671  16.534 -1.4928  1.8435  1.3445
 3063SOL    HW220826   1.503   4.721  16.427  0.2622 -1.7134 -1.9167
 3064SOL     OW20827   2.096   0.971   9.960  0.1989 -0.2732 -0.2373
 3064SOL    HW120828   2.184   0.952   9.992 -0.2532  1.2718  1.8866
 3064SOL    HW220829   2.063   1.046  10.009 -0.3619 -1.5417  1.3347
 3065SOL     OW20830   1.191   0.599   5.726 -0.2927  0.0319  0.3258
 3065SOL    HW120831   1.179   0.684   5.683 -1.3455  0.7486  2.0741
 3065SOL    HW220832   1.113   0.579   5.776  0.6255 -0.5492  1.5289
 3066SOL     OW20833   1.060   3.775   5.476 -0.4924 -0.3886 -0.1307
 3066SOL    HW120834   0.979   3.823   5.493  0.4063  0.5661  1.4921
 3066SOL    HW220835   1.074   3.787   5.382  0.5275  1.6848  0.2793
 3067SOL     OW20836   2.149   1.273  11.425  0.1147  0.1753 -0.3692
 3067SOL    HW120837   2.054   1.279  11.436 -0.0193 -0.1386 -1.3649
 3067SOL    HW220838   2.165   1.192  11.376 -0.4849  0.3909 -0.9155
 3068SOL     OW20839   2.714   0.036   9.215  0.1825  0.4128  0.4079
 3068SOL    HW120840   2.800   4.739   9.216 -0.0150  0.0004  1.3101
 3068SOL    HW220841   2.654   4.706   9.230 -0.1874  0.6878  0.2690
 3069SOL     OW20842   1.117   0.818   3.887 -0.7306 -0.3752 -0.4995
 3069SOL    HW120843   1.056   0.809   3.815  0.7312  2.1451 -2.0462
 3069SOL    HW220844   1.129   0.912   3.875 -2.0811  0.1665  2.3298
 3070SOL     OW20845   0.828   4.353   8.877 -0.7143 -0.1864  0.1080
 3070SOL    HW120846   0.773   4.355   8.955 -1.3560 -0.8075 -0.3255
 3070SOL    HW220847   0.767   4.333   8.807  0.2261  2.0157 -1.3521
 3071SOL     OW20848   2.099   0.878   5.144  0.2943 -0.3414  0.4155
 3071SOL    HW120849   2.066   0.882   5.234 -0.4850 -0.0606  0.1165
 3071SOL    HW220850   2.194   0.874   5.158  0.1618 -0.7164  1.2464
 3072SOL     OW20851   2.297   4.237  11.902 -0.1479 -0.0511 -0.2387
 3072SOL    HW120852   2.208   4.209  11.881 -1.0404  0.2162  3.1056
 3072SOL    HW220853   2.323   4.160  11.953 -0.0046  0.1486 -0.0067
 3073SOL     OW20854   2.231   2.463   0.531  0.5656  0.2003  0.0901
 3073SOL    HW120855   2.261   2.544   0.489  1.7312  1.3342  3.1178
 3073SOL    HW220856   2.184   2.415   0.464 -0.7189  3.0874 -1.0790
 3074SOL     OW20857   0.774   1.679   1.028 -0.7496 -0.0355  0.3303
 3074SOL    HW120858   0.816   1.743   0.969 -1.0129  0.6139  0.8464
 3074SOL    HW220859   0.836   1.609   1.008  0.3517  0.4874  1.9681
 3075SOL     OW20860   0.781   2.506   1.902  0.2087  0.3360 -0.0248
 3075SOL    HW120861   0.723   2.455   1.845  1.1342  0.3927 -1.0215
 3075SOL    HW220862   0.864   2.494   1.856  0.5043  0.8667  0.3608
 3076SOL     OW20863   0.301   3.084   9.561 -0.8118  0.6896  0.1119
 3076SOL    HW120864   0.347   3.076   9.645  1.0962  0.6547 -0.9384
 3076SOL    HW220865   0.362   3.143   9.517 -1.0446  1.9216  1.4321
 3077SOL     OW20866   3.891   3.989   6.269  0.9756 -0.1210 -0.1354
 3077SOL    HW120867   3.895   3.977   6.174  1.8402 -3.7484  0.3762
 3077SOL    HW220868   3.911   4.082   6.256  1.9497 -0.1427  1.2065
 3078SOL     OW20869   2.369   0.190  17.446  0.7681 -0.3003  0.6792
 3078SOL    HW120870   2.449   0.208  17.496  1.0319 -0.0941  0.1845
 3078SOL    HW220871   2.320   0.271  17.461  1.4712  0.0086  1.3038
 3079SOL     OW20872   0.877   3.244   3.216  0.2167 -0.1349  0.1401
 3079SOL    HW120873   0.899   3.277   3.303 -0.3278 -2.0407  1.0086
 3079SOL    HW220874   0.782   3.230   3.222  0.2286 -1.0115 -1.8994
 3080SOL     OW20875   4.131   0.922   3.054  0.0197  0.0734  0.2656
 3080SOL    HW120876   4.212   0.905   3.006 -1.2294 -1.2146 -1.3878
 3080SOL    HW220877   4.142   1.017   3.058 -0.0242  0.0781  0.2721
 3081SOL     OW20878   2.142   1.484   4.084  0.5007  0.1698 -0.4755
 3081SOL    HW120879   2.177   1.510   4.169  0.8952 -0.2839 -0.4965
 3081SOL    HW220880   2.159   1.564   4.034  0.4821  0.4151 -0.0844
 3082SOL     OW20881   0.571   4.127   5.725  0.6629  0.0567  0.3734
 3082SOL    HW120882   0.603   4.127   5.635 -0.7621 -3.1114 -0.1389
 3082SOL    HW220883   0.569   4.033   5.746 -0.7355 -0.3167 -1.4973
 3083SOL     OW20884   4.692   0.041   2.351 -0.0764 -0.0168  0.7158
 3083SOL    HW120885   4.665   0.128   2.323  1.9107 -0.0447 -1.3241
 3083SOL    HW220886   0.039   0.036   2.319 -0.5531  1.9559 -0.9430
 3084SOL     OW20887   3.622   2.761   2.312  0.4449 -0.0074 -0.5289
 3084SOL    HW120888   3.580   2.847   2.308 -0.1691 -0.3036 -0.4166
 3084SOL    HW220889   3.587   2.710   2.385 -0.3446  1.6788  0.2732
 3085SOL     OW20890   2.774   3.785   1.886 -0.1660 -0.0936  0.1396
 3085SOL    HW120891   2.725   3.709   1.916 -1.0395  0.2358 -0.4392
 3085SOL    HW220892   2.775   3.831   1.970  0.3842  0.1904 -0.0244
 3086SOL     OW20893   2.448   2.474   5.297  0.5301 -0.4457  0.2333
 3086SOL    HW120894   2.385   2.456   5.227 -0.7614 -0.6279  1.4334
 3086SOL    HW220895   2.449   2.569   5.286 -0.2217 -0.3395  1.0526
 3087SOL     OW20896   0.236   2.102   6.608  0.2452  0.1177  0.2005
 3087SOL    HW120897   0.313   2.089   6.663  0.5414  0.1863 -0.1973
 3087SOL    HW220898   0.277   2.140   6.530 -3.0718  0.3805 -1.4146
 3088SOL     OW20899   3.664   2.253   3.215 -0.5006  0.2102 -0.8256
 3088SOL    HW120900   3.572   2.269   3.233 -0.4338  0.9359 -1.1711
 3088SOL    HW220901   3.713   2.305   3.279 -0.6750  1.4682 -1.7218
 3089SOL     OW20902   2.585   2.362  15.157  0.5198  0.4969 -0.1119
 3089SOL    HW120903   2.532   2.414  15.218 -0.1069  0.1608 -0.3756
 3089SOL    HW220904   2.527   2.289  15.138 -1.5421  2.0639  0.1420
 3090SOL     OW20905   4.461   2.673   7.133 -0.6975  0.2568 -0.2440
 3090SOL    HW120906   4.463   2.628   7.048  0.0931 -2.5068  1.2257
 3090SOL    HW220907   4.386   2.633   7.177 -0.1555 -2.0532 -1.3826
 3091SOL     OW20908   0.977   2.052   7.131  0.3532 -0.5172  0.1348
 3091SOL    HW120909   0.906   2.076   7.190  0.5868  0.0585  0.1889
 3091SOL    HW220910   0.953   1.962   7.110 -0.7713  0.2785 -1.9894
 3092SOL     OW20911   3.222   3.229   9.262 -0.4782 -0.0758  0.6006
 3092SOL    HW120912   3.212   3.321   9.238 -0.5962  0.1373  1.4882
 3092SOL    HW220913   3.295   3.202   9.205 -1.8168  0.0518 -1.1800
 3093SOL     OW20914   1.159   0.553   9.486  0.2236  0.1738  0.2884
 3093SOL    HW120915   1.251   0.557   9.460 -0.1005 -0.0996 -0.8640
 3093SOL    HW220916   1.155   0.580   9.578 -1.2037  2.3261 -0.4146
 3094SOL     OW20917   2.663   3.696   5.194  0.3996  0.0643  0.3593
 3094SOL    HW120918   2.673   3.609   5.155  0.1418 -1.7004  4.2331
 3094SOL    HW220919   2.751   3.725   5.219  1.1123 -2.3313  0.5684
 3095SOL     OW20920   1.361   4.257   5.255  0.4879 -0.1282  0.1418
 3095SOL    HW120921   1.303   4.249   5.179  1.8141 -1.8647 -0.6956
 3095SOL    HW220922   1.373   4.163   5.269  2.6230  0.2623  0.7870
 3096SOL     OW20923   0.401   0.525   8.058  0.3532  0.2906 -0.5689
 3096SOL    HW120924   0.318   0.526   8.010  0.3773 -0.9449 -0.6478
 3096SOL    HW220925   0.425   0.616   8.045 -1.1226  0.5631 -1.3135
 3097SOL     OW20926   1.540   2.760   7.151  0.6030  0.2944  0.0179
 3097SOL    HW120927   1.605   2.706   7.196  0.2213  0.3778  0.6709
 3097SOL    HW220928   1.539   2.713   7.067 -0.9426  0.5596 -0.0964
 3098SOL     OW20929   4.429   2.099   3.028  0.0410 -0.0944  0.2218
 3098SOL    HW120930   4.357   2.107   3.090  0.6455  0.1472  0.8851
 3098SOL    HW220931   4.388   2.050   2.957  1.0958 -1.4581  0.5678
 3099SOL     OW20932   4.505   3.685   8.490 -0.1369  0.3274 -0.0803
 3099SOL    HW120933   4.549   3.602   8.506 -0.4427 -0.0910 -1.3717
 3099SOL    HW220934   4.437   3.691   8.557  0.7257 -2.8928  1.0892
 3100SOL     OW20935   2.641   3.105   2.160  0.3315 -0.0708 -0.5364
 3100SOL    HW120936   2.547   3.124   2.159  0.3622  0.0919 -0.4361
 3100SOL    HW220937   2.676   3.179   2.211 -1.8970 -0.1069  1.0465
 3101SOL     OW20938   1.494   1.784  13.610 -0.1190 -0.4588  0.1139
 3101SOL    HW120939   1.510   1.808  13.519 -0.8374 -4.8656 -1.1723
 3101SOL    HW220940   1.404   1.753  13.601 -1.1036  2.3251  0.4343
 3102SOL     OW20941   0.346   1.420   8.488  0.6369 -0.2850 -0.1126
 3102SOL    HW120942   0.424   1.365   8.479  0.9497  0.0603  0.4866
 3102SOL    HW220943   0.293   1.392   8.413  1.1774 -0.9703 -0.2465
 3103SOL     OW20944   4.299   2.295   7.467 -0.4397 -0.0344  0.7159
 3103SOL    HW120945   4.260   2.233   7.530  0.4144 -1.1723  0.1205
 3103SOL    HW220946   4.383   2.318   7.506  0.0012  0.6775 -0.6854
 3104SOL     OW20947   4.427   3.014   9.313 -0.0653 -0.0754 -0.1248
 3104SOL    HW120948   4.341   2.975   9.326 -0.4123  0.6747 -0.1553
 3104SOL    HW220949   4.492   2.944   9.312  0.4990  0.4554 -0.7594
 3105SOL     OW20950   3.693   1.297   2.257  0.4208 -0.4951 -0.3051
 3105SOL    HW120951   3.763   1.236   2.276 -0.3453 -0.7782  1.5849
 3105SOL    HW220952   3.629   1.236   2.219  0.8361 -0.1919 -1.4946
 3106SOL     OW20953   4.054   4.166   2.223  0.7183  0.2585  0.0385
 3106SOL    HW120954   4.013   4.183   2.138  0.6932  2.0636  0.4115
 3106SOL    HW220955   4.023   4.241   2.274  1.2662 -0.4412  1.3938
 3107SOL     OW20956   3.338   3.497  16.485 -0.4800  0.1401 -0.4410
 3107SOL    HW120957   3.367   3.431  16.547  0.1388  1.3698  0.5817
 3107SOL    HW220958   3.248   3.465  16.474 -1.3819  2.2051  0.8401
 3108SOL     OW20959   1.688   0.895   7.921  0.4815 -0.0407  0.1283
 3108SOL    HW120960   1.769   0.895   7.972  0.8778 -0.4674 -0.5041
 3108SOL    HW220961   1.724   0.842   7.850  1.6818  2.1785 -0.9009
 3109SOL     OW20962   3.011   4.262   4.345 -0.3423 -0.2021 -0.6990
 3109SOL    HW120963   2.920   4.235   4.358  0.2685 -0.8760  2.0341
 3109SOL    HW220964   2.997   4.285   4.253 -1.2350  1.3335 -0.1811
 3110SOL     OW20965   0.147   1.485   1.861 -1.1023 -0.1846 -0.7952
 3110SOL    HW120966   0.241   1.491   1.880 -1.3743  0.1930  0.4500
 3110SOL    HW220967   0.140   1.433   1.782 -0.7066 -0.4261 -0.6713
 3111SOL     OW20968   0.214   2.613   4.325 -0.2984  0.2581  0.4871
 3111SOL    HW120969   0.301   2.622   4.364 -1.1546  0.0640  2.4476
 3111SOL    HW220970   0.169   2.574   4.400 -3.3315 -1.0974 -2.0562
 3112SOL     OW20971   1.692   2.956   1.767 -0.0063  0.6553 -0.4292
 3112SOL    HW120972   1.770   2.904   1.745  1.4132  2.7466 -0.4290
 3112SOL    HW220973   1.667   2.985   1.680  1.9732  3.6772 -0.0101
 3113SOL     OW20974   1.445   2.748   5.563 -0.7886 -0.1691  0.1724
 3113SOL    HW120975   1.375   2.769   5.502 -1.8542 -0.4319  1.3086
 3113SOL    HW220976   1.398   2.727   5.644  1.9248 -0.0899  1.7643
 3114SOL     OW20977   0.597   2.375   8.864  0.1189 -0.3626 -0.1857
 3114SOL    HW120978   0.671   2.373   8.924  0.2024  1.8469 -0.2100
 3114SOL    HW220979   0.637   2.333   8.789  0.1744  0.8959 -0.8681
 3115SOL     OW20980   0.630   2.998   7.851 -0.1443 -0.3215  0.0630
 3115SOL    HW120981   0.713   3.023   7.810  0.4193 -2.2041  0.0591
 3115SOL    HW220982   0.576   3.077   7.848 -1.8401 -1.5419 -1.2270
 3116SOL     OW20983   2.239   1.445   5.595  0.1996  0.3947  1.0354
 3116SOL    HW120984   2.197   1.382   5.536 -0.3007  2.0090 -0.3301
 3116SOL    HW220985   2.274   1.508   5.532  1.4989 -0.1961  1.1789
 3117SOL     OW20986   1.774   1.711   2.611 -0.0198 -0.2583  0.0760
 3117SOL    HW120987   1.766   1.793   2.563 -0.9309 -0.6275 -0.4125
 3117SOL    HW220988   1.864   1.686   2.594 -0.2388 -0.1605 -1.2267
 3118SOL     OW20989   2.889   3.727   4.088  0.1236  0.4407 -0.4573
 3118SOL    HW120990   2.803   3.686   4.099 -0.3833  1.8116  0.6295
 3118SOL    HW220991   2.859   3.817   4.102 -1.1372 -0.0383 -0.0488
 3119SOL     OW20992   1.095   2.219   9.063 -0.6336 -0.3523 -0.7067
 3119SOL    HW120993   1.134   2.261   8.987 -0.2857 -0.6854 -0.7126
 3119SOL    HW220994   1.150   2.237   9.140 -0.3437 -1.3603 -0.6785
 3120SOL     OW20995   3.927   0.463   0.366 -0.0077  0.0931  0.1049
 3120SOL    HW120996   3.863   0.534   0.359 -1.2026 -0.8688  1.1940
 3120SOL    HW220997   4.005   0.492   0.318  0.8493  0.0189  1.4807
 3121SOL     OW20998   1.881   4.611   4.303  0.4850 -0.0336  0.3033
 3121SOL    HW120999   1.970   4.632   4.276  0.9886 -0.1094  1.8670
 3121SOL    HW221000   1.851   4.702   4.299 -1.5074 -0.6591  1.2480
 3122SOL     OW21001   2.104   2.264  11.070  0.9308  0.6813  0.1637
 3122SOL    HW121002   2.166   2.318  11.021  0.9179  1.4165  0.9556
 3122SOL    HW221003   2.134   2.175  11.056 -1.9083 -0.2898  0.1825
 3123SOL     OW21004   0.027   2.051   1.622  0.0141  0.0745  0.1826
 3123SOL    HW121005   0.006   2.066   1.530  2.0946 -0.4169 -0.3741
 3123SOL    HW221006   0.087   1.977   1.614  1.7863  1.7187 -1.7210
 3124SOL     OW21007   2.170   3.499   5.919  0.3192  0.5160 -0.4241
 3124SOL    HW121008   2.186   3.521   6.010 -1.8103 -0.3697  0.1740
 3124SOL    HW221009   2.197   3.408   5.921 -1.1706  0.0915  0.1829
 3125SOL     OW21010   2.945   1.921   4.624  1.0793  0.2392  0.2433
 3125SOL    HW121011   2.974   1.887   4.708 -0.8614  0.5621  1.0266
 3125SOL    HW221012   2.892   1.997   4.646  1.0802  0.0446  0.9283
 3126SOL     OW21013   3.242   0.357  12.759  0.6943  0.3123 -0.3020
 3126SOL    HW121014   3.171   0.351  12.822  2.2212 -0.2431  1.3648
 3126SOL    HW221015   3.216   0.279  12.710  1.1010 -0.4790  0.7467
 3127SOL     OW21016   2.630   2.971   9.568  0.4142  0.0303  0.3643
 3127SOL    HW121017   2.685   2.905   9.526  0.1156 -0.0264  0.0681
 3127SOL    HW221018   2.674   3.055   9.556  1.4071 -0.7149 -1.2022
 3128SOL     OW21019   2.395   2.318   9.416 -0.4615  0.0499 -0.1658
 3128SOL    HW121020   2.445   2.263   9.477  1.2559 -0.0687 -1.6682
 3128SOL    HW221021   2.417   2.278   9.332 -0.4609  2.1421 -1.1610
 3129SOL     OW21022   4.129   4.082   5.746  0.3621 -0.2897 -0.0847
 3129SOL    HW121023   4.084   4.042   5.821 -0.7335 -0.3257 -0.7624
 3129SOL    HW221024   4.050   4.112   5.701  0.9309  1.1487 -0.1145
 3130SOL     OW21025   3.045   4.556   8.273 -0.5651 -0.0119 -0.0588
 3130SOL    HW121026   2.980   4.549   8.203  0.3206 -1.3039 -0.7509
 3130SOL    HW221027   3.057   4.462   8.288  0.1922  0.1714  0.4466
 3131SOL     OW21028   3.129   3.769  10.032 -0.3749 -0.0552  0.1260
 3131SOL    HW121029   3.062   3.763  10.100 -0.6387 -1.9189 -0.3121
 3131SOL    HW221030   3.086   3.744   9.950 -0.0002  1.8820 -0.6550
 3132SOL     OW21031   0.348   3.542   7.097 -0.1799  0.6413 -0.1794
 3132SOL    HW121032   0.346   3.613   7.033  0.4842 -1.6795 -2.8211
 3132SOL    HW221033   0.362   3.598   7.173 -0.5472  0.9968 -0.3753
 3133SOL     OW21034   3.277   4.573   5.080 -0.1340 -0.6577 -0.0511
 3133SOL    HW121035   3.299   4.564   4.987 -1.7957  0.3196 -0.5429
 3133SOL    HW221036   3.359   4.597   5.124 -0.8123  1.8157 -0.1403
 3134SOL     OW21037   3.070   1.404  15.132 -0.4554 -0.1110 -0.3288
 3134SOL    HW121038   3.134   1.349  15.088  2.0258  0.5567  2.4484
 3134SOL    HW221039   3.025   1.414  15.048  0.9453  0.0886 -1.0553
 3135SOL     OW21040   0.209   0.024   0.942  0.3502 -0.4548  0.0456
 3135SOL    HW121041   0.212   0.066   1.028  2.0617 -2.0564  0.7784
 3135SOL    HW221042   0.301   0.034   0.919  0.4525 -2.9553 -0.5655
 3136SOL     OW21043   2.418   2.304   7.753  0.2449  0.5337  0.2355
 3136SOL    HW121044   2.434   2.393   7.721 -2.1332  0.5693 -0.8844
 3136SOL    HW221045   2.423   2.324   7.847 -0.2669  1.0482  0.1587
 3137SOL     OW21046   2.234   2.862  16.383  0.1100  0.0043 -0.0768
 3137SOL    HW121047   2.252   2.932  16.321 -2.6718  1.3317  0.6021
 3137SOL    HW221048   2.275   2.890  16.465  2.9343 -0.4492 -1.3488
 3138SOL     OW21049   0.558   3.563   2.444 -0.2370 -0.2102 -1.0907
 3138SOL    HW121050   0.613   3.508   2.388  1.4891 -1.4805  1.8682
 3138SOL    HW221051   0.507   3.598   2.371 -2.7504  1.0100  1.2467
 3139SOL     OW21052   1.308   0.985   7.103 -0.3816  0.1239 -0.3217
 3139SOL    HW121053   1.336   1.075   7.087  0.3496  0.3189  2.1502
 3139SOL    HW221054   1.300   0.986   7.198 -1.4551 -1.8442 -0.3834
 3140SOL     OW21055   3.742   0.129   0.316  0.3611 -0.0617  0.6116
 3140SOL    HW121056   3.775   0.073   0.386  0.8159 -1.1775 -0.4988
 3140SOL    HW221057   3.813   0.179   0.277  0.3939  0.3199  1.1695
 3141SOL     OW21058   0.324   3.791   1.108  0.2461  0.1313 -0.0425
 3141SOL    HW121059   0.349   3.862   1.050 -2.0176 -0.5408 -1.8524
 3141SOL    HW221060   0.356   3.720   1.053 -1.2888 -1.7557  1.4987
 3142SOL     OW21061   3.311   0.355  12.407  0.4946 -0.2102  0.0234
 3142SOL    HW121062   3.272   0.305  12.479 -0.5989  1.5361  0.6426
 3142SOL    HW221063   3.250   0.319  12.343 -2.0134  1.6292  1.3793
 3143SOL     OW21064   0.419   0.712   6.819  0.1870  0.1401 -0.1922
 3143SOL    HW121065   0.334   0.752   6.838  0.3580  0.7124 -0.6189
 3143SOL    HW221066   0.430   0.720   6.724  1.3151 -0.8202 -0.1299
 3144SOL     OW21067   2.552   4.167   7.931  0.7049 -0.6466 -0.3498
 3144SOL    HW121068   2.525   4.176   8.022 -1.0145  0.1765 -0.9285
 3144SOL    HW221069   2.501   4.094   7.897 -1.5633  0.3109  0.9634
 3145SOL     OW21070   1.830   4.697  14.809  0.3549  0.0540 -0.6807
 3145SOL    HW121071   1.864   4.608  14.801  0.8935  0.4132 -2.3016
 3145SOL    HW221072   1.826   4.722  14.902  2.3529  1.4217 -0.9470
 3146SOL     OW21073   3.167   3.263   5.298  0.3054 -0.3341 -0.3369
 3146SOL    HW121074   3.206   3.189   5.344  2.2943 -0.1057 -1.6581
 3146SOL    HW221075   3.234   3.286   5.234 -1.4447 -1.8555 -2.7089
 3147SOL     OW21076   1.550   1.127   6.751 -0.5101 -0.0771 -0.0470
 3147SOL    HW121077   1.558   1.034   6.771  0.1180  0.1353  0.6934
 3147SOL    HW221078   1.495   1.128   6.673  1.2756  0.3593 -1.3091
 3148SOL     OW21079   3.352   4.091   5.321  0.3184 -0.1023  0.4783
 3148SOL    HW121080   3.323   4.166   5.270 -0.3102 -1.7336 -1.5980
 3148SOL    HW221081   3.420   4.055   5.263  1.2942  0.1542  1.4667
 3149SOL     OW21082   2.168   0.468  12.614  0.2278  0.2885 -0.1320
 3149SOL    HW121083   2.083   0.459  12.572 -0.3453  3.0248  0.4195
 3149SOL    HW221084   2.225   0.411  12.562 -0.9357  0.1458 -1.2455
 3150SOL     OW21085   4.045   1.116  11.034  0.1499 -0.8065  0.3310
 3150SOL    HW121086   4.068   1.196  11.082  1.5152 -1.3630  0.5910
 3150SOL    HW221087   4.125   1.065  11.042  1.1017  0.7720  1.0162
 3151SOL     OW21088   3.808   0.013   6.788 -0.5298 -0.2621 -0.4638
 3151SOL    HW121089   3.785   4.683   6.732  0.9633 -2.4989  1.8448
 3151SOL    HW221090   3.843   0.077   6.726 -0.3941 -1.4980 -1.6452
 3152SOL     OW21091   1.309   3.271  16.551  0.0194  0.9190 -0.6832
 3152SOL    HW121092   1.216   3.252  16.563  0.4732 -1.5559 -1.0639
 3152SOL    HW221093   1.351   3.227  16.625 -3.8881 -0.9752  0.4281
 3153SOL     OW21094   3.359   2.711   4.234  0.3075  0.2341 -0.0498
 3153SOL    HW121095   3.432   2.681   4.180 -0.0868 -2.3032  0.8593
 3153SOL    HW221096   3.406   2.777   4.285  0.4486  1.0843 -1.2542
 3154SOL     OW21097   2.458   2.891   3.366 -0.5484  0.4976 -0.0775
 3154SOL    HW121098   2.398   2.954   3.408 -1.3789 -0.2707 -0.1109
 3154SOL    HW221099   2.408   2.809   3.366  0.4254 -0.0907 -0.5099
 3155SOL     OW21100   4.056   2.106   7.468  0.0982  0.4432 -0.3355
 3155SOL    HW121101   4.134   2.086   7.417 -0.8992 -1.6433 -1.0361
 3155SOL    HW221102   4.019   2.179   7.419 -0.7772 -0.4875 -1.0588
 3156SOL     OW21103   4.196   3.938   8.004 -0.8258 -0.0525 -0.6450
 3156SOL    HW121104   4.139   3.871   8.042  0.0775 -0.5093 -0.1173
 3156SOL    HW221105   4.283   3.908   8.030  0.0886  2.1601 -1.1426
 3157SOL     OW21106   3.003   1.453   9.500 -0.4429  0.0507  0.0333
 3157SOL    HW121107   3.084   1.446   9.449  1.1008  0.9275  2.3710
 3157SOL    HW221108   2.963   1.379   9.455 -0.1628  0.9016 -1.6031
 3158SOL     OW21109   0.924   2.318  14.864 -0.4722  0.1270  0.3741
 3158SOL    HW121110   1.002   2.373  14.860 -0.1248 -0.4361 -0.6270
 3158SOL    HW221111   0.966   2.233  14.858  0.1500  0.6152 -2.3912
 3159SOL     OW21112   0.168   0.949   2.655 -0.0419 -0.3086  0.6226
 3159SOL    HW121113   0.108   0.882   2.689 -1.4619  1.1081  0.9407
 3159SOL    HW221114   0.227   0.947   2.730 -1.7276 -2.6572  1.9030
 3160SOL     OW21115   4.298   3.078  12.489 -0.8870 -0.3126 -0.1472
 3160SOL    HW121116   4.248   3.060  12.569  1.0696  1.0316  1.3758
 3160SOL    HW221117   4.288   2.993  12.446  1.2323 -1.0477  0.8321
 3161SOL     OW21118   3.189   2.784  15.402 -0.0524  0.4834  0.2808
 3161SOL    HW121119   3.101   2.799  15.437  0.1934  0.5672  0.8752
 3161SOL    HW221120   3.177   2.789  15.308 -1.8567  1.1172  0.5471
 3162SOL     OW21121   2.342   2.091  14.006  0.9230  0.1411  0.7431
 3162SOL    HW121122   2.264   2.146  14.018  0.3021 -0.9265  1.5502
 3162SOL    HW221123   2.357   2.116  13.915  2.6525  2.9880  1.8147
 3163SOL     OW21124   0.043   2.812   4.153 -0.2596 -0.1695  0.5552
 3163SOL    HW121125   0.068   2.758   4.228  0.1286 -2.7135 -1.4329
 3163SOL    HW221126   0.125   2.812   4.105 -0.8460 -2.0374 -0.4314
 3164SOL     OW21127   2.086   0.923   9.673 -0.2647 -0.2185 -0.5108
 3164SOL    HW121128   2.074   0.932   9.768 -2.0196  1.5147 -0.8868
 3164SOL    HW221129   2.120   0.834   9.671  2.1391  0.6748  0.7190
 3165SOL     OW21130   1.059   2.569   3.359  1.0968  0.0682  0.0149
 3165SOL    HW121131   0.993   2.574   3.291  0.8386 -1.3331  0.1535
 3165SOL    HW221132   1.053   2.479   3.392  1.4264  0.4401  1.1074
 3166SOL     OW21133   3.732   0.435  13.379 -0.0660  0.0269 -0.4283
 3166SOL    HW121134   3.808   0.490  13.361  0.8017 -0.6518  1.1081
 3166SOL    HW221135   3.773   0.353  13.406 -0.0317  0.3995  0.6659
 3167SOL     OW21136   2.966   0.498  14.825 -0.4798  0.2494 -0.4042
 3167SOL    HW121137   2.948   0.418  14.875  1.3474  0.1905  0.1572
 3167SOL    HW221138   2.992   0.560  14.893 -1.3901  1.1926 -0.9244
 3168SOL     OW21139   3.903   4.155   5.581  0.4259  0.3289 -0.7175
 3168SOL    HW121140   3.837   4.165   5.513 -0.1246 -2.6603 -0.5816
 3168SOL    HW221141   3.893   4.229   5.642 -0.6120 -0.8277  0.5023
 3169SOL     OW21142   0.497   4.509   8.905  0.2226  0.0218  0.3287
 3169SOL    HW121143   0.422   4.474   8.953  0.3656  1.7176  1.7714
 3169SOL    HW221144   0.569   4.500   8.967 -0.1592  1.8182  1.0242
 3170SOL     OW21145   4.690   1.755  11.328 -0.5697 -0.1678 -0.3598
 3170SOL    HW121146   4.659   1.722  11.244  2.4989 -0.5080 -1.3480
 3170SOL    HW221147   0.040   1.741  11.310 -0.1117 -0.8669  2.5975
 3171SOL     OW21148   3.715   2.652   5.191  0.1331 -0.1801 -0.0478
 3171SOL    HW121149   3.663   2.715   5.141  1.6829  0.7988 -0.4019
 3171SOL    HW221150   3.706   2.574   5.136 -3.6584 -0.2470  0.6193
 3172SOL     OW21151   0.173   3.193   8.228 -0.2150  0.3138 -0.7347
 3172SOL    HW121152   0.240   3.215   8.162  0.2827 -2.0607 -1.0086
 3172SOL    HW221153   0.185   3.099   8.241 -0.0700  0.1686 -1.8881
 3173SOL     OW21154   1.978   3.707   4.526 -0.0250 -0.1333  0.2025
 3173SOL    HW121155   2.052   3.730   4.470  2.8974 -1.2745  3.6378
 3173SOL    HW221156   2.018   3.729   4.610 -1.8104  2.7754  0.2995
 3174SOL     OW21157   0.296   2.793  16.763 -0.7553  0.6319  0.4295
 3174SOL    HW121158   0.221   2.782  16.705 -0.1046  0.8758 -0.4755
 3174SOL    HW221159   0.293   2.888  16.775  0.6475  0.6779  0.4891
 3175SOL     OW21160   4.227   4.695  15.544 -0.3136 -0.7527  0.0874
 3175SOL    HW121161   4.263   4.612  15.577  0.5652 -0.0955  0.8064
 3175SOL    HW221162   4.189   4.672  15.460 -1.4102  1.1779  0.0760
 3176SOL     OW21163   4.737   2.396   0.087 -0.6008  0.3592  0.0260
 3176SOL    HW121164   4.687   2.389   0.169  0.3106 -1.8143  0.4144
 3176SOL    HW221165   4.727   2.308   0.050  1.4227  0.0737  0.1689
 3177SOL     OW21166   4.612   0.891   5.196 -0.5830 -0.1599 -0.2647
 3177SOL    HW121167   4.624   0.818   5.258  1.4205  1.1830  0.9149
 3177SOL    HW221168   4.702   0.906   5.168 -0.2268  0.7897  1.4039
 3178SOL     OW21169   3.385   0.622   2.947  0.1600 -0.0348 -0.1276
 3178SOL    HW121170   3.454   0.568   2.984  0.3610 -2.1516 -3.5651
 3178SOL    HW221171   3.365   0.566   2.872 -1.4941  1.1882 -0.6108
 3179SOL     OW21172   2.429   3.130  10.767 -0.2553  0.0159  0.2692
 3179SOL    HW121173   2.347   3.173  10.791  0.7324  2.2955 -0.3864
 3179SOL    HW221174   2.432   3.052  10.821  2.8076 -0.8396 -1.1177
 3180SOL     OW21175   2.406   4.689   6.666  0.3575 -0.0701 -0.6090
 3180SOL    HW121176   2.448   4.726   6.744 -0.2788  1.1230 -0.8372
 3180SOL    HW221177   2.453   4.606   6.658 -1.6486 -1.2333 -0.4742
 3181SOL     OW21178   1.423   1.376  11.095 -0.3860 -0.3069  0.4117
 3181SOL    HW121179   1.464   1.377  11.009  0.4994 -0.6586  0.8329
 3181SOL    HW221180   1.480   1.440  11.137  0.7162 -2.3452  2.0574
 3182SOL     OW21181   1.979   1.730  13.703  0.0052  0.1951 -0.1439
 3182SOL    HW121182   2.037   1.662  13.667  0.6335 -0.1449  1.4889
 3182SOL    HW221183   1.970   1.708  13.796  1.4751 -0.7868 -0.2276
 3183SOL     OW21184   3.451   1.694   3.094  0.2747 -0.6719  0.0804
 3183SOL    HW121185   3.475   1.670   3.183 -0.0668  0.5371  0.4995
 3183SOL    HW221186   3.399   1.616   3.073 -0.4756  0.1073 -0.9382
 3184SOL     OW21187   2.740   3.556   2.400  0.7327  0.4079 -0.1768
 3184SOL    HW121188   2.773   3.504   2.474  2.7617 -1.3007 -2.2699
 3184SOL    HW221189   2.729   3.645   2.432 -0.8126  1.1853 -2.8470
 3185SOL     OW21190   1.286   3.042  14.627  0.2799  0.0438 -0.7024
 3185SOL    HW121191   1.373   3.020  14.595  1.1379 -1.3709  2.5959
 3185SOL    HW221192   1.232   2.992  14.566 -3.1391  2.2666  0.5004
 3186SOL     OW21193   3.422   3.234   3.995  0.0413  0.0283  0.0128
 3186SOL    HW121194   3.499   3.194   4.035 -1.5933 -2.0120  1.1733
 3186SOL    HW221195   3.405   3.307   4.055 -1.9233 -0.7408  0.3848
 3187SOL     OW21196   2.392   1.730   7.866 -0.2910  0.1556  0.1797
 3187SOL    HW121197   2.486   1.715   7.873 -0.1352  1.2946  0.6641
 3187SOL    HW221198   2.397   1.816   7.823  0.6880  2.0376  4.0095
 3188SOL     OW21199   0.605   0.467  13.227 -0.0412  0.8619  0.4269
 3188SOL    HW121200   0.583   0.385  13.183  0.4372  1.5586 -1.0903
 3188SOL    HW221201   0.678   0.440  13.282  0.8891  0.3373 -1.0685
 3189SOL     OW21202   1.898   0.956   2.938 -0.6158 -0.2619  0.2113
 3189SOL    HW121203   1.972   0.917   2.984 -0.3633 -0.1607 -0.1125
 3189SOL    HW221204   1.831   0.895   2.969 -0.5536  0.0729  1.0005
 3190SOL     OW21205   2.644   2.115   9.638 -0.3788  0.6204  0.2747
 3190SOL    HW121206   2.656   2.038   9.693  1.6468 -0.4598 -1.6939
 3190SOL    HW221207   2.551   2.127   9.660 -0.5872  1.2714 -0.9815
 3191SOL     OW21208   1.871   4.436  17.473  0.3272 -0.6693 -0.0651
 3191SOL    HW121209   1.777   4.446  17.454  0.5518  0.5480 -0.5351
 3191SOL    HW221210   1.906   4.449  17.384  0.7089  1.8288  0.4288
 3192SOL     OW21211   1.770   1.062   3.844  0.3334  0.3272  0.5750
 3192SOL    HW121212   1.816   0.987   3.881  2.2940  1.4556  0.4187
 3192SOL    HW221213   1.843   1.111   3.805 -0.7448  2.4382  1.2265
 3193SOL     OW21214   2.997   3.447   6.149  0.3893 -0.0521 -0.3059
 3193SOL    HW121215   2.984   3.400   6.067 -0.5108 -0.7634  0.2415
 3193SOL    HW221216   3.088   3.433   6.176 -0.3182  0.3906  2.3649
 3194SOL     OW21217   3.941   3.143   0.275 -0.0581 -0.0618  0.5317
 3194SOL    HW121218   4.020   3.192   0.296  1.3322 -2.0734  0.0004
 3194SOL    HW221219   3.965   3.102   0.192  1.4396 -0.0371  0.9555
 3195SOL     OW21220   1.367   0.517  15.097  0.0262  0.7677 -0.3151
 3195SOL    HW121221   1.276   0.518  15.068 -0.2380 -1.4412  0.4557
 3195SOL    HW221222   1.407   0.553  15.018 -0.0005  0.0181 -0.6695
 3196SOL     OW21223   2.360   3.152   3.834 -0.4125  0.2879  0.2182
 3196SOL    HW121224   2.358   3.138   3.928 -0.5877  1.7525  0.4235
 3196SOL    HW221225   2.272   3.115   3.824  0.2362 -0.7001 -1.9246
 3197SOL     OW21226   1.646   2.859   2.941 -0.3343  0.3158  0.3572
 3197SOL    HW121227   1.581   2.930   2.950 -1.2482 -0.2488 -1.9355
 3197SOL    HW221228   1.641   2.859   2.846 -3.5737 -3.1109  0.5113
 3198SOL     OW21229   3.042   1.621   7.720  0.2196 -0.5102  0.1149
 3198SOL    HW121230   2.979   1.641   7.789  0.5067  1.8577 -0.3073
 3198SOL    HW221231   3.062   1.708   7.685 -0.1611  0.1836  1.6330
 3199SOL     OW21232   1.972   4.119  15.332 -0.2763  0.1834  0.1967
 3199SOL    HW121233   2.042   4.077  15.282 -0.4225 -2.1836  1.9613
 3199SOL    HW221234   2.019   4.199  15.354  0.3475  0.1436 -0.9952
 3200SOL     OW21235   2.405   4.427   0.784 -0.5054  0.0450  0.0221
 3200SOL    HW121236   2.379   4.396   0.870  0.7012  0.1338  0.4219
 3200SOL    HW221237   2.412   4.355   0.722  0.8823 -4.7251  5.7602
 3201SOL     OW21238   1.967   1.831   9.104 -0.1849 -0.4238 -0.6660
 3201SOL    HW121239   1.944   1.780   9.182  0.5637 -1.3883 -1.0858
 3201SOL    HW221240   1.971   1.762   9.038 -1.7927  1.2666 -2.5083
 3202SOL     OW21241   3.136   0.446   4.921  0.5834  0.3738  0.6433
 3202SOL    HW121242   3.160   0.489   5.003  2.3278 -4.0500  2.5020
 3202SOL    HW221243   3.221   0.419   4.886  0.4237 -0.8108  1.1705
 3203SOL     OW21244   4.608   1.928   6.366 -0.4579  0.9181  0.3828
 3203SOL    HW121245   4.536   1.953   6.308 -0.9670 -2.5896 -0.5092
 3203SOL    HW221246   4.616   2.001   6.427 -2.7741  2.7378 -1.4556
 3204SOL     OW21247   1.918   2.156   3.021  1.0511 -0.1093 -0.1110
 3204SOL    HW121248   1.911   2.123   3.111 -4.2092  1.9332  0.2588
 3204SOL    HW221249   1.920   2.249   3.041 -0.6996 -0.5433  2.1025
 3205SOL     OW21250   0.515   2.856   1.597 -0.5099 -0.3792 -0.2533
 3205SOL    HW121251   0.503   2.762   1.607  1.7881 -0.5325  1.0100
 3205SOL    HW221252   0.424   2.881   1.582 -0.4808  0.6513  1.3086
 3206SOL     OW21253   1.986   4.628   2.424  0.7027  0.0327 -0.1046
 3206SOL    HW121254   1.985   4.708   2.371 -0.5903  0.2560  0.2532
 3206SOL    HW221255   1.894   4.635   2.452 -0.5984 -0.5896 -4.2701
 3207SOL     OW21256   0.859   3.024   7.162  0.2207  0.4023  0.7441
 3207SOL    HW121257   0.862   3.119   7.150  0.2396  0.2509 -0.4230
 3207SOL    HW221258   0.841   3.020   7.256  0.6413  0.7109  0.8390
 3208SOL     OW21259   1.910   1.573   0.888  0.2469  0.2954  0.6623
 3208SOL    HW121260   1.926   1.489   0.845  0.6208  0.4527  0.4868
 3208SOL    HW221261   1.826   1.556   0.930  1.2414  0.7373  2.8332
 3209SOL     OW21262   1.972   1.513   6.563 -0.2758  0.0547  0.3849
 3209SOL    HW121263   2.041   1.447   6.560 -1.5629 -1.2403 -1.1469
 3209SOL    HW221264   1.892   1.460   6.555 -0.8252  1.1737 -1.6172
 3210SOL     OW21265   4.216   0.836   9.065 -0.5205 -0.5775  0.3707
 3210SOL    HW121266   4.272   0.759   9.074 -1.3994 -0.8248  3.7988
 3210SOL    HW221267   4.158   0.794   9.002 -1.7654  0.0797  1.0751
 3211SOL     OW21268   3.087   0.256   9.391 -0.0893 -0.1325 -0.7882
 3211SOL    HW121269   3.055   0.344   9.410 -0.8187 -0.8896  1.5460
 3211SOL    HW221270   3.136   0.239   9.472 -1.1407 -0.9055 -0.3200
 3212SOL     OW21271   3.579   3.024   5.874  0.2163 -0.0954  0.2978
 3212SOL    HW121272   3.534   3.093   5.825  0.1816 -0.3748 -0.0645
 3212SOL    HW221273   3.509   2.992   5.931 -0.2915  3.3938  1.6423
 3213SOL     OW21274   0.001   0.584   7.785 -0.2245 -0.2891  0.3410
 3213SOL    HW121275   0.045   0.669   7.794 -0.4662 -0.1535  0.2458
 3213SOL    HW221276   4.732   0.605   7.692  0.7861 -0.1406  0.2456
 3214SOL     OW21277   2.639   3.908   1.692  0.2740  0.1507 -0.2234
 3214SOL    HW121278   2.684   3.851   1.754 -3.2646 -2.8656 -0.4297
 3214SOL    HW221279   2.648   3.866   1.606 -0.2134 -2.3707  0.9592
 3215SOL     OW21280   3.958   2.533   3.493  0.0116 -0.4440  0.1454
 3215SOL    HW121281   3.950   2.614   3.544  0.1385 -0.0854 -0.4069
 3215SOL    HW221282   4.000   2.479   3.560  2.0210  0.9855  0.0479
 3216SOL     OW21283   2.059   2.516   3.335  0.1208  0.0719  0.4816
 3216SOL    HW121284   1.963   2.518   3.336  0.1132 -0.9704  1.7593
 3216SOL    HW221285   2.074   2.453   3.406 -1.8240 -0.6784  0.2189
 3217SOL     OW21286   1.505   4.600   5.847  0.5454 -0.5735  0.1578
 3217SOL    HW121287   1.569   4.633   5.785 -0.0533  0.1800 -0.0575
 3217SOL    HW221288   1.476   4.520   5.803  0.6318  0.0905 -1.0839
 3218SOL     OW21289   3.040   4.673   7.708 -0.5056 -0.4669 -0.1155
 3218SOL    HW121290   3.006   4.584   7.714 -1.4508 -0.2545 -2.4792
 3218SOL    HW221291   2.975   4.718   7.763 -2.2968 -1.3998 -1.4865
 3219SOL     OW21292   4.377   3.255   7.670 -0.3408  0.2455  0.2460
 3219SOL    HW121293   4.338   3.301   7.596 -1.7423 -0.3419  0.6155
 3219SOL    HW221294   4.450   3.208   7.629 -0.6895 -1.8764  2.0259
 3220SOL     OW21295   2.577   0.293   7.048  0.0522  0.7626 -0.6739
 3220SOL    HW121296   2.524   0.298   7.127 -0.6928  0.9355 -1.1773
 3220SOL    HW221297   2.636   0.369   7.049 -0.0577  0.8525 -0.8901
 3221SOL     OW21298   0.577   0.672  12.980 -0.3460  0.9194  0.6747
 3221SOL    HW121299   0.593   0.580  12.956  1.0172  1.0210  1.2076
 3221SOL    HW221300   0.652   0.708  13.028 -0.1197  1.1230  0.1711
 3222SOL     OW21301   0.784   1.744   2.013  0.3428 -0.3952 -0.1937
 3222SOL    HW121302   0.879   1.735   2.021  0.4543  0.0794 -0.9688
 3222SOL    HW221303   0.775   1.744   1.918  2.5107 -1.4053 -0.3974
 3223SOL     OW21304   1.247   2.653  14.992  0.2692 -0.2618  0.4246
 3223SOL    HW121305   1.315   2.611  14.939  0.9881  1.2109  0.1696
 3223SOL    HW221306   1.194   2.577  15.014 -0.1793 -0.1600 -0.3028
 3224SOL     OW21307   3.727   4.313   1.996 -0.0652  0.1261  0.7293
 3224SOL    HW121308   3.670   4.290   1.923 -0.4420  1.6550  0.5497
 3224SOL    HW221309   3.739   4.407   1.988 -0.8526  0.1432 -0.1952
 3225SOL     OW21310   2.608   1.311   2.263 -0.1843 -0.2547 -0.1139
 3225SOL    HW121311   2.665   1.248   2.218 -1.1324 -0.1858 -1.4209
 3225SOL    HW221312   2.569   1.355   2.187  0.3262 -3.8048 -2.4556
 3226SOL     OW21313   3.498   3.957   2.449 -0.1937 -0.9271 -0.4126
 3226SOL    HW121314   3.531   3.888   2.506  0.2464 -0.0479  0.4019
 3226SOL    HW221315   3.573   4.016   2.440  0.2737 -1.3641  0.6558
 3227SOL     OW21316   3.820   4.007   8.591 -0.2338  0.2425  0.3635
 3227SOL    HW121317   3.862   3.923   8.610 -2.2176 -1.2874 -2.0178
 3227SOL    HW221318   3.748   3.983   8.533  1.4884 -1.7639 -0.9574
 3228SOL     OW21319   0.262   3.916   2.613 -0.0392 -0.8272  0.2675
 3228SOL    HW121320   0.251   3.823   2.595 -0.2767 -0.9096  0.8471
 3228SOL    HW221321   0.173   3.943   2.633  0.8560  1.6857  0.9128
 3229SOL     OW21322   0.578   0.669   9.224  0.3723 -0.0961 -0.3856
 3229SOL    HW121323   0.566   0.730   9.152 -0.0496 -0.1204 -0.3384
 3229SOL    HW221324   0.505   0.702   9.276  0.5314  1.3583 -1.0867
 3230SOL     OW21325   4.305   4.300   6.688 -0.0641  0.2587  0.3639
 3230SOL    HW121326   4.245   4.301   6.762 -2.0490 -0.4448 -1.2452
 3230SOL    HW221327   4.273   4.232   6.629  0.8875  1.2525 -1.3066
 3231SOL     OW21328   0.537   0.248   1.161 -0.6971 -0.1627 -0.1336
 3231SOL    HW121329   0.622   0.206   1.169 -1.1302 -0.7451  1.4373
 3231SOL    HW221330   0.491   0.199   1.230 -0.7249  1.1219  0.7528
 3232SOL     OW21331   2.799   4.742   6.674  0.3209  0.6855 -0.0250
 3232SOL    HW121332   2.752   0.051   6.609  1.3952  1.0079 -0.5410
 3232SOL    HW221333   2.878   4.723   6.623 -0.1072 -3.6010  0.9254
 3233SOL     OW21334   4.109   4.378   8.129 -0.1490  0.4255  0.0205
 3233SOL    HW121335   4.081   4.287   8.118  0.7627 -0.0110  1.2950
 3233SOL    HW221336   4.043   4.423   8.076 -1.9111 -2.2443 -0.0648
 3234SOL     OW21337   2.387   0.918   3.703 -0.1766  0.3684 -0.0571
 3234SOL    HW121338   2.311   0.918   3.760 -0.2573 -3.1607 -0.1727
 3234SOL    HW221339   2.445   0.972   3.758  0.2908  0.0233 -0.2093
 3235SOL     OW21340   2.107   0.450  12.238  0.0563  0.2701  0.7189
 3235SOL    HW121341   2.016   0.440  12.211 -0.4813  0.4630  2.5215
 3235SOL    HW221342   2.145   0.437  12.151 -2.0330 -0.5209 -0.0859
 3236SOL     OW21343   1.424   2.847   7.610 -0.5534 -0.5625 -0.1192
 3236SOL    HW121344   1.451   2.808   7.693 -1.4859 -1.8109 -0.4003
 3236SOL    HW221345   1.328   2.841   7.607 -0.5805 -0.6297  1.0247
 3237SOL     OW21346   2.621   3.106   0.753  0.3686  0.1632  0.2315
 3237SOL    HW121347   2.678   3.088   0.828  0.4225  0.8571  0.3606
 3237SOL    HW221348   2.667   3.183   0.720  1.1643 -0.5140 -0.2403
 3238SOL     OW21349   3.751   2.829   5.807 -0.0349 -0.0237 -0.7410
 3238SOL    HW121350   3.821   2.851   5.745  0.1833 -0.0819 -0.5127
 3238SOL    HW221351   3.691   2.904   5.805  1.2151  0.9678 -0.7877
 3239SOL     OW21352   2.576   4.162   8.237  0.0852 -0.6097 -1.0155
 3239SOL    HW121353   2.482   4.181   8.247  0.3634 -0.2321  0.8778
 3239SOL    HW221354   2.611   4.177   8.325 -1.2023 -0.1716 -0.5645
 3240SOL     OW21355   2.352   3.188   2.268  0.2291 -0.3616 -0.8738
 3240SOL    HW121356   2.331   3.278   2.294  1.9568  0.1800 -1.3707
 3240SOL    HW221357   2.276   3.135   2.293 -0.5006  0.4120 -1.4223
 3241SOL     OW21358   1.776   1.196   2.898  0.0543 -0.4451  0.2284
 3241SOL    HW121359   1.801   1.104   2.895  1.5802  0.0369 -1.6872
 3241SOL    HW221360   1.749   1.190   2.806  0.2406  1.5252  0.0378
 3242SOL     OW21361   0.458   1.120  12.672 -0.1154 -0.6677  0.5768
 3242SOL    HW121362   0.517   1.104  12.745 -0.6267  1.3190  1.4272
 3242SOL    HW221363   0.431   1.031  12.651 -2.1517 -0.2182  1.2265
 3243SOL     OW21364   2.292   2.943   2.703 -0.1901 -0.3458  0.6374
 3243SOL    HW121365   2.346   3.000   2.649  0.2089 -1.2146  0.1370
 3243SOL    HW221366   2.208   2.988   2.692  1.2514  2.3102  0.5905
 3244SOL     OW21367   4.733   0.970  14.160 -0.2509 -0.5693  0.6169
 3244SOL    HW121368   4.694   0.898  14.110 -3.2024  1.4077  0.0598
 3244SOL    HW221369   4.654   0.999  14.205 -0.7767  0.8535 -1.2380
 3245SOL     OW21370   2.788   3.782   5.588  0.3166  0.6639 -0.5947
 3245SOL    HW121371   2.701   3.806   5.620 -0.4644  1.3078 -3.1813
 3245SOL    HW221372   2.756   3.715   5.527 -0.8596  2.8498 -2.3819
 3246SOL     OW21373   0.929   1.286   5.582 -0.4925 -0.3981 -0.2240
 3246SOL    HW121374   1.016   1.266   5.618 -0.9490 -1.5629  0.2567
 3246SOL    HW221375   0.901   1.349   5.648  0.9068  1.7030 -1.6435
 3247SOL     OW21376   1.933   2.534  13.654  0.1501 -0.7703 -0.3113
 3247SOL    HW121377   1.844   2.551  13.623  0.4413 -0.3411 -0.9114
 3247SOL    HW221378   1.983   2.524  13.573 -0.2469  0.3333 -0.6837
 3248SOL     OW21379   3.953   0.801   7.225  0.0433 -0.4195 -0.4917
 3248SOL    HW121380   4.048   0.789   7.214  0.2173  1.2903 -0.8503
 3248SOL    HW221381   3.928   0.709   7.219  0.9775 -0.6820 -0.3553
 3249SOL     OW21382   3.548   1.768   3.665  0.4422 -0.4300  0.0473
 3249SOL    HW121383   3.465   1.751   3.621 -0.8235  1.9297  1.4976
 3249SOL    HW221384   3.523   1.743   3.754  2.2850  2.9365  1.5317
 3250SOL     OW21385   1.690   3.043   5.151 -0.4517 -0.1356  0.0083
 3250SOL    HW121386   1.600   3.053   5.182 -0.5172 -1.4604  0.2193
 3250SOL    HW221387   1.678   2.963   5.101 -0.0157 -1.4693  2.0340
 3251SOL     OW21388   2.752   3.856  16.534 -0.3709 -0.2601 -0.6238
 3251SOL    HW121389   2.749   3.829  16.626  0.8439  0.7935 -0.2723
 3251SOL    HW221390   2.801   3.937  16.550  0.2669 -0.0554 -3.7592
 3252SOL     OW21391   1.645   4.617   3.309  0.4381  0.3929  0.0492
 3252SOL    HW121392   1.603   4.698   3.281  1.1919  1.4490  2.0015
 3252SOL    HW221393   1.583   4.580   3.372 -0.5646  1.6220 -0.2335
 3253SOL     OW21394   1.519   0.502   3.616 -0.0456  0.5730  0.2837
 3253SOL    HW121395   1.450   0.492   3.681 -0.8120  0.2848 -0.5601
 3253SOL    HW221396   1.588   0.536   3.673  0.3864 -0.0563  0.1391
 3254SOL     OW21397   4.006   4.066  12.571  0.3378 -0.2739  0.6655
 3254SOL    HW121398   3.945   4.052  12.644  0.8503 -0.7275  1.0040
 3254SOL    HW221399   4.089   4.081  12.615 -0.2241  0.1867  1.5631
 3255SOL     OW21400   2.445   1.449   4.788 -0.1285  0.2453  0.6787
 3255SOL    HW121401   2.481   1.530   4.823 -0.2556  1.0919 -1.1882
 3255SOL    HW221402   2.491   1.389   4.847  0.9776 -0.4853 -0.9321
 3256SOL     OW21403   0.346   3.740   6.930 -0.5548 -0.4827 -0.2575
 3256SOL    HW121404   0.291   3.794   6.873  1.6136  0.9836 -1.0062
 3256SOL    HW221405   0.370   3.806   6.995 -0.0008  0.2852 -1.2263
 3257SOL     OW21406   1.357   1.680   8.501  0.5297 -0.0899 -0.3611
 3257SOL    HW121407   1.424   1.748   8.493 -0.0548  0.6500  0.9986
 3257SOL    HW221408   1.304   1.715   8.431 -0.8892 -0.2218  0.6497
 3258SOL     OW21409   2.283   4.051   7.987 -0.0487 -0.3296 -0.3828
 3258SOL    HW121410   2.203   4.007   8.016  0.1928 -0.3265  0.2918
 3258SOL    HW221411   2.247   4.134   7.955  0.1037 -0.1979 -0.2173
 3259SOL     OW21412   0.841   2.495   2.828  0.3813  0.2690  0.6135
 3259SOL    HW121413   0.897   2.529   2.758  0.2324 -3.5553 -1.3245
 3259SOL    HW221414   0.753   2.489   2.792  0.7481  0.2255 -0.2622
 3260SOL     OW21415   2.857   4.426   5.176  0.5888  0.0547 -0.1960
 3260SOL    HW121416   2.886   4.337   5.155 -0.1254 -0.2062 -0.0827
 3260SOL    HW221417   2.939   4.473   5.188  0.2533  0.3871  0.7539
 3261SOL     OW21418   2.164   1.452   3.031  0.4437 -0.3617 -0.5057
 3261SOL    HW121419   2.243   1.439   2.978  0.9231  2.3684 -0.4487
 3261SOL    HW221420   2.157   1.544   3.005  1.0046 -0.1648  0.0414
 3262SOL     OW21421   0.783   0.158   7.743 -0.4371 -0.0083 -0.1676
 3262SOL    HW121422   0.731   0.090   7.699 -0.4206 -1.1739  1.6025
 3262SOL    HW221423   0.799   0.113   7.826 -2.3623 -3.4991 -1.6915
 3263SOL     OW21424   1.227   1.618  14.532 -0.5331 -0.0632  0.7776
 3263SOL    HW121425   1.212   1.558  14.459 -3.9835  1.7261 -0.0331
 3263SOL    HW221426   1.137   1.647  14.550  0.0975  1.5970  1.2252
 3264SOL     OW21427   2.712   4.216   7.028 -0.4298 -0.2697 -0.5087
 3264SOL    HW121428   2.695   4.203   6.934 -1.1804  0.0686 -0.4248
 3264SOL    HW221429   2.624   4.228   7.064 -0.2853  0.3825 -0.3829
 3265SOL     OW21430   4.244   1.753   7.901 -0.7952  0.9923  0.1176
 3265SOL    HW121431   4.293   1.804   7.965  0.3687  1.8274 -1.4311
 3265SOL    HW221432   4.223   1.673   7.949 -4.4057  0.8703 -1.6701
 3266SOL     OW21433   4.096   3.059   9.793 -0.4233 -0.5078  0.2257
 3266SOL    HW121434   4.058   2.981   9.832 -1.2262  0.7011  1.8473
 3266SOL    HW221435   4.038   3.129   9.823  1.3089  0.8297  0.4951
 3267SOL     OW21436   0.648   3.352  16.024  0.6701  0.6155  0.0384
 3267SOL    HW121437   0.675   3.425  16.080 -0.0275  0.4630  0.5704
 3267SOL    HW221438   0.726   3.296  16.026  0.9474  0.9038 -2.1725
 3268SOL     OW21439   3.151   2.394   3.933 -0.2001  0.1567  0.4068
 3268SOL    HW121440   3.099   2.430   3.861  1.3938  0.5451 -0.5466
 3268SOL    HW221441   3.092   2.329   3.971  0.2631 -1.5353 -1.7850
 3269SOL     OW21442   4.127   1.420   2.375 -0.4848  0.5002  0.2594
 3269SOL    HW121443   4.098   1.483   2.309 -1.8699  1.2634  1.5865
 3269SOL    HW221444   4.086   1.441   2.459  0.3579  0.9472  0.5547
 3270SOL     OW21445   0.407   0.162   1.422  0.3845  0.1024  0.0056
 3270SOL    HW121446   0.349   0.199   1.489  0.1019 -3.0908  1.5210
 3270SOL    HW221447   0.333   0.136   1.365 -0.7951 -1.3394  2.2055
 3271SOL     OW21448   3.965   4.289  16.786 -0.2587  0.2705  0.4626
 3271SOL    HW121449   4.018   4.237  16.725 -1.2957  0.8403 -0.9163
 3271SOL    HW221450   3.926   4.364  16.743 -2.8317 -1.1568  0.3285
 3272SOL     OW21451   0.667   3.915   8.335 -0.3755  0.3434 -0.7196
 3272SOL    HW121452   0.643   3.877   8.250  0.4181 -0.1871 -0.7107
 3272SOL    HW221453   0.631   4.003   8.323  0.7537  0.9889  0.6581
 3273SOL     OW21454   3.390   2.424   4.051  0.2362  0.5297  0.1857
 3273SOL    HW121455   3.369   2.354   4.113 -0.2785  0.1660 -0.3844
 3273SOL    HW221456   3.312   2.424   3.994 -0.9831  0.8642  1.8792
 3274SOL     OW21457   2.161   3.536   1.607  0.0466  0.2300  0.0858
 3274SOL    HW121458   2.174   3.441   1.609 -1.5388  0.0145  0.8329
 3274SOL    HW221459   2.244   3.565   1.571  0.7980  1.4553  2.7629
 3275SOL     OW21460   0.649   4.362   2.929 -0.0953  0.5482  0.5816
 3275SOL    HW121461   0.727   4.327   2.885 -0.1772 -0.8388  1.5399
 3275SOL    HW221462   0.588   4.288   2.925 -0.8848  1.2262  0.1074
 3276SOL     OW21463   1.626   3.352   5.320 -0.8307 -0.5123 -0.6092
 3276SOL    HW121464   1.667   3.353   5.234  1.2172 -0.2933  0.3856
 3276SOL    HW221465   1.671   3.421   5.367 -0.7607 -1.3145  0.5109
 3277SOL     OW21466   2.708   3.994   1.013  0.5926 -0.0501  0.6723
 3277SOL    HW121467   2.739   3.904   1.022  0.8945 -0.2079 -1.8996
 3277SOL    HW221468   2.765   4.025   0.942  1.0063 -0.5478  0.7861
 3278SOL     OW21469   2.924   4.059   7.866 -0.3538 -0.7332  0.0615
 3278SOL    HW121470   2.866   4.068   7.790  0.2639 -2.0752 -0.5912
 3278SOL    HW221471   2.865   4.051   7.941 -0.5481  0.2939  0.0127
 3279SOL     OW21472   2.670   1.850   7.873 -0.4291 -0.0403  0.1222
 3279SOL    HW121473   2.645   1.838   7.965  2.0315 -0.0377  0.8112
 3279SOL    HW221474   2.719   1.931   7.887 -0.0495 -0.5109  1.5183
 3280SOL     OW21475   3.872   0.989   7.400 -0.3989  0.0710 -0.2240
 3280SOL    HW121476   3.926   0.937   7.341  2.2273  1.4908  0.9160
 3280SOL    HW221477   3.803   1.013   7.338 -0.2752  2.5038  0.5754
 3281SOL     OW21478   1.882   1.398   4.122 -0.5922 -0.0372  0.6957
 3281SOL    HW121479   1.970   1.433   4.108  0.6267 -2.9277  1.1232
 3281SOL    HW221480   1.911   1.309   4.142 -0.9813 -0.5102 -0.8425
 3282SOL     OW21481   2.494   2.855  16.988  0.5310 -0.4225  0.0378
 3282SOL    HW121482   2.414   2.816  16.953  0.3544 -1.3598  1.4695
 3282SOL    HW221483   2.491   2.818  17.077 -0.7678  0.1442  0.2383
 3283SOL     OW21484   3.140   2.277   3.617 -0.5718 -0.0883 -0.5154
 3283SOL    HW121485   3.154   2.371   3.605 -0.3961 -0.0216  0.1911
 3283SOL    HW221486   3.046   2.260   3.620 -0.4198 -0.8694  0.0962
 3284SOL     OW21487   3.070   0.254  12.975 -0.7261  0.0329  0.1107
 3284SOL    HW121488   3.012   0.218  12.907 -0.7853  1.5620 -0.6379
 3284SOL    HW221489   3.122   0.177  12.999 -0.4162  0.0333 -0.5601
 3285SOL     OW21490   2.365   2.895   2.401  0.5987 -0.0031  0.2386
 3285SOL    HW121491   2.460   2.883   2.403  0.6574  0.2002 -1.7328
 3285SOL    HW221492   2.344   2.918   2.492  3.6591  0.9451  0.7305
 3286SOL     OW21493   4.074   3.150   5.704 -0.3006 -0.4921  0.6544
 3286SOL    HW121494   4.060   3.105   5.621 -0.4356 -0.5129  0.6887
 3286SOL    HW221495   4.167   3.175   5.700 -0.5116  0.3465  0.9969
 3287SOL     OW21496   4.290   2.583  13.618 -0.6276 -0.7708  0.1465
 3287SOL    HW121497   4.304   2.556  13.527 -1.1821  1.1330 -0.4990
 3287SOL    HW221498   4.197   2.562  13.625 -1.1094  0.5344 -2.6066
 3288SOL     OW21499   4.154   3.581   6.736  0.1328 -0.0532  0.4387
 3288SOL    HW121500   4.141   3.671   6.704  1.2097  0.4797  1.4959
 3288SOL    HW221501   4.122   3.589   6.825  1.5135  0.7330  0.8683
 3289SOL     OW21502   3.445   0.582   0.990  0.1843 -0.1473 -0.2307
 3289SOL    HW121503   3.385   0.643   1.032 -0.5989  0.3646 -2.0859
 3289SOL    HW221504   3.478   0.638   0.920  1.4186 -1.3063 -0.5797
 3290SOL     OW21505   1.818   0.645   5.780  0.0100  0.3134  0.7481
 3290SOL    HW121506   1.850   0.644   5.690  0.0031 -2.2021  0.7885
 3290SOL    HW221507   1.791   0.554   5.792 -0.4026  0.4906  1.1486
 3291SOL     OW21508   3.565   2.680   5.450 -0.5643 -0.3522 -0.3839
 3291SOL    HW121509   3.637   2.645   5.503  0.0771  1.7593  0.1416
 3291SOL    HW221510   3.612   2.658   5.369 -0.4179 -1.8789  0.1121
 3292SOL     OW21511   1.990   3.696   3.326  0.0525  0.2091 -0.0553
 3292SOL    HW121512   2.016   3.708   3.235 -0.2388  1.3439  0.0204
 3292SOL    HW221513   2.021   3.605   3.335 -1.4654 -0.3725 -0.6989
 3293SOL     OW21514   1.284   4.338   7.522 -0.4810 -0.3858  0.0457
 3293SOL    HW121515   1.240   4.313   7.441 -0.0538  0.9110 -0.5948
 3293SOL    HW221516   1.330   4.256   7.539 -2.2068 -1.1116  1.2759
 3294SOL     OW21517   1.932   3.955   3.328  0.1101 -0.0980  0.2025
 3294SOL    HW121518   1.906   3.959   3.236 -0.5077  3.2924  0.5317
 3294SOL    HW221519   1.953   3.861   3.334  2.8273  0.6117  1.6644
 3295SOL     OW21520   3.277   3.843   1.715 -0.3597 -0.3001 -0.4225
 3295SOL    HW121521   3.331   3.788   1.772 -0.6119 -0.2040 -0.0935
 3295SOL    HW221522   3.197   3.791   1.712 -0.4367 -0.3394  1.9386
 3296SOL     OW21523   0.800   3.738   7.816  0.6562  0.3583  0.2321
 3296SOL    HW121524   0.831   3.778   7.734  2.0599 -0.2622  0.4631
 3296SOL    HW221525   0.878   3.690   7.845 -0.0128 -2.4733 -2.5870
 3297SOL     OW21526   3.263   1.232  13.137 -0.0335 -0.2798  0.0642
 3297SOL    HW121527   3.349   1.205  13.105  0.8639  0.9289  1.4598
 3297SOL    HW221528   3.279   1.313  13.186  0.0059  1.1936 -2.3397
 3298SOL     OW21529   4.424   4.093   6.320  0.3627 -0.4853 -0.2906
 3298SOL    HW121530   4.503   4.110   6.371 -0.8847  0.1163  1.4097
 3298SOL    HW221531   4.382   4.032   6.380  0.8963 -0.7305 -0.1644
 3299SOL     OW21532   1.761   4.364   4.086 -0.1907 -0.2097 -0.4863
 3299SOL    HW121533   1.683   4.409   4.118 -0.0783  0.5482 -1.2914
 3299SOL    HW221534   1.799   4.434   4.033  0.9254  0.3695  1.0900
 3300SOL     OW21535   0.020   2.540   5.499  0.1075 -0.1108 -0.8461
 3300SOL    HW121536   4.742   2.462   5.447  2.5746 -1.5546  0.2901
 3300SOL    HW221537   0.100   2.569   5.456  0.5956 -1.8724 -1.1292
 3301SOL     OW21538   2.671   0.985   4.430  0.0314 -0.1444  0.4098
 3301SOL    HW121539   2.655   1.003   4.523 -0.8558 -1.9525  0.6084
 3301SOL    HW221540   2.741   1.047   4.412 -2.1094  2.2349  0.3184
 3302SOL     OW21541   2.992   1.734   2.419  0.2123  0.1927  0.0213
 3302SOL    HW121542   3.010   1.821   2.453  1.5539  0.4187 -1.2861
 3302SOL    HW221543   3.078   1.693   2.430 -0.0990 -0.2514  0.7993
 3303SOL     OW21544   1.649   2.759   4.383 -0.1780 -0.3480 -0.1600
 3303SOL    HW121545   1.655   2.789   4.292 -3.6696 -0.1549 -0.3280
 3303SOL    HW221546   1.560   2.726   4.393  0.3239 -1.5252  0.4145
 3304SOL     OW21547   1.023   4.579   7.216  0.3851 -0.1147  0.1741
 3304SOL    HW121548   1.086   4.647   7.241  1.4723 -1.4950  1.1645
 3304SOL    HW221549   0.958   4.628   7.166  1.6670 -0.3893 -1.7592
 3305SOL     OW21550   2.427   2.892  16.592  0.9311 -0.0973  0.3464
 3305SOL    HW121551   2.520   2.900  16.615  1.4118 -2.8223 -0.6452
 3305SOL    HW221552   2.391   2.863  16.676  2.5832 -0.1757  1.0348
 3306SOL     OW21553   4.447   0.694  11.576 -0.0341  0.0062  0.1962
 3306SOL    HW121554   4.428   0.773  11.627 -1.3975 -0.8379  0.9928
 3306SOL    HW221555   4.371   0.684  11.518  0.3671  2.6290 -0.8113
 3307SOL     OW21556   4.357   0.433   2.136 -0.4856 -0.7405  0.6625
 3307SOL    HW121557   4.298   0.502   2.106  0.1838  0.6296  2.4918
 3307SOL    HW221558   4.410   0.489   2.193 -0.9315 -1.0566  1.3793
 3308SOL     OW21559   4.495   4.547   0.214 -0.2129 -0.0248  0.2905
 3308SOL    HW121560   4.583   4.584   0.207 -0.2886  0.6474  2.8763
 3308SOL    HW221561   4.482   4.520   0.124  0.6235 -0.1058  0.1939
 3309SOL     OW21562   1.824   3.285   5.780  0.3533 -0.6876 -0.2506
 3309SOL    HW121563   1.736   3.258   5.807 -0.2420 -0.6972 -2.2011
 3309SOL    HW221564   1.869   3.203   5.759  0.4754 -0.0442 -2.5010
 3310SOL     OW21565   1.740   2.127  14.945  0.3002  0.7433  0.0723
 3310SOL    HW121566   1.806   2.196  14.939  0.1662  0.8083 -0.6855
 3310SOL    HW221567   1.764   2.079  15.024  1.3491  1.2732  0.0745
 3311SOL     OW21568   1.273   4.104   6.435 -0.2316 -0.7838 -0.4294
 3311SOL    HW121569   1.281   4.199   6.447  0.1329 -0.8983  0.2261
 3311SOL    HW221570   1.323   4.072   6.510  0.8607  1.3618 -0.2537
 3312SOL     OW21571   1.369   4.194   6.748  0.0482 -0.9093  0.1718
 3312SOL    HW121572   1.412   4.276   6.724  0.0484 -0.7648  0.6530
 3312SOL    HW221573   1.429   4.137   6.700  0.8986  0.5547 -0.5233
 3313SOL     OW21574   2.620   0.753   7.709  0.6085  0.2489 -0.2623
 3313SOL    HW121575   2.542   0.709   7.743  0.8466  0.1683  0.1844
 3313SOL    HW221576   2.682   0.741   7.781  0.5525  0.2986 -0.2057
 3314SOL     OW21577   4.510   4.437   2.252  0.8666 -0.3841  0.0611
 3314SOL    HW121578   4.571   4.479   2.192 -0.6142  0.5367 -0.7968
 3314SOL    HW221579   4.556   4.355   2.272  1.2658 -0.3110 -0.5724
 3315SOL     OW21580   0.167   1.245   8.330 -0.7158 -0.7207 -0.1428
 3315SOL    HW121581   0.127   1.218   8.247  0.8015 -0.3147 -1.0270
 3315SOL    HW221582   0.086   1.257   8.379 -0.1417  0.9619  0.4001
 3316SOL     OW21583   3.869   2.448   6.747 -0.1578  0.5720 -0.0725
 3316SOL    HW121584   3.846   2.462   6.839 -0.3488 -3.6916  0.5213
 3316SOL    HW221585   3.823   2.525   6.713  1.4704  0.8947 -1.5219
 3317SOL     OW21586   1.462   2.119   9.550  0.0773 -0.5180 -0.4051
 3317SOL    HW121587   1.463   2.184   9.480  1.0923  0.0025  0.0891
 3317SOL    HW221588   1.433   2.178   9.620  1.5882  0.9082 -0.9930
 3318SOL     OW21589   3.672   4.123   6.773 -0.0901  0.1133  0.5207
 3318SOL    HW121590   3.643   4.072   6.848 -1.2597  0.6022  0.3916
 3318SOL    HW221591   3.626   4.205   6.788  2.7195  1.5014  1.6658
 3319SOL     OW21592   0.067   3.766  10.424 -0.0351  0.0533 -0.5232
 3319SOL    HW121593   0.046   3.701  10.491  0.2338  0.6431  0.1317
 3319SOL    HW221594   4.725   3.778  10.382 -0.1692 -1.5450 -0.6970
 3320SOL     OW21595   2.281   0.910   3.945 -0.3720  0.6619  0.6553
 3320SOL    HW121596   2.322   0.994   3.963 -0.2334  0.2610  2.2065
 3320SOL    HW221597   2.202   0.912   4.000 -1.2213 -2.1456 -0.4547
 3321SOL     OW21598   4.561   4.431  13.873  0.3879 -0.0204  0.1022
 3321SOL    HW121599   4.498   4.370  13.836  0.5694 -0.1547  0.0159
 3321SOL    HW221600   4.512   4.512  13.861  0.1075  0.0343  1.6381
 3322SOL     OW21601   2.322   4.481   3.145  0.1268 -0.1861  1.0206
 3322SOL    HW121602   2.230   4.504   3.132 -0.4323 -2.8097  0.2741
 3322SOL    HW221603   2.303   4.407   3.202  0.0422  0.3455  1.6822
 3323SOL     OW21604   1.201   0.642   2.241 -0.2965  0.1077 -0.3574
 3323SOL    HW121605   1.297   0.637   2.238 -0.2081  1.4563  0.3386
 3323SOL    HW221606   1.195   0.737   2.251 -3.6001 -0.1638  0.2677
 3324SOL     OW21607   0.895   0.600   7.792  0.1256  0.3409 -0.4545
 3324SOL    HW121608   0.922   0.669   7.852 -0.6781 -0.2290  0.5588
 3324SOL    HW221609   0.865   0.538   7.859  0.0159 -0.4649 -1.2481
 3325SOL     OW21610   0.069   4.283   8.475 -0.0008 -0.2174 -0.0383
 3325SOL    HW121611   0.018   4.284   8.394 -2.4283 -0.5593  1.4453
 3325SOL    HW221612   0.103   4.371   8.490  1.6095 -1.0607  1.3133
 3326SOL     OW21613   3.002   3.049   9.252 -0.6192  0.4067 -1.0534
 3326SOL    HW121614   3.076   3.099   9.286 -1.3488 -0.5495  1.9547
 3326SOL    HW221615   3.032   3.049   9.161  2.1869  2.2985 -0.1481
 3327SOL     OW21616   3.824   2.277   7.913  0.1240  0.1666  0.3685
 3327SOL    HW121617   3.762   2.280   7.840  0.3754  2.3276  0.2504
 3327SOL    HW221618   3.895   2.220   7.884  0.0002  0.1087  0.1790
 3328SOL     OW21619   0.994   3.487   8.906 -0.3706 -0.2750  0.6771
 3328SOL    HW121620   0.997   3.415   8.969  1.8703 -1.6594 -1.0441
 3328SOL    HW221621   1.084   3.484   8.874  0.0667  1.1324  1.7448
 3329SOL     OW21622   3.657   4.394  15.571  0.0513  0.2529 -0.0933
 3329SOL    HW121623   3.640   4.455  15.500 -1.6017  0.3250  0.3769
 3329SOL    HW221624   3.736   4.437  15.604  0.5711 -0.0535 -0.9535
 3330SOL     OW21625   0.343   1.929   2.652  0.0939  0.5209 -0.0830
 3330SOL    HW121626   0.350   2.020   2.681  1.8416  0.6697 -0.9754
 3330SOL    HW221627   0.419   1.932   2.594 -0.3328 -1.8561 -0.7416
 3331SOL     OW21628   4.254   4.710   2.078  0.0709 -0.2482  0.2063
 3331SOL    HW121629   4.290   4.709   2.166 -0.2156 -0.1634  0.3242
 3331SOL    HW221630   4.337   4.720   2.030  1.5509 -0.3353  2.7897
 3332SOL     OW21631   2.988   2.566   5.205 -0.1464  0.3782 -0.8260
 3332SOL    HW121632   2.905   2.554   5.251 -0.9112  0.6444 -2.1405
 3332SOL    HW221633   3.049   2.557   5.279 -1.4125  0.9453  0.2958
 3333SOL     OW21634   2.471   4.655   1.814 -0.6551 -0.3615  0.4728
 3333SOL    HW121635   2.443   4.581   1.760 -2.0840 -1.1180  2.2673
 3333SOL    HW221636   2.533   4.623   1.880  0.1591  0.3612  0.0715
 3334SOL     OW21637   3.742   1.131  16.611  0.2361  0.1691 -0.0126
 3334SOL    HW121638   3.746   1.036  16.626 -1.4373  0.3104  1.2752
 3334SOL    HW221639   3.704   1.154  16.696 -3.0867  0.7470 -1.6302
 3335SOL     OW21640   3.683   2.325  14.960  0.2727 -0.0773  0.0376
 3335SOL    HW121641   3.670   2.267  14.885  1.2558 -0.2998  0.0463
 3335SOL    HW221642   3.625   2.276  15.019  1.1258  0.8327  1.6417
 3336SOL     OW21643   2.698   1.404   7.549 -0.7010 -0.0645 -0.5154
 3336SOL    HW121644   2.736   1.467   7.488  4.9842 -1.5181  1.5550
 3336SOL    HW221645   2.751   1.326   7.532  0.4035  0.3447  1.0868
 3337SOL     OW21646   2.192   2.187   4.251 -0.1025  0.2864 -0.4386
 3337SOL    HW121647   2.209   2.274   4.287 -1.5628  1.0658 -1.6098
 3337SOL    HW221648   2.252   2.133   4.302 -1.2145  0.5512  1.1533
 3338SOL     OW21649   2.099   3.737  16.709  0.1542 -0.2231  0.0752
 3338SOL    HW121650   2.145   3.750  16.627 -0.0618  0.4176  0.0586
 3338SOL    HW221651   2.009   3.757  16.682 -0.5525 -2.7006  0.5975
 3339SOL     OW21652   0.824   3.599   7.285  0.0229 -0.0549  0.1573
 3339SOL    HW121653   0.783   3.627   7.367 -0.8462  1.5482 -0.8339
 3339SOL    HW221654   0.758   3.623   7.221  1.3409  0.0856 -1.1465
 3340SOL     OW21655   2.987   1.035  16.581  0.1906 -0.1239  0.6485
 3340SOL    HW121656   2.994   1.072  16.670 -2.0793  2.3032 -0.1766
 3340SOL    HW221657   2.960   1.110  16.528  1.6283  0.2561  0.4608
 3341SOL     OW21658   4.580   4.622  16.340  0.4784  0.1823  0.2941
 3341SOL    HW121659   4.512   4.583  16.395  1.5135  0.3004  1.6511
 3341SOL    HW221660   4.627   4.677  16.403  0.9542  1.7344 -1.3853
 3342SOL     OW21661   4.108   1.096   6.789 -0.2792 -0.2948 -0.0224
 3342SOL    HW121662   4.046   1.034   6.751  0.0810 -1.3366  1.1059
 3342SOL    HW221663   4.147   1.044   6.859 -1.4280  0.6379  1.2999
 3343SOL     OW21664   0.553   2.449   2.855  0.1358 -0.7911  0.2082
 3343SOL    HW121665   0.509   2.501   2.787  0.5219 -0.1131  0.4744
 3343SOL    HW221666   0.536   2.502   2.933  0.3000 -0.3044 -0.0870
 3344SOL     OW21667   3.754   0.512   9.545 -0.6074  0.0784  0.3531
 3344SOL    HW121668   3.746   0.607   9.533 -1.2485  0.1494  1.3084
 3344SOL    HW221669   3.669   0.484   9.510 -0.7704  2.6214 -1.2606
 3345SOL     OW21670   3.377   3.103  16.834 -0.0717  0.0035  0.4303
 3345SOL    HW121671   3.300   3.109  16.778  1.5820  0.2892 -1.7932
 3345SOL    HW221672   3.364   3.038  16.904  3.3951 -0.0552  1.0495
 3346SOL     OW21673   0.345   3.073   0.435 -0.5364  0.7159 -0.8525
 3346SOL    HW121674   0.429   3.115   0.415 -0.0871  0.1642 -0.0774
 3346SOL    HW221675   0.357   2.984   0.401 -0.8558  1.0372 -1.8203
 3347SOL     OW21676   1.927   0.427  12.519 -0.3478  0.2432  0.3462
 3347SOL    HW121677   1.839   0.434  12.556 -0.1869 -0.1873  0.8257
 3347SOL    HW221678   1.921   0.393  12.430 -0.2594  6.0042 -1.8027
 3348SOL     OW21679   2.525   0.421   8.546  0.2646  0.2213 -0.5743
 3348SOL    HW121680   2.609   0.465   8.535  0.3362 -0.2180 -1.7823
 3348SOL    HW221681   2.538   0.351   8.482 -2.4872  0.7124 -1.7051
 3349SOL     OW21682   4.043   4.704   1.128 -0.5706 -0.0387  0.4101
 3349SOL    HW121683   3.996   4.647   1.067  0.6705 -0.8341  0.1913
 3349SOL    HW221684   4.114   4.641   1.143 -2.1307 -2.4892 -2.4386
 3350SOL     OW21685   0.052   3.836   4.253 -0.2726  0.6874 -0.4799
 3350SOL    HW121686   4.726   3.770   4.263  0.6278  0.1898  2.2128
 3350SOL    HW221687   0.005   3.893   4.191 -1.0982  0.0442 -0.4527
 3351SOL     OW21688   4.264   3.331   6.049  0.3636 -0.1377  0.6275
 3351SOL    HW121689   4.205   3.380   5.991  0.0948  1.0407  1.9123
 3351SOL    HW221690   4.242   3.353   6.139  0.2425  2.4632 -0.0147
 3352SOL     OW21691   4.502   2.716  13.430 -0.0214 -0.0832 -0.2387
 3352SOL    HW121692   4.559   2.793  13.432  0.7243 -0.7164  2.9104
 3352SOL    HW221693   4.484   2.718  13.524  1.7391 -2.1588  0.1451
 3353SOL     OW21694   2.818   2.522  12.112  0.0473 -0.0322 -0.0262
 3353SOL    HW121695   2.905   2.507  12.073  0.5072  2.0047  0.1713
 3353SOL    HW221696   2.765   2.488  12.040 -0.8661  1.1850  0.0673
 3354SOL     OW21697   4.060   1.620   6.401  0.0229  0.7971  0.1970
 3354SOL    HW121698   4.057   1.646   6.309 -0.6587 -0.5390 -0.1559
 3354SOL    HW221699   4.012   1.687   6.451 -0.8013 -0.3030  0.8772
 3355SOL     OW21700   1.794   0.220   8.870  0.4906  0.1147 -0.0886
 3355SOL    HW121701   1.851   0.175   8.807 -1.6055  1.7164 -3.0834
 3355SOL    HW221702   1.774   0.140   8.919 -0.7611  1.5813  1.7689
 3356SOL     OW21703   3.639   1.888   1.493 -0.3966  0.1148  0.4489
 3356SOL    HW121704   3.640   1.962   1.433 -1.4381 -1.1545 -1.1388
 3356SOL    HW221705   3.602   1.933   1.569 -1.3160  0.8727 -0.4358
 3357SOL     OW21706   4.009   1.762   3.946  0.4531  0.1027 -0.6369
 3357SOL    HW121707   3.942   1.801   4.002 -0.0696  0.4135 -1.4851
 3357SOL    HW221708   3.960   1.736   3.868 -0.8276 -0.7399  0.4590
 3358SOL     OW21709   2.275   2.162   2.673  0.2235  0.0453  0.3567
 3358SOL    HW121710   2.187   2.139   2.643  0.9635 -1.8938 -0.2843
 3358SOL    HW221711   2.324   2.101   2.619 -1.2352  0.7455 -1.7566
 3359SOL     OW21712   1.013   1.227   1.792  0.1223 -0.4617  0.2755
 3359SOL    HW121713   0.920   1.204   1.789  0.6514 -2.7182  1.0324
 3359SOL    HW221714   1.016   1.286   1.717 -0.3468 -2.0680 -0.9845
 3360SOL     OW21715   2.336   2.241   7.181 -0.2211  0.5332  0.3704
 3360SOL    HW121716   2.428   2.220   7.192 -0.5208 -0.3787  1.1320
 3360SOL    HW221717   2.328   2.293   7.262 -2.7626  1.1156 -0.2287
 3361SOL     OW21718   2.052   4.009   8.428 -0.3821 -0.1145 -0.0778
 3361SOL    HW121719   2.041   3.915   8.414 -3.0914  0.0033  1.2890
 3361SOL    HW221720   2.135   4.003   8.475  0.3687 -0.6649 -1.4807
 3362SOL     OW21721   1.728   3.490   0.228  0.0866  0.4153 -0.1633
 3362SOL    HW121722   1.795   3.424   0.243 -0.9522 -0.7503 -0.6615
 3362SOL    HW221723   1.767   3.570   0.264  0.9002  0.0038 -0.1464
 3363SOL     OW21724   4.730   2.664   5.135 -0.3603 -0.3218  0.1794
 3363SOL    HW121725   0.048   2.623   5.074 -1.2163 -0.6785 -0.4598
 3363SOL    HW221726   4.693   2.735   5.082 -1.5306 -2.1102 -1.4080
 3364SOL     OW21727   4.009   2.417   9.421  0.3196 -0.3472  0.5562
 3364SOL    HW121728   3.921   2.390   9.448 -0.8790  1.1660 -1.8521
 3364SOL    HW221729   4.034   2.340   9.370  1.0900 -1.7687  3.0694
 3365SOL     OW21730   4.507   2.772   3.492 -0.2387 -0.5369  0.0238
 3365SOL    HW121731   4.591   2.819   3.495 -0.6268  0.3920 -3.5740
 3365SOL    HW221732   4.544   2.687   3.468  0.6220  0.9207 -3.8241
 3366SOL     OW21733   4.563   2.169   4.859 -0.6577 -0.4752  0.6791
 3366SOL    HW121734   4.547   2.259   4.884  0.5504 -0.4268  1.2857
 3366SOL    HW221735   4.499   2.124   4.913 -1.7100  0.0626 -0.1239
 3367SOL     OW21736   2.716   0.942   5.638 -0.5212  0.2639 -0.3481
 3367SOL    HW121737   2.715   0.955   5.733  0.4403  0.0378 -0.3138
 3367SOL    HW221738   2.684   0.852   5.630 -1.3824  0.5898 -0.6481
 3368SOL     OW21739   1.514   1.036   4.638  0.8304  0.2710  0.4966
 3368SOL    HW121740   1.457   1.000   4.706  1.5599  0.5502  1.2447
 3368SOL    HW221741   1.444   1.079   4.588  1.3866  0.8672  0.2367
 3369SOL     OW21742   2.611   1.841   0.696  0.3188 -0.1441  0.2239
 3369SOL    HW121743   2.562   1.920   0.720 -0.4210 -1.3720  2.7359
 3369SOL    HW221744   2.649   1.833   0.784  1.0825 -4.1572 -0.4669
 3370SOL     OW21745   1.012   2.982  17.334  0.5255  0.2547 -0.0443
 3370SOL    HW121746   0.931   2.967  17.286  0.3039 -0.5890  0.5781
 3370SOL    HW221747   1.031   2.896  17.373  1.1898  0.1798 -0.5305
 3371SOL     OW21748   1.620   2.413   5.834  0.2075 -0.0391  0.0141
 3371SOL    HW121749   1.645   2.327   5.868  0.8105 -0.6340 -1.9331
 3371SOL    HW221750   1.526   2.397   5.835  0.2820 -0.5637 -1.1276
 3372SOL     OW21751   1.760   4.397   6.166  0.3095  0.1571  0.0904
 3372SOL    HW121752   1.721   4.476   6.205 -2.0410 -0.4604 -0.9814
 3372SOL    HW221753   1.708   4.333   6.214 -0.1626 -0.2997 -1.0333
 3373SOL     OW21754   1.447   2.330   7.879  0.6321 -0.1880  0.3649
 3373SOL    HW121755   1.493   2.262   7.928  2.6278  1.3921  0.6706
 3373SOL    HW221756   1.469   2.306   7.789 -2.1384 -0.4275 -0.2385
 3374SOL     OW21757   0.954   0.076   3.320  0.3476  0.2988  0.0476
 3374SOL    HW121758   0.937   0.034   3.405 -0.1654  2.8154  1.2001
 3374SOL    HW221759   0.961   4.741   3.266 -0.2117  1.1742 -1.3007
 3375SOL     OW21760   2.430   1.127   2.125  0.3637 -0.3750 -0.1473
 3375SOL    HW121761   2.346   1.118   2.168  0.5525 -3.0556 -0.3280
 3375SOL    HW221762   2.478   1.184   2.186 -0.5010 -1.5047  1.5829
 3376SOL     OW21763   0.294   3.298   7.232  0.7481  0.2911  0.6833
 3376SOL    HW121764   0.322   3.382   7.195  0.9074 -0.3420 -0.6434
 3376SOL    HW221765   0.289   3.249   7.149 -0.9392  1.4384  0.1119
 3377SOL     OW21766   4.252   1.368   4.090 -0.2090  0.4992  0.5949
 3377SOL    HW121767   4.243   1.452   4.045 -0.5315 -0.0959 -0.4522
 3377SOL    HW221768   4.167   1.356   4.133 -0.4680 -1.4500 -0.4656
 3378SOL     OW21769   4.285   2.997  15.468  0.9719  0.8442  0.4411
 3378SOL    HW121770   4.202   3.035  15.498 -0.2257 -0.7418 -0.8925
 3378SOL    HW221771   4.321   3.072  15.419 -1.2366  0.7044 -1.3578
 3379SOL     OW21772   2.321   3.425   8.035  0.3620  0.3977 -0.2524
 3379SOL    HW121773   2.365   3.349   8.071  2.8519  1.2405 -1.5332
 3379SOL    HW221774   2.303   3.481   8.110  0.0846 -0.2011  0.1264
 3380SOL     OW21775   0.881   0.897   5.547 -0.2538 -0.2423 -0.0365
 3380SOL    HW121776   0.852   0.849   5.625  1.0026  0.7396  1.0367
 3380SOL    HW221777   0.975   0.881   5.552 -0.0884  1.3197  1.6111
 3381SOL     OW21778   3.777   4.139   3.454  0.6978  0.6386 -0.2007
 3381SOL    HW121779   3.862   4.164   3.420  0.0125  0.4294 -2.0858
 3381SOL    HW221780   3.785   4.152   3.549 -1.7392 -1.2797  0.2658
 3382SOL     OW21781   4.113   0.131   7.862 -0.2046  0.1747 -0.0378
 3382SOL    HW121782   4.116   0.155   7.955  1.8872  2.1768 -0.6245
 3382SOL    HW221783   4.200   0.112   7.826 -0.3559  2.1634 -1.4360
 3383SOL     OW21784   3.215   4.502   1.358  0.1873  0.0910  0.2573
 3383SOL    HW121785   3.258   4.535   1.437  0.3077 -0.9001  0.6012
 3383SOL    HW221786   3.129   4.490   1.397 -0.1239 -1.1173 -0.8183
 3384SOL     OW21787   1.373   2.444  16.865  0.0212  0.0639 -0.4198
 3384SOL    HW121788   1.304   2.491  16.818  0.5925  1.5258  0.2043
 3384SOL    HW221789   1.428   2.510  16.906 -1.7374  2.0011 -1.1706
 3385SOL     OW21790   3.213   0.708   3.313  0.4336 -0.4311 -0.8708
 3385SOL    HW121791   3.303   0.729   3.338 -0.5865  1.6196  1.0999
 3385SOL    HW221792   3.162   0.751   3.382 -1.5236  0.0215 -2.5926
 3386SOL     OW21793   1.484   0.180   9.065 -0.0002 -0.6811 -0.1206
 3386SOL    HW121794   1.519   0.092   9.051  2.0353  0.7569 -4.1242
 3386SOL    HW221795   1.395   0.157   9.093  0.2581 -0.0979  1.1780
 3387SOL     OW21796   0.684   0.515   1.336  0.4483 -0.2444 -0.1117
 3387SOL    HW121797   0.711   0.424   1.340  1.4985 -0.0299 -2.3674
 3387SOL    HW221798   0.767   0.556   1.361  1.4743 -2.5029  0.1521
 3388SOL     OW21799   2.037   3.600   4.112 -0.2149 -0.4591  0.4897
 3388SOL    HW121800   1.976   3.526   4.112  0.5363 -1.0716  0.8015
 3388SOL    HW221801   1.999   3.653   4.042 -0.5955 -2.3359 -0.7371
 3389SOL     OW21802   4.531   3.359  10.788  0.4690  0.1006 -0.3253
 3389SOL    HW121803   4.511   3.367  10.695 -0.0103  0.1054 -0.2250
 3389SOL    HW221804   4.592   3.430  10.805  1.2466  0.2142 -3.4998
 3390SOL     OW21805   2.204   0.751   4.525 -0.0597  0.1879 -0.7767
 3390SOL    HW121806   2.197   0.819   4.593 -0.7848  0.9264 -1.5954
 3390SOL    HW221807   2.177   0.676   4.578 -0.3128  0.7067 -0.1690
 3391SOL     OW21808   3.576   2.722   2.989 -0.0530 -0.1831  1.1449
 3391SOL    HW121809   3.617   2.721   3.075 -0.3690  0.8263  1.3033
 3391SOL    HW221810   3.557   2.816   2.985 -1.6373 -0.5824 -0.9951
 3392SOL     OW21811   3.823   1.206   6.879 -0.3995 -0.2494  0.4190
 3392SOL    HW121812   3.729   1.194   6.867 -0.3293 -0.6455  0.2464
 3392SOL    HW221813   3.844   1.125   6.925 -1.0616 -1.7864 -1.9578
 3393SOL     OW21814   3.779   2.181   1.702  0.2831  0.0186 -0.3185
 3393SOL    HW121815   3.696   2.135   1.691 -0.1751  1.0654 -1.2604
 3393SOL    HW221816   3.776   2.249   1.634  1.9072 -1.1941 -1.6014
 3394SOL     OW21817   3.266   2.974   4.727  0.0550 -0.6024 -0.1918
 3394SOL    HW121818   3.181   2.989   4.684  0.9873  1.6743 -1.2355
 3394SOL    HW221819   3.289   3.063   4.753 -0.0586 -0.5956 -0.1128
 3395SOL     OW21820   0.579   2.823  10.026  0.0028  0.0532 -0.5253
 3395SOL    HW121821   0.516   2.801   9.957 -1.4451 -0.7376  1.0510
 3395SOL    HW221822   0.655   2.857   9.977  0.9641  0.4829  1.2851
 3396SOL     OW21823   0.406   2.129   1.700  0.2738  0.0874 -0.3467
 3396SOL    HW121824   0.378   2.168   1.618  1.7377  1.2650 -0.3017
 3396SOL    HW221825   0.338   2.063   1.711  2.0820 -1.4115  1.8642
 3397SOL     OW21826   3.122   2.371  11.072 -0.3228  0.3699 -0.2754
 3397SOL    HW121827   3.150   2.292  11.025 -2.0662 -1.7189  2.2719
 3397SOL    HW221828   3.206   2.414  11.088 -0.0823 -0.0182 -0.5119
 3398SOL     OW21829   0.238   3.567   9.355 -0.2365 -0.1137  0.1355
 3398SOL    HW121830   0.190   3.629   9.300 -1.2661 -1.1829 -0.1624
 3398SOL    HW221831   0.191   3.484   9.350  1.3069 -1.0112  0.7640
 3399SOL     OW21832   1.446   1.668  15.756  0.0421 -0.5294  0.0129
 3399SOL    HW121833   1.465   1.694  15.666  3.0373 -1.2596  0.4375
 3399SOL    HW221834   1.462   1.574  15.762 -0.2362 -0.7795 -3.4459
 3400SOL     OW21835   2.488   1.048   5.450  0.2146 -0.0322  0.1698
 3400SOL    HW121836   2.570   1.020   5.489 -0.4043 -2.5232 -0.3161
 3400SOL    HW221837   2.490   1.144   5.451 -1.5458  0.0152  0.8689
 3401SOL     OW21838   1.102   1.038   7.808  0.3568 -0.3038  0.3627
 3401SOL    HW121839   1.142   1.079   7.885 -1.4052  0.8218  0.6723
 3401SOL    HW221840   1.175   0.986   7.775 -0.6592 -0.5898 -1.4545
 3402SOL     OW21841   3.495   3.649   9.422 -0.1206  0.6884  0.1638
 3402SOL    HW121842   3.580   3.627   9.383  0.4588  1.0753  1.2033
 3402SOL    HW221843   3.477   3.571   9.474 -2.1463  1.7570  1.0646
 3403SOL     OW21844   2.922   2.602   3.859  0.8250 -0.0550  0.4603
 3403SOL    HW121845   2.941   2.687   3.820 -0.0864  1.5818  3.5767
 3403SOL    HW221846   2.838   2.580   3.818  2.2856 -0.9261 -2.0460
 3404SOL     OW21847   4.410   0.956   8.874  0.0039 -0.1420 -0.3815
 3404SOL    HW121848   4.401   0.909   8.791 -0.2542  1.7854 -1.4709
 3404SOL    HW221849   4.319   0.967   8.899  0.0273 -0.9640  0.0308
 3405SOL     OW21850   4.334   0.638   7.324 -0.3903  0.2953  0.3180
 3405SOL    HW121851   4.295   0.720   7.294  0.8172  1.1701  1.0983
 3405SOL    HW221852   4.296   0.576   7.263 -1.5135  1.5847 -0.2965
 3406SOL     OW21853   2.905   1.462   5.378  0.7700  0.1087  0.2409
 3406SOL    HW121854   2.947   1.381   5.348 -0.8152  0.0947 -1.9817
 3406SOL    HW221855   2.812   1.442   5.369  1.1465 -1.6047  0.1638
 3407SOL     OW21856   1.326   2.191   4.766  0.2151  0.3544  0.0485
 3407SOL    HW121857   1.379   2.221   4.692 -0.9931  0.4576 -0.7632
 3407SOL    HW221858   1.260   2.259   4.760  0.2265  0.2159 -1.5110
 3408SOL     OW21859   0.913   4.250   7.427  0.4041 -0.3639 -0.5094
 3408SOL    HW121860   0.997   4.259   7.383 -0.7885  0.9548 -2.5174
 3408SOL    HW221861   0.852   4.267   7.355  3.1543  1.5392 -2.3842
 3409SOL     OW21862   2.334   3.091   7.866 -0.7573 -0.4765  0.0458
 3409SOL    HW121863   2.379   3.109   7.948 -2.3124 -0.1873  0.8369
 3409SOL    HW221864   2.389   3.132   7.799  1.7413 -2.2291  1.0381
 3410SOL     OW21865   3.996   1.952   5.818  0.0967 -0.4466  0.7168
 3410SOL    HW121866   4.084   1.936   5.852  1.3319  0.1804 -2.1731
 3410SOL    HW221867   3.997   1.893   5.743  1.1693  2.5504 -1.6509
 3411SOL     OW21868   4.254   3.674   8.975  0.2336  0.3575  0.7706
 3411SOL    HW121869   4.203   3.692   9.054  1.4707  0.2578  1.5984
 3411SOL    HW221870   4.326   3.737   8.989  1.0644 -0.1784 -1.1036
 3412SOL     OW21871   0.621   1.508   9.020  0.1024  0.3887 -0.1002
 3412SOL    HW121872   0.635   1.587   8.968 -2.0073  2.5266  2.5899
 3412SOL    HW221873   0.532   1.491   8.989  1.2382 -1.3699 -2.4349
 3413SOL     OW21874   0.955   4.031   8.503 -0.3684  0.4020  0.4074
 3413SOL    HW121875   0.861   4.023   8.487 -0.6557  1.1397  1.6410
 3413SOL    HW221876   0.987   4.081   8.428 -0.4096 -0.2062 -0.0105
 3414SOL     OW21877   3.799   1.792   7.298 -0.2484  0.3471  0.2061
 3414SOL    HW121878   3.831   1.749   7.377  1.7192  1.8089  0.2147
 3414SOL    HW221879   3.848   1.737   7.237  1.1794  2.4620 -0.5473
 3415SOL     OW21880   4.407   0.707  17.131  0.4959  0.0098 -0.3460
 3415SOL    HW121881   4.503   0.714  17.129  0.3470  2.0116 -0.1234
 3415SOL    HW221882   4.384   0.631  17.077 -0.9976 -0.1535  0.5210
 3416SOL     OW21883   0.212   4.325   7.583 -0.1573 -0.0935 -0.6527
 3416SOL    HW121884   0.292   4.276   7.604 -1.0483 -2.0630 -1.7930
 3416SOL    HW221885   0.241   4.415   7.595 -1.8775  0.0927  2.2154
 3417SOL     OW21886   3.483   0.733   3.333  0.0705  0.2261  0.3432
 3417SOL    HW121887   3.498   0.827   3.326  2.1449 -0.2556 -1.6738
 3417SOL    HW221888   3.569   0.708   3.300  0.0178 -1.5841  1.5347
 3418SOL     OW21889   3.408   3.140   2.109  0.1218 -0.1800  0.2978
 3418SOL    HW121890   3.448   3.227   2.109 -0.6375  0.1647 -0.3480
 3418SOL    HW221891   3.326   3.164   2.067  2.2926  1.8382 -2.7958
 3419SOL     OW21892   4.577   0.239   2.061 -0.3835 -0.4062  0.5415
 3419SOL    HW121893   4.575   0.246   2.156  0.0081 -0.8520  0.5807
 3419SOL    HW221894   4.510   0.304   2.041  1.1861  1.4316  1.2523
 3420SOL     OW21895   2.701   2.577  11.853 -0.3193  0.0712 -0.0199
 3420SOL    HW121896   2.678   2.574  11.760 -1.7687  2.1497  0.2870
 3420SOL    HW221897   2.697   2.670  11.873 -2.7973  0.3387 -1.7279
 3421SOL     OW21898   0.044   1.161   3.029 -0.0421 -0.2213  0.2308
 3421SOL    HW121899   0.120   1.215   3.005  1.8089 -3.6620 -1.5900
 3421SOL    HW221900   4.709   1.192   2.984  0.1661  1.2538  0.8969
 3422SOL     OW21901   3.007   2.122   7.755  0.2583  0.2643 -0.0715
 3422SOL    HW121902   3.066   2.190   7.788  1.4445 -1.7708  2.0337
 3422SOL    HW221903   2.961   2.169   7.686 -0.7869  0.4529  0.7460
 3423SOL     OW21904   3.048   0.143   6.838 -0.2802  0.3989  0.8991
 3423SOL    HW121905   3.009   0.074   6.784  3.2052  2.3796 -4.1159
 3423SOL    HW221906   3.070   0.092   6.916 -2.8902 -1.4584  0.4224
 3424SOL     OW21907   2.630   1.575   6.761  0.0202 -0.0981  0.1606
 3424SOL    HW121908   2.710   1.526   6.744  0.6998  0.4858  1.7367
 3424SOL    HW221909   2.665   1.659   6.792  1.8861 -0.7208 -0.2329
 3425SOL     OW21910   0.953   4.247   6.250  0.3743  0.3145  0.2996
 3425SOL    HW121911   0.954   4.247   6.345  0.3346  0.5029  0.2989
 3425SOL    HW221912   0.995   4.328   6.221 -1.2824  0.1616 -2.5383
 3426SOL     OW21913   3.846   0.011   7.508 -0.6459 -0.1037 -0.0338
 3426SOL    HW121914   3.764   0.039   7.468 -0.0655 -0.4179 -1.4798
 3426SOL    HW221915   3.910   0.020   7.437 -1.0148  0.4952 -0.2901
 3427SOL     OW21916   2.122   0.199   2.113 -0.0793  0.3034  0.1317
 3427SOL    HW121917   2.131   0.213   2.019 -0.4524  1.4870  0.2656
 3427SOL    HW221918   2.212   0.226   2.130  0.7815 -3.5298  1.6624
 3428SOL     OW21919   3.032   0.933  11.395  0.0896 -0.2227 -0.0112
 3428SOL    HW121920   3.118   0.897  11.372 -0.1024 -0.6095 -0.1113
 3428SOL    HW221921   3.021   1.003  11.331 -1.4745  0.8961  1.4809
 3429SOL     OW21922   2.456   1.121   4.272  0.7640  0.0806  0.1903
 3429SOL    HW121923   2.519   1.062   4.312  0.4365 -1.8039 -2.0904
 3429SOL    HW221924   2.374   1.107   4.321  0.8699  0.2682  0.4225
 3430SOL     OW21925   3.026   2.179   8.800 -0.1765 -0.1813  0.4855
 3430SOL    HW121926   3.107   2.134   8.828  0.3278 -0.1180 -0.8805
 3430SOL    HW221927   3.054   2.265   8.769 -0.0531 -0.2257  0.4706
 3431SOL     OW21928   4.665   2.443   6.288  0.0453  0.0004  0.5974
 3431SOL    HW121929   4.699   2.521   6.331  2.6838  0.7657 -2.8820
 3431SOL    HW221930   4.595   2.440   6.353  0.3213  0.4600  0.9146
 3432SOL     OW21931   3.363   1.971   5.552  0.0257 -0.0776  0.1344
 3432SOL    HW121932   3.418   1.894   5.543 -0.0772 -0.3169  1.4440
 3432SOL    HW221933   3.389   2.019   5.474 -0.4122  0.8080  0.5325
 3433SOL     OW21934   4.015   2.810   7.124  0.1077 -0.1344  0.3638
 3433SOL    HW121935   3.947   2.766   7.074  0.3911 -0.7196  0.4896
 3433SOL    HW221936   3.986   2.800   7.215  0.9124  0.9389  0.7417
 3434SOL     OW21937   0.436   2.542   4.450  0.2339  0.2541  0.3713
 3434SOL    HW121938   0.517   2.592   4.455 -0.6107  1.5552  1.2026
 3434SOL    HW221939   0.456   2.460   4.407 -0.3187  0.3544 -0.0762
 3435SOL     OW21940   4.359   4.539   3.314  0.2169  1.1122  0.2288
 3435SOL    HW121941   4.450   4.512   3.302 -0.2110 -0.2357 -0.0179
 3435SOL    HW221942   4.376   4.602   3.384  1.0596 -1.9395  2.8109
 3436SOL     OW21943   4.038   0.529   2.833 -0.8790 -0.3770  0.6557
 3436SOL    HW121944   3.984   0.464   2.877  0.7548 -1.0760  1.6343
 3436SOL    HW221945   4.070   0.591   2.899  0.2527  0.4898 -0.7028
 3437SOL     OW21946   0.283   0.670   0.637  0.0670 -0.3401  0.6134
 3437SOL    HW121947   0.220   0.720   0.689  1.0365  0.8778  0.6100
 3437SOL    HW221948   0.303   0.596   0.695 -0.3432 -0.4934  0.5603
 3438SOL     OW21949   0.213   1.338   8.709  0.6263  0.2507 -0.1955
 3438SOL    HW121950   0.123   1.369   8.704  0.1248 -1.1620 -0.0952
 3438SOL    HW221951   0.243   1.354   8.619  0.8422  2.5277  0.2867
 3439SOL     OW21952   2.309   2.638   3.672  0.1069  1.2175  0.0184
 3439SOL    HW121953   2.242   2.665   3.608 -0.6244  0.6123  0.5341
 3439SOL    HW221954   2.384   2.653   3.614  1.2176  0.7530  1.3347
 3440SOL     OW21955   1.036   1.216   3.276  0.1405  0.2478 -0.3148
 3440SOL    HW121956   1.081   1.300   3.264  0.1076  0.6813  2.5184
 3440SOL    HW221957   1.080   1.164   3.210 -1.0772 -1.2183  0.0268
 3441SOL     OW21958   2.114   4.704   3.174  0.2328  0.1470 -0.1691
 3441SOL    HW121959   2.130   4.660   3.258  1.1607  3.1742  1.2459
 3441SOL    HW221960   2.184   0.027   3.174  0.1055  0.2622 -2.1884
 3442SOL     OW21961   0.552   3.992   7.830 -0.3393  0.0667  0.2404
 3442SOL    HW121962   0.497   3.948   7.765  1.7171 -0.5459 -1.0770
 3442SOL    HW221963   0.529   3.968   7.920  2.6105  1.4843  1.3513
 3443SOL     OW21964   3.571   0.464  12.356 -0.6210  0.6340  0.3044
 3443SOL    HW121965   3.553   0.512  12.275  0.7683  0.7157  0.0460
 3443SOL    HW221966   3.506   0.393  12.355 -0.7401  0.7365  1.0013
 3444SOL     OW21967   0.677   4.212   7.274  0.1153  0.0469  0.0909
 3444SOL    HW121968   0.635   4.167   7.347  0.6005 -0.1961  0.2155
 3444SOL    HW221969   0.748   4.152   7.251  0.1043 -0.1981  0.6877
 3445SOL     OW21970   4.132   1.176   7.375  0.5730 -0.1259  0.0351
 3445SOL    HW121971   4.137   1.153   7.282  1.1416  3.2103 -0.7612
 3445SOL    HW221972   4.215   1.224   7.385  0.9516 -0.5124 -1.2200
 3446SOL     OW21973   2.146   1.617   4.968  0.4519  0.0075  0.4868
 3446SOL    HW121974   2.148   1.545   5.032  2.3963 -2.4804 -2.3948
 3446SOL    HW221975   2.194   1.682   5.019  1.7610 -0.3216 -0.3402
 3447SOL     OW21976   1.508   4.008   6.612 -0.1700  0.1294  0.0210
 3447SOL    HW121977   1.586   3.986   6.663  0.6578  0.1135 -1.2716
 3447SOL    HW221978   1.529   3.969   6.527  0.4271  0.8364 -0.1552
 3448SOL     OW21979   1.395   3.736   4.708 -1.2492 -0.2509 -0.3526
 3448SOL    HW121980   1.361   3.824   4.695 -0.1874  0.2711  0.3630
 3448SOL    HW221981   1.486   3.754   4.681 -2.0802  0.8842 -2.3770
 3449SOL     OW21982   3.278   1.457   6.529  0.3172 -0.1123  0.1064
 3449SOL    HW121983   3.261   1.429   6.619  3.9619  1.4792  1.3144
 3449SOL    HW221984   3.212   1.526   6.527 -0.0631 -0.3929  3.1620
 3450SOL     OW21985   0.430   3.961  15.683  0.4042  0.1611  0.7666
 3450SOL    HW121986   0.440   3.943  15.590  0.5105 -0.8478  0.9746
 3450SOL    HW221987   0.476   3.891  15.728  2.3433  0.6388 -0.5101
 3451SOL     OW21988   2.756   1.135   4.092 -0.0964  0.3049  0.0896
 3451SOL    HW121989   2.804   1.125   4.175  1.5930  1.4263 -0.7338
 3451SOL    HW221990   2.745   1.047   4.056 -0.8191  0.7951 -0.8829
 3452SOL     OW21991   1.883   4.031   6.450 -0.4354 -0.4528 -0.0771
 3452SOL    HW121992   1.820   3.975   6.496 -1.2780 -0.3037 -1.0579
 3452SOL    HW221993   1.899   3.992   6.365  1.1287  1.6001 -0.7225
 3453SOL     OW21994   0.782   0.436  11.933  0.5569 -0.6059  0.4425
 3453SOL    HW121995   0.867   0.461  11.895 -0.5921  2.0199 -0.3569
 3453SOL    HW221996   0.729   0.426  11.854  2.3026 -2.2152 -0.5383
 3454SOL     OW21997   3.211   3.714   8.064  0.1000  0.3406 -0.1989
 3454SOL    HW121998   3.166   3.648   8.117 -2.0618  1.0746 -1.1303
 3454SOL    HW221999   3.178   3.788   8.115  2.4687 -1.8151  4.3851
 3455SOL     OW22000   0.697   1.863  11.294  0.4483 -0.7199 -0.8645
 3455SOL    HW122001   0.673   1.888  11.383 -0.9678  1.3969 -1.8381
 3455SOL    HW222002   0.761   1.931  11.278 -1.1759  1.0745  0.2396
 3456SOL     OW22003   4.128   0.038   1.499  0.5170  0.5049 -0.4563
 3456SOL    HW122004   4.072   0.060   1.424 -0.8735 -1.2012  0.0858
 3456SOL    HW222005   4.208   0.084   1.475  1.9220 -1.6042  0.2373
 3457SOL     OW22006   4.708   1.144  10.136 -0.0417  0.2113 -0.4795
 3457SOL    HW122007   0.012   1.226  10.119 -1.3288 -0.0553 -5.3167
 3457SOL    HW222008   4.651   1.146  10.060 -1.6260 -1.2825  0.6874
 3458SOL     OW22009   1.637   1.736   8.686  0.7508 -0.6404  0.1022
 3458SOL    HW122010   1.598   1.715   8.602 -0.4655  1.1118  0.2359
 3458SOL    HW222011   1.718   1.773   8.651 -0.0355 -0.4195 -1.4464
 3459SOL     OW22012   0.607   0.522  15.513  0.5080 -0.5013  0.7105
 3459SOL    HW122013   0.620   0.466  15.589 -1.4524  0.3362  1.6781
 3459SOL    HW222014   0.690   0.516  15.465 -0.8944  2.3301 -2.1270
 3460SOL     OW22015   0.736   4.120   2.365  0.3187  0.6389 -0.9194
 3460SOL    HW122016   0.665   4.057   2.363 -0.2348  1.1738  1.0831
 3460SOL    HW222017   0.778   4.107   2.280  0.6564  2.6651 -1.0846
 3461SOL     OW22018   1.712   0.052   7.578  0.5203 -0.4583  0.1677
 3461SOL    HW122019   1.652   0.001   7.634 -0.6941  0.4530 -0.2911
 3461SOL    HW222020   1.719   0.003   7.496 -0.2337 -0.4920  0.1159
 3462SOL     OW22021   1.030   3.533   7.699  0.0630  0.2347 -0.3442
 3462SOL    HW122022   1.116   3.564   7.727  0.2130  0.6563 -1.3098
 3462SOL    HW222023   1.048   3.497   7.612  1.1745  0.1061 -0.0615
 3463SOL     OW22024   2.477   3.329  15.746 -0.1414 -0.2084  0.2834
 3463SOL    HW122025   2.472   3.371  15.660 -1.4064 -2.3116 -0.6637
 3463SOL    HW222026   2.555   3.367  15.787 -1.1795  0.5435  1.5691
 3464SOL     OW22027   4.256   3.385   7.451 -0.3892 -0.5779  0.1310
 3464SOL    HW122028   4.298   3.330   7.385 -1.4755  0.4106 -1.3724
 3464SOL    HW222029   4.234   3.471   7.416 -0.5945 -1.7655 -2.6133
 3465SOL     OW22030   0.342   2.970   5.268  0.2482 -0.4638  0.4256
 3465SOL    HW122031   0.290   3.050   5.265  1.0186  0.0576  1.0585
 3465SOL    HW222032   0.365   2.949   5.177 -2.3495 -0.3249 -0.2741
 3466SOL     OW22033   3.734   1.889   9.725 -0.0138  0.0805  0.2321
 3466SOL    HW122034   3.666   1.879   9.659  1.2854  2.7136 -1.4972
 3466SOL    HW222035   3.715   1.807   9.771 -1.7955 -0.0135 -0.6884
 3467SOL     OW22036   2.583   1.301   8.953  0.0731  0.3321  0.4721
 3467SOL    HW122037   2.572   1.371   9.017 -1.1895  1.1192 -0.6048
 3467SOL    HW222038   2.675   1.279   8.971  0.0711  1.2219  1.5322
 3468SOL     OW22039   2.219   2.720   9.511  0.2295  0.8643  0.1247
 3468SOL    HW122040   2.245   2.708   9.603  1.1826 -0.4387 -0.3164
 3468SOL    HW222041   2.280   2.787   9.480 -0.6492  0.3609 -2.6859
 3469SOL     OW22042   1.973   4.125   5.153  0.1251 -0.0708  0.9161
 3469SOL    HW122043   1.972   4.140   5.248  0.4621  1.5933  0.6580
 3469SOL    HW222044   1.903   4.061   5.140  0.5141 -0.3048 -0.0107
 3470SOL     OW22045   1.351   1.486   0.101  0.4092 -0.3588  0.0993
 3470SOL    HW122046   1.259   1.460   0.099 -0.0024  1.0728  0.6224
 3470SOL    HW222047   1.375   1.446   0.185 -0.3368 -0.3836  0.2981
 3471SOL     OW22048   4.485   2.322   8.365 -0.0996 -0.6210  0.3716
 3471SOL    HW122049   4.472   2.228   8.377 -1.6730 -0.3275  0.9767
 3471SOL    HW222050   4.475   2.323   8.269  0.0182 -0.2886  0.3629
 3472SOL     OW22051   4.322   1.454   9.534  0.0719 -0.2269  0.0580
 3472SOL    HW122052   4.384   1.474   9.465  0.7941 -0.9386  0.4899
 3472SOL    HW222053   4.258   1.398   9.490  0.2407 -0.0456 -0.4167
 3473SOL     OW22054   0.448   4.380   8.380 -0.7485 -0.3847 -0.0226
 3473SOL    HW122055   0.455   4.315   8.311 -2.8049 -0.2129 -0.4120
 3473SOL    HW222056   0.542   4.397   8.385 -0.7240 -0.8249  1.2211
 3474SOL     OW22057   4.316   1.996   4.939 -0.0360 -0.4658  0.1882
 3474SOL    HW122058   4.287   1.974   4.851 -0.3316 -0.9360  0.4010
 3474SOL    HW222059   4.245   1.961   4.993 -1.4004  0.9177 -0.6945
 3475SOL     OW22060   4.359   4.220  12.506 -0.0583  0.1002 -0.9146
 3475SOL    HW122061   4.427   4.281  12.536 -1.1239  1.7136 -1.8323
 3475SOL    HW222062   4.324   4.188  12.590  1.2060 -1.7274 -1.0879
 3476SOL     OW22063   4.508   0.440  10.569 -0.6198 -0.1591 -0.6855
 3476SOL    HW122064   4.573   0.494  10.612 -0.6536 -0.5703 -0.1104
 3476SOL    HW222065   4.489   0.379  10.640 -3.8118  0.2629 -1.1664
 3477SOL     OW22066   1.299   3.037   4.171  0.7172  0.0933 -0.0924
 3477SOL    HW122067   1.340   3.122   4.159  1.5240 -0.3704 -0.6454
 3477SOL    HW222068   1.290   3.023   4.265  4.1781  0.3755  0.2507
 3478SOL     OW22069   1.748   0.947   9.061 -0.8776  0.6675  0.8133
 3478SOL    HW122070   1.782   0.999   8.988  2.6742 -0.4713  1.6970
 3478SOL    HW222071   1.655   0.951   9.038 -0.6416  1.8555  0.0072
 3479SOL     OW22072   2.882   0.341   7.672  0.5531 -0.5799 -0.9060
 3479SOL    HW122073   2.869   0.259   7.625 -2.2224 -0.6329 -0.0264
 3479SOL    HW222074   2.790   0.354   7.695  1.0638 -0.7796  1.2320
 3480SOL     OW22075   3.370   1.421  13.299 -0.4491 -0.1373 -0.1458
 3480SOL    HW122076   3.436   1.489  13.313 -0.4493 -0.2954  0.6146
 3480SOL    HW222077   3.364   1.390  13.389  0.0948 -1.2721 -0.4991
 3481SOL     OW22078   2.262   0.105   7.010  0.0507  0.2706 -0.2747
 3481SOL    HW122079   2.279   0.019   6.973  0.0489 -0.2304  0.8782
 3481SOL    HW222080   2.283   0.092   7.103 -0.0792  0.7624 -0.1774
 3482SOL     OW22081   1.034   3.178   2.032  0.3904 -0.1640 -0.3601
 3482SOL    HW122082   1.088   3.197   2.110 -1.0254 -1.1412  0.8600
 3482SOL    HW222083   1.020   3.267   2.000 -0.0378 -0.4957 -1.0873
 3483SOL     OW22084   0.011   4.427   6.923  0.0593 -0.2957 -0.9987
 3483SOL    HW122085   0.025   4.513   6.884  2.5398 -0.2245  0.0603
 3483SOL    HW222086   0.083   4.424   6.986  1.1463 -0.8593 -2.2964
 3484SOL     OW22087   4.351   1.208   5.379  0.4167 -0.3841 -0.7431
 3484SOL    HW122088   4.363   1.127   5.328 -0.5325 -0.5189 -0.7526
 3484SOL    HW222089   4.413   1.195   5.451 -0.4674 -1.0878 -0.1098
 3485SOL     OW22090   0.815   4.080   2.095 -0.2664 -0.2023 -0.5216
 3485SOL    HW122091   0.729   4.090   2.053 -1.5014 -3.3676  1.2420
 3485SOL    HW222092   0.872   4.055   2.023 -0.6991  2.4048 -1.7690
 3486SOL     OW22093   0.736   3.009  17.519  0.1741 -0.3387  0.0028
 3486SOL    HW122094   0.679   2.955  17.574 -2.9164  1.0277 -1.8115
 3486SOL    HW222095   0.796   2.946  17.479  0.5184 -0.1110  0.1690
 3487SOL     OW22096   3.065   0.198   5.636  0.0379 -0.8221 -0.7481
 3487SOL    HW122097   2.996   0.151   5.589 -1.5003  2.0326 -1.3521
 3487SOL    HW222098   3.033   0.288   5.623  0.0363 -0.9862 -1.8654
 3488SOL     OW22099   4.217   1.328  14.368  0.2694 -0.4341  0.3827
 3488SOL    HW122100   4.249   1.377  14.443 -1.0278  2.7542 -1.1654
 3488SOL    HW222101   4.158   1.385  14.318  2.2427 -0.4654 -1.9599
 3489SOL     OW22102   2.072   3.711   8.166 -0.5029  0.5044 -0.2212
 3489SOL    HW122103   2.164   3.684   8.164 -0.3124  1.1401  0.2085
 3489SOL    HW222104   2.055   3.708   8.260  0.4883  1.3244 -0.0151
 3490SOL     OW22105   3.362   2.504  13.106 -0.0531 -0.4670 -0.6880
 3490SOL    HW122106   3.394   2.421  13.142 -1.6335  0.5054  2.9734
 3490SOL    HW222107   3.370   2.560  13.183  0.0336  1.4517 -2.0939
 3491SOL     OW22108   2.956   3.331   2.527 -0.6249 -0.1051  0.1153
 3491SOL    HW122109   3.043   3.327   2.489  0.5720 -0.4070  2.8491
 3491SOL    HW222110   2.977   3.336   2.621 -3.0805 -0.8876  0.7140
 3492SOL     OW22111   3.469   1.387   9.962 -0.2077  0.3752  0.1882
 3492SOL    HW122112   3.513   1.306   9.937 -1.8108  0.2910 -2.3565
 3492SOL    HW222113   3.409   1.397   9.888 -0.8955  1.1287  0.8528
 3493SOL     OW22114   1.787   0.756   9.615  0.0092  0.6978 -0.0466
 3493SOL    HW122115   1.773   0.730   9.706  0.6187  1.6352  0.3117
 3493SOL    HW222116   1.831   0.839   9.631 -0.8066  1.4266 -1.6310
 3494SOL     OW22117   1.086   2.056   6.686 -0.0697  0.1997  0.1936
 3494SOL    HW122118   1.024   1.983   6.683  0.0238  0.1353 -0.3091
 3494SOL    HW222119   1.157   2.035   6.745 -1.5211 -0.8705  1.5421
 3495SOL     OW22120   4.627   4.344   3.714  0.3290  0.4168 -0.3861
 3495SOL    HW122121   4.592   4.431   3.693 -0.5113  0.1942  0.0891
 3495SOL    HW222122   4.717   4.349   3.683  0.4490  0.1883 -0.0783
 3496SOL     OW22123   3.159   0.854   9.428  0.1182  0.2896 -0.0960
 3496SOL    HW122124   3.096   0.889   9.365 -1.1471  0.0841  1.0383
 3496SOL    HW222125   3.183   0.775   9.380 -1.9750 -0.4890  0.1108
 3497SOL     OW22126   0.968   3.123   6.369 -0.0391  0.0610 -0.6231
 3497SOL    HW122127   1.022   3.117   6.448  0.2483 -3.1788 -1.0434
 3497SOL    HW222128   0.917   3.044   6.388  2.0616 -0.4991  2.6457
 3498SOL     OW22129   4.395   0.682   6.957  0.1051 -0.2865 -0.1742
 3498SOL    HW122130   4.450   0.710   7.030  2.3061 -2.0487 -1.1137
 3498SOL    HW222131   4.373   0.591   6.976 -0.0432 -0.1303  0.3691
 3499SOL     OW22132   4.256   2.344   1.883  0.0532  0.7027  0.1482
 3499SOL    HW122133   4.316   2.317   1.952 -0.1485 -0.7832 -0.2618
 3499SOL    HW222134   4.193   2.275   1.901  0.8907  0.0210  0.4528
 3500SOL     OW22135   3.167   2.101   2.035  0.1942  0.0695  0.4235
 3500SOL    HW122136   3.097   2.152   2.075  0.9825  0.9511  0.6781
 3500SOL    HW222137   3.114   2.050   1.973 -0.6257  1.8305 -0.3094
 3501SOL     OW22138   2.320   3.067   8.974 -0.2832  0.4131 -0.3839
 3501SOL    HW122139   2.294   3.016   9.051 -1.2056  2.1494  0.4549
 3501SOL    HW222140   2.402   3.023   8.953 -0.4508 -1.3044  2.5363
 3502SOL     OW22141   0.172   2.694   9.831 -0.0985  0.2296 -0.9868
 3502SOL    HW122142   0.144   2.764   9.890 -1.1070  0.1650 -1.4028
 3502SOL    HW222143   0.266   2.695   9.852 -0.0678  1.9974 -1.2584
 3503SOL     OW22144   0.278   1.177   9.765 -0.2125 -0.3136 -0.3583
 3503SOL    HW122145   0.335   1.219   9.701 -1.1686  0.0834 -0.9509
 3503SOL    HW222146   0.312   1.212   9.847  0.1636 -1.9992  0.2202
 3504SOL     OW22147   3.359   2.149   8.489 -0.1246 -0.4137  0.0501
 3504SOL    HW122148   3.452   2.148   8.464 -0.0396  1.2852  0.2535
 3504SOL    HW222149   3.353   2.233   8.535 -2.6793 -0.2015 -0.6758
 3505SOL     OW22150   4.087   4.451   3.350 -0.4707 -0.3898  1.1531
 3505SOL    HW122151   4.094   4.466   3.444 -0.0168 -2.4523  1.4671
 3505SOL    HW222152   4.173   4.480   3.319 -1.1278 -0.5524 -0.8420
 3506SOL     OW22153   3.550   2.068   7.786  0.5990  0.7099 -0.0906
 3506SOL    HW122154   3.471   2.021   7.757  0.7294  1.3873 -1.5772
 3506SOL    HW222155   3.605   1.991   7.801  0.2155  0.7494  1.4536
 3507SOL     OW22156   2.559   0.723   4.648 -0.3215  0.3881 -0.3547
 3507SOL    HW122157   2.502   0.771   4.589  0.4996 -0.5122 -1.9067
 3507SOL    HW222158   2.624   0.691   4.585 -1.0492  2.1666 -1.9998
 3508SOL     OW22159   4.347   1.559  14.477 -0.3483 -0.1667  0.1315
 3508SOL    HW122160   4.364   1.626  14.544  1.1249 -0.0027 -0.4051
 3508SOL    HW222161   4.422   1.502  14.493  1.3450  1.8395 -0.6855
 3509SOL     OW22162   3.377   3.115  15.849 -0.6180  0.4053 -0.0337
 3509SOL    HW122163   3.411   3.202  15.829  1.7734 -0.1636  1.4833
 3509SOL    HW222164   3.341   3.124  15.937  1.8095 -1.0437  1.1042
 3510SOL     OW22165   4.072   4.509   5.003  0.0340  0.9013 -0.5827
 3510SOL    HW122166   4.044   4.601   5.006 -0.5787  0.7328 -0.9889
 3510SOL    HW222167   4.012   4.467   4.941  1.0448  1.2724 -1.8200
 3511SOL     OW22168   4.179   1.494   7.596  0.2592  0.9579 -0.4179
 3511SOL    HW122169   4.096   1.527   7.630  1.4374  3.9133 -0.4428
 3511SOL    HW222170   4.217   1.433   7.660  1.2964  1.2680 -0.7537
 3512SOL     OW22171   1.380   3.942  12.413 -0.3334 -0.2227 -0.4550
 3512SOL    HW122172   1.380   3.853  12.379  1.4136 -0.6676  0.7293
 3512SOL    HW222173   1.424   3.924  12.496  0.5299  1.5997 -0.4971
 3513SOL     OW22174   4.456   1.543  10.387 -0.2090 -0.7386  0.0736
 3513SOL    HW122175   4.449   1.447  10.392 -1.7218 -0.6537 -0.4326
 3513SOL    HW222176   4.500   1.545  10.303 -1.6772 -1.0629 -0.6947
 3514SOL     OW22177   1.423   3.675   1.391 -0.6183  0.5763 -0.3145
 3514SOL    HW122178   1.381   3.590   1.403 -0.1519  0.5066  0.8860
 3514SOL    HW222179   1.515   3.648   1.392 -1.4995 -2.3734 -1.4569
 3515SOL     OW22180   2.522   3.256   9.025 -0.6508 -0.1664 -0.1443
 3515SOL    HW122181   2.487   3.334   9.066 -1.0902  0.4156 -1.6406
 3515SOL    HW222182   2.454   3.189   9.015 -1.7746  1.3874 -3.0067
 3516SOL     OW22183   1.694   0.009   9.003  0.1544 -0.3683 -0.7247
 3516SOL    HW122184   1.650   4.667   8.999 -0.1734 -0.2746  0.8591
 3516SOL    HW222185   1.770   4.722   9.051 -2.0249 -0.8518  2.4351
 3517SOL     OW22186   1.944   4.364  12.080 -0.3730 -0.2647 -0.0866
 3517SOL    HW122187   1.993   4.304  12.023  0.2849 -1.0324  1.2813
 3517SOL    HW222188   2.005   4.365  12.154 -0.9382  2.0421  0.3463
 3518SOL     OW22189   2.255   3.410  15.917  0.3849  0.2069 -0.4006
 3518SOL    HW122190   2.334   3.412  15.971  0.0343  1.6351  0.0694
 3518SOL    HW222191   2.293   3.391  15.832 -1.2911 -1.5116 -0.7794
 3519SOL     OW22192   1.888   0.627   8.822 -0.2573  0.1766 -0.0778
 3519SOL    HW122193   1.861   0.641   8.913  0.2954 -0.1596  0.1402
 3519SOL    HW222194   1.952   0.556   8.833 -1.1530 -0.7966 -1.2281
 3520SOL     OW22195   0.913   2.614   7.937  0.0192  0.3581  0.0508
 3520SOL    HW122196   1.003   2.581   7.935  0.5833  1.8813  0.7861
 3520SOL    HW222197   0.938   2.704   7.956 -0.4487  1.1034 -2.8607
 3521SOL     OW22198   1.076   4.527   5.851  0.1123 -0.1867 -0.5608
 3521SOL    HW122199   1.045   4.437   5.858  0.1945 -0.2615 -1.1489
 3521SOL    HW222200   1.027   4.566   5.779  0.0795  1.8064  0.5326
 3522SOL     OW22201   2.216   2.322   5.700 -0.3214  0.3045 -0.0017
 3522SOL    HW122202   2.123   2.302   5.695 -0.1157 -0.3059 -1.4414
 3522SOL    HW222203   2.242   2.292   5.787 -0.6733 -0.9008 -0.3127
 3523SOL     OW22204   2.064   3.411   3.381  0.2394  0.4737 -0.4038
 3523SOL    HW122205   2.052   3.364   3.463 -1.0137  0.6647 -0.4866
 3523SOL    HW222206   2.130   3.360   3.334 -1.3572  0.5783 -2.7518
 3524SOL     OW22207   3.215   1.909   8.867 -0.5923  0.5218  0.5352
 3524SOL    HW122208   3.134   1.905   8.918 -1.7314 -1.5664 -1.4438
 3524SOL    HW222209   3.254   1.985   8.910 -1.7663  1.4794 -0.1024
 3525SOL     OW22210   3.200   1.353   2.302 -0.2099 -0.7891  0.1806
 3525SOL    HW122211   3.262   1.368   2.230  0.1575  0.7574  0.8189
 3525SOL    HW222212   3.127   1.405   2.269  0.8882  0.1702 -0.7277
 3526SOL     OW22213   2.837   0.134  13.735 -0.4636 -0.1496 -0.3644
 3526SOL    HW122214   2.813   0.223  13.709 -1.2716 -0.8588 -2.0016
 3526SOL    HW222215   2.759   0.079  13.726 -1.3487  0.7753  1.7170
 3527SOL     OW22216   2.582   1.810   6.426  0.2701  0.0873  0.0071
 3527SOL    HW122217   2.580   1.777   6.336 -0.4071  2.3656 -0.7939
 3527SOL    HW222218   2.675   1.818   6.448  0.5560 -2.8227 -0.1667
 3528SOL     OW22219   0.897   2.948   0.977  0.2429  0.0541 -0.8455
 3528SOL    HW122220   0.929   2.880   0.919 -0.3092 -2.0497  1.3410
 3528SOL    HW222221   0.968   3.009   0.957  0.4904  0.6065  1.7171
 3529SOL     OW22222   1.057   2.904   4.322 -0.2595 -0.0492  0.0526
 3529SOL    HW122223   1.050   2.825   4.269  1.2177  0.9190 -1.5827
 3529SOL    HW222224   1.149   2.927   4.336  0.4462 -1.1333 -2.7961
 3530SOL     OW22225   0.410   1.001   3.355 -0.1466  0.0633  0.1879
 3530SOL    HW122226   0.330   1.020   3.405  0.0718 -0.0968  0.5974
 3530SOL    HW222227   0.373   0.966   3.274 -0.6675  0.4243  0.2682
 3531SOL     OW22228   2.188   3.581   7.493  0.3798  0.2694 -0.6277
 3531SOL    HW122229   2.283   3.569   7.489  0.3058  0.3326 -2.3290
 3531SOL    HW222230   2.165   3.558   7.583  0.6711  3.1241  0.1731
 3532SOL     OW22231   2.549   0.232   5.209 -0.1893 -0.2877  0.5379
 3532SOL    HW122232   2.636   0.195   5.195  0.1511 -0.2165  2.4984
 3532SOL    HW222233   2.531   0.175   5.283 -2.1129 -2.1625 -1.3638
 3533SOL     OW22234   4.319   2.471   7.271 -0.1616  0.2837 -0.4454
 3533SOL    HW122235   4.246   2.525   7.301  0.5830  0.9171  0.2302
 3533SOL    HW222236   4.320   2.409   7.344 -0.6787 -0.6342 -1.2162
 3534SOL     OW22237   0.757   0.709   8.277  1.0582  0.1501  0.0379
 3534SOL    HW122238   0.700   0.760   8.334 -3.7026 -2.8038 -2.0991
 3534SOL    HW222239   0.786   0.638   8.335  0.0143 -0.0539  0.3068
 3535SOL     OW22240   4.678   4.305   3.997 -0.2968  0.6927 -0.0454
 3535SOL    HW122241   0.027   4.310   3.971 -0.4074 -3.3904 -1.3154
 3535SOL    HW222242   4.640   4.284   3.912 -1.1767 -0.7243  0.6998
 3536SOL     OW22243   1.195   1.510   9.158  0.0888 -0.5375 -0.1348
 3536SOL    HW122244   1.263   1.510   9.225 -0.9477  0.9503  0.9175
 3536SOL    HW222245   1.131   1.571   9.195  2.5655  1.5031  0.7664
 3537SOL     OW22246   3.674   1.399   6.606  0.3372 -0.3219 -0.3878
 3537SOL    HW122247   3.666   1.464   6.677 -0.1613  1.3154 -1.9489
 3537SOL    HW222248   3.769   1.388   6.602  0.4134  0.4114 -0.6538
 3538SOL     OW22249   4.206   1.448   3.075 -0.1821  0.4041 -0.3290
 3538SOL    HW122250   4.297   1.472   3.095  0.3221  0.6941 -2.8759
 3538SOL    HW222251   4.199   1.470   2.982  0.9644 -0.2927 -0.5799
 3539SOL     OW22252   3.507   2.461   4.437 -0.1337 -0.0087  0.2267
 3539SOL    HW122253   3.453   2.386   4.462 -1.3507  0.6669 -0.3724
 3539SOL    HW222254   3.452   2.529   4.398 -0.3424  0.0234  0.5785
 3540SOL     OW22255   3.633   0.972   4.979  0.2199  0.1934 -0.2845
 3540SOL    HW122256   3.672   0.943   4.897  1.3694  2.8859 -0.7019
 3540SOL    HW222257   3.611   0.884   5.008 -1.4529  0.3781 -0.9914
 3541SOL     OW22258   3.031   3.853   5.661  0.2949  0.1366 -0.3979
 3541SOL    HW122259   3.079   3.815   5.588 -0.2998 -2.6613  0.6813
 3541SOL    HW222260   2.941   3.843   5.628 -0.8792  0.2708  2.7180
 3542SOL     OW22261   3.630   3.502  10.796 -0.0778  0.1603 -0.0935
 3542SOL    HW122262   3.588   3.554  10.728  0.1355  0.5815  0.0980
 3542SOL    HW222263   3.574   3.430  10.826  0.8041 -1.4544 -2.3321
 3543SOL     OW22264   4.677   2.920   7.898  0.0721  0.0590 -0.3586
 3543SOL    HW122265   4.703   2.992   7.841 -2.1455  0.1593 -1.2476
 3543SOL    HW222266   4.637   2.973   7.966 -0.5524 -0.4463 -0.3373
 3544SOL     OW22267   2.849   2.195   7.536  0.2504 -0.2366  0.0794
 3544SOL    HW122268   2.781   2.182   7.601 -1.6994  2.8236 -1.3558
 3544SOL    HW222269   2.845   2.122   7.474 -0.2152 -0.2434  0.1228
 3545SOL     OW22270   2.750   4.157   1.794  0.2708  0.3770 -0.3841
 3545SOL    HW122271   2.732   4.076   1.747 -1.1663  0.0061  0.8027
 3545SOL    HW222272   2.769   4.124   1.882 -0.8358  0.3441 -0.1619
 3546SOL     OW22273   2.106   1.676   7.977 -0.0284 -0.5217  0.1411
 3546SOL    HW122274   2.097   1.597   7.924  0.7094 -1.8887  2.0243
 3546SOL    HW222275   2.192   1.710   7.952 -0.1744 -1.2784 -1.3901
 3547SOL     OW22276   3.657   0.543  16.050 -0.5132 -0.3109  0.2123
 3547SOL    HW122277   3.651   0.604  16.124  1.6644 -0.4586  0.5216
 3547SOL    HW222278   3.687   0.609  15.988  0.0069 -2.1304 -1.4895
 3548SOL     OW22279   0.468   4.241   3.181  0.0198  0.1364  0.0474
 3548SOL    HW122280   0.540   4.207   3.235 -0.1140  0.5681  0.5016
 3548SOL    HW222281   0.394   4.183   3.197  0.7345 -0.6582  0.5293
 3549SOL     OW22282   1.060   0.396   5.121 -0.1402 -0.4034 -0.0234
 3549SOL    HW122283   1.146   0.392   5.162 -0.4781 -0.9429  0.6247
 3549SOL    HW222284   1.065   0.316   5.069  1.4684  0.3291 -1.0048
 3550SOL     OW22285   0.454   3.834  16.859  0.0212 -0.2143 -0.2088
 3550SOL    HW122286   0.531   3.841  16.802 -2.2629  1.0651 -3.1253
 3550SOL    HW222287   0.410   3.765  16.809 -1.8371  2.4885 -2.3546
 3551SOL     OW22288   1.772   1.782   1.734 -0.0089 -0.4742  0.4709
 3551SOL    HW122289   1.716   1.839   1.786  0.2522  1.2503 -1.1203
 3551SOL    HW222290   1.844   1.762   1.793 -1.7754 -0.5869  2.5813
 3552SOL     OW22291   1.165   4.109   5.520 -0.2680 -0.0287  0.2807
 3552SOL    HW122292   1.183   4.015   5.512 -1.1769 -0.1262 -0.8371
 3552SOL    HW222293   1.232   4.144   5.462 -0.7561 -0.6441 -0.6591
 3553SOL     OW22294   0.944   1.140   0.441  0.3911  0.1353 -0.1478
 3553SOL    HW122295   0.875   1.078   0.420 -0.5385  0.4658  1.9667
 3553SOL    HW222296   0.930   1.165   0.532  0.5008 -1.4998  0.3153
 3554SOL     OW22297   1.304   1.969   6.841 -0.4827  0.5346 -0.3105
 3554SOL    HW122298   1.366   2.042   6.841 -0.4107  0.4902  4.0799
 3554SOL    HW222299   1.288   1.945   6.932 -1.7276 -2.6983 -1.4046
 3555SOL     OW22300   0.278   2.290   4.080 -0.2897  0.1706 -0.0655
 3555SOL    HW122301   0.321   2.297   4.166 -0.6853 -3.0435  0.3886
 3555SOL    HW222302   0.334   2.334   4.017  2.0371  0.6651  2.3440
 3556SOL     OW22303   0.008   3.054   9.516  0.4685 -0.3293 -0.3235
 3556SOL    HW122304   0.019   2.969   9.473 -0.6446 -0.4482 -0.3835
 3556SOL    HW222305   0.089   3.071   9.563 -0.1889 -0.7302  0.9447
 3557SOL     OW22306   2.460   3.361  12.724  0.1266  0.0506  0.1605
 3557SOL    HW122307   2.401   3.431  12.695  0.0330 -0.2886 -0.4729
 3557SOL    HW222308   2.479   3.382  12.815 -0.7749 -4.1018  1.2848
 3558SOL     OW22309   2.699   3.518  11.836 -0.6666  0.3171 -0.6724
 3558SOL    HW122310   2.709   3.499  11.742  0.0804  0.5814 -0.6476
 3558SOL    HW222311   2.606   3.500  11.853  0.1051 -0.7927  2.2699
 3559SOL     OW22312   1.052   4.136   8.067  0.0475  0.0220  0.1913
 3559SOL    HW122313   1.094   4.209   8.022 -1.2825  1.4981  1.3358
 3559SOL    HW222314   0.967   4.130   8.023 -0.2597 -1.2345  0.9557
 3560SOL     OW22315   3.108   1.607   5.168 -0.7688  0.1681 -0.2528
 3560SOL    HW122316   3.183   1.558   5.201 -0.9260 -0.3872 -0.7183
 3560SOL    HW222317   3.136   1.693   5.199  1.8934 -0.3668 -1.2057
 3561SOL     OW22318   4.052   2.788   2.382 -0.2999  0.1324 -0.3007
 3561SOL    HW122319   4.046   2.775   2.287 -0.5829 -1.7949 -0.0262
 3561SOL    HW222320   4.102   2.716   2.421 -1.3319 -0.1589  0.4847
 3562SOL     OW22321   3.851   1.940   1.845 -0.1048 -0.0856  0.5716
 3562SOL    HW122322   3.851   2.015   1.785 -3.1081 -0.6955 -0.2037
 3562SOL    HW222323   3.944   1.936   1.864  0.8077  2.2220 -3.3538
 3563SOL     OW22324   1.651   3.591   7.190 -0.8505  0.8281  0.3056
 3563SOL    HW122325   1.616   3.643   7.117 -1.7937 -1.8702 -1.1624
 3563SOL    HW222326   1.719   3.655   7.212 -0.1972  0.4723 -0.6857
 3564SOL     OW22327   2.101   2.336   2.100 -0.7770  0.0614 -0.2883
 3564SOL    HW122328   2.030   2.326   2.036 -0.2219 -1.0542 -0.7119
 3564SOL    HW222329   2.103   2.260   2.158  0.7999 -1.4200 -2.2732
 3565SOL     OW22330   2.404   3.444  13.618 -0.1953 -0.2838  0.0967
 3565SOL    HW122331   2.447   3.388  13.683  0.7852  0.3505 -0.0078
 3565SOL    HW222332   2.474   3.473  13.560 -0.4907 -0.0696 -0.1529
 3566SOL     OW22333   2.824   1.829   5.385 -0.4612  0.0104 -0.4753
 3566SOL    HW122334   2.889   1.899   5.380 -0.6800  0.1342 -1.4763
 3566SOL    HW222335   2.863   1.780   5.458 -1.6433  1.3852  1.0881
 3567SOL     OW22336   3.435   0.999  17.668 -0.0217  0.0301 -0.5189
 3567SOL    HW122337   3.381   0.920  17.662 -1.6378  1.0519  0.4191
 3567SOL    HW222338   3.432   1.035  17.580  0.6404 -0.2705 -0.6623
 3568SOL     OW22339   3.956   3.678   2.086  0.2394 -0.2526  0.6074
 3568SOL    HW122340   3.895   3.641   2.022  0.9727  0.2629 -0.3843
 3568SOL    HW222341   3.979   3.597   2.131  1.2035  1.1472  2.6553
 3569SOL     OW22342   2.009   2.315   4.924 -0.0314 -0.4698  0.3289
 3569SOL    HW122343   2.001   2.402   4.963  0.9828 -0.8248  1.3391
 3569SOL    HW222344   1.924   2.278   4.944  0.7368 -2.1078  0.5838
 3570SOL     OW22345   1.951   2.978   3.480 -0.6794 -0.3120  0.5365
 3570SOL    HW122346   1.977   2.888   3.498 -1.8920 -1.0793 -1.5439
 3570SOL    HW222347   1.904   3.010   3.557  0.6201  1.0542  0.7688
 3571SOL     OW22348   3.362   0.706  14.223 -0.6118 -0.0121 -0.4349
 3571SOL    HW122349   3.450   0.743  14.223 -1.1643  1.3092 -1.7406
 3571SOL    HW222350   3.344   0.723  14.130 -0.4928  0.4217 -0.3758
 3572SOL     OW22351   3.676   3.955   2.748 -0.8917  0.0787 -0.5042
 3572SOL    HW122352   3.759   3.914   2.770 -1.8235 -1.8035 -0.4087
 3572SOL    HW222353   3.701   4.039   2.711 -2.3172  0.4114 -0.7244
 3573SOL     OW22354   1.368   0.985  11.987  0.6846 -0.2769 -0.7763
 3573SOL    HW122355   1.344   0.892  11.991  1.2876 -0.2772  3.1293
 3573SOL    HW222356   1.430   0.982  12.060 -0.3970  0.2708  0.1799
 3574SOL     OW22357   1.223   1.850  15.718  0.0415 -0.2885  0.3158
 3574SOL    HW122358   1.222   1.889  15.806  0.6116 -1.8048  0.9960
 3574SOL    HW222359   1.262   1.765  15.738  0.5222 -0.1755 -0.1594
 3575SOL     OW22360   0.321   2.334  10.482  0.5380  0.0490  0.1246
 3575SOL    HW122361   0.248   2.316  10.423 -0.9084 -0.8103  2.1985
 3575SOL    HW222362   0.295   2.299  10.567 -1.2462 -0.4154 -0.6161
 3576SOL     OW22363   4.320   3.673   7.089 -0.1797 -0.2811 -0.2594
 3576SOL    HW122364   4.233   3.652   7.053  0.4537 -2.7272 -0.3193
 3576SOL    HW222365   4.313   3.644   7.179 -2.4617  0.7742 -0.0813
 3577SOL     OW22366   0.919   2.529   8.646  0.3022  0.0085 -0.3113
 3577SOL    HW122367   0.925   2.555   8.554  3.6895 -1.5982 -0.5198
 3577SOL    HW222368   0.997   2.477   8.666  0.8346  1.0523  0.3411
 3578SOL     OW22369   4.222   2.653   9.946  0.0007  0.1944 -0.3712
 3578SOL    HW122370   4.275   2.649   9.866 -0.1486  0.2153 -0.4723
 3578SOL    HW222371   4.244   2.577   9.999 -0.2580 -0.8641 -1.7777
 3579SOL     OW22372   3.893   1.778   2.647 -0.1643  0.2405 -0.3329
 3579SOL    HW122373   3.839   1.755   2.571  0.8405 -0.6228 -0.7837
 3579SOL    HW222374   3.848   1.855   2.680 -0.1180  0.2969 -0.3993
 3580SOL     OW22375   3.871   3.718   9.350 -0.5929 -0.2639 -0.4019
 3580SOL    HW122376   3.858   3.627   9.323 -1.2474 -0.5274  0.8093
 3580SOL    HW222377   3.884   3.712   9.444 -1.2632 -0.2520 -0.3078
 3581SOL     OW22378   0.569   0.159   2.359  0.7842  0.2960 -0.3724
 3581SOL    HW122379   0.644   0.195   2.407  1.8035 -0.1615 -1.5943
 3581SOL    HW222380   0.527   0.115   2.433 -1.1679  0.6168 -1.2973
 3582SOL     OW22381   2.624   0.428   6.143  0.3633  0.0441 -0.0114
 3582SOL    HW122382   2.551   0.367   6.155  0.2784  0.5210  1.9278
 3582SOL    HW222383   2.586   0.480   6.072  1.2329  0.6017 -0.0655
 3583SOL     OW22384   1.053   2.882   3.560  0.3687 -0.0893 -0.2162
 3583SOL    HW122385   1.107   2.866   3.483  1.8419  1.1338  0.5664
 3583SOL    HW222386   1.053   2.800   3.609 -0.7404 -0.8418 -1.4939
 3584SOL     OW22387   3.981   0.452   4.636 -0.1882 -0.3544 -0.6770
 3584SOL    HW122388   3.986   0.547   4.625 -2.2594 -0.0788  0.8952
 3584SOL    HW222389   3.888   0.430   4.633  0.2334 -1.9823 -1.8601
 3585SOL     OW22390   4.495   0.652   8.035 -0.0170  0.4731 -0.4908
 3585SOL    HW122391   4.481   0.723   7.973 -3.4116  1.2742  1.1862
 3585SOL    HW222392   4.409   0.614   8.017 -0.1913  1.5332 -1.9306
 3586SOL     OW22393   3.148   2.442  16.246 -0.1446  0.0097 -0.2839
 3586SOL    HW122394   3.053   2.436  16.261 -0.1741 -0.7617 -0.7756
 3586SOL    HW222395   3.150   2.465  16.153  2.1594 -0.2327 -0.2722
 3587SOL     OW22396   4.528   1.369   4.032 -0.6235  0.1565  0.2861
 3587SOL    HW122397   4.560   1.407   4.113  3.0596 -1.3281 -0.4791
 3587SOL    HW222398   4.434   1.367   4.051 -0.2134  1.7423  2.4524
 3588SOL     OW22399   0.201   3.142  16.037 -0.2176 -0.0956  0.4092
 3588SOL    HW122400   0.287   3.185  16.039 -0.0595 -0.4790  1.7104
 3588SOL    HW222401   0.215   3.086  15.961 -1.5947 -1.0679  0.8670
 3589SOL     OW22402   3.846   4.172  15.025  0.4399  0.5830 -0.1401
 3589SOL    HW122403   3.801   4.202  15.104  1.2222  0.8719  0.1985
 3589SOL    HW222404   3.800   4.089  15.017  0.8527  0.5953 -2.4885
 3590SOL     OW22405   1.223   0.447   4.214 -0.6582 -0.0440  0.6815
 3590SOL    HW122406   1.212   0.536   4.183 -0.0087 -0.2978 -0.2652
 3590SOL    HW222407   1.142   0.405   4.184  1.1646 -1.3766 -2.3884
 3591SOL     OW22408   0.881   1.930   5.752  0.4200 -0.2254  0.1774
 3591SOL    HW122409   0.865   1.923   5.846 -1.2613 -0.6467 -0.1407
 3591SOL    HW222410   0.919   2.017   5.740  1.4035 -0.6790 -0.0075
 3592SOL     OW22411   2.354   0.662   9.037  0.5792  0.3370  0.0304
 3592SOL    HW122412   2.322   0.630   9.122  2.0994 -1.1183  0.0532
 3592SOL    HW222413   2.412   0.593   9.006 -2.0768 -2.3910  1.1017
 3593SOL     OW22414   2.133   0.340   4.906 -0.0607 -0.6545 -0.2962
 3593SOL    HW122415   2.147   0.317   4.997  2.0765 -1.0986 -0.7321
 3593SOL    HW222416   2.130   0.248   4.880  0.7763 -0.7920  0.1088
 3594SOL     OW22417   2.920   1.600   4.903 -0.7430 -0.2154 -0.6255
 3594SOL    HW122418   2.898   1.624   4.993  1.6607  0.9883 -0.3483
 3594SOL    HW222419   2.871   1.521   4.880 -0.2124 -0.4155 -1.0562
 3595SOL     OW22420   1.133   3.907   3.009  0.6830 -0.0759  0.1209
 3595SOL    HW122421   1.159   3.834   3.066  1.5404  0.1653  0.0289
 3595SOL    HW222422   1.113   3.974   3.075  1.0379 -0.6142  0.7819
 3596SOL     OW22423   2.927   3.747   5.291 -0.5369  0.2629 -0.5547
 3596SOL    HW122424   2.951   3.671   5.344  0.3169 -0.1589 -1.5744
 3596SOL    HW222425   3.011   3.782   5.265 -0.7272 -0.6328 -2.3610
 3597SOL     OW22426   2.451   1.711   8.529  0.1456  0.5317 -0.1902
 3597SOL    HW122427   2.477   1.751   8.447  1.0157  0.0033 -0.1689
 3597SOL    HW222428   2.527   1.657   8.548  0.5133  0.8842 -0.6771
 3598SOL     OW22429   2.561   0.455   2.882  0.2212 -0.7051 -0.5307
 3598SOL    HW122430   2.552   0.436   2.976 -2.6934 -0.7483 -0.8098
 3598SOL    HW222431   2.656   0.446   2.870  0.5321  1.7040  0.1617
 3599SOL     OW22432   2.730   4.000   2.078 -0.0705  0.7079  0.0585
 3599SOL    HW122433   2.799   4.047   2.125 -0.3776  0.5708  0.6318
 3599SOL    HW222434   2.688   3.933   2.131  0.7532  0.7578  0.7631
 3600SOL     OW22435   1.400   2.233   7.248 -0.4414  0.2046 -0.3752
 3600SOL    HW122436   1.344   2.252   7.324  0.2080 -1.8695  0.6089
 3600SOL    HW222437   1.362   2.299   7.189 -1.0879  1.7179  1.7242
 3601SOL     OW22438   2.439   1.439   8.371 -0.3705  0.9034  0.5222
 3601SOL    HW122439   2.377   1.368   8.352  1.2557 -0.7975  1.5266
 3601SOL    HW222440   2.502   1.387   8.423  1.2659  0.3303 -2.0220
 3602SOL     OW22441   0.479   4.635   4.333  0.1435  0.6394  0.4613
 3602SOL    HW122442   0.557   4.605   4.378  1.3739  1.6755 -0.9917
 3602SOL    HW222443   0.455   4.568   4.268  2.3277 -0.3099  0.6586
 3603SOL     OW22444   0.621   2.319  12.312  0.4441 -0.4025  0.6644
 3603SOL    HW122445   0.614   2.365  12.229 -0.0983 -1.3683  0.1707
 3603SOL    HW222446   0.529   2.317  12.340  0.8678 -0.9661  2.0291
 3604SOL     OW22447   0.749   2.119   1.971  0.3379 -1.0852  0.3439
 3604SOL    HW122448   0.839   2.086   1.978  1.3210  1.5431 -0.1633
 3604SOL    HW222449   0.755   2.110   1.876 -2.4592 -0.3024  0.1075
 3605SOL     OW22450   3.316   0.674   2.206 -0.3560  0.1711 -0.5390
 3605SOL    HW122451   3.323   0.738   2.277  0.7980  0.4086 -0.8602
 3605SOL    HW222452   3.380   0.608   2.232  1.1559  1.0513 -1.9653
 3606SOL     OW22453   0.732   1.796   1.737 -0.0870 -0.0239 -0.4640
 3606SOL    HW122454   0.779   1.773   1.656  1.2476 -0.3655  0.4045
 3606SOL    HW222455   0.722   1.889   1.716 -0.1204 -0.0286 -0.4683
 3607SOL     OW22456   4.593   0.349   2.739  0.0620  0.1325 -0.2681
 3607SOL    HW122457   4.678   0.308   2.726  1.1680  1.8623  1.4507
 3607SOL    HW222458   4.611   0.430   2.691  1.2595 -0.3652 -0.6425
 3608SOL     OW22459   4.506   0.060   4.084  0.2782  0.4216  0.2329
 3608SOL    HW122460   4.493   0.064   4.179  0.4524 -0.1234  0.2789
 3608SOL    HW222461   4.552   4.719   4.083  0.0561  0.3119 -0.8886
 3609SOL     OW22462   1.027   0.236   0.179 -0.4252 -0.4386  0.2203
 3609SOL    HW122463   1.104   0.275   0.137 -0.0871  1.0636  2.2379
 3609SOL    HW222464   1.034   0.267   0.269 -1.5573  0.4860 -0.0196
 3610SOL     OW22465   0.018   3.939   2.374 -0.5988  0.2083  1.1416
 3610SOL    HW122466   4.743   3.943   2.468 -2.0771 -0.8706  0.9075
 3610SOL    HW222467   4.680   3.896   2.346 -0.2366  0.8844 -0.9334
 3611SOL     OW22468   4.668   3.258   6.417 -0.4231 -0.3540 -0.2016
 3611SOL    HW122469   4.629   3.218   6.495  0.0492 -2.9398 -1.2797
 3611SOL    HW222470   4.587   3.295   6.381 -0.7370 -1.9367 -1.1289
 3612SOL     OW22471   2.785   0.193  14.660  0.2912 -0.4926  0.3876
 3612SOL    HW122472   2.693   0.194  14.689  0.8358  0.6719  2.0969
 3612SOL    HW222473   2.789   0.099  14.641 -0.8746 -0.4617 -0.0352
 3613SOL     OW22474   3.222   2.756   3.770 -0.1622 -0.2583 -0.2808
 3613SOL    HW122475   3.214   2.778   3.863 -1.2621 -0.9101 -0.2243
 3613SOL    HW222476   3.310   2.718   3.774 -0.8139 -1.7660 -0.1141
 3614SOL     OW22477   0.165   2.635  17.001  0.1700 -0.5607  0.2214
 3614SOL    HW122478   0.145   2.698  17.070 -3.2293  1.2994 -2.4690
 3614SOL    HW222479   0.186   2.687  16.923 -0.7100 -2.0319 -0.9916
 3615SOL     OW22480   3.559   4.111  16.120  0.1439  0.4279  0.0241
 3615SOL    HW122481   3.552   4.199  16.083  1.4766  1.3360  1.9174
 3615SOL    HW222482   3.476   4.105  16.167 -1.7958  1.3587 -3.2653
 3616SOL     OW22483   4.154   0.587   9.562 -0.2913  0.4931 -0.3418
 3616SOL    HW122484   4.154   0.662   9.503  1.2548 -1.3532 -2.6577
 3616SOL    HW222485   4.188   0.625   9.643 -1.3716 -3.3178  1.8892
 3617SOL     OW22486   4.707   4.583  14.844 -0.4446 -0.2382 -0.0810
 3617SOL    HW122487   0.017   4.569  14.766  1.1029 -1.5341  1.2004
 3617SOL    HW222488   0.003   4.665  14.874 -2.2954  1.5990 -2.7324
 3618SOL     OW22489   3.781   3.685   6.708  0.3532  0.1474  0.2075
 3618SOL    HW122490   3.823   3.738   6.641 -1.9104  0.4665 -0.9566
 3618SOL    HW222491   3.701   3.737   6.719  0.7941  0.8718 -0.0048
 3619SOL     OW22492   2.905   3.081  14.804 -0.0627  0.1545  0.2039
 3619SOL    HW122493   2.857   3.066  14.722  0.4198  0.9280 -0.2161
 3619SOL    HW222494   2.940   2.992  14.809  0.9771  0.5164 -0.6264
 3620SOL     OW22495   2.442   3.442  11.947 -0.3972 -0.1038  0.3549
 3620SOL    HW122496   2.375   3.490  11.898 -1.1977  0.7524  2.3075
 3620SOL    HW222497   2.474   3.503  12.013  1.2484  1.1322 -1.5944
 3621SOL     OW22498   3.619   4.038  10.350  0.3777  0.3986  0.2796
 3621SOL    HW122499   3.567   4.118  10.360 -0.0087 -0.0168  1.5526
 3621SOL    HW222500   3.569   3.969  10.393 -0.9496  0.5330 -1.0255
 3622SOL     OW22501   3.699   2.090  15.713  0.6738 -0.1470 -0.5710
 3622SOL    HW122502   3.729   2.070  15.801 -2.0495 -1.1047  0.1365
 3622SOL    HW222503   3.656   2.171  15.738  1.6428  0.7511 -1.8246
 3623SOL     OW22504   3.657   3.058   8.218 -0.2708  0.2397  0.0179
 3623SOL    HW122505   3.606   3.133   8.187 -0.4504 -0.1964 -0.7433
 3623SOL    HW222506   3.731   3.103   8.258  0.3754 -0.8379  0.0166
 3624SOL     OW22507   3.967   1.223   1.659  0.3735  0.0578  0.1440
 3624SOL    HW122508   3.912   1.211   1.581 -0.7702  2.0992  0.6254
 3624SOL    HW222509   3.914   1.174   1.721 -0.3338  1.4407  0.6267
 3625SOL     OW22510   1.611   0.958   8.635  0.3989  0.4953  1.0308
 3625SOL    HW122511   1.628   1.019   8.564 -1.3959 -0.3459 -0.1233
 3625SOL    HW222512   1.658   0.883   8.598 -1.3276  0.2991 -0.7517
 3626SOL     OW22513   0.732   4.725  10.781  0.1229  0.2579 -0.1367
 3626SOL    HW122514   0.794   4.696  10.847  0.1119  2.9220  1.0078
 3626SOL    HW222515   0.765   4.683  10.701  0.0570  1.3224 -0.7186
 3627SOL     OW22516   3.226   3.409   3.034 -0.0884 -0.1172  0.0871
 3627SOL    HW122517   3.221   3.325   3.079 -0.6309  0.0010  0.2506
 3627SOL    HW222518   3.278   3.453   3.101  1.1542  2.0452 -2.2993
 3628SOL     OW22519   0.967   3.757   4.043  0.0722  0.3413  0.0073
 3628SOL    HW122520   1.058   3.757   4.013  0.5904  0.7696  1.6005
 3628SOL    HW222521   0.925   3.826   3.991  0.8016  1.1366  0.4736
 3629SOL     OW22522   3.511   3.594   8.981  0.0628 -0.3159 -0.5615
 3629SOL    HW122523   3.582   3.630   9.034 -0.2070 -1.4350  0.5463
 3629SOL    HW222524   3.542   3.505   8.964  0.3707  0.1339 -2.3932
 3630SOL     OW22525   2.363   0.135   9.088  0.1819  0.1519 -0.4032
 3630SOL    HW122526   2.280   0.178   9.108 -1.8866 -3.5090 -1.0908
 3630SOL    HW222527   2.375   0.148   8.994  2.2033  0.9556 -0.0281
 3631SOL     OW22528   2.302   2.503   4.634  0.2123  0.6068 -0.0881
 3631SOL    HW122529   2.290   2.498   4.539 -0.8331 -1.6598  0.1583
 3631SOL    HW222530   2.234   2.449   4.675 -1.0195  2.7797  0.7226
 3632SOL     OW22531   2.420   3.761   4.132 -0.1207  0.0007 -0.5289
 3632SOL    HW122532   2.475   3.711   4.193  0.6897  0.9698 -0.4614
 3632SOL    HW222533   2.357   3.696   4.101 -1.0948  1.5992 -1.8773
 3633SOL     OW22534   2.702   2.850   3.520  0.0405 -0.0985 -0.6413
 3633SOL    HW122535   2.609   2.869   3.523 -0.1216 -1.0180  0.1337
 3633SOL    HW222536   2.732   2.918   3.581  1.0248 -1.0509 -0.0676
 3634SOL     OW22537   2.485   4.273   4.077 -0.2195 -0.3012 -0.0938
 3634SOL    HW122538   2.466   4.179   4.077  0.0666 -0.3627 -1.0760
 3634SOL    HW222539   2.479   4.303   3.986 -0.9932  0.0912  0.0868
 3635SOL     OW22540   0.029   2.470   6.048  0.2962  0.2775 -0.0458
 3635SOL    HW122541   0.009   2.394   5.993 -2.5240 -0.3259  1.7730
 3635SOL    HW222542   4.733   2.443   6.132 -0.6611  1.9702  0.0486
 3636SOL     OW22543   3.889   0.979   5.797  0.6160  0.3700  0.2090
 3636SOL    HW122544   3.929   1.063   5.775  0.2046  0.2332 -1.0715
 3636SOL    HW222545   3.968   0.937   5.831  0.2837  1.4939  2.3131
 3637SOL     OW22546   1.346   4.550   9.402 -0.2957  0.1990  0.2570
 3637SOL    HW122547   1.359   4.565   9.496  0.8479  1.6527 -0.1278
 3637SOL    HW222548   1.428   4.505   9.384 -1.0897 -1.1453  0.0167
 3638SOL     OW22549   3.992   0.861   4.014  0.3795  0.0070  0.4322
 3638SOL    HW122550   4.004   0.953   3.991  3.5944 -0.7679 -1.0763
 3638SOL    HW222551   4.082   0.830   4.023  0.4331  0.1330  0.3343
 3639SOL     OW22552   1.583   3.373   4.212  0.0742 -0.2946 -0.2189
 3639SOL    HW122553   1.575   3.438   4.282  0.1238  1.0826 -1.4918
 3639SOL    HW222554   1.492   3.372   4.181 -0.4089  0.0425  1.1885
 3640SOL     OW22555   1.312   1.398   3.916 -0.1929 -0.4972  0.7431
 3640SOL    HW122556   1.253   1.468   3.887  0.2557 -0.7634 -0.8317
 3640SOL    HW222557   1.324   1.417   4.009 -0.4586 -0.3063  0.7396
 3641SOL     OW22558   3.692   2.935   5.341  0.4635 -0.1705 -0.6293
 3641SOL    HW122559   3.771   2.911   5.390  0.5461  2.1290  0.4070
 3641SOL    HW222560   3.677   2.870   5.273  0.5208  2.3805 -3.0967
 3642SOL     OW22561   1.830   2.518   7.477 -0.1390  0.2158  0.5514
 3642SOL    HW122562   1.921   2.520   7.504 -0.2194  1.7821  0.7457
 3642SOL    HW222563   1.796   2.449   7.534 -2.0612  0.6796 -0.0269
 3643SOL     OW22564   3.114   4.048   8.053  0.0643  0.4458 -0.5014
 3643SOL    HW122565   3.030   4.067   8.010  1.5799  1.6667 -2.9097
 3643SOL    HW222566   3.185   4.068   7.992  0.0770  1.7867 -0.0500
 3644SOL     OW22567   0.061   0.932   8.459 -0.0207  0.0979 -0.1625
 3644SOL    HW122568   4.731   0.890   8.416  2.1423 -0.2073 -3.5443
 3644SOL    HW222569   0.139   0.895   8.417  0.8646  0.6670  0.9650
 3645SOL     OW22570   4.003   3.411   8.638 -0.4941  0.1121 -0.3532
 3645SOL    HW122571   4.045   3.326   8.653 -0.5038  0.8666  4.1234
 3645SOL    HW222572   4.042   3.464   8.707 -0.1048  0.2166 -0.6571
 3646SOL     OW22573   2.027   2.797   2.474 -0.1336  0.3769  0.1847
 3646SOL    HW122574   2.100   2.828   2.421  0.2473  0.8235  0.9606
 3646SOL    HW222575   2.077   2.756   2.544 -1.7264 -0.7455  0.6710
 3647SOL     OW22576   0.879   4.038   3.933  0.4156 -0.6225 -0.1952
 3647SOL    HW122577   0.927   4.054   3.852 -2.0175 -2.1504 -1.9655
 3647SOL    HW222578   0.787   4.025   3.907  0.0112  1.1386  0.3833
 3648SOL     OW22579   3.940   1.440   9.518  0.0876  0.5195 -0.0888
 3648SOL    HW122580   4.000   1.402   9.581 -0.6209 -0.2063  0.1424
 3648SOL    HW222581   3.879   1.482   9.578  0.8291  1.0085  0.3213
 3649SOL     OW22582   2.472   2.881  12.725  0.5303 -0.0422 -0.2943
 3649SOL    HW122583   2.490   2.881  12.819 -0.8975 -0.9228 -0.0210
 3649SOL    HW222584   2.536   2.946  12.694 -1.1224  2.7816  2.2225
 3650SOL     OW22585   1.555   0.227   0.910  0.0858  0.3725 -0.4532
 3650SOL    HW122586   1.472   0.191   0.879  0.4475 -0.9406  0.0991
 3650SOL    HW222587   1.533   0.235   1.002  0.6689 -3.5005  0.0544
 3651SOL     OW22588   4.689   0.811   2.483  0.2688 -0.4505  0.0133
 3651SOL    HW122589   4.723   0.823   2.394  0.6180  2.6782  0.5588
 3651SOL    HW222590   0.024   0.783   2.529 -0.7371  2.5005  3.5328
 3652SOL     OW22591   3.758   0.528   5.485  0.8948 -0.3130  0.5162
 3652SOL    HW122592   3.846   0.517   5.519 -0.0382 -0.0291  2.9991
 3652SOL    HW222593   3.767   0.619   5.456  0.2945 -0.3270  0.2743
 3653SOL     OW22594   1.088   2.545   6.183  0.7031 -0.0262  0.0793
 3653SOL    HW122595   1.094   2.484   6.109 -2.2643 -0.0313 -0.1782
 3653SOL    HW222596   1.050   2.628   6.152 -0.3250  0.0110  1.4741
 3654SOL     OW22597   1.025   3.291   7.031  0.0657 -0.3595 -0.0381
 3654SOL    HW122598   1.082   3.333   7.095 -0.7000  0.6908 -0.0417
 3654SOL    HW222599   0.946   3.295   7.085 -0.3354  0.0009 -0.6600
 3655SOL     OW22600   3.613   0.744   5.984 -0.5957  0.2192  0.1519
 3655SOL    HW122601   3.678   0.794   6.034 -0.0257  0.0774 -0.4419
 3655SOL    HW222602   3.620   0.656   6.020 -0.1490  0.8951  1.7050
 3656SOL     OW22603   4.044   4.549   7.736  0.2708 -0.1525  0.0846
 3656SOL    HW122604   3.997   4.518   7.813  3.0179  1.5446  2.4641
 3656SOL    HW222605   4.130   4.563   7.776  0.1885  0.6302 -0.0114
 3657SOL     OW22606   2.912   0.368   7.234  0.0876 -0.4005  0.2532
 3657SOL    HW122607   2.831   0.407   7.202  1.0561  2.0890  0.8070
 3657SOL    HW222608   2.891   0.276   7.216  0.4004 -0.2557 -0.9007
 3658SOL     OW22609   0.240   0.667  12.746 -0.5103 -0.5000 -0.4779
 3658SOL    HW122610   0.274   0.695  12.831 -0.6626 -0.6401 -0.3714
 3658SOL    HW222611   0.167   0.611  12.772 -2.2489  2.5444  1.1618
 3659SOL     OW22612   4.090   0.635  17.178  0.0466 -0.5474 -0.8701
 3659SOL    HW122613   4.130   0.679  17.103 -0.6387  0.9373 -0.3780
 3659SOL    HW222614   4.100   0.701  17.246  1.8278 -2.4990  0.7288
 3660SOL     OW22615   1.636   0.973   0.947  0.3952  0.4419  0.0335
 3660SOL    HW122616   1.647   1.010   0.860  1.2170 -1.7370 -0.7655
 3660SOL    HW222617   1.549   1.012   0.962 -0.8187 -2.6738  0.9554
 3661SOL     OW22618   4.513   1.491   8.401 -0.5060 -0.4881  0.0428
 3661SOL    HW122619   4.468   1.412   8.369  0.8974 -0.1203 -2.8059
 3661SOL    HW222620   4.467   1.500   8.485  1.5600  1.7934  0.9139
 3662SOL     OW22621   0.838   1.417  16.320 -0.0088  0.5672 -0.1331
 3662SOL    HW122622   0.801   1.376  16.242 -2.1945 -2.7253  2.6362
 3662SOL    HW222623   0.846   1.507  16.289  2.6938  1.4272  3.0347
 3663SOL     OW22624   4.529   0.356  14.596 -0.8798  0.8630  0.5312
 3663SOL    HW122625   4.617   0.324  14.616 -1.1438  1.8688  3.2151
 3663SOL    HW222626   4.534   0.445  14.560  1.6929  0.1708 -0.8037
 3664SOL     OW22627   4.681   2.038   3.156 -0.7865 -0.0573  0.3770
 3664SOL    HW122628   4.653   1.999   3.239 -0.5355 -0.3229  0.3372
 3664SOL    HW222629   4.600   2.077   3.122 -1.3614 -1.2209  0.4150
 3665SOL     OW22630   1.126   4.433   3.124  0.3301 -0.2836 -0.2407
 3665SOL    HW122631   1.111   4.397   3.036  0.4968 -2.5640  0.6515
 3665SOL    HW222632   1.152   4.523   3.105 -1.7241 -0.1068 -2.2333
 3666SOL     OW22633   0.537   0.668   2.509  0.2764  0.5380 -0.1409
 3666SOL    HW122634   0.462   0.726   2.525 -0.0131 -0.4513  2.1484
 3666SOL    HW222635   0.493   0.584   2.503  0.4325  0.1014  5.0994
 3667SOL     OW22636   4.175   2.419  10.077  0.1774 -0.1969 -0.3901
 3667SOL    HW122637   4.085   2.405  10.106  0.5532  0.4986  1.1091
 3667SOL    HW222638   4.200   2.330  10.101  1.9084  0.3433 -0.2393
 3668SOL     OW22639   4.546   4.398  12.567  0.4741  0.2152  0.1384
 3668SOL    HW122640   4.606   4.384  12.493  1.3670  2.7989  0.3751
 3668SOL    HW222641   4.568   4.489  12.588  0.4306  0.1195  0.5956
 3669SOL     OW22642   4.258   3.897  12.303  0.6823 -0.5173 -0.1412
 3669SOL    HW122643   4.236   3.816  12.349 -0.5163 -2.0719 -3.4039
 3669SOL    HW222644   4.169   3.927  12.284  1.1396  1.9301  1.6386
 3670SOL     OW22645   0.059   0.286  13.842  0.1607 -0.3921 -0.2649
 3670SOL    HW122646   0.031   0.373  13.870 -1.6319 -1.4009  1.0427
 3670SOL    HW222647   0.099   0.254  13.923 -0.7340  0.8911  0.6809
 3671SOL     OW22648   2.862   1.052   6.343  0.3062  0.6027 -0.0385
 3671SOL    HW122649   2.856   1.062   6.248  0.0532 -1.2420 -0.2147
 3671SOL    HW222650   2.890   0.961   6.346  2.0404  1.1630  0.3574
 3672SOL     OW22651   1.643   0.388  17.640 -0.4029 -0.0983 -0.2107
 3672SOL    HW122652   1.715   0.408  17.580  1.2051 -0.5409  1.6096
 3672SOL    HW222653   1.597   0.318  17.593 -1.6537  0.2355  0.4966
 3673SOL     OW22654   3.578   3.808   8.065 -0.0699 -0.0280  0.1181
 3673SOL    HW122655   3.506   3.796   8.003 -0.8975 -0.2146  1.1008
 3673SOL    HW222656   3.551   3.884   8.115  3.7275  0.8443  0.8551
 3674SOL     OW22657   4.525   0.979   7.604  0.2289  0.6376  0.1635
 3674SOL    HW122658   4.603   1.030   7.579  1.4819 -1.7424 -0.7806
 3674SOL    HW222659   4.545   0.894   7.565  0.2473  1.0741 -0.7698
 3675SOL     OW22660   1.980   0.673   8.419 -0.4166  0.4950 -0.4733
 3675SOL    HW122661   1.995   0.626   8.337  0.1760 -1.3362  0.6582
 3675SOL    HW222662   1.994   0.764   8.394 -0.4353  0.6824  0.2072
 3676SOL     OW22663   3.696   0.165   7.967 -0.1502  0.0168  0.3378
 3676SOL    HW122664   3.741   0.162   7.883 -1.6873  0.0608 -0.5010
 3676SOL    HW222665   3.623   0.226   7.956 -0.5498 -0.7632 -1.4080
 3677SOL     OW22666   0.748   4.352   2.589  0.2162 -0.1068 -0.0415
 3677SOL    HW122667   0.810   4.284   2.615  1.9671  1.1404 -0.9159
 3677SOL    HW222668   0.703   4.309   2.517 -3.3530  1.7219  1.1373
 3678SOL     OW22669   4.226   4.385  16.895  0.3926 -0.0269 -0.2099
 3678SOL    HW122670   4.237   4.424  16.982  0.4952  0.4005 -0.4157
 3678SOL    HW222671   4.131   4.373  16.893  0.2535  1.3683 -1.6584
 3679SOL     OW22672   4.020   2.086   7.766 -0.1688 -0.4811 -0.3611
 3679SOL    HW122673   4.035   2.072   7.673  1.9873 -0.7163  0.0120
 3679SOL    HW222674   4.108   2.113   7.792 -0.3702  0.1684 -0.3489
 3680SOL     OW22675   0.356   3.565   5.624  0.1764  0.3903  1.2367
 3680SOL    HW122676   0.273   3.581   5.669  0.4453  0.4719  1.7088
 3680SOL    HW222677   0.390   3.492   5.676  0.9832 -0.0029  0.1526
 3681SOL     OW22678   2.767   1.073  17.120 -0.4361 -0.8230  0.2370
 3681SOL    HW122679   2.735   1.029  17.199 -0.4474  0.5141  0.9845
 3681SOL    HW222680   2.726   1.026  17.047 -0.3217  1.3157 -1.2132
 3682SOL     OW22681   3.594   3.994   7.611 -0.3818  0.5466 -0.1443
 3682SOL    HW122682   3.539   4.060   7.654  0.9258  1.0253  0.7891
 3682SOL    HW222683   3.561   3.999   7.522 -0.0290  0.0692 -0.3007
 3683SOL     OW22684   2.677   4.576   6.055  1.0443 -0.0909 -0.1763
 3683SOL    HW122685   2.695   4.670   6.046  1.0320 -0.0139  0.5275
 3683SOL    HW222686   2.599   4.574   6.000  1.9668 -0.4910 -1.4506
 3684SOL     OW22687   3.406   2.171   8.035 -0.0014 -0.1616  0.5054
 3684SOL    HW122688   3.449   2.142   7.954  2.0649  1.1605  1.1318
 3684SOL    HW222689   3.384   2.085   8.070 -0.0311 -0.4887 -0.3087
 3685SOL     OW22690   0.471   3.812   5.054  0.0181  0.3294  0.4204
 3685SOL    HW122691   0.493   3.720   5.071 -4.3913 -0.9342 -0.5862
 3685SOL    HW222692   0.535   3.855   5.111 -0.2736  1.1470  0.1255
 3686SOL     OW22693   4.694   4.640  16.602  0.0121 -0.0360  0.3187
 3686SOL    HW122694   4.661   4.554  16.629 -0.2549  0.7579  2.5441
 3686SOL    HW222695   4.659   4.694  16.672 -4.4478 -3.2188  0.5728
 3687SOL     OW22696   0.954   4.108   2.575  0.2366 -0.0300  0.8426
 3687SOL    HW122697   0.899   4.120   2.498  0.4920  0.2201  0.6989
 3687SOL    HW222698   0.957   4.013   2.589 -2.9080 -0.2773 -0.1005
 3688SOL     OW22699   2.402   0.327   6.394  0.0230  0.2164  0.1359
 3688SOL    HW122700   2.408   0.422   6.397  2.2693  0.0656  0.1990
 3688SOL    HW222701   2.467   0.294   6.457  0.2085  3.0188  1.4074
 3689SOL     OW22702   3.481   3.394   9.550 -0.5584  0.0836  0.2330
 3689SOL    HW122703   3.515   3.366   9.465  1.7069  1.4223  0.7092
 3689SOL    HW222704   3.460   3.309   9.587 -0.0535 -0.0232  0.2787
 3690SOL     OW22705   4.618   2.958   3.724  0.3028 -0.5908  0.6259
 3690SOL    HW122706   4.656   2.935   3.639 -3.3807  0.2512 -1.2524
 3690SOL    HW222707   4.560   2.884   3.742  0.3619 -0.8590 -0.2966
 3691SOL     OW22708   1.257   2.254   4.433 -1.2172 -0.0331  0.3645
 3691SOL    HW122709   1.208   2.190   4.382 -0.8869 -0.2713  0.3470
 3691SOL    HW222710   1.347   2.222   4.433 -1.9895 -2.2221 -0.0933
 3692SOL     OW22711   1.439   3.971   3.943  0.0545  0.5334  0.0384
 3692SOL    HW122712   1.412   4.039   4.006 -3.6419  0.5386 -1.5617
 3692SOL    HW222713   1.530   4.000   3.948  0.6943 -1.4833  0.1429
 3693SOL     OW22714   0.639   1.176   5.078 -0.1753 -0.1250  0.1179
 3693SOL    HW122715   0.575   1.144   5.141  1.3335  0.7197  2.0716
 3693SOL    HW222716   0.574   1.208   5.016 -1.1678 -2.5525 -0.0816
 3694SOL     OW22717   3.590   2.588   4.082  0.5012  0.0594  0.0107
 3694SOL    HW122718   3.652   2.516   4.098  0.7205  0.3116  0.3049
 3694SOL    HW222719   3.519   2.530   4.055  1.1641 -0.4119 -0.7187
 3695SOL     OW22720   4.381   4.211   2.480  0.3995 -0.1383 -0.4123
 3695SOL    HW122721   4.423   4.239   2.562  0.5968  1.6879 -1.1197
 3695SOL    HW222722   4.454   4.211   2.419  0.8398 -0.2648  0.1118
 3696SOL     OW22723   0.972   3.350   5.114 -0.0910 -0.6993 -0.0010
 3696SOL    HW122724   0.926   3.369   5.196 -1.1622 -0.2592 -0.7062
 3696SOL    HW222725   0.949   3.259   5.095 -0.2999 -0.3962 -1.2016
 3697SOL     OW22726   3.255   0.096   7.244  0.0965 -0.4514  0.4885
 3697SOL    HW122727   3.347   0.074   7.229  0.0616 -1.1370  1.3040
 3697SOL    HW222728   3.216   0.052   7.168  0.7906 -0.2984  0.0405
 3698SOL     OW22729   0.887   3.400   3.935 -0.0242  0.3652  0.2745
 3698SOL    HW122730   0.803   3.445   3.936 -0.2318  0.0252 -1.0574
 3698SOL    HW222731   0.874   3.338   4.007  1.5569 -1.3680 -0.8939
 3699SOL     OW22732   2.445   2.261   3.492 -0.2010  1.2516 -0.6858
 3699SOL    HW122733   2.435   2.194   3.424  0.9534  0.0312  0.3581
 3699SOL    HW222734   2.499   2.217   3.558 -1.5352  1.7519  0.7432
 3700SOL     OW22735   1.497   3.224   7.970 -0.4792  0.5275  0.2733
 3700SOL    HW122736   1.438   3.171   8.023 -0.2193 -0.6140 -0.5831
 3700SOL    HW222737   1.564   3.156   7.966 -0.5865  0.4483 -0.2280
 3701SOL     OW22738   0.057   4.614  17.158 -0.2773 -0.1654  0.3445
 3701SOL    HW122739   4.734   4.587  17.094 -2.3240  2.2439  1.4269
 3701SOL    HW222740   0.144   4.606  17.120 -0.0501 -0.9467  1.0289
 3702SOL     OW22741   2.620   1.266   3.301 -0.4416  0.1078  0.5111
 3702SOL    HW122742   2.649   1.188   3.348 -0.5382 -1.5754 -2.2683
 3702SOL    HW222743   2.645   1.237   3.213 -0.9569 -0.6977  0.6288
 3703SOL     OW22744   3.980   4.403   1.430 -0.1045  0.1656 -0.5254
 3703SOL    HW122745   3.929   4.343   1.484 -1.0001  1.8894  0.5665
 3703SOL    HW222746   3.937   4.488   1.441  0.4374  0.5559 -1.4441
 3704SOL     OW22747   2.016   3.098  16.058  0.1088  0.1742 -0.2552
 3704SOL    HW122748   1.934   3.066  16.096  1.3670 -0.7256  1.7117
 3704SOL    HW222749   2.007   3.193  16.057 -1.4508  0.0184 -1.3952
 3705SOL     OW22750   3.556   4.238   0.025 -0.8354 -0.2367  0.4337
 3705SOL    HW122751   3.632   4.196   0.065 -1.6958 -2.4672 -0.3055
 3705SOL    HW222752   3.527   4.312   0.078 -0.2257 -0.2707  0.8153
 3706SOL     OW22753   1.642   4.700   8.564 -0.5715 -0.1436 -0.3373
 3706SOL    HW122754   1.585   4.632   8.600  0.0515  0.6925  2.2074
 3706SOL    HW222755   1.578   0.026   8.548  1.3995  1.7018 -0.2808
 3707SOL     OW22756   4.230   4.225   2.894  0.0508 -0.4144  0.0702
 3707SOL    HW122757   4.249   4.303   2.946 -2.5371  0.1017  0.1954
 3707SOL    HW222758   4.310   4.215   2.841  0.3841  0.7384  0.3565
 3708SOL     OW22759   1.635   4.013   7.980  0.4513 -0.1965 -0.0485
 3708SOL    HW122760   1.610   4.066   8.055 -1.9194 -1.9274  0.3860
 3708SOL    HW222761   1.659   4.084   7.920 -1.8203  0.3779 -0.3002
 3709SOL     OW22762   4.388   4.486  17.307 -0.6120 -0.2382  0.3174
 3709SOL    HW122763   4.460   4.545  17.285  0.0398 -0.9217  0.6049
 3709SOL    HW222764   4.354   4.525  17.388 -1.0831  0.6894 -0.3337
 3710SOL     OW22765   3.472   1.515   8.414  0.0567 -0.1151 -1.1385
 3710SOL    HW122766   3.406   1.511   8.483  0.5614  1.5836 -0.5715
 3710SOL    HW222767   3.488   1.608   8.401  0.8426 -0.0269  0.3792
 3711SOL     OW22768   1.854   3.406   6.760 -0.7220  0.4203  0.7008
 3711SOL    HW122769   1.894   3.345   6.699  1.9610  0.9448  1.9324
 3711SOL    HW222770   1.799   3.352   6.817 -0.9098 -1.6594 -1.4412
 3712SOL     OW22771   0.294   0.898  13.254 -0.4068 -0.2373  0.6627
 3712SOL    HW122772   0.290   0.836  13.182 -0.8586  0.8396 -0.2462
 3712SOL    HW222773   0.315   0.981  13.211  0.8133 -1.0541 -0.3200
 3713SOL     OW22774   0.890   2.479  13.185  0.7616  0.1346  0.0969
 3713SOL    HW122775   0.867   2.469  13.092 -1.0371 -0.3377  0.5922
 3713SOL    HW222776   0.809   2.453  13.228  0.4564 -1.5487 -1.4808
 3714SOL     OW22777   2.896   0.100  12.812  0.2216  0.5446 -0.1079
 3714SOL    HW122778   2.860   0.030  12.866 -0.1417  0.1854 -0.8212
 3714SOL    HW222779   2.939   0.050  12.743 -2.5333 -2.5688  0.4315
 3715SOL     OW22780   1.127   1.413  13.017  0.4088 -0.2579 -0.1087
 3715SOL    HW122781   1.105   1.344  13.080 -1.7444 -0.2697 -0.8646
 3715SOL    HW222782   1.042   1.444  12.986  1.1584  0.3201 -1.6160
 3716SOL     OW22783   1.179   1.001   9.647 -0.4201 -0.1906  0.4834
 3716SOL    HW122784   1.127   1.058   9.704  0.3610 -0.6155  1.6163
 3716SOL    HW222785   1.120   0.926   9.635  0.2732 -0.5229 -0.8623
 3717SOL     OW22786   0.288   3.556   5.360 -0.5362  0.2846  0.4455
 3717SOL    HW122787   0.327   3.565   5.447  1.3939 -0.4066 -0.3429
 3717SOL    HW222788   0.201   3.531   5.390  0.4666 -1.2214  2.1286
 3718SOL     OW22789   1.810   2.512   6.304  0.3904 -0.0653 -0.2187
 3718SOL    HW122790   1.904   2.505   6.291  0.3882  2.1425 -1.3042
 3718SOL    HW222791   1.767   2.451   6.243  0.4020 -0.6954  0.4014
 3719SOL     OW22792   2.361   1.176   6.444 -0.0628 -0.3093  0.5393
 3719SOL    HW122793   2.363   1.226   6.362  0.3137 -1.4270 -0.1391
 3719SOL    HW222794   2.422   1.229   6.494 -0.8583  0.3628  0.7858
 3720SOL     OW22795   1.940   2.156  10.749 -0.1710  0.0342  0.4112
 3720SOL    HW122796   2.004   2.112  10.806 -0.0119  0.6431  0.7032
 3720SOL    HW222797   1.897   2.205  10.819 -2.0435 -0.2883 -0.5315
 3721SOL     OW22798   3.633   0.500   8.824 -0.9623  0.3577  0.1011
 3721SOL    HW122799   3.705   0.463   8.772 -0.2387  0.8670  0.7399
 3721SOL    HW222800   3.635   0.593   8.801  0.5707  0.3259  0.1007
 3722SOL     OW22801   0.217   2.269   9.953  0.7916 -0.2097  0.4595
 3722SOL    HW122802   0.258   2.194   9.910 -1.0311 -0.2400 -1.1981
 3722SOL    HW222803   0.164   2.303   9.881  2.1897  1.5324  0.2503
 3723SOL     OW22804   3.197   1.347   1.524  0.1230 -0.1051  0.6748
 3723SOL    HW122805   3.287   1.378   1.514 -0.5977  1.3620 -1.3365
 3723SOL    HW222806   3.152   1.394   1.453 -0.0312 -0.7820  0.3222
 3724SOL     OW22807   2.747   1.869   0.445  0.2867  0.2086 -0.6195
 3724SOL    HW122808   2.686   1.904   0.380 -1.1405 -2.1638 -0.5692
 3724SOL    HW222809   2.694   1.883   0.523 -0.9899  1.5770 -1.7211
 3725SOL     OW22810   4.072   1.406  12.648 -1.0599 -0.6161  0.3418
 3725SOL    HW122811   3.985   1.437  12.622 -0.6510  0.2385 -0.0230
 3725SOL    HW222812   4.111   1.392  12.562  0.0193  0.0524  0.7180
 3726SOL     OW22813   4.382   3.771   1.201  0.3784  0.1203  0.5475
 3726SOL    HW122814   4.306   3.762   1.144 -1.2416  1.0011  2.5655
 3726SOL    HW222815   4.425   3.690   1.174 -0.3779  0.7167 -2.4336
 3727SOL     OW22816   0.017   4.232  15.392  0.5136 -0.0226 -0.0000
 3727SOL    HW122817   4.687   4.263  15.446  1.1728 -1.7571  1.8901
 3727SOL    HW222818   0.050   4.318  15.366 -1.9298  1.6218  2.3443
 3728SOL     OW22819   3.892   1.414   7.038 -0.0685 -0.0187 -0.2093
 3728SOL    HW122820   3.931   1.350   7.097  0.1420  0.7993  0.5351
 3728SOL    HW222821   3.866   1.360   6.963 -1.6011 -0.0540  0.3608
 3729SOL     OW22822   4.236   3.942  14.743  0.5766 -0.0468  0.3427
 3729SOL    HW122823   4.249   3.985  14.827  0.4014  0.5394  0.0735
 3729SOL    HW222824   4.190   4.006  14.687  2.2946  1.9514  1.1960
 3730SOL     OW22825   1.646   2.477   3.003  0.4235  0.2862  0.2252
 3730SOL    HW122826   1.698   2.507   2.929  0.5079 -2.5531 -0.8491
 3730SOL    HW222827   1.699   2.474   3.083  2.0158  0.8239 -0.8369
 3731SOL     OW22828   1.240   0.051   3.923  0.3272  0.3509 -0.3802
 3731SOL    HW122829   1.229   0.044   4.018 -0.0662 -1.8552 -0.5942
 3731SOL    HW222830   1.333   0.071   3.909  0.9057 -0.7779  1.7903
 3732SOL     OW22831   0.898   0.905   6.026  0.3108 -0.5367  0.2369
 3732SOL    HW122832   0.809   0.937   6.012  1.1306 -0.2893 -4.2701
 3732SOL    HW222833   0.944   0.928   5.946 -2.1256  0.4520 -0.8803
 3733SOL     OW22834   1.140   0.667   5.055  0.0402 -0.1274 -0.0538
 3733SOL    HW122835   1.223   0.696   5.092  0.3561  1.0641 -1.7224
 3733SOL    HW222836   1.083   0.641   5.127  0.6235  0.6257  0.6808
 3734SOL     OW22837   2.675   3.798   2.469 -0.8098  0.3399 -0.5665
 3734SOL    HW122838   2.610   3.794   2.539 -0.4787 -1.8737 -0.3681
 3734SOL    HW222839   2.745   3.847   2.512  0.1484  0.2059 -1.9595
 3735SOL     OW22840   0.798   0.246   2.536  0.2369 -0.2673  0.0845
 3735SOL    HW122841   0.805   0.340   2.553  1.5135 -0.4207  0.4284
 3735SOL    HW222842   0.858   0.221   2.606  0.5058  0.9507  0.2762
 3736SOL     OW22843   3.935   0.930   4.878 -0.1217  0.1969  0.2449
 3736SOL    HW122844   3.987   0.930   4.958 -0.4115  0.2889  0.4343
 3736SOL    HW222845   3.926   0.834   4.882 -2.0933  0.3475 -0.7292
 3737SOL     OW22846   2.748   3.722  10.012 -0.4299  0.2854 -0.6344
 3737SOL    HW122847   2.668   3.773  10.025 -0.1954  0.5582 -0.2412
 3737SOL    HW222848   2.705   3.637  10.011  0.9360 -0.3715 -2.6263
 3738SOL     OW22849   1.937   2.104   4.164  0.2678 -0.2897  0.0789
 3738SOL    HW122850   1.893   2.173   4.114  0.6896  0.8442  1.2747
 3738SOL    HW222851   2.016   2.143   4.201  0.3110  0.0860 -0.4178
 3739SOL     OW22852   1.732   2.009   7.706  0.5605 -0.2144  0.2389
 3739SOL    HW122853   1.745   1.987   7.614 -1.2661 -0.1275 -0.0341
 3739SOL    HW222854   1.671   1.941   7.734  0.8066  0.1401  1.6554
 3740SOL     OW22855   2.182   0.858  11.636  0.2649 -0.1345  0.0733
 3740SOL    HW122856   2.169   0.797  11.709 -1.8252 -1.0866 -1.0964
 3740SOL    HW222857   2.194   0.942  11.680  1.4261 -0.9393  1.2787
 3741SOL     OW22858   2.416   3.212   4.095  0.4315  0.6275 -0.0828
 3741SOL    HW122859   2.445   3.135   4.144 -1.0828  0.5348  0.6683
 3741SOL    HW222860   2.391   3.270   4.166 -0.7838 -0.1916  0.1701
 3742SOL     OW22861   2.877   1.366   2.366  0.2266 -0.0791 -0.1540
 3742SOL    HW122862   2.901   1.396   2.278  0.4689  0.2632  0.0307
 3742SOL    HW222863   2.784   1.351   2.352  0.3649  1.2744 -2.6099
 3743SOL     OW22864   1.492   3.826  12.614  0.8720 -0.7978  0.1416
 3743SOL    HW122865   1.450   3.822  12.700  0.4744  0.9818  0.0307
 3743SOL    HW222866   1.576   3.867  12.633  0.4101 -0.4782  1.4675
 3744SOL     OW22867   1.734   1.806  17.011  0.5385  0.2595 -0.2079
 3744SOL    HW122868   1.805   1.867  16.989  2.4418 -3.0570 -3.2667
 3744SOL    HW222869   1.717   1.834  17.101 -1.1717  0.2554 -0.5256
 3745SOL     OW22870   1.415   2.768   3.721  0.3960  0.2438 -0.2001
 3745SOL    HW122871   1.397   2.778   3.814 -2.6582 -0.2210 -0.7461
 3745SOL    HW222872   1.382   2.678   3.710 -1.1683  0.4154  3.1400
 3746SOL     OW22873   4.533   1.572   6.362  0.1786  0.0002 -0.2442
 3746SOL    HW122874   4.498   1.551   6.449  0.3065 -0.6537 -0.3514
 3746SOL    HW222875   4.546   1.484   6.327 -1.7746 -0.4544  0.1545
 3747SOL     OW22876   2.967   4.471   8.523  0.3682 -0.1161  0.1472
 3747SOL    HW122877   3.011   4.538   8.472 -0.9712  1.9921  1.7365
 3747SOL    HW222878   2.972   4.388   8.476 -0.0089  0.0091 -0.1137
 3748SOL     OW22879   4.273   2.084   5.711 -0.2453  0.0516  0.4096
 3748SOL    HW122880   4.268   2.028   5.788  0.3059  1.7892  1.7014
 3748SOL    HW222881   4.254   2.163   5.761 -2.3516 -0.0028 -0.2894
 3749SOL     OW22882   1.942   0.084   6.206  0.0473 -0.1789 -0.2186
 3749SOL    HW122883   2.027   0.107   6.244 -0.7098 -0.2679  1.5626
 3749SOL    HW222884   1.900   0.056   6.288 -1.4710  0.4686 -0.7815
 3750SOL     OW22885   0.713   0.004   8.047 -0.4976 -0.0621 -0.1746
 3750SOL    HW122886   0.659   4.737   8.125  0.5062 -2.3021  0.2238
 3750SOL    HW222887   0.714   4.653   8.028  0.0127 -0.3133  1.1236
 3751SOL     OW22888   1.039   0.746   7.998 -0.2489 -0.0505  0.5127
 3751SOL    HW122889   1.077   0.733   8.084 -1.3948  2.0492  1.3397
 3751SOL    HW222890   1.021   0.840   8.001 -0.8815 -0.1289 -0.6485
 3752SOL     OW22891   2.440   0.166   4.976 -0.1388 -0.2151  0.1796
 3752SOL    HW122892   2.364   0.109   4.991  1.3635 -1.9805  1.0556
 3752SOL    HW222893   2.458   0.199   5.064 -1.6706  2.4270 -0.4899
 3753SOL     OW22894   0.304   4.016   3.970  0.9117  0.1562  0.5148
 3753SOL    HW122895   0.326   4.087   3.910  1.2980  1.5787  2.3102
 3753SOL    HW222896   0.338   4.050   4.053  1.4956 -0.2294  0.4306
 3754SOL     OW22897   0.076   3.070   8.867  0.3407 -0.3359  0.0273
 3754SOL    HW122898   4.730   3.039   8.850  0.0535  1.0503 -1.0211
 3754SOL    HW222899   0.082   3.052   8.961 -2.2769  0.5456  0.3740
 3755SOL     OW22900   0.908   3.008   8.284 -0.0240 -0.6901 -0.1551
 3755SOL    HW122901   0.865   3.058   8.354 -1.2269 -1.2680 -0.4737
 3755SOL    HW222902   0.874   3.057   8.209 -0.2412 -1.2634 -0.4237
 3756SOL     OW22903   4.141   3.208   2.248  0.0192  0.3273 -0.4918
 3756SOL    HW122904   4.230   3.206   2.284  0.0648  3.5167 -0.4285
 3756SOL    HW222905   4.090   3.164   2.315 -1.1798  1.7715 -0.4643
 3757SOL     OW22906   0.602   2.040   7.056  0.6774 -0.3510 -0.1438
 3757SOL    HW122907   0.590   1.947   7.037  0.8219 -0.5892  0.9157
 3757SOL    HW222908   0.623   2.074   6.969  0.2423 -1.7909 -0.8135
 3758SOL     OW22909   3.695   2.480   4.645  0.6774  0.0588  0.2428
 3758SOL    HW122910   3.650   2.450   4.566 -1.6007  3.2100  0.3607
 3758SOL    HW222911   3.777   2.433   4.630  1.2117  2.0203 -2.9531
 3759SOL     OW22912   4.294   0.189   8.557 -0.2042 -0.0326  0.3462
 3759SOL    HW122913   4.325   0.280   8.564 -0.6945  0.2687 -1.3830
 3759SOL    HW222914   4.223   0.197   8.494 -0.1115 -0.3909  0.2000
 3760SOL     OW22915   2.505   2.723   5.330  0.3552  0.0941 -0.4082
 3760SOL    HW122916   2.550   2.724   5.415  0.8832  2.2111 -0.7121
 3760SOL    HW222917   2.449   2.800   5.344 -0.2834 -0.4837  0.2026
 3761SOL     OW22918   1.889   3.781  11.609 -0.3976  0.0041  0.3230
 3761SOL    HW122919   1.894   3.741  11.522  1.2672  2.2563 -0.6025
 3761SOL    HW222920   1.799   3.769  11.639 -0.7991 -0.3440 -1.0429
 3762SOL     OW22921   2.136   2.840   3.181  0.4458 -0.6098  0.3254
 3762SOL    HW122922   2.131   2.935   3.168 -1.3448 -0.8716 -0.9701
 3762SOL    HW222923   2.064   2.814   3.123  2.1903 -3.4673 -0.5526
 3763SOL     OW22924   0.458   1.698   4.203 -0.2514  0.3154  0.1304
 3763SOL    HW122925   0.410   1.618   4.224  0.0477  0.5004  1.5637
 3763SOL    HW222926   0.419   1.765   4.259  2.9977  1.1264  1.4283
 3764SOL     OW22927   3.718   4.191   5.382  0.4338 -0.2309 -0.3474
 3764SOL    HW122928   3.664   4.270   5.379 -0.9281 -1.2462 -2.4571
 3764SOL    HW222929   3.658   4.128   5.421  1.3119 -1.1581 -0.5009
 3765SOL     OW22930   0.306   0.227   2.866  0.2603 -0.6292  0.5556
 3765SOL    HW122931   0.260   0.174   2.930 -1.4845 -0.4644 -0.5823
 3765SOL    HW222932   0.375   0.266   2.920 -2.5576  1.7064  2.4541
 3766SOL     OW22933   1.418   4.109   8.392 -0.7087 -0.6981  0.4474
 3766SOL    HW122934   1.375   4.182   8.436  0.4746  0.2366  0.0596
 3766SOL    HW222935   1.348   4.065   8.344 -2.3763 -0.3168  2.5419
 3767SOL     OW22936   4.184   3.556   4.828  0.0362 -0.4708  0.2782
 3767SOL    HW122937   4.131   3.621   4.875 -0.3382 -1.4381  1.2268
 3767SOL    HW222938   4.191   3.483   4.890 -0.3984 -0.6267  0.1423
 3768SOL     OW22939   3.060   4.355   6.595  0.1795  0.5500  0.4600
 3768SOL    HW122940   3.098   4.372   6.509  0.2843 -0.1769  0.3612
 3768SOL    HW222941   2.973   4.321   6.577  0.2411  1.2081 -1.0486
 3769SOL     OW22942   0.545   3.745   0.786  0.7024  0.3691  0.0957
 3769SOL    HW122943   0.542   3.809   0.857 -0.9389 -0.2775  0.6076
 3769SOL    HW222944   0.460   3.703   0.795  0.6147  0.5074 -0.0999
 3770SOL     OW22945   3.699   2.569   0.496  0.3368 -0.2391  0.5337
 3770SOL    HW122946   3.732   2.522   0.420  1.1968  0.5050  0.4475
 3770SOL    HW222947   3.621   2.605   0.454 -1.3932 -1.3152  2.8341
 3771SOL     OW22948   2.232   1.499   1.029 -0.0967 -0.2506 -0.5039
 3771SOL    HW122949   2.238   1.416   0.981 -3.4402 -0.8541  0.0913
 3771SOL    HW222950   2.183   1.550   0.965  3.3771  0.3173 -2.6951
 3772SOL     OW22951   4.370   2.187   3.653 -0.3315 -0.3392  0.4247
 3772SOL    HW122952   4.383   2.230   3.569  1.6135  0.8549  1.3296
 3772SOL    HW222953   4.276   2.171   3.652 -0.7407  2.2052 -2.2657
 3773SOL     OW22954   0.471   0.061   8.658 -0.9428 -0.6238 -0.0670
 3773SOL    HW122955   0.522   0.081   8.580  0.5594  0.8058  1.3124
 3773SOL    HW222956   0.524   4.728   8.680 -1.4879 -0.5315  1.5692
 3774SOL     OW22957   1.469   3.380   5.592 -0.1408 -0.0664 -0.3783
 3774SOL    HW122958   1.555   3.421   5.604 -0.2303  0.2213 -0.7153
 3774SOL    HW222959   1.422   3.464   5.595  1.2008  0.6689  0.2947
 3775SOL     OW22960   1.606   2.011  16.402  0.3671 -0.3183  0.1289
 3775SOL    HW122961   1.535   2.075  16.411  0.3973 -0.3604  0.6649
 3775SOL    HW222962   1.564   1.930  16.374  0.2085 -0.3125  0.3502
 3776SOL     OW22963   0.582   4.323   5.938  0.7269 -0.1080  0.6066
 3776SOL    HW122964   0.502   4.345   5.890  1.0128 -0.2026  0.0889
 3776SOL    HW222965   0.624   4.260   5.880 -0.7541 -0.9593  0.4683
 3777SOL     OW22966   0.200   2.736   3.087  0.3370 -0.2412 -0.0656
 3777SOL    HW122967   0.238   2.657   3.125  0.0829 -0.5215 -0.3917
 3777SOL    HW222968   0.110   2.713   3.113 -0.0813  1.2952 -0.1503
 3778SOL     OW22969   2.143   1.695   2.852 -0.0502 -0.7686  0.2629
 3778SOL    HW122970   2.085   1.689   2.776  0.9695  0.9216 -0.6703
 3778SOL    HW222971   2.107   1.772   2.896  2.1911  0.7883 -0.6097
 3779SOL     OW22972   1.266   0.088   5.579 -0.1792 -0.2972  0.4253
 3779SOL    HW122973   1.216   0.169   5.568 -2.0014 -1.4666  0.0154
 3779SOL    HW222974   1.355   0.122   5.583 -0.3405  0.1898 -0.0608
 3780SOL     OW22975   0.579   0.389   2.190 -0.6135  0.1078 -0.1356
 3780SOL    HW122976   0.576   0.312   2.247 -0.5107 -0.6190 -1.1064
 3780SOL    HW222977   0.488   0.385   2.162 -0.3204 -0.6157 -0.9767
 3781SOL     OW22978   3.652   4.610   3.227 -0.1702 -0.3041  0.7379
 3781SOL    HW122979   3.589   4.552   3.270 -0.1311 -0.5514  0.4575
 3781SOL    HW222980   3.729   4.571   3.269 -0.0103 -0.3567  0.3925
 3782SOL     OW22981   0.331   3.470   6.260 -0.7570 -0.7310 -0.4492
 3782SOL    HW122982   0.249   3.476   6.211 -1.6397  2.4581  1.4398
 3782SOL    HW222983   0.327   3.386   6.308  1.6313 -0.4913  0.1291
 3783SOL     OW22984   0.743   1.708  14.666 -0.2940 -0.8727 -0.1264
 3783SOL    HW122985   0.759   1.691  14.759 -0.3895 -2.2595 -0.3608
 3783SOL    HW222986   0.832   1.700  14.631 -0.2626 -0.5889 -0.1174
 3784SOL     OW22987   1.051   3.517   8.603 -0.1718 -0.0852 -0.1940
 3784SOL    HW122988   0.958   3.503   8.623 -0.1833  2.7753  1.6845
 3784SOL    HW222989   1.067   3.611   8.591 -1.3173  0.0619 -0.5819
 3785SOL     OW22990   3.320   1.540   7.685  0.4739 -0.1890  0.3110
 3785SOL    HW122991   3.351   1.609   7.626  1.3646  1.3568  2.6100
 3785SOL    HW222992   3.227   1.560   7.684  0.5775  0.2593 -1.4548
 3786SOL     OW22993   3.728   0.118  17.508  0.0243 -0.2016 -0.1357
 3786SOL    HW122994   3.776   0.104  17.427  2.0537  2.8058  0.5233
 3786SOL    HW222995   3.757   0.045  17.563 -1.1385  0.1245  0.9206
 3787SOL     OW22996   0.863   3.634   1.746  0.5238  0.3765  0.5742
 3787SOL    HW122997   0.882   3.683   1.826 -0.8231  2.6625 -0.5191
 3787SOL    HW222998   0.862   3.709   1.686  3.1078  1.7460  2.2401
 3788SOL     OW22999   1.995   4.255   6.306  0.3679 -0.1614  0.2164
 3788SOL    HW123000   1.940   4.248   6.384  0.4683 -1.1711  0.1898
 3788SOL    HW223001   1.942   4.316   6.255  1.2456 -0.4098 -1.0073
 3789SOL     OW23002   0.551   4.236   8.084 -0.5828  0.1684 -0.2130
 3789SOL    HW123003   0.469   4.282   8.102 -1.0008 -0.6542  0.0244
 3789SOL    HW223004   0.518   4.147   8.068  1.8978 -0.2196 -3.2248
 3790SOL     OW23005   4.052   1.065   7.633 -0.2135 -0.5223  0.2882
 3790SOL    HW123006   4.022   1.051   7.543  0.5569 -1.2554  0.1416
 3790SOL    HW223007   4.019   1.153   7.649  2.5323  0.4286  0.5914
 3791SOL     OW23008   3.588   4.232   3.993  0.2099  0.5249 -0.5224
 3791SOL    HW123009   3.563   4.194   4.077  1.0549  0.2960 -0.3806
 3791SOL    HW223010   3.504   4.264   3.961 -0.3408  0.3008  0.6967
 3792SOL     OW23011   0.261   4.179  16.193  0.2618  0.0841  0.8761
 3792SOL    HW123012   0.316   4.188  16.115  0.0323 -1.2272  0.5472
 3792SOL    HW223013   0.182   4.218  16.156  1.0163  1.8311  1.1286
 3793SOL     OW23014   0.572   2.471   7.717  0.7057  0.4229 -0.2215
 3793SOL    HW123015   0.645   2.450   7.660  0.7101  0.6264 -0.2902
 3793SOL    HW223016   0.572   2.566   7.724 -0.5385  0.6382 -3.3116
 3794SOL     OW23017   3.461   2.822   8.076  0.1607  0.0003  0.5484
 3794SOL    HW123018   3.552   2.801   8.056  0.4143 -2.1122  3.8866
 3794SOL    HW223019   3.446   2.908   8.036 -0.6292  0.3720  1.6184
 3795SOL     OW23020   4.123   0.218   9.305  0.3014  0.8069  0.1705
 3795SOL    HW123021   4.121   0.313   9.290  1.6811  0.9844  1.1564
 3795SOL    HW223022   4.073   0.193   9.227  1.1458 -1.2638  0.2920
 3796SOL     OW23023   3.037   2.869  14.996  0.4269 -0.0048 -0.1375
 3796SOL    HW123024   3.128   2.896  15.015  0.1533  0.8328 -0.0176
 3796SOL    HW223025   2.998   2.843  15.080 -1.1328 -3.1760 -1.8381
 3797SOL     OW23026   1.157   4.413   7.804 -0.0927  0.0795 -0.2708
 3797SOL    HW123027   1.175   4.505   7.822 -1.0047 -0.0329  1.2118
 3797SOL    HW223028   1.240   4.371   7.826  0.3938  0.4456 -1.3718
 3798SOL     OW23029   4.173   0.428   5.528  0.3458 -0.2054 -0.2193
 3798SOL    HW123030   4.131   0.511   5.503 -0.3967  0.0263  1.7626
 3798SOL    HW223031   4.128   0.369   5.469  0.3404  0.0938 -0.5172
 3799SOL     OW23032   0.587   4.455  16.683 -0.1385 -0.2290 -0.1340
 3799SOL    HW123033   0.620   4.497  16.604  1.3401 -1.6840 -0.3008
 3799SOL    HW223034   0.544   4.376  16.652 -0.4440  0.6179 -1.8601
 3800SOL     OW23035   4.453   1.261  12.908  0.8250  0.7303 -0.1360
 3800SOL    HW123036   4.363   1.291  12.917  0.4085 -0.1660 -1.2962
 3800SOL    HW223037   4.459   1.235  12.816  0.2389 -1.0469  0.3227
 3801SOL     OW23038   0.306   4.420  12.532  0.0496  0.4309  0.5050
 3801SOL    HW123039   0.359   4.417  12.452 -1.0509 -1.1545 -0.1672
 3801SOL    HW223040   0.228   4.462  12.496 -1.8633 -2.4832  1.2027
 3802SOL     OW23041   2.052   2.591   8.416  0.3956  0.5845 -0.5063
 3802SOL    HW123042   2.031   2.538   8.339 -0.3676  2.3169 -1.4993
 3802SOL    HW223043   1.966   2.583   8.456  0.5354  0.7608 -0.1726
 3803SOL     OW23044   0.541   3.563   4.813 -0.2266  0.2684 -0.2871
 3803SOL    HW123045   0.459   3.580   4.860  1.3419  0.8516  2.2222
 3803SOL    HW223046   0.588   3.497   4.864 -2.3435  1.7798  3.5679
 3804SOL     OW23047   2.294   2.676   3.364 -0.1302 -0.1294 -0.3681
 3804SOL    HW123048   2.246   2.594   3.352  1.1253 -1.1128  1.2970
 3804SOL    HW223049   2.236   2.731   3.312 -2.8705 -1.5494  1.1835
 3805SOL     OW23050   2.733   4.417  14.250  0.2556 -0.2818 -0.1193
 3805SOL    HW123051   2.799   4.380  14.309 -0.6532 -2.2381 -0.3280
 3805SOL    HW223052   2.742   4.506  14.284  0.0144  0.4257 -1.9334
 3806SOL     OW23053   0.497   2.028   2.024 -0.2523 -0.4922  0.0013
 3806SOL    HW123054   0.583   2.068   2.009 -0.2972 -0.6351 -0.6181
 3806SOL    HW223055   0.501   1.938   1.992 -1.4040 -0.7936  0.6981
 3807SOL     OW23056   1.026   1.169   2.415 -0.3609  0.7153 -0.0361
 3807SOL    HW123057   1.100   1.114   2.389  0.6561  1.7805  0.5972
 3807SOL    HW223058   0.952   1.120   2.379 -1.7374  3.3386 -0.7660
 3808SOL     OW23059   3.090   0.680  13.440  0.5147  0.1375  0.1790
 3808SOL    HW123060   3.003   0.660  13.406  0.8679  0.5942 -0.9972
 3808SOL    HW223061   3.100   0.603  13.495 -0.6802 -0.4678 -0.4690
 3809SOL     OW23062   0.109   4.168  15.146 -0.6477 -0.4435 -0.0936
 3809SOL    HW123063   0.078   4.193  15.233  0.5643 -0.2833  0.2889
 3809SOL    HW223064   0.198   4.139  15.165  0.1305 -0.1097 -3.1130
 3810SOL     OW23065   0.163   1.102   3.423  0.2321  0.3750  0.3161
 3810SOL    HW123066   0.160   1.185   3.376 -1.7491  1.1941  1.8693
 3810SOL    HW223067   0.116   1.124   3.503  0.0841  0.2693  0.2585
 3811SOL     OW23068   0.745   0.940  16.753 -0.1144 -0.3670  0.2012
 3811SOL    HW123069   0.816   0.963  16.693 -0.3852  1.7823  0.6939
 3811SOL    HW223070   0.790   0.907  16.831  2.9318  0.4321 -1.2024
 3812SOL     OW23071   4.532   3.179  12.487 -0.9086  0.2209 -0.3460
 3812SOL    HW123072   4.535   3.223  12.572 -2.7663 -0.9064  0.3000
 3812SOL    HW223073   4.448   3.135  12.495 -0.4354 -0.6391 -0.1512
 3813SOL     OW23074   3.339   2.759   8.358  0.1368  0.2047 -0.1412
 3813SOL    HW123075   3.369   2.831   8.303 -0.5996 -1.0086 -2.1313
 3813SOL    HW223076   3.361   2.679   8.310  3.8269  0.4792  1.0913
 3814SOL     OW23077   1.910   0.828   8.057 -0.3367 -0.2725 -0.2209
 3814SOL    HW123078   1.959   0.755   8.018 -1.5832 -0.8257 -0.7631
 3814SOL    HW223079   1.961   0.845   8.136 -0.8298  2.5029 -0.4987
 3815SOL     OW23080   2.317   1.352  12.664  0.5571 -0.6307  0.7511
 3815SOL    HW123081   2.231   1.346  12.623  0.2838  0.5451  1.1702
 3815SOL    HW223082   2.312   1.323  12.755 -3.5960 -0.1362  0.6728
 3816SOL     OW23083   3.713   1.596   2.166  0.1443  0.1073 -0.2265
 3816SOL    HW123084   3.698   1.502   2.158  0.7622 -0.2866  3.3317
 3816SOL    HW223085   3.689   1.620   2.076  0.8879 -0.0404 -0.4686
 3817SOL     OW23086   4.000   2.465   9.836 -0.4859 -0.2417  0.0484
 3817SOL    HW123087   4.052   2.495   9.911 -1.7313  0.2315  0.7265
 3817SOL    HW223088   4.065   2.401   9.809  0.3480  0.9495 -0.7604
 3818SOL     OW23089   2.767   3.321   2.246  0.1065  0.5739  0.3602
 3818SOL    HW123090   2.733   3.319   2.335  1.1172  3.2474  0.8348
 3818SOL    HW223091   2.801   3.411   2.244  1.9006 -0.1083 -0.5158
 3819SOL     OW23092   0.844   0.305  17.735  1.1001 -0.4760 -0.5786
 3819SOL    HW123093   0.909   0.291   0.034 -0.8598 -0.4148  1.2968
 3819SOL    HW223094   0.796   0.387  17.753  1.4453 -0.0390 -1.6591
 3820SOL     OW23095   2.874   4.100   3.927 -0.1143  0.2119  0.2028
 3820SOL    HW123096   2.832   4.029   3.879  4.1965 -1.5323 -1.0321
 3820SOL    HW223097   2.904   4.053   4.005  0.6740 -1.6027 -1.1901
 3821SOL     OW23098   3.176   0.304   0.114  0.2999 -0.3597  0.0405
 3821SOL    HW123099   3.225   0.315   0.032 -0.3176 -3.2655 -0.7118
 3821SOL    HW223100   3.234   0.343   0.178 -1.0832 -0.5478  1.4038
 3822SOL     OW23101   0.671   3.784   8.075  0.1702  0.1385 -0.2092
 3822SOL    HW123102   0.727   3.773   7.998  0.8950  0.2871  0.3016
 3822SOL    HW223103   0.644   3.692   8.080  1.4561 -0.2848 -1.1307
 3823SOL     OW23104   0.505   1.074   5.815 -0.1553  0.4365 -0.0983
 3823SOL    HW123105   0.561   1.035   5.748 -0.1256 -0.9233  0.7115
 3823SOL    HW223106   0.463   1.146   5.767  0.4746  1.2107  0.5120
 3824SOL     OW23107   1.358   1.548   8.088  0.2787  0.0788 -0.2251
 3824SOL    HW123108   1.323   1.633   8.061 -1.7029 -0.9743 -0.9879
 3824SOL    HW223109   1.318   1.487   8.026  0.1902 -0.4345  0.3333
 3825SOL     OW23110   1.035   2.632   1.388 -0.2756 -0.5270  0.2754
 3825SOL    HW123111   1.007   2.545   1.414  1.5688 -0.5212  2.3027
 3825SOL    HW223112   0.951   2.677   1.387 -0.1452 -0.3480 -1.6167
 3826SOL     OW23113   2.437   0.467   4.798  0.1148  0.6461  0.1103
 3826SOL    HW123114   2.428   0.533   4.730  2.5003  3.0354  2.1502
 3826SOL    HW223115   2.384   0.396   4.761 -0.0378  1.2495 -0.8144
 3827SOL     OW23116   1.940   3.434  15.728  0.5431 -0.5861 -0.8188
 3827SOL    HW123117   1.946   3.507  15.666 -0.3772  0.1040 -0.0993
 3827SOL    HW223118   2.005   3.377  15.687  0.7919  0.9932 -2.6283
 3828SOL     OW23119   1.943   3.185   4.265 -0.4917 -0.6565 -0.3419
 3828SOL    HW123120   1.971   3.231   4.345 -2.2066  1.8368 -1.1734
 3828SOL    HW223121   2.021   3.131   4.252 -0.2237 -0.3689  0.0692
 3829SOL     OW23122   0.355   1.192   3.685  0.4160 -0.6829  0.4795
 3829SOL    HW123123   0.402   1.131   3.741  2.4457  2.9730  2.7539
 3829SOL    HW223124   0.334   1.130   3.615 -1.6085  0.8005 -0.2164
 3830SOL     OW23125   3.514   2.900   4.352  0.3466  0.0353 -0.1125
 3830SOL    HW123126   3.544   2.946   4.431 -0.9296 -2.0734  1.6097
 3830SOL    HW223127   3.548   2.946   4.275 -0.6182 -1.6837 -1.5588
 3831SOL     OW23128   2.910   0.883  13.887  0.3561  0.1470  0.2511
 3831SOL    HW123129   2.988   0.831  13.904  2.0643  2.8587  0.6716
 3831SOL    HW223130   2.851   0.838  13.948  1.9521 -0.8930  1.0143
 3832SOL     OW23131   0.222   4.486   3.412 -0.3548 -0.2415 -0.1857
 3832SOL    HW123132   0.166   4.560   3.435 -0.3148 -0.6430  1.1809
 3832SOL    HW223133   0.214   4.438   3.495 -0.7197  2.1468  1.1543
 3833SOL     OW23134   1.718   0.808   1.840  0.2525 -0.0087  0.2072
 3833SOL    HW123135   1.682   0.896   1.846 -0.3842 -0.2725  0.2858
 3833SOL    HW223136   1.753   0.797   1.928  1.2039 -2.8126 -0.5036
 3834SOL     OW23137   0.534   3.230   8.280 -0.2350  0.3272  0.3285
 3834SOL    HW123138   0.582   3.267   8.354  0.9299  1.1259 -0.8216
 3834SOL    HW223139   0.568   3.141   8.284  0.4690  0.4856 -1.7650
 3835SOL     OW23140   1.475   2.471   5.078 -0.7918 -0.3767 -0.2635
 3835SOL    HW123141   1.547   2.526   5.108 -2.0029  0.3119  1.4043
 3835SOL    HW223142   1.470   2.405   5.148 -0.4836 -0.3152 -0.1840
 3836SOL     OW23143   0.290   4.394  11.585  0.1208 -0.3284  0.0282
 3836SOL    HW123144   0.376   4.423  11.554  0.9854 -0.0302  2.7581
 3836SOL    HW223145   0.294   4.298  11.583  1.1768 -0.2577 -1.2920
 3837SOL     OW23146   3.752   2.038   7.452  0.1719 -0.4636  0.0185
 3837SOL    HW123147   3.846   2.054   7.440  0.8842 -2.2929  3.2697
 3837SOL    HW223148   3.766   1.944   7.464  2.6909  0.0383  1.0541
 3838SOL     OW23149   0.727   1.084   2.154 -0.3843  0.2496 -0.1524
 3838SOL    HW123150   0.730   1.061   2.247 -2.2272 -1.0078 -0.4121
 3838SOL    HW223151   0.633   1.089   2.141 -0.3947 -1.7458 -0.8215
 3839SOL     OW23152   1.099   3.186  13.786  0.3681  0.2897 -0.2515
 3839SOL    HW123153   1.040   3.191  13.711  2.0625 -0.1812 -1.6208
 3839SOL    HW223154   1.176   3.242  13.773  0.8654 -0.6700 -1.4434
 3840SOL     OW23155   4.110   1.268  15.897 -0.1482  0.7706  0.0515
 3840SOL    HW123156   4.075   1.344  15.944  0.8518  0.2658  1.5812
 3840SOL    HW223157   4.124   1.311  15.813  1.1438  1.2542  0.5164
 3841SOL     OW23158   0.732   1.156  15.085 -0.2493  0.3047  0.1498
 3841SOL    HW123159   0.689   1.098  15.022 -1.9315  0.6569  0.9825
 3841SOL    HW223160   0.705   1.122  15.169 -0.4524  2.0990  0.8220
 3842SOL     OW23161   0.760   1.506   3.574  0.0785  0.0054  0.1826
 3842SOL    HW123162   0.852   1.492   3.598  0.4172  0.5828 -0.7874
 3842SOL    HW223163   0.736   1.582   3.627  1.7616  0.7280 -0.0788
 3843SOL     OW23164   2.546   2.750  15.124  0.2198  0.0849 -0.4686
 3843SOL    HW123165   2.633   2.710  15.126  0.8711  1.4715 -1.3318
 3843SOL    HW223166   2.524   2.739  15.031  0.2544 -1.8405 -0.2526
 3844SOL     OW23167   2.758   1.723   7.194 -0.0849  0.1055 -0.0015
 3844SOL    HW123168   2.721   1.811   7.198 -1.7837 -0.5416 -1.6063
 3844SOL    HW223169   2.790   1.724   7.103 -1.0286 -2.7203 -0.3813
 3845SOL     OW23170   3.928   2.769   3.616  0.6273  0.2170 -0.5597
 3845SOL    HW123171   3.981   2.765   3.695  0.6319  2.0807 -0.4545
 3845SOL    HW223172   3.985   2.808   3.550  0.2310 -0.7372 -1.4715
 3846SOL     OW23173   2.838   2.042   3.294 -0.5285  0.3387 -0.5873
 3846SOL    HW123174   2.836   2.132   3.327  2.9863  1.0762 -2.4537
 3846SOL    HW223175   2.797   1.992   3.364  2.6786  0.4170  1.3643
 3847SOL     OW23176   2.184   3.212  11.079 -0.2801 -0.0523  0.3076
 3847SOL    HW123177   2.272   3.248  11.088 -0.3337 -0.3216  2.0834
 3847SOL    HW223178   2.158   3.225  11.171  0.0981 -0.9990  0.5435
 3848SOL     OW23179   1.471   2.268   2.931  0.5764 -0.3079 -0.2321
 3848SOL    HW123180   1.489   2.263   2.837  0.6991  2.6824 -0.3721
 3848SOL    HW223181   1.524   2.346   2.951 -1.0065  1.1887 -1.8448
 3849SOL     OW23182   2.857   2.918  12.517  0.2315  0.1578  0.5072
 3849SOL    HW123183   2.875   2.993  12.461  0.6161  0.3404  0.8755
 3849SOL    HW223184   2.782   2.873  12.479  2.3962 -0.2422 -3.3550
 3850SOL     OW23185   4.401   0.678   4.638  0.3874  0.5532 -0.4999
 3850SOL    HW123186   4.418   0.664   4.731  0.9029 -0.6889 -0.7837
 3850SOL    HW223187   4.392   0.773   4.639 -0.0385  0.5210 -0.7963
 3851SOL     OW23188   3.935   1.905   4.426  0.1723 -0.2595  0.3067
 3851SOL    HW123189   4.001   1.901   4.356  1.2643 -1.5062  1.3961
 3851SOL    HW223190   3.966   1.833   4.481 -0.3900 -0.6747  0.0827
 3852SOL     OW23191   0.156   0.180   7.502  0.2826  0.2676 -0.4118
 3852SOL    HW123192   0.142   0.144   7.414  1.2518  0.8245 -0.7889
 3852SOL    HW223193   0.251   0.190   7.501  0.3523 -0.4460 -1.1677
 3853SOL     OW23194   3.899   1.610   0.312  0.0937  0.1620  0.3357
 3853SOL    HW123195   3.957   1.670   0.266  0.9264  0.7140  2.0905
 3853SOL    HW223196   3.928   1.536   0.258  0.8064  2.0576 -1.8589
 3854SOL     OW23197   1.864   0.226   3.594 -0.0588  0.2817  0.2642
 3854SOL    HW123198   1.802   0.281   3.546 -0.3737  0.6760  1.1073
 3854SOL    HW223199   1.837   0.148   3.546 -1.5112  2.2781 -2.1356
 3855SOL     OW23200   2.497   3.086   3.616  0.4528  0.1775 -0.1180
 3855SOL    HW123201   2.466   3.094   3.706 -0.1340 -0.3845 -0.2750
 3855SOL    HW223202   2.420   3.100   3.561  0.5643  0.0298 -0.3127
 3856SOL     OW23203   0.462   2.182  13.132 -0.0529 -0.4317  0.5312
 3856SOL    HW123204   0.400   2.228  13.076  1.3659  1.7151  0.7268
 3856SOL    HW223205   0.543   2.202  13.086  0.0957 -1.4510  0.3422
 3857SOL     OW23206   3.047   1.893  17.119  0.5569  0.6883  0.6297
 3857SOL    HW123207   3.089   1.820  17.166  0.7092  0.0759 -0.4674
 3857SOL    HW223208   2.963   1.896  17.165 -0.7319  1.5524 -1.8036
 3858SOL     OW23209   4.537   2.214   5.898  0.0280 -0.1327  0.2653
 3858SOL    HW123210   4.480   2.262   5.958  1.8355  0.4812  1.5199
 3858SOL    HW223211   4.487   2.223   5.817  0.0190  0.1108  0.2999
 3859SOL     OW23212   0.422   0.021   3.819 -0.6005  0.2061 -0.5153
 3859SOL    HW123213   0.420   0.099   3.764 -0.7479 -0.9097 -2.0908
 3859SOL    HW223214   0.410   0.070   3.900 -0.7862 -0.0633 -0.3821
 3860SOL     OW23215   1.668   1.061   3.102 -0.4362 -0.5068 -0.0036
 3860SOL    HW123216   1.587   1.034   3.058  0.4178 -0.9785 -1.2800
 3860SOL    HW223217   1.702   1.116   3.031  0.8285 -1.1182  0.1283
 3861SOL     OW23218   4.437   0.815  14.180 -0.2612 -0.1310  0.1793
 3861SOL    HW123219   4.371   0.747  14.194  0.8981 -1.5699 -1.3733
 3861SOL    HW223220   4.504   0.764  14.135  0.0213 -0.8386  1.3829
 3862SOL     OW23221   4.074   2.705  11.981  0.9079  0.0093  0.2216
 3862SOL    HW123222   4.019   2.719  11.903  0.2314  4.0573  1.3976
 3862SOL    HW223223   4.150   2.674  11.932  1.0484  0.2171  0.3073
 3863SOL     OW23224   2.120   3.201   0.364  0.5585  0.0896  0.1685
 3863SOL    HW123225   2.210   3.172   0.344 -0.5040 -2.9413 -0.2821
 3863SOL    HW223226   2.130   3.262   0.437  1.5333 -0.9756  0.9281
 3864SOL     OW23227   0.289   3.297   2.837  0.4180  0.4918  0.4113
 3864SOL    HW123228   0.243   3.292   2.753 -0.5976  1.3299  0.9123
 3864SOL    HW223229   0.368   3.348   2.817  0.6795 -0.4224 -0.8521
 3865SOL     OW23230   1.980   3.944   1.851 -0.0935 -0.0325 -0.8367
 3865SOL    HW123231   1.954   4.031   1.882  0.4620  0.3943 -1.5786
 3865SOL    HW223232   2.073   3.948   1.875 -0.3575 -3.1418  0.7088
 3866SOL     OW23233   3.140   2.021  11.943  0.2742 -0.1471 -0.1508
 3866SOL    HW123234   3.071   1.955  11.950  0.4717 -0.3926 -0.4681
 3866SOL    HW223235   3.195   1.994  11.869  0.7495 -2.0705  0.9138
 3867SOL     OW23236   3.939   0.639   7.797 -0.2675 -0.3025  0.0714
 3867SOL    HW123237   4.006   0.629   7.730 -2.4823 -1.2377 -2.0269
 3867SOL    HW223238   3.871   0.664   7.734 -0.0831  2.4454  0.9922
 3868SOL     OW23239   0.293   3.789   9.521 -0.0220  0.0442 -0.5922
 3868SOL    HW123240   0.242   3.858   9.479  0.5672  1.6005  1.2235
 3868SOL    HW223241   0.273   3.711   9.470  0.6848 -0.3631 -0.2392
 3869SOL     OW23242   4.320   0.328   2.575 -0.3878 -0.2345 -0.8591
 3869SOL    HW123243   4.276   0.410   2.598 -0.3879  0.0044 -1.6806
 3869SOL    HW223244   4.385   0.314   2.643 -0.4957 -1.8539 -1.0760
 3870SOL     OW23245   0.392   3.255   3.823  0.1214  0.2631 -0.6634
 3870SOL    HW123246   0.394   3.296   3.736 -0.5712 -0.8120 -1.1912
 3870SOL    HW223247   0.300   3.265   3.848  0.4014 -1.7898  1.1517
 3871SOL     OW23248   4.731   3.638   5.190 -0.1089  0.2274  0.3110
 3871SOL    HW123249   4.667   3.677   5.250 -0.7994  0.8541 -0.8226
 3871SOL    HW223250   0.021   3.566   5.243 -1.0043 -0.6261 -0.2829
 3872SOL     OW23251   2.497   3.341   3.056 -0.3166  0.0130 -0.1152
 3872SOL    HW123252   2.417   3.299   3.088 -1.3018  1.6258 -0.5037
 3872SOL    HW223253   2.468   3.375   2.971 -0.9976  0.4364  0.2928
 3873SOL     OW23254   4.374   2.923   5.010 -0.2150  0.4955 -0.1953
 3873SOL    HW123255   4.387   3.018   5.017  2.0699  0.1837 -0.1849
 3873SOL    HW223256   4.315   2.913   4.935  0.4138  0.5106 -0.6927
 3874SOL     OW23257   2.251   3.026  16.160  0.3254  0.3151 -0.3792
 3874SOL    HW123258   2.162   3.048  16.133  0.7073 -0.0030 -1.8729
 3874SOL    HW223259   2.276   2.974  16.084 -0.6019  0.6921 -0.9485
 3875SOL     OW23260   0.229   1.982   8.528  0.5484  0.1085 -0.1035
 3875SOL    HW123261   0.158   2.033   8.488 -0.3434  0.5500  2.0391
 3875SOL    HW223262   0.290   1.979   8.454 -0.9583  0.5382 -1.3914
 3876SOL     OW23263   2.598   3.815  13.025  0.1437  0.6003 -0.5694
 3876SOL    HW123264   2.583   3.855  13.110  1.5046 -0.4270  0.1627
 3876SOL    HW223265   2.690   3.790  13.029  0.1130  1.3238  4.7928
 3877SOL     OW23266   0.549   0.130   5.881 -0.0836  0.3014  0.0972
 3877SOL    HW123267   0.602   0.058   5.914 -0.3434  0.9701  1.9730
 3877SOL    HW223268   0.608   0.202   5.904  0.2519  0.4367 -1.1691
 3878SOL     OW23269   2.725   4.371   2.192  0.7699  0.2387  0.2670
 3878SOL    HW123270   2.818   4.354   2.177  0.0694  0.0369 -4.0260
 3878SOL    HW223271   2.745   4.386   2.284 -0.6654  0.9614  0.4645
 3879SOL     OW23272   4.465   1.519   9.315  0.2047  0.1304 -0.0201
 3879SOL    HW123273   4.469   1.433   9.273  2.1509 -0.8558  2.1362
 3879SOL    HW223274   4.480   1.571   9.236  3.1772 -3.8771 -2.0870
 3880SOL     OW23275   2.617   3.493   1.682  0.0650 -0.0358 -0.3398
 3880SOL    HW123276   2.538   3.545   1.664 -0.5465 -0.8707 -0.0605
 3880SOL    HW223277   2.623   3.478   1.776  3.2962  1.6010 -0.2725
 3881SOL     OW23278   0.805   3.866   5.800  0.1074 -0.2742  0.0744
 3881SOL    HW123279   0.809   3.899   5.710  1.0094 -0.3367  0.0976
 3881SOL    HW223280   0.709   3.861   5.796  0.1956 -1.0537 -0.9390
 3882SOL     OW23281   3.662   1.785  10.240 -0.0068  0.1053  0.5081
 3882SOL    HW123282   3.692   1.722  10.306 -0.1578 -0.6681 -0.1524
 3882SOL    HW223283   3.671   1.735  10.158 -0.8798  0.2671  0.3113
 3883SOL     OW23284   3.337   3.036  15.582 -0.1283  0.0462 -0.2723
 3883SOL    HW123285   3.359   3.049  15.674 -1.3480  2.8453 -0.3615
 3883SOL    HW223286   3.260   2.981  15.600  0.3907 -0.4381  0.4577
 3884SOL     OW23287   3.938   2.302   7.325  0.1333  0.3836  0.2614
 3884SOL    HW123288   4.013   2.314   7.267  0.0961 -0.6263  0.0074
 3884SOL    HW223289   3.864   2.280   7.269 -0.7764  0.8944  1.2603
 3885SOL     OW23290   4.154   0.251   5.723 -0.4285 -0.0149 -0.0150
 3885SOL    HW123291   4.110   0.192   5.661  0.7930 -1.1351  0.1791
 3885SOL    HW223292   4.164   0.335   5.678 -4.6378  0.5898  0.2100
 3886SOL     OW23293   1.340   0.648   5.382 -0.1082 -0.2474 -0.4538
 3886SOL    HW123294   1.314   0.582   5.447  2.8691  0.2926  1.2979
 3886SOL    HW223295   1.385   0.592   5.319  0.5644  0.7195 -0.8408
 3887SOL     OW23296   4.586   3.376   6.013  0.1285  0.1129  0.1795
 3887SOL    HW123297   4.537   3.453   6.042 -1.0784 -1.6751  2.9108
 3887SOL    HW223298   4.535   3.306   6.054  1.4755 -1.1917 -0.3888
 3888SOL     OW23299   3.776   1.620  17.012 -0.1329  0.1582  0.2113
 3888SOL    HW123300   3.812   1.624  17.100 -0.5735 -0.3500  0.4163
 3888SOL    HW223301   3.687   1.590  17.030 -0.1939 -0.3596 -0.9465
 3889SOL     OW23302   3.958   1.384   8.067  0.0934 -0.1711 -0.2731
 3889SOL    HW123303   4.037   1.437   8.078  0.4057 -0.7699  0.3613
 3889SOL    HW223304   3.997   1.302   8.035  0.3290  0.1410 -0.7914
 3890SOL     OW23305   0.794   2.772   6.632  0.3658  0.2679  0.1434
 3890SOL    HW123306   0.724   2.809   6.578  0.2034  0.7524  0.6789
 3890SOL    HW223307   0.824   2.692   6.589  1.3506  1.3501 -1.2141
 3891SOL     OW23308   0.311   4.686   1.800  0.3816  0.4995  0.0223
 3891SOL    HW123309   0.367   4.610   1.783  0.0240 -0.2690  2.2972
 3891SOL    HW223310   0.366   0.017   1.777 -0.0560  0.8696  0.1837
 3892SOL     OW23311   3.910   0.179   9.453  0.0556  0.1970  0.2521
 3892SOL    HW123312   3.954   0.110   9.504 -1.1763 -1.5785 -1.0569
 3892SOL    HW223313   3.984   0.200   9.396 -0.8629  0.2525 -0.9035
 3893SOL     OW23314   2.062   2.031  15.150  0.1214  0.1805  0.0373
 3893SOL    HW123315   1.984   2.032  15.205  0.1974 -1.4194  0.1623
 3893SOL    HW223316   2.020   2.084  15.082  3.2259  1.7986 -0.6496
 3894SOL     OW23317   3.239   4.082  12.037  0.3886  0.3310 -0.4434
 3894SOL    HW123318   3.295   4.028  11.981  0.4079 -0.7160  0.5873
 3894SOL    HW223319   3.180   4.016  12.073 -0.9547  0.7829 -1.8533
 3895SOL     OW23320   2.332   2.529   6.654 -0.0856  0.3427  0.4471
 3895SOL    HW123321   2.251   2.545   6.606  0.4590  0.8129 -0.3154
 3895SOL    HW223322   2.379   2.474   6.592 -1.8158 -2.3648  1.5488
 3896SOL     OW23323   2.162   1.862   6.432  0.5470 -0.2523 -0.2914
 3896SOL    HW123324   2.165   1.835   6.524  1.2172  0.2755 -0.1663
 3896SOL    HW223325   2.234   1.924   6.431 -0.3313  0.7685 -0.0777
 3897SOL     OW23326   1.385   3.501   2.464  0.7359 -0.5028 -0.3428
 3897SOL    HW123327   1.381   3.474   2.556  1.0092  1.3449  0.1984
 3897SOL    HW223328   1.468   3.464   2.431  1.1542 -1.4688  1.8375
 3898SOL     OW23329   4.329   2.022   7.599 -0.2722  0.5421 -0.1840
 3898SOL    HW123330   4.292   2.050   7.683  1.1868  1.9429 -0.0100
 3898SOL    HW223331   4.363   1.935   7.619 -0.7640  0.4630  0.3403
 3899SOL     OW23332   3.833   0.652   8.519  0.1497 -0.0464  0.6225
 3899SOL    HW123333   3.871   0.678   8.435  1.9411  0.6320  1.6214
 3899SOL    HW223334   3.867   0.564   8.534  1.2538  0.1631 -0.6713
 3900SOL     OW23335   1.689   3.063   6.280 -0.6120  0.3325 -0.0648
 3900SOL    HW123336   1.678   2.972   6.309 -2.6051  1.2684  2.1215
 3900SOL    HW223337   1.605   3.074   6.235 -1.0252  0.1155  0.6523
 3901SOL     OW23338   0.066   4.068   7.746 -0.7714  0.1781 -0.4676
 3901SOL    HW123339   0.019   4.036   7.669 -0.6119 -1.9164  0.3327
 3901SOL    HW223340   0.075   4.160   7.718 -0.3863  0.3159  0.1217
 3902SOL     OW23341   1.909   3.463   5.456  0.1072 -0.0819  0.4318
 3902SOL    HW123342   1.948   3.376   5.461 -1.5330 -0.9208 -1.7677
 3902SOL    HW223343   1.981   3.508   5.412 -0.1614 -1.0579 -0.9738
 3903SOL     OW23344   0.034   2.138   9.634  0.3024 -0.0475 -0.0184
 3903SOL    HW123345   0.116   2.134   9.584  0.4882  0.5574  0.2397
 3903SOL    HW223346   4.718   2.115   9.562 -0.9241  0.9148  0.6908
 3904SOL     OW23347   3.498   1.614   6.148  0.6179  0.2129  0.0033
 3904SOL    HW123348   3.442   1.665   6.207  1.4544  0.1743  0.8311
 3904SOL    HW223349   3.502   1.534   6.200  1.1375  0.7841  0.8296
 3905SOL     OW23350   3.926   4.379   2.322 -0.1836 -0.5068 -0.2685
 3905SOL    HW123351   3.924   4.469   2.289  0.5020 -0.7981 -1.1397
 3905SOL    HW223352   3.903   4.394   2.413  0.6506  0.8196 -0.2772
 3906SOL     OW23353   4.390   2.271  17.217  0.1478 -0.2095  0.4251
 3906SOL    HW123354   4.346   2.186  17.223 -1.6251  0.6238 -0.8787
 3906SOL    HW223355   4.428   2.266  17.305  0.1283 -1.1131  0.3852
 3907SOL     OW23356   3.322   4.576  15.774 -0.1271  0.0955 -0.2205
 3907SOL    HW123357   3.359   4.490  15.754 -1.8453 -0.7619  0.3413
 3907SOL    HW223358   3.369   4.631  15.712  0.3064 -1.0158 -0.8721
 3908SOL     OW23359   1.712   4.509   9.219 -0.3960  0.0866 -0.1029
 3908SOL    HW123360   1.779   4.466   9.167 -1.6457  0.4833 -2.0565
 3908SOL    HW223361   1.646   4.527   9.151  0.4068  1.3590 -0.5446
 3909SOL     OW23362   1.448   3.424   6.022  0.5209  0.1952  0.1213
 3909SOL    HW123363   1.382   3.383   6.077  0.5603 -1.3949 -0.9892
 3909SOL    HW223364   1.446   3.516   6.047 -1.7119 -0.2429  1.4489
 3910SOL     OW23365   3.645   4.313   2.314  0.0987  0.1784  0.3487
 3910SOL    HW123366   3.685   4.238   2.360 -0.0023 -0.3419 -0.4143
 3910SOL    HW223367   3.702   4.323   2.238 -2.3790  0.0389 -1.5309
 3911SOL     OW23368   0.418   0.008   3.220  0.1776  0.5861 -0.2001
 3911SOL    HW123369   0.445   4.672   3.265 -0.3262 -0.2794 -1.4078
 3911SOL    HW223370   0.488   0.071   3.239  2.1681 -3.0482  4.5893
 3912SOL     OW23371   3.506   4.498   9.103  0.4716 -0.6411 -0.2589
 3912SOL    HW123372   3.569   4.450   9.049  2.5266  0.8910  0.7439
 3912SOL    HW223373   3.438   4.529   9.043 -0.3498 -1.6036  0.1946
 3913SOL     OW23374   1.584   3.667   3.580  0.0455  0.0426 -0.2502
 3913SOL    HW123375   1.584   3.574   3.604  0.5935  0.4877  1.5020
 3913SOL    HW223376   1.629   3.660   3.496  0.1650  1.7866 -0.3288
 3914SOL     OW23377   0.089   1.543  11.967 -0.2084  0.0438  0.6509
 3914SOL    HW123378   0.018   1.580  11.916  0.1710  2.2493  1.7573
 3914SOL    HW223379   0.119   1.621  12.012 -2.6878  1.4449 -0.1387
 3915SOL     OW23380   3.456   1.528   3.303 -0.0744  0.1811  0.0586
 3915SOL    HW123381   3.395   1.457   3.285 -0.5077  0.9838 -1.5715
 3915SOL    HW223382   3.531   1.479   3.335  0.1624  1.2117  1.1414
 3916SOL     OW23383   1.151   0.851   5.557 -0.3967  0.8971 -0.6841
 3916SOL    HW123384   1.208   0.924   5.535 -0.4105  1.0263 -0.3041
 3916SOL    HW223385   1.174   0.777   5.501 -1.6127  0.8499 -1.1242
 3917SOL     OW23386   2.950   1.907   6.134 -0.0822  0.6909 -0.0340
 3917SOL    HW123387   3.030   1.919   6.083  0.2260  0.1242  0.3168
 3917SOL    HW223388   2.890   1.922   6.061 -1.8073 -0.0972  1.2184
 3918SOL     OW23389   1.537   0.281   7.565 -0.0454 -0.2829 -0.7176
 3918SOL    HW123390   1.604   0.214   7.552  2.4251  2.4245 -1.8883
 3918SOL    HW223391   1.489   0.260   7.645 -1.8264  1.4069 -1.3414
 3919SOL     OW23392   1.142   1.613   1.127 -0.1555  0.1513  0.3014
 3919SOL    HW123393   1.163   1.661   1.047  1.7185 -0.5631  0.3741
 3919SOL    HW223394   1.072   1.562   1.086  2.9122 -1.3247 -3.1371
 3920SOL     OW23395   1.925   1.214   7.368  0.2456 -0.0465  0.2793
 3920SOL    HW123396   1.887   1.198   7.455 -1.5386 -1.1172 -0.6954
 3920SOL    HW223397   2.011   1.174   7.380  0.7438  1.2729  1.2158
 3921SOL     OW23398   2.472   0.778   2.692  0.0639 -0.4200 -0.1454
 3921SOL    HW123399   2.531   0.801   2.764  1.3262  0.2426 -1.3963
 3921SOL    HW223400   2.412   0.721   2.739  1.1326 -0.7291  0.8477
 3922SOL     OW23401   3.182   0.936   8.217  0.5024 -0.8241 -0.3210
 3922SOL    HW123402   3.204   0.997   8.146 -0.4351 -0.5880 -0.4101
 3922SOL    HW223403   3.268   0.903   8.242  1.5200 -0.2220 -3.0288
 3923SOL     OW23404   2.196   3.062   4.233  0.7843 -0.3487  0.4717
 3923SOL    HW123405   2.256   3.135   4.251  1.3958 -0.8465  0.4759
 3923SOL    HW223406   2.248   2.981   4.237 -1.6812 -1.8712  1.5971
 3924SOL     OW23407   0.915   3.866   8.741 -0.0795 -0.2785 -0.4017
 3924SOL    HW123408   0.881   3.899   8.824  1.7467  2.3798 -0.6985
 3924SOL    HW223409   0.884   3.941   8.689 -0.8925  0.0199  0.5115
 3925SOL     OW23410   3.491   2.520   8.270 -0.2895  0.5006  0.6371
 3925SOL    HW123411   3.572   2.541   8.318  1.1825 -0.3817 -1.4832
 3925SOL    HW223412   3.531   2.458   8.210 -0.1741  0.7253  0.4851
 3926SOL     OW23413   0.111   4.685   5.291  0.8699 -0.2831  1.1756
 3926SOL    HW123414   0.072   4.600   5.270  0.5084  0.2432 -0.3472
 3926SOL    HW223415   0.028   4.723   5.320  0.5350  0.3259 -0.5736
 3927SOL     OW23416   3.603   3.655   2.121 -0.4515 -0.1679  0.1242
 3927SOL    HW123417   3.657   3.702   2.185 -1.0476 -1.1175  1.3263
 3927SOL    HW223418   3.633   3.565   2.131 -2.2193 -0.7775 -0.0432
 3928SOL     OW23419   0.292   2.051   3.143  0.3333  0.2901  0.4365
 3928SOL    HW123420   0.199   2.042   3.126  0.2411  2.2107  0.0004
 3928SOL    HW223421   0.306   2.121   3.080 -0.4736  0.8098  0.8372
 3929SOL     OW23422   2.160   1.385   3.290 -0.0596 -0.1900 -0.6787
 3929SOL    HW123423   2.247   1.353   3.316 -1.0449 -2.2066  0.1014
 3929SOL    HW223424   2.165   1.392   3.195  0.0757 -0.7676 -0.7155
 3930SOL     OW23425   2.678   2.458   2.610 -0.6222 -0.0454 -0.0089
 3930SOL    HW123426   2.585   2.443   2.622 -0.1173 -2.2977  1.0537
 3930SOL    HW223427   2.718   2.371   2.608  1.0606  0.7026  0.4018
 3931SOL     OW23428   2.810   1.446   4.229  0.2793 -0.1402  0.3781
 3931SOL    HW123429   2.728   1.422   4.274  1.0055  0.2268  1.9050
 3931SOL    HW223430   2.877   1.448   4.298  0.6280  1.9447 -0.0295
 3932SOL     OW23431   0.840   2.627   3.544 -0.0471  0.0156 -0.6953
 3932SOL    HW123432   0.931   2.623   3.573 -0.1049  1.1852 -0.3432
 3932SOL    HW223433   0.787   2.636   3.623 -0.3612 -0.0146 -0.9017
 3933SOL     OW23434   3.730   3.663   4.698  0.3967 -0.6848  0.1994
 3933SOL    HW123435   3.708   3.749   4.734 -0.8450 -2.4287  3.6379
 3933SOL    HW223436   3.770   3.699   4.619  0.1461 -1.3135 -0.2079
 3934SOL     OW23437   0.415   0.806   9.053 -0.1655  0.4669  0.2646
 3934SOL    HW123438   0.341   0.821   9.112  1.2080 -0.2748  2.1769
 3934SOL    HW223439   0.439   0.897   9.034  2.2472  0.0301  1.1578
 3935SOL     OW23440   2.126   0.250   9.113  0.0686  0.1606 -0.6227
 3935SOL    HW123441   2.057   0.183   9.110 -0.5319  0.7424  0.1542
 3935SOL    HW223442   2.079   0.315   9.165 -1.0275 -0.2847 -1.0477
 3936SOL     OW23443   3.966   3.074   2.415  0.0895 -0.1678 -0.6707
 3936SOL    HW123444   3.964   2.980   2.433 -0.7481 -0.0828 -0.2836
 3936SOL    HW223445   3.873   3.092   2.430  0.6452  1.4972  0.7544
 3937SOL     OW23446   2.342   0.499  11.484  0.1973 -0.2158 -0.2096
 3937SOL    HW123447   2.304   0.528  11.401  0.4095 -1.3154 -0.6866
 3937SOL    HW223448   2.380   0.412  11.470 -0.0991 -0.5243  0.9307
 3938SOL     OW23449   3.542   0.696  17.007  0.0120  0.2241  0.3294
 3938SOL    HW123450   3.481   0.679  17.079 -1.1677  0.4122 -0.6305
 3938SOL    HW223451   3.619   0.645  17.031  0.2276  0.4230  0.0631
 3939SOL     OW23452   2.883   4.148   3.449  0.7627  0.1289 -0.1537
 3939SOL    HW123453   2.912   4.212   3.515  3.2650 -2.7511  1.5538
 3939SOL    HW223454   2.810   4.110   3.498  0.2158  1.4482  0.0595
 3940SOL     OW23455   2.261   3.093   5.761  0.0707  0.6762  0.5617
 3940SOL    HW123456   2.291   3.162   5.702  0.1422 -1.2077 -1.6039
 3940SOL    HW223457   2.172   3.083   5.729  1.1558 -0.5077 -2.0853
 3941SOL     OW23458   2.742   3.521   3.413 -0.2623 -0.8161 -0.2298
 3941SOL    HW123459   2.735   3.427   3.393  1.9922 -0.7329 -1.3603
 3941SOL    HW223460   2.666   3.555   3.366 -0.8695  0.1930  1.4838
 3942SOL     OW23461   3.627   0.152   1.654  0.5059  0.6024 -0.1835
 3942SOL    HW123462   3.657   0.170   1.565  4.8125 -0.1798  1.0936
 3942SOL    HW223463   3.650   0.236   1.695 -1.6734  0.4044  1.4066
 3943SOL     OW23464   3.295   4.540   6.379 -0.1299  0.0411  0.1230
 3943SOL    HW123465   3.230   4.477   6.349 -1.5539  1.1062  0.9898
 3943SOL    HW223466   3.293   4.605   6.309  1.3724  0.4702  0.4757
 3944SOL     OW23467   3.842   1.215   8.762 -0.0994 -0.0393  0.0924
 3944SOL    HW123468   3.803   1.265   8.690 -0.2271 -2.6636 -1.6629
 3944SOL    HW223469   3.770   1.170   8.806  0.3774 -0.8774  0.0171
 3945SOL     OW23470   1.819   3.000   2.547  0.0868 -0.2430 -0.2444
 3945SOL    HW123471   1.878   2.929   2.520  0.1155 -0.0460 -0.6976
 3945SOL    HW223472   1.736   2.952   2.551 -0.5980  1.0885  1.5348
 3946SOL     OW23473   3.989   0.973  17.201  0.2627  0.6078 -0.0450
 3946SOL    HW123474   4.032   0.943  17.121  0.8543 -1.3319  1.0018
 3946SOL    HW223475   4.041   0.931  17.270 -0.4129  0.1472  0.1850
 3947SOL     OW23476   0.764   1.971   3.957  0.5668 -0.1335 -0.1214
 3947SOL    HW123477   0.716   2.053   3.942  1.4218  0.0278 -2.0706
 3947SOL    HW223478   0.688   1.914   3.952 -0.4107  1.1438  0.2597
 3948SOL     OW23479   1.032   0.927   8.325 -0.3716  0.2918 -0.4572
 3948SOL    HW123480   1.018   0.914   8.419  1.6587  0.6966 -0.1032
 3948SOL    HW223481   1.095   0.998   8.329  1.1803 -1.0682 -1.0421
 3949SOL     OW23482   0.117   2.104   0.726  0.3920 -0.2164  0.2392
 3949SOL    HW123483   0.206   2.083   0.699 -1.6146 -4.2114 -3.2121
 3949SOL    HW223484   0.131   2.120   0.820  0.4357  0.5606  0.0992
 3950SOL     OW23485   2.639   0.181  16.340  0.2693 -0.0610  0.2712
 3950SOL    HW123486   2.613   0.218  16.424 -0.2679 -0.8321  0.4460
 3950SOL    HW223487   2.577   0.108  16.342 -0.4839  0.5659 -0.1642
 3951SOL     OW23488   2.664   1.342   9.273 -0.3899 -0.4617 -0.6010
 3951SOL    HW123489   2.577   1.306   9.292 -1.3201  2.4007  0.5633
 3951SOL    HW223490   2.639   1.431   9.251 -0.9808 -0.2571  0.9131
 3952SOL     OW23491   2.977   3.940  15.798 -0.1177 -0.9369  0.2362
 3952SOL    HW123492   3.044   3.916  15.733  1.0655  1.0746  0.7281
 3952SOL    HW223493   2.900   3.940  15.741  0.8356 -0.1688 -1.0578
 3953SOL     OW23494   1.437   3.939   5.805 -0.0267 -0.2568 -0.5123
 3953SOL    HW123495   1.449   4.033   5.818  1.2139 -0.4281 -0.3739
 3953SOL    HW223496   1.487   3.918   5.726  1.7059  0.3577  0.4336
 3954SOL     OW23497   2.295   2.947   6.745 -0.1513  0.0770 -0.5690
 3954SOL    HW123498   2.345   2.869   6.770  0.7119  1.6078  2.5933
 3954SOL    HW223499   2.216   2.947   6.800  1.6856  3.4173  2.1045
 3955SOL     OW23500   3.514   4.148  11.601 -0.3315  0.1681  0.5062
 3955SOL    HW123501   3.525   4.197  11.519  1.3541 -1.9810 -0.5530
 3955SOL    HW223502   3.558   4.064  11.586 -0.2004  0.4950 -0.9189
 3956SOL     OW23503   1.918   1.783   6.307  0.1839  0.0933  0.1335
 3956SOL    HW123504   2.010   1.793   6.335  0.1130 -0.5543  0.6146
 3956SOL    HW223505   1.903   1.701   6.353 -1.4222  0.0755 -0.4491
 3957SOL     OW23506   3.352   0.132   4.224 -0.7035 -0.7234 -0.3394
 3957SOL    HW123507   3.438   0.134   4.268 -0.3409  1.8541 -1.1774
 3957SOL    HW223508   3.387   0.097   4.142  2.1341  1.5954 -0.1381
 3958SOL     OW23509   0.838   4.483   2.106  0.1638 -0.5980  0.0601
 3958SOL    HW123510   0.911   4.441   2.060  1.4588  2.1192 -0.3718
 3958SOL    HW223511   0.812   4.545   2.038  0.3585  0.7538  1.2105
 3959SOL     OW23512   1.807   4.116   9.278 -0.5728 -0.3909 -0.4206
 3959SOL    HW123513   1.712   4.113   9.289 -0.5386 -1.0060 -0.2743
 3959SOL    HW223514   1.837   4.151   9.362 -3.4165  1.8501 -0.3445
 3960SOL     OW23515   0.106   4.048   4.439  0.1941  0.1363  0.1470
 3960SOL    HW123516   0.091   3.979   4.374  1.4787 -2.0321  2.1843
 3960SOL    HW223517   0.088   3.996   4.517 -0.8478 -1.6291 -1.2852
 3961SOL     OW23518   1.996   3.248   6.988 -0.2135 -0.3547  0.0110
 3961SOL    HW123519   2.059   3.231   6.918 -0.0732 -0.9029  0.2699
 3961SOL    HW223520   1.911   3.235   6.948 -0.5589 -2.9920  1.6213
 3962SOL     OW23521   1.049   0.994   5.817  0.4938 -0.0631  0.6924
 3962SOL    HW123522   1.122   0.939   5.788 -1.1859 -0.6621 -2.3862
 3962SOL    HW223523   1.065   1.070   5.761  0.5867 -1.0264 -0.5907
 3963SOL     OW23524   2.212   4.056   3.310 -0.3132 -0.0586  0.5663
 3963SOL    HW123525   2.137   3.996   3.309 -1.5968  1.5465 -0.1463
 3963SOL    HW223526   2.284   4.004   3.274 -2.1220 -0.6864 -2.0794
 3964SOL     OW23527   1.133   3.612  11.118 -0.2170  0.7597  0.0561
 3964SOL    HW123528   1.213   3.640  11.074 -0.3603  1.1075  0.0176
 3964SOL    HW223529   1.116   3.523  11.086  1.3735 -0.0989  1.6088
 3965SOL     OW23530   4.244   2.571   9.357 -0.2298  0.2043  0.0820
 3965SOL    HW123531   4.262   2.645   9.414  1.8897  1.6824 -2.5173
 3965SOL    HW223532   4.167   2.534   9.399 -0.1198 -0.9895 -0.7498
 3966SOL     OW23533   2.273   3.575   3.285  0.1168  0.5560 -0.1018
 3966SOL    HW123534   2.256   3.583   3.379  0.9568  1.3835 -0.0225
 3966SOL    HW223535   2.279   3.480   3.272 -3.2061 -0.0910  3.1600
 3967SOL     OW23536   4.452   2.427   8.760 -0.8497  0.3146 -1.1127
 3967SOL    HW123537   4.397   2.356   8.793  1.0665  0.6569  2.8568
 3967SOL    HW223538   4.416   2.453   8.675 -1.4274  1.8378 -0.4006
 3968SOL     OW23539   0.014   0.710   9.852 -0.3448  0.4503  0.2603
 3968SOL    HW123540   4.685   0.766   9.821 -1.5167 -1.2673 -0.1495
 3968SOL    HW223541   0.083   0.775   9.862  0.1729 -0.2954  1.5089
 3969SOL     OW23542   0.408   1.254   5.612 -0.3123 -0.5836 -0.7693
 3969SOL    HW123543   0.417   1.194   5.538  0.2106 -0.4648 -0.8035
 3969SOL    HW223544   0.416   1.336   5.563 -1.9758 -0.1234 -0.2875
 3970SOL     OW23545   4.148   2.102   6.691 -0.4920  0.4283 -0.0346
 3970SOL    HW123546   4.176   2.075   6.604 -0.7465 -1.2242  0.3895
 3970SOL    HW223547   4.111   2.186   6.666  1.4868  1.2158 -0.3393
 3971SOL     OW23548   3.939   0.899   9.995  0.2462  0.0801 -0.1610
 3971SOL    HW123549   3.935   0.820   9.941 -2.6704 -0.0660  0.2722
 3971SOL    HW223550   3.926   0.866  10.084  1.6002  0.5294  0.2104
 3972SOL     OW23551   0.211   1.348   3.338 -0.0421  0.4259 -0.2487
 3972SOL    HW123552   0.183   1.438   3.352 -1.2745 -0.0776  0.4743
 3972SOL    HW223553   0.285   1.368   3.280  2.0118  0.7911  2.5336
 3973SOL     OW23554   2.633   2.769   7.222  0.2468 -0.2916 -0.3196
 3973SOL    HW123555   2.568   2.699   7.218  1.4849 -1.4246 -0.8565
 3973SOL    HW223556   2.701   2.731   7.166  0.6793 -0.5311  0.3772
 3974SOL     OW23557   1.370   1.212   7.783  0.3361  0.3769 -0.4642
 3974SOL    HW123558   1.365   1.126   7.743  1.3702  0.4045 -0.6559
 3974SOL    HW223559   1.428   1.259   7.722  0.5245 -0.1940 -0.7209
 3975SOL     OW23560   2.841   0.134   8.687 -0.0402 -0.2630 -0.0281
 3975SOL    HW123561   2.857   0.123   8.781 -2.7815 -2.8672  0.1599
 3975SOL    HW223562   2.787   0.213   8.689 -1.8853 -1.5290  0.5483
 3976SOL     OW23563   3.972   3.112  12.504 -0.3533 -0.2657  0.8577
 3976SOL    HW123564   4.031   3.089  12.432 -1.1194  0.4594  0.0029
 3976SOL    HW223565   3.897   3.149  12.457  1.4794  1.1557 -0.9407
 3977SOL     OW23566   0.387   0.272   3.726  0.1414  0.6571 -0.0691
 3977SOL    HW123567   0.302   0.315   3.734  0.8433  2.2334 -0.9859
 3977SOL    HW223568   0.454   0.331   3.760  0.5076  0.5858 -0.6788
 3978SOL     OW23569   1.563   1.417  12.298 -0.7651  0.2752 -0.0593
 3978SOL    HW123570   1.619   1.469  12.354  0.5387 -1.5510  0.3282
 3978SOL    HW223571   1.602   1.330  12.305 -1.2467 -0.0942 -1.7663
 3979SOL     OW23572   0.421   0.791   2.187 -0.0724  0.5587  0.7170
 3979SOL    HW123573   0.375   0.810   2.269  0.0881 -0.3276  1.0070
 3979SOL    HW223574   0.428   0.883   2.161 -0.3676  0.5622  0.6492
 3980SOL     OW23575   4.332   2.051   8.094 -0.1554  0.0927  0.1255
 3980SOL    HW123576   4.383   2.131   8.094  0.9192 -0.5983 -0.1207
 3980SOL    HW223577   4.243   2.088   8.095 -0.2703 -0.0987 -2.4927
 3981SOL     OW23578   3.734   0.100   7.052 -0.2484 -0.0637  0.5740
 3981SOL    HW123579   3.691   0.014   7.059  1.4606 -0.9158  0.6217
 3981SOL    HW223580   3.747   0.115   6.959 -0.5856  1.2945  0.7441
 3982SOL     OW23581   0.421   2.023   1.414 -0.0964  0.0057  0.9474
 3982SOL    HW123582   0.359   2.096   1.405  0.5572  0.6066  1.3868
 3982SOL    HW223583   0.368   1.953   1.376  0.4526  0.6004 -0.9383
 3983SOL     OW23584   1.944   3.689   4.888 -0.2506  0.4489 -0.0847
 3983SOL    HW123585   1.899   3.625   4.832  1.6357 -1.6016  0.7581
 3983SOL    HW223586   1.870   3.743   4.916 -0.2497 -0.3688  1.4860
 3984SOL     OW23587   4.006   4.642   6.332 -0.1513 -0.6148  0.0723
 3984SOL    HW123588   4.004   4.605   6.420 -0.4557  1.7577  1.0681
 3984SOL    HW223589   4.098   4.623   6.313  0.6037 -0.5741  3.6993
 3985SOL     OW23590   2.302   1.866  11.874 -0.5677  0.1139 -0.5087
 3985SOL    HW123591   2.363   1.933  11.846 -0.7815 -0.1331 -1.5590
 3985SOL    HW223592   2.361   1.809  11.923  2.3015  1.6239 -2.2146
 3986SOL     OW23593   1.501   1.292  13.711  0.2127 -0.6783 -0.4049
 3986SOL    HW123594   1.568   1.329  13.768 -1.6696  1.3593  0.4835
 3986SOL    HW223595   1.545   1.296  13.627  1.9671  2.5531  0.6931
 3987SOL     OW23596   0.914   0.392   7.614  0.2363  0.3055 -0.0959
 3987SOL    HW123597   0.892   0.451   7.686  0.6996  2.8402 -2.0427
 3987SOL    HW223598   0.873   0.308   7.638 -2.1491  0.1842 -4.6074
 3988SOL     OW23599   4.317   4.246  12.232  0.0991  0.1007  0.1467
 3988SOL    HW123600   4.317   4.218  12.323 -1.3859 -0.5919 -0.0649
 3988SOL    HW223601   4.364   4.329  12.229 -0.0331  0.2056  1.1059
 3989SOL     OW23602   4.278   0.710   6.036 -0.2363 -0.5094 -0.0389
 3989SOL    HW123603   4.271   0.618   6.011 -0.0948 -0.3953 -0.4875
 3989SOL    HW223604   4.248   0.709   6.127  0.1746  0.9093  0.1081
 3990SOL     OW23605   3.283   4.090   6.427  0.1836  0.4513  0.2950
 3990SOL    HW123606   3.372   4.068   6.456  0.4455  1.0289 -0.0747
 3990SOL    HW223607   3.248   4.127   6.508 -1.8066 -2.1461  0.6246
 3991SOL     OW23608   0.241   2.328  14.914 -0.4076  0.2821 -0.0864
 3991SOL    HW123609   0.165   2.386  14.905 -0.4894  0.0881 -0.6747
 3991SOL    HW223610   0.203   2.263  14.974  1.1067  0.5555  1.1563
 3992SOL     OW23611   1.504   3.441   6.356  0.1949  0.0881 -0.3623
 3992SOL    HW123612   1.592   3.427   6.391  0.2890  0.9936 -0.2199
 3992SOL    HW223613   1.480   3.353   6.330  0.6979 -0.3694  0.7134
 3993SOL     OW23614   2.244   0.649   8.540  0.3313  0.5791  0.1670
 3993SOL    HW123615   2.319   0.674   8.486  0.0823  1.5568  0.2783
 3993SOL    HW223616   2.175   0.636   8.475 -0.8727 -0.0312  1.5696
 3994SOL     OW23617   1.399   1.562   5.374  0.5976  0.3053  0.3890
 3994SOL    HW123618   1.436   1.647   5.351  1.1388 -0.2716 -0.9259
 3994SOL    HW223619   1.319   1.568   5.322  0.3821 -0.2862  0.6498
 3995SOL     OW23620   3.072   0.060  13.658 -0.0066 -0.1753 -0.0191
 3995SOL    HW123621   2.982   0.081  13.681  0.2609  0.2037  0.6678
 3995SOL    HW223622   3.121   0.116  13.718 -0.8356  0.0235  0.4603
 3996SOL     OW23623   0.261   0.866  12.223  0.3760  0.4582 -0.2486
 3996SOL    HW123624   0.324   0.910  12.167 -2.3972  3.2530 -1.1646
 3996SOL    HW223625   0.203   0.939  12.246  0.9179  0.7408  0.2135
 3997SOL     OW23626   2.517   0.550  17.374  0.3396  0.0934 -0.0658
 3997SOL    HW123627   2.519   0.555  17.279 -0.1153 -0.2610 -0.0953
 3997SOL    HW223628   2.431   0.509  17.384 -0.4778  2.2357  1.8030
 3998SOL     OW23629   3.182   2.491   9.451 -0.1929  0.0107  0.1908
 3998SOL    HW123630   3.142   2.476   9.365 -0.6361  1.2578  0.1834
 3998SOL    HW223631   3.111   2.510   9.512 -1.1483  0.4199 -1.0560
 3999SOL     OW23632   3.571   1.983  14.455 -0.1114  0.2415 -0.8249
 3999SOL    HW123633   3.615   2.067  14.469  2.3104 -0.8514 -1.9922
 3999SOL    HW223634   3.520   2.007  14.378  1.6230  1.3789 -1.6197
 4000SOL     OW23635   1.367   4.347  14.649  0.1555  0.7749  0.1246
 4000SOL    HW123636   1.305   4.419  14.664  0.1858  1.0866 -1.1584
 4000SOL    HW223637   1.328   4.282  14.707 -1.2429  0.3705 -1.2731
 4001SOL     OW23638   2.416   2.423   3.794  0.3641 -0.2481  0.2234
 4001SOL    HW123639   2.343   2.371   3.828  1.3303  0.1267  2.8282
 4001SOL    HW223640   2.373   2.489   3.740  0.2482 -2.6192 -2.6251
 4002SOL     OW23641   2.398   4.492   7.521  0.2597  0.2321  0.1332
 4002SOL    HW123642   2.360   4.421   7.573 -0.3992  1.1122  0.8685
 4002SOL    HW223643   2.396   4.573   7.573  0.3551  0.3066  0.0217
 4003SOL     OW23644   1.485   2.654   8.972  0.9107 -0.3726 -0.0561
 4003SOL    HW123645   1.433   2.574   8.966 -1.5099  1.1039  0.7604
 4003SOL    HW223646   1.545   2.644   8.898  1.2910 -1.2955  0.3910
 4004SOL     OW23647   0.883   0.956  16.501 -0.6855  0.0280  0.3033
 4004SOL    HW123648   0.917   1.045  16.489 -0.2609 -0.0176  1.1923
 4004SOL    HW223649   0.893   0.923  16.412 -2.8997 -1.8228  0.7501
 4005SOL     OW23650   0.976   0.087   5.700 -0.1075  0.1734 -0.0375
 4005SOL    HW123651   0.934   0.091   5.786  2.4319  0.7962  1.1841
 4005SOL    HW223652   0.945   0.008   5.656  0.5740 -0.5264  0.7366
 4006SOL     OW23653   4.153   0.612   2.066  0.1094 -0.0335 -0.9604
 4006SOL    HW123654   4.088   0.544   2.081  1.0661 -0.9385 -0.8823
 4006SOL    HW223655   4.135   0.651   1.980 -0.8073 -1.3287 -1.3523
 4007SOL     OW23656   2.418   1.899   8.324  0.1589  0.7072 -0.4812
 4007SOL    HW123657   2.487   1.901   8.258  0.4958  3.0709 -0.0488
 4007SOL    HW223658   2.440   1.975   8.378  0.5631  0.0358  0.2823
 4008SOL     OW23659   3.451   2.338   2.692  0.3597  0.3613  0.0324
 4008SOL    HW123660   3.443   2.415   2.749  0.8665 -0.5305  1.2893
 4008SOL    HW223661   3.533   2.352   2.645  0.1984  0.8043 -0.1199
 4009SOL     OW23662   0.904   0.529   8.429 -0.0031  0.0125  0.6103
 4009SOL    HW123663   0.990   0.499   8.461 -0.2442 -1.6936 -0.3176
 4009SOL    HW223664   0.855   0.546   8.509 -0.0190  2.5988  0.0430
 4010SOL     OW23665   2.810   1.826   3.712 -0.4931  0.9928  0.1259
 4010SOL    HW123666   2.788   1.919   3.700 -2.2169  0.4952 -0.6019
 4010SOL    HW223667   2.904   1.839   3.725 -0.0969  0.2006 -2.0085
 4011SOL     OW23668   1.326   4.689   4.617 -0.4612 -0.0842  0.1472
 4011SOL    HW123669   1.376   0.026   4.604 -3.7244  1.4265 -2.9305
 4011SOL    HW223670   1.378   4.618   4.581 -1.7685 -0.5874 -0.7518
 4012SOL     OW23671   2.127   0.866   2.269 -0.1095  0.3270  0.0653
 4012SOL    HW123672   2.089   0.856   2.356 -1.0994  1.1321 -0.2736
 4012SOL    HW223673   2.110   0.780   2.231  0.8590 -0.4570  1.3914
 4013SOL     OW23674   3.764   2.407   0.871 -0.2387 -0.0746 -0.4036
 4013SOL    HW123675   3.858   2.422   0.884 -0.3634  0.3420  0.0381
 4013SOL    HW223676   3.715   2.422   0.952 -0.0287  0.6670 -0.4141
 4014SOL     OW23677   2.860   2.073   8.622 -0.3260 -0.7030  0.3174
 4014SOL    HW123678   2.906   2.114   8.695 -3.9544  2.0240  1.0755
 4014SOL    HW223679   2.871   1.979   8.637 -0.6318 -0.8796 -0.6021
 4015SOL     OW23680   3.505   2.619   2.504  0.1961 -0.5156 -0.2676
 4015SOL    HW123681   3.425   2.567   2.498  0.5316 -1.0967  0.2463
 4015SOL    HW223682   3.568   2.546   2.503  1.4836  0.5841  0.8016
 4016SOL     OW23683   0.364   0.200   9.611  0.4003  0.0686  0.3734
 4016SOL    HW123684   0.450   0.235   9.587 -0.3286 -0.0629 -2.3959
 4016SOL    HW223685   0.387   0.112   9.639 -1.2538 -0.4250  0.1604
 4017SOL     OW23686   4.205   3.398   3.355 -0.1491  0.7789  0.2209
 4017SOL    HW123687   4.141   3.450   3.305 -2.9212 -2.1963  0.6865
 4017SOL    HW223688   4.208   3.310   3.318  1.4952  1.4527 -1.2177
 4018SOL     OW23689   1.017   4.407   8.696 -0.0155 -0.3215  0.5856
 4018SOL    HW123690   0.958   4.381   8.768  1.2899 -3.4347  0.5194
 4018SOL    HW223691   1.011   4.502   8.686  1.6568 -0.1725  1.1188
 4019SOL     OW23692   0.065   2.650  11.096  0.0952 -0.5616 -0.5494
 4019SOL    HW123693   0.116   2.730  11.095 -2.5035  1.1044  0.6626
 4019SOL    HW223694   0.110   2.583  11.148  0.1873 -0.2433 -0.2238
 4020SOL     OW23695   4.239   2.316   3.172  0.0547 -0.5309 -0.0489
 4020SOL    HW123696   4.170   2.286   3.231 -1.8140  1.4796 -1.2306
 4020SOL    HW223697   4.220   2.279   3.086  2.3171  0.1384 -0.8361
 4021SOL     OW23698   0.327   3.853  14.270 -0.3139 -0.2314 -0.0595
 4021SOL    HW123699   0.340   3.774  14.218  0.6432  2.5205 -3.9813
 4021SOL    HW223700   0.415   3.857  14.307 -0.2676 -1.1680 -0.0723
 4022SOL     OW23701   4.199   1.800  15.227  0.6476  0.3743 -0.1421
 4022SOL    HW123702   4.127   1.850  15.264 -0.7474 -0.1276 -2.1696
 4022SOL    HW223703   4.202   1.719  15.279  1.4199  0.3395 -0.2474
 4023SOL     OW23704   0.795   3.483   8.745  0.3039 -0.8141  0.1620
 4023SOL    HW123705   0.746   3.412   8.786  1.8926 -0.4298  2.6901
 4023SOL    HW223706   0.872   3.496   8.800 -0.7331  0.6230  1.3023
 4024SOL     OW23707   0.063   0.904   4.807  0.2439  0.0680 -0.0283
 4024SOL    HW123708   0.027   0.907   4.718  0.2833 -4.3296 -0.1882
 4024SOL    HW223709   0.156   0.896   4.788 -0.0619  2.9435 -2.7173
 4025SOL     OW23710   2.151   1.873   8.375  0.0090  0.2335 -0.0717
 4025SOL    HW123711   2.149   1.781   8.403 -1.8103  0.4109  0.3729
 4025SOL    HW223712   2.244   1.870   8.351  0.2542  1.7229  0.6996
 4026SOL     OW23713   1.468   2.554   2.347 -0.1638  0.1609 -0.1410
 4026SOL    HW123714   1.420   2.619   2.295 -0.4209  1.2968  1.5065
 4026SOL    HW223715   1.493   2.617   2.415 -1.3263  2.6301 -1.9797
 4027SOL     OW23716   1.022   2.316   7.046  0.3472  0.6874  0.1740
 4027SOL    HW123717   0.953   2.317   6.980  1.3133 -0.0309 -0.8616
 4027SOL    HW223718   1.003   2.232   7.089 -1.1376  1.6443  1.3715
 4028SOL     OW23719   4.689   1.680  12.302  0.1967 -0.1269 -0.8092
 4028SOL    HW123720   4.740   1.599  12.314  1.2822  0.5479 -0.8713
 4028SOL    HW223721   4.723   1.732  12.375  1.7758 -1.5195 -0.5239
 4029SOL     OW23722   3.705   4.571   2.782 -0.2076 -0.1663  0.1382
 4029SOL    HW123723   3.739   4.537   2.865 -0.4155 -0.0828  0.2602
 4029SOL    HW223724   3.628   4.620   2.814 -0.7215  0.7346 -2.5299
 4030SOL     OW23725   3.819   3.112  12.755  0.7930  0.2393  0.3269
 4030SOL    HW123726   3.858   3.142  12.673  1.7465  1.6433  1.2787
 4030SOL    HW223727   3.877   3.042  12.787  0.3269 -0.3500 -0.1128
 4031SOL     OW23728   1.123   3.785   3.643  0.0251  0.1360 -0.2544
 4031SOL    HW123729   1.217   3.790   3.657  0.0532  0.3813 -0.5391
 4031SOL    HW223730   1.091   3.712   3.698 -0.1494 -0.2175 -0.8300
 4032SOL     OW23731   2.815   1.449   8.302  0.5031  0.3735 -0.1750
 4032SOL    HW123732   2.858   1.379   8.252 -0.5369 -1.5001  1.5946
 4032SOL    HW223733   2.859   1.450   8.387 -2.8872  1.4323  1.5451
 4033SOL     OW23734   3.228   2.749   2.012 -0.4365 -0.5374  0.2461
 4033SOL    HW123735   3.214   2.684   2.081 -0.3675 -1.1989 -0.3673
 4033SOL    HW223736   3.136   2.774   2.000  0.8353  3.5438 -1.2409
 4034SOL     OW23737   2.942   4.325   4.102  0.1206  0.2040  0.1120
 4034SOL    HW123738   2.891   4.405   4.084  1.5706  0.7404 -1.5649
 4034SOL    HW223739   2.903   4.269   4.035 -0.2537  1.7645 -0.9643
 4035SOL     OW23740   2.921   3.211   5.200  0.2665  0.4461  0.0992
 4035SOL    HW123741   3.004   3.225   5.246 -0.3888 -0.4997  1.5442
 4035SOL    HW223742   2.870   3.173   5.271  0.6433  0.4214  0.3560
 4036SOL     OW23743   0.420   3.179   9.805 -0.1441 -0.2655 -0.8268
 4036SOL    HW123744   0.506   3.156   9.840 -0.2478  0.5670 -0.0445
 4036SOL    HW223745   0.426   3.273   9.788  0.3735 -0.1428  0.0416
 4037SOL     OW23746   0.012   4.280   6.664 -1.1055  0.0935 -0.2141
 4037SOL    HW123747   0.101   4.269   6.628 -1.0832 -0.6467  0.0555
 4037SOL    HW223748   0.034   4.295   6.756 -2.0991 -0.0436  0.0412
 4038SOL     OW23749   1.978   2.085   7.790  0.0562  0.6186 -0.1972
 4038SOL    HW123750   2.003   2.034   7.867  0.8073 -1.6100 -1.9345
 4038SOL    HW223751   1.887   2.057   7.789  0.6419 -1.4641  3.8435
 4039SOL     OW23752   3.414   4.087  14.951 -0.2634  0.1180 -0.5241
 4039SOL    HW123753   3.343   4.033  14.916  0.1973 -0.8407  0.0014
 4039SOL    HW223754   3.430   4.041  15.034  2.4193 -0.4120 -1.3386
 4040SOL     OW23755   1.104   3.345   3.130 -0.6565 -0.4744 -0.3308
 4040SOL    HW123756   1.026   3.299   3.160  0.1687 -0.9549  1.1115
 4040SOL    HW223757   1.105   3.426   3.182 -1.3112  0.1165 -1.2261
 4041SOL     OW23758   3.635   0.044   2.324  0.4754  0.7164 -0.0071
 4041SOL    HW123759   3.650   0.083   2.411 -0.7857 -1.8520  1.3626
 4041SOL    HW223760   3.670   4.703   2.355 -1.2574  0.9246  2.5307
 4042SOL     OW23761   2.858   1.128   8.490 -0.0495  0.0523  0.1255
 4042SOL    HW123762   2.879   1.119   8.397 -1.1444  1.4397 -0.2515
 4042SOL    HW223763   2.942   1.089   8.513 -0.0728  0.8852  1.5599
 4043SOL     OW23764   3.658   3.382   4.626 -0.0460  0.1615 -0.0585
 4043SOL    HW123765   3.699   3.469   4.621 -1.3847  0.8251  0.6745
 4043SOL    HW223766   3.714   3.343   4.693 -0.2677 -2.2148 -1.2327
 4044SOL     OW23767   2.079   2.494   7.570 -0.1990 -0.3242 -0.0335
 4044SOL    HW123768   2.037   2.434   7.632  0.1571 -0.8632 -0.3181
 4044SOL    HW223769   2.152   2.518   7.626 -1.0083  0.5732  0.6309
 4045SOL     OW23770   1.404   2.821   3.998  0.2321  0.2856 -0.4416
 4045SOL    HW123771   1.363   2.881   4.060  1.3221  2.3885 -1.7303
 4045SOL    HW223772   1.395   2.738   4.044 -0.4579  1.0872  0.8618
 4046SOL     OW23773   4.341   3.518   4.098 -0.1622 -0.2857  0.4180
 4046SOL    HW123774   4.388   3.587   4.145  0.2745 -0.9795  0.9985
 4046SOL    HW223775   4.258   3.512   4.145  1.4250 -1.8306  3.0370
 4047SOL     OW23776   0.038   0.444   2.193  0.3417 -0.1678  0.0698
 4047SOL    HW123777   4.734   0.504   2.135  0.6772  0.1068  0.0755
 4047SOL    HW223778   4.719   0.430   2.264 -0.7339  0.2528 -0.7958
 4048SOL     OW23779   1.860   1.935   7.467  0.7924  0.5117 -0.5492
 4048SOL    HW123780   1.920   1.862   7.451 -0.6833 -1.2107  1.7629
 4048SOL    HW223781   1.907   2.000   7.415  1.9802 -0.1013 -0.2307
 4049SOL     OW23782   3.043   1.356   7.552 -0.2218  0.2394 -0.1412
 4049SOL    HW123783   3.020   1.447   7.570  2.1337  0.4086  2.1130
 4049SOL    HW223784   2.978   1.325   7.490 -1.7853  3.5795 -0.1806
 4050SOL     OW23785   0.259   1.278  12.539 -0.6632 -0.3098  0.3021
 4050SOL    HW123786   0.346   1.244  12.560 -0.4927  0.2813  0.5437
 4050SOL    HW223787   0.204   1.200  12.547 -0.6297 -0.1602  2.0187
 4051SOL     OW23788   1.521   2.467   5.564  0.4086  0.1770 -0.3024
 4051SOL    HW123789   1.560   2.472   5.652  0.9048 -3.2183 -0.3443
 4051SOL    HW223790   1.504   2.560   5.547  0.4842  0.4440  1.0350
 4052SOL     OW23791   3.025   0.198   8.367  0.1224 -0.6894 -0.2098
 4052SOL    HW123792   2.945   0.173   8.321  0.3531  3.2628 -2.7223
 4052SOL    HW223793   3.034   0.292   8.354 -0.1510 -0.6635 -0.2214
 4053SOL     OW23794   1.041   0.582   1.594  0.2751 -0.5849  0.1475
 4053SOL    HW123795   0.994   0.612   1.517  1.5912 -0.0998 -0.4644
 4053SOL    HW223796   1.108   0.650   1.588 -2.5512  2.1536 -0.3618
 4054SOL     OW23797   0.413   2.437   9.489  0.4185  0.3311 -0.0272
 4054SOL    HW123798   0.482   2.405   9.547 -0.3241  0.1856  0.7798
 4054SOL    HW223799   0.342   2.462   9.549  0.8941 -0.2139  0.7570
 4055SOL     OW23800   0.824   3.586   2.721  0.0458 -0.2761 -0.4058
 4055SOL    HW123801   0.743   3.619   2.760  0.0509 -1.3225  0.4607
 4055SOL    HW223802   0.881   3.577   2.797 -0.5621  0.1164  0.0925
 4056SOL     OW23803   3.537   3.798   6.717  0.5300  0.6530 -0.3787
 4056SOL    HW123804   3.469   3.776   6.654 -0.8046 -1.0562  1.6526
 4056SOL    HW223805   3.496   3.838   6.793  1.9372 -0.7764  1.1552
 4057SOL     OW23806   3.480   2.270  12.362  0.4488 -0.4143 -0.0569
 4057SOL    HW123807   3.566   2.276  12.402  0.1677 -1.3907  0.6899
 4057SOL    HW223808   3.452   2.360  12.380  1.2202 -0.1226 -0.3346
 4058SOL     OW23809   2.733   0.928   5.906 -0.3142 -0.2055 -0.0527
 4058SOL    HW123810   2.744   0.845   5.952  0.2236 -1.0268 -1.6798
 4058SOL    HW223811   2.779   0.992   5.959 -1.1422  0.3194  0.0357
 4059SOL     OW23812   0.864   1.205  17.341  0.6305 -0.0878  0.1229
 4059SOL    HW123813   0.805   1.130  17.346 -1.0726  1.1560 -1.1878
 4059SOL    HW223814   0.906   1.191  17.256  3.1998 -2.8274  1.8299
 4060SOL     OW23815   2.857   0.959   7.607 -0.3578 -0.7792 -0.0496
 4060SOL    HW123816   2.886   0.880   7.560 -1.6904 -0.9594 -0.5680
 4060SOL    HW223817   2.907   0.943   7.687 -0.2344 -3.0155 -0.5554
 4061SOL     OW23818   2.611   0.279   9.170 -0.1326  0.7582 -0.2258
 4061SOL    HW123819   2.521   0.248   9.181 -0.0662  0.6328 -0.0478
 4061SOL    HW223820   2.658   0.201   9.200 -0.5602  0.7737  0.4686
 4062SOL     OW23821   0.443   3.959  16.193  0.0334 -0.7617  0.0744
 4062SOL    HW123822   0.422   3.920  16.278  3.7751  0.3293  1.4841
 4062SOL    HW223823   0.366   4.016  16.198 -0.2312 -1.1741  0.5931
 4063SOL     OW23824   1.842   2.024  16.851 -0.3126  0.6064 -0.4400
 4063SOL    HW123825   1.841   2.061  16.940  2.6534 -1.8034  0.6128
 4063SOL    HW223826   1.935   2.039  16.833 -1.3594  2.4825 -4.1257
 4064SOL     OW23827   0.362   2.171   4.461 -0.5356  0.3291  0.4192
 4064SOL    HW123828   0.442   2.206   4.421 -0.4706  0.6699  0.8430
 4064SOL    HW223829   0.332   2.101   4.404  1.4572  0.3024 -0.6018
 4065SOL     OW23830   4.065   2.529   0.604  0.2880  0.7932 -0.0789
 4065SOL    HW123831   3.970   2.529   0.618  0.3971  0.8860  0.6397
 4065SOL    HW223832   4.078   2.621   0.626  2.2593  1.0098 -2.1976
 4066SOL     OW23833   1.027   4.117  13.771  0.2362  0.6519  0.0822
 4066SOL    HW123834   1.105   4.169  13.790  1.1308 -1.0882  1.1064
 4066SOL    HW223835   0.996   4.103  13.861  3.7867 -1.1730  1.0155
 4067SOL     OW23836   0.623   4.298   3.824  0.0016 -0.5289  0.4025
 4067SOL    HW123837   0.679   4.232   3.783 -0.2700 -2.9895  3.9759
 4067SOL    HW223838   0.679   4.340   3.889  0.3242  0.8455 -0.7440
 4068SOL     OW23839   0.557   4.547   4.776 -0.0472 -0.0333  0.2389
 4068SOL    HW123840   0.648   4.544   4.745 -0.5736  0.1843 -1.3559
 4068SOL    HW223841   0.565   4.478   4.841  2.0768 -0.3026 -0.3203
 4069SOL     OW23842   3.827   4.102   9.469 -0.0358  0.3039 -0.5140
 4069SOL    HW123843   3.871   4.117   9.553  3.4395  0.1733 -2.3189
 4069SOL    HW223844   3.771   4.180   9.460  1.7865  1.6660 -0.2096
 4070SOL     OW23845   4.302   2.608   1.759 -0.4933 -0.3375  0.6179
 4070SOL    HW123846   4.313   2.519   1.792  1.4278 -0.1336  0.5412
 4070SOL    HW223847   4.229   2.639   1.813 -2.9947 -1.8007 -1.9420
 4071SOL     OW23848   1.677   3.621  12.628  0.0047 -1.0782  0.5801
 4071SOL    HW123849   1.637   3.621  12.715 -1.6854  0.4884 -0.1995
 4071SOL    HW223850   1.611   3.669  12.579  0.9246 -1.0655 -0.6584
 4072SOL     OW23851   3.179   4.324   2.790  0.7303 -0.6246 -0.0546
 4072SOL    HW123852   3.197   4.310   2.883 -0.4858 -0.6925  0.1633
 4072SOL    HW223853   3.233   4.256   2.750  0.3142 -1.2243  0.4065
 4073SOL     OW23854   1.803   1.084   0.442  0.0918  1.0915 -0.5689
 4073SOL    HW123855   1.769   1.050   0.359 -0.1079  0.7093 -0.3295
 4073SOL    HW223856   1.851   1.011   0.482  0.8703  1.8022 -0.2167
 4074SOL     OW23857   0.587   3.042   8.739  0.2631 -0.1915 -0.5390
 4074SOL    HW123858   0.600   2.960   8.787  0.5159  0.4793  0.5293
 4074SOL    HW223859   0.494   3.041   8.717 -0.0315  0.4410  0.6934
 4075SOL     OW23860   2.837   2.481   7.196  0.3354 -0.1058  0.5969
 4075SOL    HW123861   2.781   2.507   7.269 -3.8027 -0.1465 -2.6148
 4075SOL    HW223862   2.775   2.470   7.125  1.6817 -0.3735 -0.5316
 4076SOL     OW23863   2.078   2.142   5.942 -0.0109  0.0142  0.5050
 4076SOL    HW123864   2.019   2.108   5.874 -0.0247  1.2235 -0.0815
 4076SOL    HW223865   2.118   2.065   5.982  2.4633  0.5870 -0.8882
 4077SOL     OW23866   1.309   3.828   6.217 -0.6737 -0.1476 -0.3350
 4077SOL    HW123867   1.341   3.780   6.293  0.9155 -1.2263 -1.6665
 4077SOL    HW223868   1.386   3.825   6.159  0.1420 -0.2083  0.7558
 4078SOL     OW23869   1.852   3.543   4.337  0.4114 -0.3724  0.3481
 4078SOL    HW123870   1.794   3.608   4.297  0.0803 -0.9588 -0.1216
 4078SOL    HW223871   1.873   3.589   4.418  2.3566 -1.5836  0.5457
 4079SOL     OW23872   0.126   2.999   5.695  0.1246 -0.1987  0.3062
 4079SOL    HW123873   0.163   3.079   5.734  0.1114  0.6074 -1.3529
 4079SOL    HW223874   0.200   2.938   5.700  1.1817  0.8724 -2.4045
 4080SOL     OW23875   2.231   2.996  12.203 -0.6159 -0.0227  0.1834
 4080SOL    HW123876   2.325   3.010  12.192 -0.3269 -0.8638  1.6091
 4080SOL    HW223877   2.203   2.945  12.127 -1.8616  1.8622 -0.6521
 4081SOL     OW23878   0.714   0.643   2.765  0.4994  0.5217 -0.1237
 4081SOL    HW123879   0.635   0.689   2.793 -1.1957 -2.9093  0.6818
 4081SOL    HW223880   0.701   0.667   2.673  0.4782  1.0818  0.0218
 4082SOL     OW23881   2.549   0.433   2.345  0.1480 -0.6192 -0.5636
 4082SOL    HW123882   2.532   0.457   2.437  1.1355 -1.8467 -0.0623
 4082SOL    HW223883   2.572   0.341   2.359 -0.1215 -0.1726  2.8170
 4083SOL     OW23884   3.533   3.886  14.672  0.4172  0.3829 -0.1137
 4083SOL    HW123885   3.440   3.910  14.671  0.5905  1.0977  0.5828
 4083SOL    HW223886   3.536   3.826  14.747  1.7718  0.0433 -0.4508
 4084SOL     OW23887   3.587   3.867   8.490 -0.1196 -0.1879  0.0243
 4084SOL    HW123888   3.571   3.940   8.430 -0.9591  1.2531  2.0141
 4084SOL    HW223889   3.618   3.803   8.427 -1.1742 -0.5136 -0.1570
 4085SOL     OW23890   1.664   2.631  11.878  0.1603 -0.5356  0.4516
 4085SOL    HW123891   1.726   2.594  11.941 -1.4596 -0.5900  2.0069
 4085SOL    HW223892   1.672   2.724  11.898 -0.2049 -0.1557 -1.1930
 4086SOL     OW23893   0.124   3.698   7.633  0.1358 -0.0560 -0.5242
 4086SOL    HW123894   0.052   3.658   7.584  0.9292 -2.8143  0.5689
 4086SOL    HW223895   0.166   3.622   7.674  2.0003  1.4752  0.4238
 4087SOL     OW23896   0.399   3.959   8.784 -0.0637 -0.0666 -0.2120
 4087SOL    HW123897   0.337   3.893   8.814 -0.8847  1.1877  0.8505
 4087SOL    HW223898   0.385   3.935   8.692 -1.4321  1.0702 -0.2939
 4088SOL     OW23899   1.574   2.391   0.017  0.1966  0.0559  0.6826
 4088SOL    HW123900   1.528   2.362  17.707  0.8214  0.1428  0.2850
 4088SOL    HW223901   1.508   2.451   0.052 -0.1645 -0.2896  0.5929
 4089SOL     OW23902   0.247   3.230   7.627 -0.7684  0.1908 -0.1969
 4089SOL    HW123903   0.257   3.163   7.559  0.8287  0.9233 -0.6675
 4089SOL    HW223904   0.317   3.199   7.684 -0.0895 -0.9794 -1.6558
 4090SOL     OW23905   3.653   3.985   5.782  0.3627  0.3088  0.2551
 4090SOL    HW123906   3.562   3.987   5.811  0.3679  0.5431  0.2505
 4090SOL    HW223907   3.658   4.012   5.691  1.4094  0.8233  0.4691
 4091SOL     OW23908   1.377   4.074   7.494 -0.3168  0.6409  0.0135
 4091SOL    HW123909   1.457   4.028   7.518 -1.5687 -1.1529  0.7765
 4091SOL    HW223910   1.349   4.025   7.416  0.8758 -0.0977  0.0499
 4092SOL     OW23911   1.971   2.779  12.245  0.6293  0.3622  0.3768
 4092SOL    HW123912   1.917   2.701  12.236  1.7307 -0.2948 -0.6744
 4092SOL    HW223913   1.960   2.813  12.156 -0.3323 -2.2602 -0.4915
 4093SOL     OW23914   0.507   1.699   9.530  0.3848 -0.5094 -0.0674
 4093SOL    HW123915   0.418   1.673   9.555 -0.4888  3.4059  0.9779
 4093SOL    HW223916   0.527   1.666   9.443 -0.0052 -2.0253  0.4274
 4094SOL     OW23917   1.287   4.471  14.246  0.2229 -0.1306 -0.0082
 4094SOL    HW123918   1.234   4.482  14.167 -2.1460  0.6254  1.6782
 4094SOL    HW223919   1.347   4.399  14.229 -0.4944 -0.8709  0.5728
 4095SOL     OW23920   0.293   2.442   2.714 -0.9701  0.3877  0.2576
 4095SOL    HW123921   0.200   2.449   2.693  0.0186  5.3224 -2.4236
 4095SOL    HW223922   0.320   2.524   2.673 -0.0354  0.1135  0.3200
 4096SOL     OW23923   3.530   0.763   8.784  0.5342  0.1227  0.7314
 4096SOL    HW123924   3.517   0.748   8.691 -1.4651  2.6820  0.6191
 4096SOL    HW223925   3.442   0.756   8.821  0.3352  0.2069  0.2756
 4097SOL     OW23926   0.553   0.890   0.507  0.2234 -0.2868 -0.0761
 4097SOL    HW123927   0.461   0.906   0.528  0.2910  0.1395 -0.1136
 4097SOL    HW223928   0.595   0.917   0.589  3.1241 -0.9396 -1.3492
 4098SOL     OW23929   2.113   3.810   7.365  0.3129 -0.6716 -0.9042
 4098SOL    HW123930   2.050   3.826   7.436  1.6215 -0.6615  0.2590
 4098SOL    HW223931   2.157   3.735   7.406 -2.5798 -1.2734  1.0674
 4099SOL     OW23932   4.220   2.079  13.727 -0.2356  0.2248  0.1261
 4099SOL    HW123933   4.251   2.155  13.776  0.7710 -0.8111  1.1072
 4099SOL    HW223934   4.176   2.126  13.657  0.5018  2.4126  1.1208
 4100SOL     OW23935   3.764   4.236   9.926  0.1377  0.1437  0.2095
 4100SOL    HW123936   3.685   4.188   9.953  0.2585 -0.0424  0.2287
 4100SOL    HW223937   3.725   4.322   9.942  1.7165  0.6420  1.3768
 4101SOL     OW23938   2.988   1.530   9.063 -0.8123 -0.6991  0.7444
 4101SOL    HW123939   2.939   1.453   9.036 -0.7359 -0.0839 -1.1312
 4101SOL    HW223940   3.078   1.501   9.048 -0.0100  2.4619 -0.6874
 4102SOL     OW23941   2.534   1.334   6.584  0.4718 -0.6045  0.1591
 4102SOL    HW123942   2.627   1.352   6.572  0.1585  1.1302  0.3401
 4102SOL    HW223943   2.537   1.322   6.679  1.5667 -0.4820  0.1453
 4103SOL     OW23944   0.311   2.806   5.488 -0.4065  0.0340 -0.2698
 4103SOL    HW123945   0.326   2.872   5.421 -2.3313  0.5332 -0.2330
 4103SOL    HW223946   0.368   2.836   5.559  0.7175  0.5297 -1.3993
 4104SOL     OW23947   3.371   1.348  11.910 -0.0976  0.2403  0.0356
 4104SOL    HW123948   3.281   1.324  11.889 -0.2382  0.6160  0.2088
 4104SOL    HW223949   3.377   1.296  11.991 -0.4346 -0.2066 -0.2289
 4105SOL     OW23950   3.209   2.006  16.559 -0.0132  1.0708  0.0171
 4105SOL    HW123951   3.209   2.073  16.491  1.5465 -1.2019 -2.1845
 4105SOL    HW223952   3.287   2.028  16.611  0.7421  0.6068 -0.9303
 4106SOL     OW23953   2.034   3.335  15.224  0.6932  0.6053 -0.2227
 4106SOL    HW123954   2.115   3.345  15.274 -0.9755 -0.1160  2.6438
 4106SOL    HW223955   2.007   3.246  15.245  0.3094  0.2727 -2.1342
 4107SOL     OW23956   0.746   4.008   5.052  0.4481  0.3103  0.2553
 4107SOL    HW123957   0.688   4.043   4.984  1.1443  1.5323  0.2799
 4107SOL    HW223958   0.834   4.024   5.016  0.1364 -1.1056 -1.1103
 4108SOL     OW23959   1.868   0.561   2.202  0.2491 -0.2072 -0.1215
 4108SOL    HW123960   1.856   0.482   2.150  1.8012 -0.4430 -0.1461
 4108SOL    HW223961   1.952   0.528   2.235  0.3296 -0.3422 -0.4546
 4109SOL     OW23962   4.045   1.138   8.044  0.6774  0.8978 -0.7611
 4109SOL    HW123963   4.004   1.090   8.116 -2.0175  2.8664 -0.9728
 4109SOL    HW223964   4.072   1.068   7.984 -4.3665 -2.2343  0.6248
 4110SOL     OW23965   2.142   2.210  12.450  0.6558 -0.0714 -0.7656
 4110SOL    HW123966   2.057   2.172  12.426  0.3210 -0.0545  0.4115
 4110SOL    HW223967   2.216   2.160  12.415  2.2862 -0.3078  3.0463
 4111SOL     OW23968   4.073   2.866   4.440 -0.4732 -0.0635  0.0503
 4111SOL    HW123969   4.078   2.789   4.383 -0.8169 -1.0792  1.3738
 4111SOL    HW223970   4.165   2.887   4.456 -0.2245 -0.1585 -1.2527
 4112SOL     OW23971   2.516   0.340  14.236 -0.3782  0.3595  0.5307
 4112SOL    HW123972   2.611   0.348  14.234 -0.3438 -0.2502  0.0508
 4112SOL    HW223973   2.483   0.333  14.147 -0.4062  0.2677  0.5487
 4113SOL     OW23974   1.889   1.205  15.489 -0.2284  0.9907  0.5776
 4113SOL    HW123975   1.982   1.199  15.513  0.8333  0.5302 -3.6324
 4113SOL    HW223976   1.863   1.117  15.462  0.8461  0.8353  0.0403
 4114SOL     OW23977   1.899   3.194   7.838 -0.5097  0.1579  0.6488
 4114SOL    HW123978   1.979   3.242   7.859 -0.4401 -0.2911  1.4181
 4114SOL    HW223979   1.841   3.265   7.809 -0.1065 -0.1742 -0.9872
 4115SOL     OW23980   2.325   4.347  15.092  0.1439 -0.0241 -0.3920
 4115SOL    HW123981   2.301   4.278  15.154 -1.5624  1.1319  0.2209
 4115SOL    HW223982   2.301   4.419  15.150  0.0751  0.2190 -0.7232
 4116SOL     OW23983   1.133   3.697   4.618 -0.3071 -0.4140 -0.6478
 4116SOL    HW123984   1.227   3.683   4.632 -0.5301  0.2905  1.5370
 4116SOL    HW223985   1.119   3.646   4.538 -0.9434  0.5475 -1.1440
 4117SOL     OW23986   1.191   0.091   6.304 -0.2236 -0.1864  0.0713
 4117SOL    HW123987   1.258   0.154   6.330 -1.7939  2.0195 -1.2931
 4117SOL    HW223988   1.185   0.112   6.211  0.3047  2.6341  0.6673
 4118SOL     OW23989   3.454   4.516   3.986 -0.2774 -0.2487  0.6211
 4118SOL    HW123990   3.359   4.506   3.983 -0.1667 -1.4262  0.6654
 4118SOL    HW223991   3.468   4.566   3.906  1.5494 -0.3475  0.8779
 4119SOL     OW23992   0.378   0.996   6.396 -0.1386 -0.4535 -0.3409
 4119SOL    HW123993   0.466   1.015   6.364 -1.2552  1.5684 -2.2285
 4119SOL    HW223994   0.411   0.985   6.486  2.0119 -0.9450 -1.1883
 4120SOL     OW23995   1.677   3.171   1.921  0.2874 -0.3932  0.2161
 4120SOL    HW123996   1.630   3.149   2.002 -1.5499 -0.3510 -0.8450
 4120SOL    HW223997   1.682   3.089   1.872 -0.3166  0.3653 -1.0856
 4121SOL     OW23998   0.428   4.672   5.004  0.1122 -0.1436 -0.5626
 4121SOL    HW123999   0.519   4.646   4.987  0.1518 -1.1655  1.1799
 4121SOL    HW224000   0.444   0.021   4.983 -0.2541 -0.1604 -0.9075
 4122SOL     OW24001   2.077   0.796   3.054  0.6644 -0.1302  0.2382
 4122SOL    HW124002   2.064   0.707   3.085 -2.2203  1.0562  2.3989
 4122SOL    HW224003   2.171   0.813   3.048  0.5019  0.5285 -0.3857
 4123SOL     OW24004   1.033   1.899   9.315 -0.5227  0.7086  0.6872
 4123SOL    HW124005   1.084   1.838   9.369  0.7618 -1.2642 -2.7943
 4123SOL    HW224006   1.086   1.904   9.236 -2.2978  4.2370 -0.2577
 4124SOL     OW24007   4.457   0.420   2.951 -0.2364  0.0041 -0.4981
 4124SOL    HW124008   4.516   0.395   2.880 -0.0733 -0.1030 -0.3260
 4124SOL    HW224009   4.456   0.515   2.939  1.3203 -0.0157 -0.8268
 4125SOL     OW24010   1.914   3.828   7.589 -0.1021  0.3329  0.0040
 4125SOL    HW124011   1.976   3.840   7.662  0.3062  4.8693 -1.0285
 4125SOL    HW224012   1.852   3.771   7.633  0.7634  1.4382  2.7256
 4126SOL     OW24013   3.032   1.547  14.105  0.5512  0.0503  0.2483
 4126SOL    HW124014   3.093   1.541  14.178  2.4021 -0.8637 -1.3532
 4126SOL    HW224015   3.095   1.590  14.047 -0.3955 -0.0329 -0.8514
 4127SOL     OW24016   3.017   1.381   8.097  0.4425 -0.1787  0.0431
 4127SOL    HW124017   3.031   1.475   8.086  1.9203 -0.0354  3.0039
 4127SOL    HW224018   2.980   1.341   8.019  2.4647 -0.0892 -0.9805
 4128SOL     OW24019   2.285   3.941  12.465 -0.0496 -0.0679  0.0279
 4128SOL    HW124020   2.257   3.853  12.439 -0.1111  0.1572 -0.6778
 4128SOL    HW224021   2.366   3.921  12.512 -0.0498  0.0779  0.0909
 4129SOL     OW24022   1.206   3.751   5.910 -0.0248 -0.0356  0.7485
 4129SOL    HW124023   1.258   3.751   5.830  0.8785  0.5670  1.3446
 4129SOL    HW224024   1.187   3.845   5.914 -2.8411 -0.4369 -2.0570
 4130SOL     OW24025   4.322   3.610   4.606  0.2951 -0.3382  0.5187
 4130SOL    HW124026   4.281   3.588   4.689 -0.4598 -0.6692  0.0584
 4130SOL    HW224027   4.325   3.705   4.622 -0.0920  0.1042 -1.9906
 4131SOL     OW24028   3.813   1.602  10.064 -0.0308 -0.7983 -0.0452
 4131SOL    HW124029   3.875   1.645  10.122  0.3741 -0.7113 -0.5393
 4131SOL    HW224030   3.854   1.521  10.033  1.6603  0.6283 -1.5480
 4132SOL     OW24031   1.204   0.465   4.843 -0.3065 -0.4973  0.1482
 4132SOL    HW124032   1.178   0.495   4.931 -1.4861  0.7769 -0.6394
 4132SOL    HW224033   1.279   0.520   4.820 -0.9309 -0.2711 -1.3291
 4133SOL     OW24034   2.012   1.195   8.376 -0.0749  0.6250 -0.2626
 4133SOL    HW124035   1.963   1.160   8.450 -0.4995  1.6120 -0.0722
 4133SOL    HW224036   2.007   1.289   8.396  0.7824  0.2482  1.7739
 4134SOL     OW24037   4.700   4.474   3.165 -0.5017  0.2523 -0.4674
 4134SOL    HW124038   4.688   4.548   3.105  2.0787  0.7130 -0.4076
 4134SOL    HW224039   0.046   4.456   3.134 -0.7493  0.2469 -1.1863
 4135SOL     OW24040   1.726   3.312   7.489 -0.2587 -0.2530  0.0731
 4135SOL    HW124041   1.659   3.342   7.428 -3.2057 -2.0168  2.4194
 4135SOL    HW224042   1.746   3.224   7.457 -0.2556  0.2405 -1.2869
 4136SOL     OW24043   1.596   0.390   6.526  0.4528  0.3622  0.2442
 4136SOL    HW124044   1.619   0.359   6.438  2.7820  2.0935  0.2364
 4136SOL    HW224045   1.683   0.378   6.564  0.5550  1.3571  0.3288
 4137SOL     OW24046   1.334   0.375   7.049  0.3776  0.1274  0.2300
 4137SOL    HW124047   1.374   0.370   7.135 -1.0646 -2.1795  0.7647
 4137SOL    HW224048   1.416   0.377   7.000 -0.9545  0.4006 -2.0288
 4138SOL     OW24049   4.560   2.764  10.035  0.3845  0.7626  0.3022
 4138SOL    HW124050   4.649   2.798  10.040  1.2607 -1.5448  0.4121
 4138SOL    HW224051   4.586   2.674  10.012  0.1941  1.5041 -2.8328
 4139SOL     OW24052   3.946   1.666   7.097 -1.0395  0.5980  0.0894
 4139SOL    HW124053   3.934   1.571   7.096 -1.6062  0.6865 -1.4931
 4139SOL    HW224054   3.974   1.680   7.007 -2.0707  1.5310 -0.0873
 4140SOL     OW24055   0.194   1.488  11.386  0.1075  0.0251 -0.7422
 4140SOL    HW124056   0.169   1.569  11.342 -1.0370  0.9479  1.5938
 4140SOL    HW224057   0.221   1.530  11.467 -1.7406  1.4196 -0.8573
 4141SOL     OW24058   3.920   1.901   9.922  0.0582 -0.1152  0.2193
 4141SOL    HW124059   3.976   1.830   9.890  0.2423  0.8517 -1.6061
 4141SOL    HW224060   3.868   1.923   9.845  0.7096 -0.8494 -0.4243
 4142SOL     OW24061   2.065   2.857   6.432 -0.2121 -0.5435  0.2112
 4142SOL    HW124062   1.974   2.835   6.411 -0.0970  0.9885 -1.9366
 4142SOL    HW224063   2.040   2.889   6.518 -2.0705 -1.8043  0.1513
 4143SOL     OW24064   2.989   2.508   9.666  0.3155  0.2036 -0.6688
 4143SOL    HW124065   3.012   2.463   9.747  1.3120 -0.1648 -1.1570
 4143SOL    HW224066   2.899   2.477   9.659 -0.0221  0.8258  0.9768
 4144SOL     OW24067   3.803   0.151  13.918  0.3928  0.0138 -0.2753
 4144SOL    HW124068   3.848   0.176  13.838 -0.3705 -0.6664 -0.9145
 4144SOL    HW224069   3.741   0.086  13.884  0.8200 -0.9738  0.8328
 4145SOL     OW24070   3.690   2.264   7.198 -0.2430  0.5333 -0.4916
 4145SOL    HW124071   3.653   2.284   7.284  1.1270  0.5232  0.1009
 4145SOL    HW224072   3.611   2.224   7.162 -0.1901  0.5531 -0.6265
 4146SOL     OW24073   4.082   1.113   3.910 -0.1114 -0.0673 -0.0963
 4146SOL    HW124074   4.172   1.103   3.877 -0.3383 -1.7290 -0.2372
 4146SOL    HW224075   4.046   1.166   3.839 -4.2885 -0.9426  1.3626
 4147SOL     OW24076   4.705   4.509   2.068  0.1360 -0.3729 -0.0251
 4147SOL    HW124077   4.729   4.459   1.990 -0.5817 -0.6598 -0.0638
 4147SOL    HW224078   0.037   4.482   2.121 -0.0351 -0.8421 -0.0220
 4148SOL     OW24079   4.646   2.166  17.727  0.0040  0.1061 -0.2997
 4148SOL    HW124080   4.562   2.122  17.712  1.3255 -3.3200  2.2178
 4148SOL    HW224081   4.642   2.236  17.662  0.8036 -2.0211 -2.6428
 4149SOL     OW24082   0.641   2.713   4.386 -0.4179  0.0225 -0.9640
 4149SOL    HW124083   0.727   2.679   4.358 -0.5119 -0.0630 -1.1509
 4149SOL    HW224084   0.629   2.779   4.318  1.8270  1.1450 -0.2746
 4150SOL     OW24085   4.512   2.459   9.513 -0.5969 -0.4348  0.5974
 4150SOL    HW124086   4.491   2.551   9.530 -3.2816 -1.3790  2.3330
 4150SOL    HW224087   4.489   2.447   9.420  0.6894 -3.3535  0.6514
 4151SOL     OW24088   2.713   0.892   3.998 -0.0783  0.0742  0.6650
 4151SOL    HW124089   2.759   0.906   3.915 -3.3826  0.9355 -1.0494
 4151SOL    HW224090   2.655   0.818   3.977  2.3064 -1.9667  1.2461
 4152SOL     OW24091   4.187   4.633  17.455 -0.0547  0.7206 -0.2318
 4152SOL    HW124092   4.133   4.563  17.492  0.5185  0.3872 -0.0358
 4152SOL    HW224093   4.144   4.708  17.498  0.3949  0.8126  0.0506
 4153SOL     OW24094   3.206   1.925   5.990  0.0232  0.2167  0.5292
 4153SOL    HW124095   3.225   1.835   5.962 -2.8286 -0.2341 -0.0074
 4153SOL    HW224096   3.293   1.962   5.974  0.6352 -1.1296  0.7638
 4154SOL     OW24097   0.424   2.560   3.633  0.2475 -0.3700  0.0648
 4154SOL    HW124098   0.343   2.612   3.634 -0.9791 -2.2793  1.2850
 4154SOL    HW224099   0.487   2.627   3.605 -0.4100  0.1261 -0.2257
 4155SOL     OW24100   3.828   1.559  12.623 -0.1632 -0.4165 -0.2069
 4155SOL    HW124101   3.801   1.632  12.679  2.9971 -0.0513  0.8403
 4155SOL    HW224102   3.860   1.613  12.551 -0.1263  0.7116  0.6631
 4156SOL     OW24103   4.597   1.640   4.491  0.3471 -0.0818  0.0165
 4156SOL    HW124104   4.542   1.707   4.531  0.5825  1.0732 -1.5478
 4156SOL    HW224105   4.685   1.659   4.523  0.1248 -1.0258  1.1669
 4157SOL     OW24106   3.890   3.544  16.268 -0.0832  0.1049  0.3071
 4157SOL    HW124107   3.864   3.533  16.177  0.3136 -1.4342  0.3829
 4157SOL    HW224108   3.888   3.454  16.300  0.3452 -0.1125 -0.2890
 4158SOL     OW24109   0.422   3.722   5.991  0.0295  0.0764 -0.1673
 4158SOL    HW124110   0.336   3.713   6.031 -0.4485  0.2851 -1.1297
 4158SOL    HW224111   0.454   3.772   6.066 -0.4288  0.0360  0.0543
 4159SOL     OW24112   0.975   1.255  11.429 -0.0208 -0.0227 -0.2639
 4159SOL    HW124113   0.940   1.256  11.340 -1.3862  0.7976  0.2781
 4159SOL    HW224114   0.925   1.186  11.473  1.1958 -0.9764 -0.3910
 4160SOL     OW24115   1.557   3.244   1.609 -0.0526 -0.2630  0.4942
 4160SOL    HW124116   1.521   3.208   1.690  2.1281  1.1381  2.0977
 4160SOL    HW224117   1.614   3.310   1.650  1.2795 -0.8239 -0.4629
 4161SOL     OW24118   4.031   3.859  13.124  0.1194 -0.0307 -0.1107
 4161SOL    HW124119   3.979   3.916  13.067 -1.0530  0.0076  1.0067
 4161SOL    HW224120   4.116   3.893  13.096  0.2980 -0.5618 -0.2199
 4162SOL     OW24121   4.148   1.729   5.199  0.4950 -0.5389 -0.6868
 4162SOL    HW124122   4.227   1.678   5.180  0.7586 -0.2181 -0.4709
 4162SOL    HW224123   4.082   1.663   5.217  0.6166 -0.6396 -0.6121
 4163SOL     OW24124   0.900   3.455   4.201 -0.9068 -0.1655 -0.7351
 4163SOL    HW124125   0.935   3.519   4.263  2.3474  0.2843 -3.0434
 4163SOL    HW224126   0.909   3.498   4.116 -0.2190 -1.0930 -1.1276
 4164SOL     OW24127   3.214   0.953   7.206  0.9395  0.2670  0.1433
 4164SOL    HW124128   3.252   0.926   7.290 -0.0761 -1.4293  0.0442
 4164SOL    HW224129   3.147   0.888   7.186 -0.2937  1.9049 -1.0414
 4165SOL     OW24130   1.785   3.316   6.310  0.1945  0.0728 -0.7914
 4165SOL    HW124131   1.759   3.351   6.225 -2.1756 -1.4613 -0.7086
 4165SOL    HW224132   1.754   3.225   6.302  0.4012  0.0372 -1.1984
 4166SOL     OW24133   3.561   0.759   5.699  0.5290 -0.1085 -0.2444
 4166SOL    HW124134   3.593   0.756   5.789 -1.6432  0.9017  0.5551
 4166SOL    HW224135   3.620   0.825   5.664 -1.0656  1.0642 -0.7396
 4167SOL     OW24136   3.631   4.107   8.833  0.4934  0.5764 -0.5394
 4167SOL    HW124137   3.666   4.086   8.746 -0.1371 -0.9949 -0.4232
 4167SOL    HW224138   3.711   4.104   8.885 -1.0372  0.6519  1.8511
 4168SOL     OW24139   4.545   0.162   3.031  0.0453  0.1020 -0.6249
 4168SOL    HW124140   4.551   0.255   3.011 -2.2122  0.4679  0.3761
 4168SOL    HW224141   4.451   0.145   3.023  0.5572 -1.6208 -3.0866
 4169SOL     OW24142   2.468   1.092   8.771  0.2389 -0.2169 -0.2731
 4169SOL    HW124143   2.528   1.149   8.821 -0.0819  0.6240 -0.8484
 4169SOL    HW224144   2.478   1.014   8.826 -0.5287  0.1495  0.3851
 4170SOL     OW24145   3.712   4.401   7.355 -0.0622 -0.2862  0.5422
 4170SOL    HW124146   3.763   4.451   7.292 -0.5301 -0.8524 -0.2985
 4170SOL    HW224147   3.729   4.460   7.428  2.0164 -2.0440  1.4750
 4171SOL     OW24148   3.227   3.802   5.012  0.6356  0.0481 -0.0781
 4171SOL    HW124149   3.267   3.779   4.929 -0.2923 -1.2877 -0.1611
 4171SOL    HW224150   3.181   3.719   5.017  2.5022 -0.9429  0.5727
 4172SOL     OW24151   4.146   0.128   6.851 -0.3331 -1.1626 -0.3064
 4172SOL    HW124152   4.173   0.088   6.769 -3.1380 -1.8973 -0.8598
 4172SOL    HW224153   4.070   0.173   6.816  0.3853 -0.8736 -1.4904
 4173SOL     OW24154   2.719   1.405  11.441  0.2628  0.8757 -0.1856
 4173SOL    HW124155   2.694   1.347  11.513 -2.4324  0.7705 -1.2109
 4173SOL    HW224156   2.660   1.477  11.463  0.6964  1.0415  0.4274
 4174SOL     OW24157   3.602   3.480  17.123  0.7421 -0.2702  0.5306
 4174SOL    HW124158   3.635   3.395  17.095  0.3770 -1.1483  2.7707
 4174SOL    HW224159   3.684   3.528  17.126  0.7486 -0.3035  0.9600
 4175SOL     OW24160   2.264   4.030   5.264 -0.5001  0.0686  0.1302
 4175SOL    HW124161   2.312   4.106   5.233  0.3418 -0.3999  0.2908
 4175SOL    HW224162   2.189   4.073   5.304  0.6906  1.0363  1.3228
 4176SOL     OW24163   0.857   1.279   1.271 -0.3016 -0.0222 -0.1728
 4176SOL    HW124164   0.903   1.209   1.224 -1.0955 -1.6230  1.4123
 4176SOL    HW224165   0.768   1.262   1.240  0.1901 -0.4702 -1.3535
 4177SOL     OW24166   0.557   1.210   8.269 -0.0682 -0.0257 -0.4511
 4177SOL    HW124167   0.636   1.158   8.260  0.8255  1.2911 -0.2731
 4177SOL    HW224168   0.561   1.230   8.363 -3.1715  0.0326 -0.3317
 4178SOL     OW24169   2.389   1.725   3.946  0.2392  0.2104 -0.2085
 4178SOL    HW124170   2.359   1.663   3.880 -1.3778  0.2302  0.4926
 4178SOL    HW224171   2.463   1.675   3.980  0.8670 -0.0729 -1.9946
 4179SOL     OW24172   3.887   3.030   8.644  0.0669  0.0111  0.0261
 4179SOL    HW124173   3.909   2.963   8.708  0.6802  1.2549  1.1206
 4179SOL    HW224174   3.825   2.985   8.587  0.6472  0.8251 -1.2386
 4180SOL     OW24175   2.081   2.170  13.841 -0.1095 -0.2869 -0.0166
 4180SOL    HW124176   2.023   2.132  13.775  0.3482 -1.1741  0.0882
 4180SOL    HW224177   2.021   2.166  13.916 -0.8197  0.7691 -0.5222
 4181SOL     OW24178   0.874   0.933   1.952  0.0974  0.0373  0.4468
 4181SOL    HW124179   0.790   0.892   1.930  0.9620 -1.9151  0.7942
 4181SOL    HW224180   0.848   1.000   2.015 -1.8709  0.1816 -0.5271
 4182SOL     OW24181   3.657   0.663  16.556  0.2647  0.3568 -0.5182
 4182SOL    HW124182   3.687   0.744  16.599 -0.8334  0.9169 -0.8056
 4182SOL    HW224183   3.658   0.675  16.461  1.2613  0.7171 -0.4676
 4183SOL     OW24184   1.742   3.820   7.837 -0.4125 -0.4499  0.4356
 4183SOL    HW124185   1.691   3.887   7.883 -0.4286  1.0518 -1.7534
 4183SOL    HW224186   1.729   3.742   7.891 -0.8003 -0.6589  0.0478
 4184SOL     OW24187   3.166   3.799   2.055  0.3868 -0.3594  0.0948
 4184SOL    HW124188   3.135   3.871   2.000 -0.6801 -0.4099  0.6407
 4184SOL    HW224189   3.255   3.792   2.020  0.6305 -2.1306  1.0966
 4185SOL     OW24190   3.633   2.024   3.469 -0.1130 -0.6028  0.2519
 4185SOL    HW124191   3.633   1.955   3.403 -1.7075 -1.7172  1.4294
 4185SOL    HW224192   3.544   2.026   3.503 -0.5713  0.9137 -1.0053
 4186SOL     OW24193   4.027   1.340   6.462  0.0114 -0.1629 -0.0723
 4186SOL    HW124194   3.997   1.364   6.549 -0.8860  2.0479 -1.0071
 4186SOL    HW224195   4.053   1.430   6.441 -0.4451 -0.7868 -3.3305
 4187SOL     OW24196   4.237   3.749   5.860 -0.0225  0.2216 -0.4579
 4187SOL    HW124197   4.208   3.758   5.951 -0.2170  2.2942 -0.7304
 4187SOL    HW224198   4.156   3.780   5.820 -0.6250  1.9361  2.0593
 4188SOL     OW24199   1.821   1.683   3.044  0.2122  0.0051  0.1984
 4188SOL    HW124200   1.909   1.682   3.081  0.1446  0.2723  0.3669
 4188SOL    HW224201   1.782   1.604   3.081  1.8468 -1.1051 -0.4430
 4189SOL     OW24202   0.724   0.055   1.060  0.2283 -0.5320  0.3303
 4189SOL    HW124203   0.779   0.050   0.982 -0.7302  2.0450 -0.4968
 4189SOL    HW224204   0.794   0.034   1.121  1.1099  0.9521 -0.1627
 4190SOL     OW24205   1.215   0.113   8.821 -0.5266 -1.0921 -0.3381
 4190SOL    HW124206   1.194   0.097   8.913  1.8750  0.3478  0.4563
 4190SOL    HW224207   1.216   0.209   8.819 -1.2440 -1.0538  1.1003
 4191SOL     OW24208   2.277   4.199   2.161 -0.8470  0.3206 -0.5186
 4191SOL    HW124209   2.365   4.208   2.125 -0.6590  1.0353  0.1462
 4191SOL    HW224210   2.301   4.157   2.243 -3.4433 -0.3653 -0.0803
 4192SOL     OW24211   0.248   4.109   3.232 -0.0194  0.6023  0.1194
 4192SOL    HW124212   0.164   4.155   3.228  0.4865  1.3347 -2.3770
 4192SOL    HW224213   0.247   4.039   3.167 -0.3699 -0.3587  1.1756
 4193SOL     OW24214   4.500   3.718   5.756  0.7560 -0.1978  0.7531
 4193SOL    HW124215   4.548   3.796   5.785  1.6879 -0.7567  0.6925
 4193SOL    HW224216   4.424   3.726   5.814 -0.6694 -1.5471 -0.9380
 4194SOL     OW24217   0.009   4.585   6.192  0.6302 -0.1910 -0.2275
 4194SOL    HW124218   0.053   4.657   6.236 -1.5270  0.6060  0.6146
 4194SOL    HW224219   0.076   4.566   6.126  0.5162  0.9299 -0.6627
 4195SOL     OW24220   4.091   2.323  15.187 -0.2073 -0.3999  0.1225
 4195SOL    HW124221   4.126   2.302  15.273 -0.8798  1.1232  0.7677
 4195SOL    HW224222   4.085   2.244  15.134 -2.3987  0.9274 -1.6037
 4196SOL     OW24223   2.689   1.146   2.786  0.4405  0.3545 -0.3389
 4196SOL    HW124224   2.701   1.052   2.793  0.6826  0.2978 -1.3956
 4196SOL    HW224225   2.658   1.147   2.695  0.8849 -0.4869 -0.4955
 4197SOL     OW24226   3.278   0.728   4.759 -0.4406  0.0059 -0.7926
 4197SOL    HW124227   3.302   0.648   4.712  0.8431 -1.1790  1.8667
 4197SOL    HW224228   3.208   0.749   4.698  0.7289 -0.9959 -2.4637
 4198SOL     OW24229   2.455   3.820   2.674  0.7857  0.0464 -0.0044
 4198SOL    HW124230   2.478   3.764   2.748 -1.0439 -0.6994  0.0077
 4198SOL    HW224231   2.421   3.897   2.719  0.5064  0.3385 -0.7175
 4199SOL     OW24232   3.375   2.478  15.526  0.5973 -0.2338 -0.6595
 4199SOL    HW124233   3.455   2.443  15.487  0.7181 -0.7637  0.0486
 4199SOL    HW224234   3.313   2.431  15.470  1.4097 -0.7020 -1.1830
 4200SOL     OW24235   3.267   0.275   5.266  0.3405  0.5022 -0.2900
 4200SOL    HW124236   3.267   0.327   5.346  0.5980  0.7387 -0.4430
 4200SOL    HW224237   3.343   0.217   5.276  0.7186  1.1583  0.6252
 4201SOL     OW24238   4.225   0.562   2.651  0.0715 -0.3471 -0.1388
 4201SOL    HW124239   4.188   0.631   2.596  2.1062  0.7681 -0.1093
 4201SOL    HW224240   4.152   0.546   2.711  1.2048 -0.5636  1.1732
 4202SOL     OW24241   1.088   0.355  12.078 -0.4069 -0.5326  0.4876
 4202SOL    HW124242   1.140   0.426  12.041 -2.1503  1.4724  1.8412
 4202SOL    HW224243   1.011   0.404  12.109  0.9625 -0.1276  3.2268
 4203SOL     OW24244   3.109   2.971  17.559 -0.2094  0.1891 -0.1606
 4203SOL    HW124245   3.111   2.926  17.475 -1.0093 -0.5956  0.2364
 4203SOL    HW224246   3.077   3.055  17.526  0.6559  0.4620 -0.3117
 4204SOL     OW24247   4.204   0.898   5.568  0.2601 -0.2638  0.5375
 4204SOL    HW124248   4.209   0.985   5.530 -2.0575 -0.7531 -0.8442
 4204SOL    HW224249   4.294   0.891   5.601  0.1172 -1.1960  0.7221
 4205SOL     OW24250   4.036   1.267   3.684 -0.0667 -0.6952  0.1854
 4205SOL    HW124251   4.059   1.327   3.614  0.0941 -1.0559 -0.0702
 4205SOL    HW224252   3.951   1.301   3.709  0.9988  2.1955 -0.2150
 4206SOL     OW24253   2.379   0.221  13.546 -0.1868  0.2762 -0.5453
 4206SOL    HW124254   2.289   0.190  13.556 -0.4975  1.0174 -1.0664
 4206SOL    HW224255   2.431   0.140  13.544 -0.6927 -0.1037  2.0754
 4207SOL     OW24256   4.720   4.262  15.905  0.1714 -0.6576 -0.3802
 4207SOL    HW124257   0.064   4.298  15.918 -0.7117  0.5597  2.1081
 4207SOL    HW224258   4.676   4.331  15.856  1.1152  0.5051  0.4213
 4208SOL     OW24259   1.666   4.666   5.353 -0.4824 -0.0189 -0.1181
 4208SOL    HW124260   1.639   0.005   5.312  1.8764  1.4095  1.1632
 4208SOL    HW224261   1.636   4.603   5.287  0.1713  0.5114 -0.9281
 4209SOL     OW24262   2.184   3.234   4.998 -0.6564  0.2644 -0.1852
 4209SOL    HW124263   2.098   3.194   5.010 -1.0900  1.2279 -0.0360
 4209SOL    HW224264   2.160   3.327   4.996 -0.3576  0.3747  1.2399
 4210SOL     OW24265   1.349   0.165   3.384  0.5191 -0.1868 -0.1377
 4210SOL    HW124266   1.324   0.142   3.473 -1.0893  4.0297  0.5129
 4210SOL    HW224267   1.442   0.148   3.401  0.5497 -0.6162 -0.7491
 4211SOL     OW24268   1.234   3.321  15.536 -0.0753  0.3120 -0.0365
 4211SOL    HW124269   1.313   3.336  15.588 -0.5845  1.6042  0.3763
 4211SOL    HW224270   1.250   3.376  15.460  1.0188 -1.5262 -1.1347
 4212SOL     OW24271   2.277   3.600   3.993  0.5703 -0.4042 -0.3555
 4212SOL    HW124272   2.267   3.519   3.943  1.4748  0.1289 -1.3824
 4212SOL    HW224273   2.197   3.595   4.046  1.7883 -0.4308  1.4881
 4213SOL     OW24274   0.699   1.862   2.301 -0.0845  0.3588 -0.6470
 4213SOL    HW124275   0.730   1.854   2.211  0.1037 -1.3267 -0.4340
 4213SOL    HW224276   0.613   1.819   2.302  0.2559 -0.2970  0.0328
 4214SOL     OW24277   0.500   2.222  10.150 -0.2309 -0.2336  0.4682
 4214SOL    HW124278   0.532   2.174  10.226  0.9742 -0.0650  0.0856
 4214SOL    HW224279   0.553   2.177  10.083 -1.0847  1.9361 -1.6702
 4215SOL     OW24280   2.338   0.567   5.035 -0.0101 -0.5137  0.4528
 4215SOL    HW124281   2.419   0.604   5.070  1.0229 -1.0301 -1.4047
 4215SOL    HW224282   2.376   0.520   4.961  0.7244 -0.6473  0.9100
 4216SOL     OW24283   0.950   4.581   9.229  0.0624 -0.3154 -0.0108
 4216SOL    HW124284   0.859   4.586   9.257  0.8084 -0.1234  2.3352
 4216SOL    HW224285   0.984   4.658   9.274 -1.5246  0.4288 -0.0703
 4217SOL     OW24286   0.369   3.042   9.072 -0.3903  0.2876 -0.6979
 4217SOL    HW124287   0.349   2.954   9.102 -1.6100 -0.1890 -2.8768
 4217SOL    HW224288   0.290   3.096   9.085  2.1018  3.3927  1.6214
 4218SOL     OW24289   1.684   0.941   5.405  0.3043  0.2557 -0.3563
 4218SOL    HW124290   1.597   0.929   5.368  0.1945 -0.3946  0.1039
 4218SOL    HW224291   1.663   0.933   5.498  0.4467  2.8578 -0.1214
 4219SOL     OW24292   1.076   2.381   2.190 -0.7211 -0.0450  0.0236
 4219SOL    HW124293   1.048   2.311   2.249  0.0709 -0.6776 -0.3668
 4219SOL    HW224294   1.003   2.442   2.179 -0.9201 -0.0491  1.3156
 4220SOL     OW24295   4.638   1.083   2.698 -0.0605 -0.4647 -0.3114
 4220SOL    HW124296   4.722   1.102   2.656 -0.7650 -1.4952 -2.2032
 4220SOL    HW224297   4.608   1.003   2.655 -1.1573 -0.9886  1.4445
 4221SOL     OW24298   1.786   4.188   5.509 -0.0547 -0.6036  0.2977
 4221SOL    HW124299   1.763   4.171   5.417  1.4618 -0.3027 -0.1385
 4221SOL    HW224300   1.809   4.101   5.541 -0.1479 -1.0016 -0.7057
 4222SOL     OW24301   3.410   0.698  14.981  0.1063 -0.3079 -0.0262
 4222SOL    HW124302   3.405   0.630  15.048 -1.4650  0.1429  0.3153
 4222SOL    HW224303   3.443   0.636  14.916 -0.4785  1.2472 -1.8018
 4223SOL     OW24304   4.682   1.394   5.740  0.5395 -0.2064  0.0017
 4223SOL    HW124305   0.026   1.387   5.778  0.9455  1.3628 -0.6738
 4223SOL    HW224306   4.647   1.477   5.771 -2.5953 -1.2470 -0.7179
 4224SOL     OW24307   2.876   0.806   9.895  0.2027 -0.1876 -0.5334
 4224SOL    HW124308   2.954   0.783   9.845  0.1895 -0.9418 -0.2023
 4224SOL    HW224309   2.911   0.834   9.979  1.0634 -3.1446  0.0851
 4225SOL     OW24310   0.060   1.426   2.424  0.3434 -0.7271 -0.0805
 4225SOL    HW124311   4.731   1.363   2.414 -1.3048  1.6008 -2.8398
 4225SOL    HW224312   0.108   1.378   2.492  0.9463  2.6006  1.8481
 4226SOL     OW24313   0.796   2.714   7.239 -0.6610 -0.4162 -0.2486
 4226SOL    HW124314   0.846   2.790   7.268 -1.9213  0.5069 -0.4672
 4226SOL    HW224315   0.712   2.737   7.279  1.0843  0.8560  2.6909
 4227SOL     OW24316   0.808   3.585   3.566  0.0764 -0.3043 -0.2246
 4227SOL    HW124317   0.820   3.632   3.648 -0.0306 -1.4508  0.4524
 4227SOL    HW224318   0.720   3.619   3.548 -0.4633 -0.6711  1.6932
 4228SOL     OW24319   2.580   1.755  14.836  0.0671  0.2300  0.6706
 4228SOL    HW124320   2.659   1.728  14.789  0.5204  1.9949  0.4407
 4228SOL    HW224321   2.560   1.842  14.803  1.1681  0.8870  1.7389
 4229SOL     OW24322   3.355   1.815  14.525  0.0972 -0.1491 -0.2268
 4229SOL    HW124323   3.426   1.874  14.501  0.3840 -0.4014 -0.0087
 4229SOL    HW224324   3.387   1.766  14.601  0.4846 -1.3666 -1.1639
 4230SOL     OW24325   1.618   1.412   5.223  0.6275 -0.2545  0.6210
 4230SOL    HW124326   1.545   1.429   5.283 -2.3228 -2.2210 -2.4114
 4230SOL    HW224327   1.593   1.336   5.170 -0.7729  0.3749  0.3653
 4231SOL     OW24328   2.510   0.442   7.291 -0.6842  0.6527 -0.6400
 4231SOL    HW124329   2.537   0.530   7.318 -0.2111  0.4509 -0.4453
 4231SOL    HW224330   2.418   0.450   7.267 -0.7733  0.3435 -0.4074
 4232SOL     OW24331   1.024   4.303   4.621 -0.5493  0.1307 -0.6498
 4232SOL    HW124332   1.071   4.220   4.614  3.0997  2.2028 -0.8252
 4232SOL    HW224333   1.013   4.331   4.530 -2.6707 -2.0434 -1.0630
 4233SOL     OW24334   1.351   1.651   4.574  0.0019  0.0835 -0.3769
 4233SOL    HW124335   1.329   1.740   4.549  0.2827  0.2672  0.0319
 4233SOL    HW224336   1.370   1.603   4.493  0.3985  1.0477 -0.8531
 4234SOL     OW24337   0.242   1.377   5.387  0.0013  0.7580 -0.5680
 4234SOL    HW124338   0.162   1.394   5.437  0.3121  0.1435  0.1319
 4234SOL    HW224339   0.234   1.282   5.376  1.6826  0.6881 -1.1208
 4235SOL     OW24340   3.961   1.159   9.429 -0.5589  0.7105  0.1344
 4235SOL    HW124341   3.934   1.251   9.428  1.5776  1.2981 -1.6311
 4235SOL    HW224342   3.960   1.133   9.337  0.6117 -0.6743  0.5015
 4236SOL     OW24343   2.755   3.215  14.169  0.0717 -0.0528  0.0740
 4236SOL    HW124344   2.713   3.177  14.092  1.9053  2.5876 -2.2061
 4236SOL    HW224345   2.845   3.197  14.143 -0.2898  0.3930 -1.5007
 4237SOL     OW24346   2.777   0.447   2.529  0.4705 -0.2623 -0.3036
 4237SOL    HW124347   2.819   0.510   2.471 -0.5770 -0.5762 -1.3930
 4237SOL    HW224348   2.693   0.494   2.532  1.0712  0.7635  0.4782
 4238SOL     OW24349   0.399   2.582   8.057 -0.4252  0.0691 -0.2250
 4238SOL    HW124350   0.490   2.567   8.033 -0.5538 -0.3646 -0.4411
 4238SOL    HW224351   0.357   2.561   7.974 -1.5293 -1.2727  0.6755
 4239SOL     OW24352   3.726   1.822   8.516  0.0145  0.8403  0.3832
 4239SOL    HW124353   3.661   1.827   8.446 -0.4744 -2.4069  0.6212
 4239SOL    HW224354   3.783   1.756   8.477 -0.2142  0.9795 -0.1830
 4240SOL     OW24355   1.072   3.974   2.246  0.3369 -0.6487 -0.6113
 4240SOL    HW124356   1.090   4.067   2.231 -0.6923  0.1547  2.9991
 4240SOL    HW224357   0.988   3.978   2.200  0.5314 -1.4955 -1.0441
 4241SOL     OW24358   3.899   2.483  15.008  0.4109  0.9005 -0.1551
 4241SOL    HW124359   3.940   2.433  15.079  0.5816 -1.3680 -1.8825
 4241SOL    HW224360   3.815   2.444  14.985  0.5152  0.6491 -0.1069
 4242SOL     OW24361   1.299   2.081   5.843  0.3169 -0.3280  0.0153
 4242SOL    HW124362   1.241   2.019   5.799 -0.1276 -0.3003  0.5630
 4242SOL    HW224363   1.356   2.021   5.890 -1.0743 -2.2112 -0.6853
 4243SOL     OW24364   4.425   1.719  14.660 -0.1603  0.1324  0.0942
 4243SOL    HW124365   4.444   1.753  14.747  0.1147 -0.3054  0.2067
 4243SOL    HW224366   4.508   1.731  14.614  0.9320 -2.3851  1.3922
 4244SOL     OW24367   2.413   0.390  10.697 -0.1737  0.2159 -0.9387
 4244SOL    HW124368   2.471   0.456  10.736  0.0795 -0.0468 -0.8702
 4244SOL    HW224369   2.335   0.398  10.751 -0.6052  0.1097 -1.5539
 4245SOL     OW24370   4.289   1.103   3.705  0.0509 -0.1376  0.4151
 4245SOL    HW124371   4.217   1.164   3.688  0.7128 -0.7796 -4.6586
 4245SOL    HW224372   4.357   1.163   3.675 -0.7329 -0.5923 -2.3125
 4246SOL     OW24373   4.120   2.383   6.729  0.3840 -0.2175  0.8075
 4246SOL    HW124374   4.027   2.404   6.738 -0.0861 -1.4755 -1.0484
 4246SOL    HW224375   4.129   2.413   6.639 -0.2725  0.8414  1.0960
 4247SOL     OW24376   1.062   0.291   0.426  0.1255 -0.3411 -0.1341
 4247SOL    HW124377   1.132   0.342   0.467 -1.5038 -0.9777  3.4008
 4247SOL    HW224378   1.002   0.293   0.500  0.8117 -0.1132  0.4134
 4248SOL     OW24379   2.775   0.107   8.252 -0.4741  0.0804 -0.3511
 4248SOL    HW124380   2.796   0.020   8.218 -2.1345 -0.5941  0.3656
 4248SOL    HW224381   2.713   0.128   8.182  0.3284 -2.7945 -1.9394
 4249SOL     OW24382   2.910   2.859  16.939  0.3778  0.2901  0.5194
 4249SOL    HW124383   2.868   2.849  17.024  3.1943 -0.8171  1.7726
 4249SOL    HW224384   2.944   2.946  16.959 -1.1169  0.4129  2.4778
 4250SOL     OW24385   2.526   3.769   7.463  0.9164 -0.4147  0.0049
 4250SOL    HW124386   2.621   3.759   7.472  0.6546 -0.5512  2.6724
 4250SOL    HW224387   2.488   3.681   7.455  2.4444 -1.1102  0.4358
 4251SOL     OW24388   0.020   1.705   8.057 -0.4766 -0.5595 -0.3452
 4251SOL    HW124389   4.681   1.695   8.106 -0.8508  0.1390 -0.8312
 4251SOL    HW224390   0.073   1.633   8.093 -0.2934  0.0729  0.6536
 4252SOL     OW24391   1.315   3.388   1.482  0.0035 -0.0871 -0.6546
 4252SOL    HW124392   1.285   3.303   1.449  1.5132 -0.1561 -1.8722
 4252SOL    HW224393   1.376   3.356   1.549  0.0778  2.3262  0.3999
 4253SOL     OW24394   3.403   4.333  15.770  0.5143  0.2741  0.7984
 4253SOL    HW124395   3.464   4.326  15.696  1.2375 -3.3225  1.7125
 4253SOL    HW224396   3.334   4.272  15.744  1.0487  0.9989 -2.4205
 4254SOL     OW24397   1.475   2.953   7.359 -0.6388  0.1395  0.0030
 4254SOL    HW124398   1.483   2.889   7.288  1.4225  1.6334 -1.1059
 4254SOL    HW224399   1.455   2.894   7.432 -0.5845  1.3036  0.9583
 4255SOL     OW24400   0.518   2.324  12.710  0.2705  0.1688 -0.2137
 4255SOL    HW124401   0.504   2.380  12.634  3.2084  0.2657 -0.6514
 4255SOL    HW224402   0.433   2.319  12.755  0.7098  0.5055  0.6536
 4256SOL     OW24403   0.038   2.186   4.156  0.2433  0.2441 -0.1004
 4256SOL    HW124404   0.115   2.223   4.114 -0.1684  0.6592 -0.4928
 4256SOL    HW224405   0.052   2.194   4.250  1.0205  2.0396 -0.3777
 4257SOL     OW24406   3.305   3.913   0.537 -0.4684  0.2887 -0.2261
 4257SOL    HW124407   3.243   3.920   0.610  0.1605 -3.3476  0.6899
 4257SOL    HW224408   3.353   3.994   0.552 -2.4576  1.6922 -1.3404
 4258SOL     OW24409   0.694   1.184  17.048  0.0960  0.2186 -0.1663
 4258SOL    HW124410   0.770   1.139  17.009 -0.3263 -0.2060 -0.5084
 4258SOL    HW224411   0.649   1.226  16.975 -0.0666  1.7100  0.7902
 4259SOL     OW24412   3.582   3.733   7.760 -0.2240  0.2414  0.8391
 4259SOL    HW124413   3.596   3.785   7.681  0.9450 -0.7234  0.4219
 4259SOL    HW224414   3.502   3.776   7.792 -0.9674 -1.3208  1.0744
 4260SOL     OW24415   2.027   1.277   6.140  0.3584 -0.4876  0.3541
 4260SOL    HW124416   2.000   1.199   6.188 -2.2586  0.1304 -0.1369
 4260SOL    HW224417   1.942   1.311   6.113  0.0713  0.1727  2.0464
 4261SOL     OW24418   1.327   3.250  12.764 -0.1271 -0.6360  0.4159
 4261SOL    HW124419   1.387   3.186  12.802  0.4377  0.9436  2.1442
 4261SOL    HW224420   1.326   3.221  12.672  0.7696  2.5248 -0.5712
 4262SOL     OW24421   2.549   2.594   7.844 -0.1818 -0.4034 -0.2850
 4262SOL    HW124422   2.513   2.558   7.925  1.5847 -0.8630  0.3124
 4262SOL    HW224423   2.525   2.686   7.852 -0.5665 -0.5407  0.1552
 4263SOL     OW24424   0.410   3.413   9.181  0.0929 -0.3886 -0.1307
 4263SOL    HW124425   0.391   3.464   9.102  0.9209 -2.6030 -1.7720
 4263SOL    HW224426   0.370   3.466   9.250  0.1811  0.4373 -0.7126
 4264SOL     OW24427   1.902   4.636   5.988 -0.1608  0.7511 -0.1747
 4264SOL    HW124428   1.917   4.716   6.038 -1.8815 -0.6393  2.5593
 4264SOL    HW224429   1.814   4.611   6.017  0.7901 -2.7135 -0.3253
 4265SOL     OW24430   3.438   3.503   5.557  0.1299 -0.0117 -0.5622
 4265SOL    HW124431   3.351   3.541   5.542  0.0472 -0.3761 -1.0227
 4265SOL    HW224432   3.454   3.446   5.481 -0.4330  0.6328 -1.1697
 4266SOL     OW24433   3.260   4.207   7.819  0.5896 -0.3494 -0.7784
 4266SOL    HW124434   3.281   4.198   7.726  1.6070 -1.0764 -0.4813
 4266SOL    HW224435   3.193   4.273   7.803  0.0666 -0.2377  1.9447
 4267SOL     OW24436   4.349   1.348   7.781 -0.7088  0.5146 -0.1161
 4267SOL    HW124437   4.342   1.355   7.877 -1.1518 -0.7002 -0.0599
 4267SOL    HW224438   4.429   1.397   7.763 -0.6533 -0.4930 -2.5823
 4268SOL     OW24439   2.039   1.934   8.029 -1.1657 -0.3642  0.5941
 4268SOL    HW124440   2.093   1.865   7.991 -0.1064  0.3160  0.8604
 4268SOL    HW224441   1.996   1.892   8.104 -2.1058  0.0284  0.2767
 4269SOL     OW24442   1.920   3.527   5.835 -0.5018 -0.0241 -0.1647
 4269SOL    HW124443   2.006   3.519   5.876  0.4524 -0.2395 -2.1977
 4269SOL    HW224444   1.910   3.432   5.831 -0.7901 -0.0492  1.0477
 4270SOL     OW24445   3.931   0.507  11.528  0.1300  0.1388  0.5319
 4270SOL    HW124446   4.012   0.521  11.578  1.8968  1.8258 -2.7936
 4270SOL    HW224447   3.937   0.562  11.450  0.0347 -1.8732 -0.9042
 4271SOL     OW24448   1.929   2.647   1.783 -0.0508 -0.0258 -0.0961
 4271SOL    HW124449   1.891   2.595   1.713  0.0689  1.2954 -1.1335
 4271SOL    HW224450   2.005   2.589   1.792  1.5174  2.0843  0.3105
 4272SOL     OW24451   3.264   0.327   8.133  0.5158 -0.0892  0.1932
 4272SOL    HW124452   3.337   0.329   8.071  0.3283 -0.4206 -0.0385
 4272SOL    HW224453   3.202   0.284   8.074  3.9407 -2.1191 -1.9484
 4273SOL     OW24454   2.065   1.279   6.476 -0.0378 -0.2743 -0.8948
 4273SOL    HW124455   2.012   1.257   6.400 -1.2858 -2.9371  0.7715
 4273SOL    HW224456   2.142   1.224   6.459  0.1872 -0.1327 -0.3397
 4274SOL     OW24457   0.179   0.662   8.681  0.4402  0.1246 -0.0039
 4274SOL    HW124458   0.116   0.720   8.639  1.7119  0.4654 -1.4590
 4274SOL    HW224459   0.185   0.692   8.771  1.6665 -0.5807  0.1462
 4275SOL     OW24460   4.488   1.776   4.711 -0.3461  0.4407  0.1684
 4275SOL    HW124461   4.393   1.788   4.711 -0.0789  2.4754  0.9209
 4275SOL    HW224462   4.527   1.862   4.699 -1.5215  0.6714 -2.0036
 4276SOL     OW24463   2.017   2.537   5.078  0.3367  0.0002 -0.1816
 4276SOL    HW124464   1.928   2.572   5.086 -0.5812 -2.0995 -1.0216
 4276SOL    HW224465   2.035   2.517   5.170 -0.0808 -1.7107 -0.4556
 4277SOL     OW24466   2.532   3.696  12.780 -0.8334  0.0489 -1.1583
 4277SOL    HW124467   2.571   3.728  12.861  0.2863 -2.2978 -0.8019
 4277SOL    HW224468   2.438   3.710  12.797 -0.7773 -0.1315 -0.7116
 4278SOL     OW24469   1.610   4.166  12.737 -0.1277  0.0692 -0.4869
 4278SOL    HW124470   1.535   4.211  12.698 -1.5184 -0.1917  1.8527
 4278SOL    HW224471   1.575   4.137  12.821  1.3656 -0.8791 -0.1850
 4279SOL     OW24472   2.691   1.909   9.814  0.5830 -0.3549  0.3563
 4279SOL    HW124473   2.615   1.852   9.801  0.8223 -0.4823 -0.4923
 4279SOL    HW224474   2.753   1.849   9.855 -0.7899 -1.9363  0.1428
 4280SOL     OW24475   3.324   4.572   8.922  0.1408  0.3191  0.2941
 4280SOL    HW124476   3.323   4.649   8.866  0.1204 -0.6904 -1.1116
 4280SOL    HW224477   3.263   4.510   8.882  0.8319  0.9073 -1.6757
 4281SOL     OW24478   2.605   1.081   3.807  0.1447  0.0326  0.3274
 4281SOL    HW124479   2.626   1.137   3.732 -2.6650 -0.1171 -0.5809
 4281SOL    HW224480   2.685   1.029   3.806  0.5752  0.7016 -0.3485
 4282SOL     OW24481   3.345   3.093   9.029 -0.0745 -0.3410 -0.0540
 4282SOL    HW124482   3.387   3.148   8.963 -0.8508  1.0644  0.6200
 4282SOL    HW224483   3.259   3.092   8.988 -0.1029 -0.5223  0.0094
 4283SOL     OW24484   0.856   4.738   4.472  0.0539 -0.2712 -0.0300
 4283SOL    HW124485   0.845   0.090   4.476 -2.3047 -0.5530 -0.0848
 4283SOL    HW224486   0.952   4.742   4.464  0.1468 -0.4038  1.0769
 4284SOL     OW24487   2.498   4.274   3.004  0.1173 -0.3725  0.3369
 4284SOL    HW124488   2.479   4.326   3.083  1.9433  1.8308 -0.6737
 4284SOL    HW224489   2.565   4.337   2.976 -1.1376  1.7696  2.0795
 4285SOL     OW24490   3.322   3.395   4.190  0.5042 -0.3769 -0.3075
 4285SOL    HW124491   3.292   3.338   4.261  1.4216  0.5532  0.8177
 4285SOL    HW224492   3.247   3.455   4.185  0.7672 -0.0984 -0.9204
 4286SOL     OW24493   0.630   2.292  13.585  0.1154 -0.0818  0.5189
 4286SOL    HW124494   0.575   2.347  13.640  2.5537 -0.7274  3.5881
 4286SOL    HW224495   0.558   2.264  13.529 -0.3770 -1.7291  1.9723
 4287SOL     OW24496   1.471   3.294   2.216 -0.7962  0.5723 -0.0301
 4287SOL    HW124497   1.375   3.289   2.213 -0.9181  1.9006  1.9422
 4287SOL    HW224498   1.491   3.203   2.192 -2.3631  0.8803 -2.5158
 4288SOL     OW24499   1.200   2.916   2.328  0.1949  0.9368 -0.1565
 4288SOL    HW124500   1.239   2.839   2.287  1.2006  0.7054  1.2220
 4288SOL    HW224501   1.223   2.990   2.272 -0.4741 -1.2917 -3.3321
 4289SOL     OW24502   4.712   1.320   5.490 -0.7828 -0.7307 -0.1425
 4289SOL    HW124503   0.009   1.237   5.462  0.4277 -0.4070  0.6475
 4289SOL    HW224504   4.706   1.310   5.585  3.0585  2.1025  0.4097
 4290SOL     OW24505   3.259   3.875  10.690 -0.5956  0.1552 -0.0211
 4290SOL    HW124506   3.298   3.955  10.726  0.0077  0.0545 -0.4386
 4290SOL    HW224507   3.270   3.816  10.765 -0.0549  1.1837  0.7221
 4291SOL     OW24508   0.456   0.476   6.978  0.0305  0.2954  0.2977
 4291SOL    HW124509   0.443   0.557   6.927 -1.6767  0.5212  1.0731
 4291SOL    HW224510   0.546   0.444   6.977  0.0317  0.3693 -1.9259
 4292SOL     OW24511   0.683   0.809   6.573 -0.5072 -0.2992 -0.2426
 4292SOL    HW124512   0.717   0.803   6.662  0.2278 -0.3915 -0.5324
 4292SOL    HW224513   0.741   0.749   6.526  1.2295  0.0101  1.5317
 4293SOL     OW24514   0.470   0.213  15.300 -0.7835 -0.0105 -0.1150
 4293SOL    HW124515   0.524   0.201  15.378  0.7826 -1.2824 -1.3749
 4293SOL    HW224516   0.393   0.246  15.346 -0.7637  1.7306 -1.3350
 4294SOL     OW24517   2.099   2.857   8.319  0.4348  0.0747  0.3948
 4294SOL    HW124518   2.056   2.807   8.388  1.2071 -1.0097  0.1053
 4294SOL    HW224519   2.131   2.926   8.377 -3.4709  0.1286  2.4790
 4295SOL     OW24520   0.754   2.285   8.675 -0.4404  0.5505  0.5108
 4295SOL    HW124521   0.822   2.351   8.665 -1.2094  1.0381 -1.5308
 4295SOL    HW224522   0.717   2.270   8.588 -1.1874 -0.8577  1.0603
 4296SOL     OW24523   0.769   1.603   6.687 -0.2095  0.0212  0.2805
 4296SOL    HW124524   0.709   1.546   6.640  1.2447 -0.8829 -0.4859
 4296SOL    HW224525   0.842   1.542   6.699 -1.1086 -0.5403  2.9255
 4297SOL     OW24526   0.013   2.916   2.556 -0.2418  0.2596  0.1610
 4297SOL    HW124527   0.076   2.901   2.626  0.2326  1.9609  0.1113
 4297SOL    HW224528   4.733   2.824   2.544 -0.4194  0.4545 -0.9937
 4298SOL     OW24529   1.617   3.584   3.271 -0.1049  0.2200  0.1325
 4298SOL    HW124530   1.546   3.571   3.208 -0.5922  1.5014  0.4286
 4298SOL    HW224531   1.663   3.500   3.265  1.1624  1.0103 -1.3909
 4299SOL     OW24532   0.368   2.789   7.606 -0.0965  0.0506 -0.1464
 4299SOL    HW124533   0.277   2.760   7.608 -0.0654  0.0019  0.5020
 4299SOL    HW224534   0.361   2.872   7.559 -0.6633  0.5231  0.7849
 4300SOL     OW24535   0.907   0.654   1.361 -0.0098 -0.2489 -0.2916
 4300SOL    HW124536   0.885   0.747   1.350  2.1983  0.1406 -1.2801
 4300SOL    HW224537   0.981   0.644   1.301 -0.1959 -0.2187 -0.5292
 4301SOL     OW24538   4.737   0.756   2.786  0.1160 -0.4847  0.7414
 4301SOL    HW124539   4.698   0.792   2.866  2.0967  1.5820  0.7899
 4301SOL    HW224540   4.663   0.706   2.750  0.2958 -2.3878  3.0462
 4302SOL     OW24541   2.226   0.568   8.026 -0.7857 -0.1436 -1.0825
 4302SOL    HW124542   2.176   0.500   7.982  0.1446 -0.2276 -2.0036
 4302SOL    HW224543   2.164   0.600   8.092  0.0596 -1.4558  0.3578
 4303SOL     OW24544   2.250   1.125   2.317  0.3178 -0.5964  0.4220
 4303SOL    HW124545   2.208   1.042   2.293  0.1058 -0.6948  1.1318
 4303SOL    HW224546   2.237   1.136   2.411 -0.8367  2.2382 -0.0824
 4304SOL     OW24547   2.766   2.197   6.243  0.4112 -0.3313  0.6939
 4304SOL    HW124548   2.673   2.175   6.238  0.5620 -0.3904 -1.9142
 4304SOL    HW224549   2.792   2.198   6.150 -1.7799 -0.0683  0.0960
 4305SOL     OW24550   0.371   2.469  11.035  0.5277 -0.2065  0.4584
 4305SOL    HW124551   0.307   2.467  11.106 -2.0462 -0.9685 -1.8883
 4305SOL    HW224552   0.446   2.516  11.071  0.0220 -1.8440  3.7095
 4306SOL     OW24553   0.459   4.525   3.957 -0.7361  0.1955  0.1540
 4306SOL    HW124554   0.447   4.619   3.940 -1.0267  0.4829  1.8817
 4306SOL    HW224555   0.555   4.522   3.951 -0.8246  0.0222 -1.0190
 4307SOL     OW24556   1.876   0.701  12.213  0.1661 -0.4593 -0.0719
 4307SOL    HW124557   1.867   0.670  12.122  1.4743 -2.2009  0.3991
 4307SOL    HW224558   1.798   0.664  12.255  0.8294 -1.4757  0.2496
 4308SOL     OW24559   0.342   1.941   6.844  0.1653  0.4134 -0.2646
 4308SOL    HW124560   0.276   1.977   6.904  0.1165 -0.3054  0.1097
 4308SOL    HW224561   0.374   2.024   6.809  2.6802 -0.3163  0.3222
 4309SOL     OW24562   3.233   2.710   9.749 -0.7218  0.1285  0.3764
 4309SOL    HW124563   3.188   2.628   9.732  0.0714 -0.5520  1.5206
 4309SOL    HW224564   3.278   2.691   9.832 -0.1513  2.7828  0.6656
 4310SOL     OW24565   2.933   2.573   5.570  0.1119  0.4235  0.3266
 4310SOL    HW124566   2.923   2.481   5.544 -3.4381  0.5232  1.2833
 4310SOL    HW224567   2.868   2.590   5.639  1.1375 -1.6823  1.8207
 4311SOL     OW24568   0.593   4.280  15.866 -0.2427  0.0012 -0.4969
 4311SOL    HW124569   0.520   4.221  15.886  0.0621 -0.6301 -1.2324
 4311SOL    HW224570   0.615   4.251  15.777 -0.8571  1.4361 -1.1114
 4312SOL     OW24571   2.524   0.671  13.190  0.0465 -0.0794  0.6523
 4312SOL    HW124572   2.466   0.736  13.151  0.1696 -0.7613 -0.6615
 4312SOL    HW224573   2.613   0.695  13.166 -0.7916 -1.0951 -3.4040
 4313SOL     OW24574   1.628   0.473   0.815  0.2395  0.0785 -0.2910
 4313SOL    HW124575   1.700   0.456   0.876  1.8485 -0.2127 -2.2579
 4313SOL    HW224576   1.606   0.380   0.808 -0.0657  0.1001  0.4499
 4314SOL     OW24577   0.506   2.882   1.124  0.4872  0.1098 -0.6429
 4314SOL    HW124578   0.552   2.965   1.131 -3.3528  2.1441  0.6983
 4314SOL    HW224579   0.436   2.901   1.186  0.1791  1.0671 -1.2764
 4315SOL     OW24580   1.389   2.801  14.361  0.2881 -0.6455  0.6844
 4315SOL    HW124581   1.421   2.823  14.449  0.1766 -0.5976  0.7128
 4315SOL    HW224582   1.428   2.714  14.346  0.8167 -0.3346  0.2388
 4316SOL     OW24583   2.571   3.660   8.453 -0.2563 -0.1100  0.0652
 4316SOL    HW124584   2.596   3.581   8.502 -0.4177  0.5521  1.2337
 4316SOL    HW224585   2.653   3.705   8.436 -0.8423  0.9827  0.1078
 4317SOL     OW24586   4.109   2.751  13.131  0.1079 -0.5382  0.1489
 4317SOL    HW124587   4.171   2.823  13.123 -1.7180  1.0746  0.3740
 4317SOL    HW224588   4.130   2.687  13.063 -0.9310  0.7439 -1.3727
 4318SOL     OW24589   0.961   0.802   9.686  0.1946 -0.1895  0.3213
 4318SOL    HW124590   0.912   0.766   9.612  1.4576 -0.0461 -0.5859
 4318SOL    HW224591   0.981   0.721   9.733 -0.3817 -0.4925  0.0391
 4319SOL     OW24592   3.952   4.181   2.989  0.0434 -0.5779 -0.2314
 4319SOL    HW124593   4.038   4.213   2.963  0.1109 -0.7833 -0.2611
 4319SOL    HW224594   3.901   4.262   2.988  0.0265 -0.5821  0.7127
 4320SOL     OW24595   3.801   4.424   9.269 -0.2909 -0.1301 -0.6869
 4320SOL    HW124596   3.795   4.391   9.359  1.3426 -0.4054 -0.6931
 4320SOL    HW224597   3.774   4.516   9.278 -0.6627 -0.3180  0.1590
 4321SOL     OW24598   0.030   3.407   5.372 -0.8072 -0.0418  0.2692
 4321SOL    HW124599   4.678   3.410   5.365 -0.7451  1.8073  0.2328
 4321SOL    HW224600   0.047   3.313   5.375  0.4905  0.2039  0.3625
 4322SOL     OW24601   3.560   3.986   7.231 -0.1760 -0.1436  0.1093
 4322SOL    HW124602   3.484   4.037   7.205  0.3558  0.6373  0.0844
 4322SOL    HW224603   3.615   4.047   7.280  0.1229 -0.1488 -0.2161
 4323SOL     OW24604   0.781   2.004   6.817  0.1053  0.3615  0.4186
 4323SOL    HW124605   0.794   1.980   6.726  1.0076 -0.1489  0.6784
 4323SOL    HW224606   0.756   1.918   6.849  2.5099 -0.6337 -0.3784
 4324SOL     OW24607   1.458   1.532   1.339 -0.1730 -0.0366  0.4629
 4324SOL    HW124608   1.525   1.548   1.405 -0.1608  2.5647 -0.1577
 4324SOL    HW224609   1.469   1.440   1.314 -0.9181 -0.0428  0.1517
 4325SOL     OW24610   4.103   0.070   9.651  0.0089 -0.0028 -0.3157
 4325SOL    HW124611   4.148   0.154   9.639 -3.5750  2.0609  0.4538
 4325SOL    HW224612   4.177   0.012   9.665  0.6312  0.6522 -0.8751
 4326SOL     OW24613   0.226   1.165   4.845 -0.6734  0.2826  0.1507
 4326SOL    HW124614   0.221   1.247   4.894 -2.4458  1.0259 -1.2793
 4326SOL    HW224615   0.242   1.189   4.754 -2.1627  2.3285  0.4309
 4327SOL     OW24616   1.511   3.371   0.062  0.1774  0.3880 -0.6445
 4327SOL    HW124617   1.588   3.396   0.114 -0.2340 -3.2865  1.7350
 4327SOL    HW224618   1.449   3.372   0.135  0.5487 -1.2988 -0.2885
 4328SOL     OW24619   3.358   2.885   0.181 -0.3261  0.6787 -0.0659
 4328SOL    HW124620   3.439   2.857   0.225  1.0941  3.2905 -1.0583
 4328SOL    HW224621   3.377   2.879   0.087  0.4829 -1.2429  0.2138
 4329SOL     OW24622   0.054   2.101   5.020 -0.3215  0.7287 -0.3160
 4329SOL    HW124623   0.042   2.171   5.084 -2.1991 -0.0252  0.1549
 4329SOL    HW224624   4.708   2.067   5.013 -0.7068  1.4982  0.8054
 4330SOL     OW24625   1.498   1.263   3.749 -0.1508  0.4449  0.1819
 4330SOL    HW124626   1.436   1.309   3.804 -1.8206 -0.1979 -1.1729
 4330SOL    HW224627   1.579   1.279   3.798  0.3034  0.1966 -0.4799
 4331SOL     OW24628   4.286   2.688   4.090  0.4652 -0.0158 -0.2629
 4331SOL    HW124629   4.376   2.655   4.090  1.1498  1.8477  0.4929
 4331SOL    HW224630   4.260   2.681   4.182 -1.0702 -1.8837 -0.8509
 4332SOL     OW24631   3.047   4.643   3.873 -0.3472 -0.2402  0.6340
 4332SOL    HW124632   2.955   4.629   3.896 -0.5249  0.1395  0.1376
 4332SOL    HW224633   3.087   4.587   3.941 -0.1304 -1.2003 -0.2803
 4333SOL     OW24634   3.830   3.048   9.021 -0.0175  0.0221  0.0572
 4333SOL    HW124635   3.739   3.075   9.009 -0.1522 -0.3589  0.2098
 4333SOL    HW224636   3.875   3.127   9.050 -1.4786  0.3548  1.4498
 4334SOL     OW24637   2.405   1.829   6.638  0.6345 -0.1661  0.1400
 4334SOL    HW124638   2.362   1.744   6.640  2.3622 -1.0652 -0.8429
 4334SOL    HW224639   2.481   1.807   6.584  1.7554  1.8740  0.8692
 4335SOL     OW24640   2.878   1.113  16.134 -0.4667 -0.7254  0.2550
 4335SOL    HW124641   2.861   1.201  16.166  0.0245  0.8510 -3.7805
 4335SOL    HW224642   2.918   1.128  16.048  2.2652 -0.9188  1.5120
 4336SOL     OW24643   0.732   0.126   3.074 -0.2626 -0.1575 -0.3396
 4336SOL    HW124644   0.743   0.116   3.169  2.5989 -1.7385 -0.8301
 4336SOL    HW224645   0.767   0.048   3.031  0.7292 -0.6393  1.3199
 4337SOL     OW24646   1.410   0.586   9.401 -0.6266  0.1673  0.6240
 4337SOL    HW124647   1.463   0.556   9.327  0.4968  0.6768  1.2189
 4337SOL    HW224648   1.426   0.680   9.405 -0.5060  0.2029 -0.7554
 4338SOL     OW24649   3.072   1.820   4.838 -0.3976  0.3224 -0.5714
 4338SOL    HW124650   3.087   1.808   4.931  0.6521 -1.0660 -0.9208
 4338SOL    HW224651   3.005   1.753   4.827 -0.0298 -0.0155 -0.7603
 4339SOL     OW24652   3.445   2.981   2.325  0.1106 -0.4816  0.3214
 4339SOL    HW124653   3.423   3.049   2.261 -0.7467 -0.3038  0.7946
 4339SOL    HW224654   3.433   3.022   2.411 -2.9766 -1.0034  0.1404
 4340SOL     OW24655   0.869   2.669   0.510 -0.6926  0.0620  0.5121
 4340SOL    HW124656   0.798   2.641   0.452 -0.7446  1.1254  0.0721
 4340SOL    HW224657   0.889   2.755   0.474  2.9554 -0.2586  1.7932
 4341SOL     OW24658   1.447   4.207   4.112  0.1630  0.4832  0.0420
 4341SOL    HW124659   1.387   4.279   4.091 -0.2892 -0.5248 -2.1637
 4341SOL    HW224660   1.528   4.255   4.095  0.0131  0.3744 -0.9769
 4342SOL     OW24661   3.342   2.994   3.676  0.1063 -0.1027 -0.3407
 4342SOL    HW124662   3.304   3.078   3.702  1.2930  0.5636 -0.7710
 4342SOL    HW224663   3.318   2.941   3.753 -3.7133  1.1469 -0.6700
 4343SOL     OW24664   0.844   2.638   8.867  0.2193  0.0056  0.0066
 4343SOL    HW124665   0.911   2.707   8.865  1.1672 -0.8811  0.8263
 4343SOL    HW224666   0.858   2.603   8.780  0.4266 -0.5474  0.2647
 4344SOL     OW24667   0.855   2.761   7.638  0.6373 -0.0090  0.7167
 4344SOL    HW124668   0.862   2.790   7.729  0.2899 -2.1504  1.4377
 4344SOL    HW224669   0.760   2.761   7.625  0.3844  1.7389  2.6465
 4345SOL     OW24670   3.014   1.808   9.043 -0.1846 -0.1197 -0.1288
 4345SOL    HW124671   2.931   1.798   8.998  0.3205  0.8666 -1.2771
 4345SOL    HW224672   3.019   1.716   9.070  0.8301  0.5849  2.1331
 4346SOL     OW24673   1.992   4.050  12.434  0.3153 -0.1298 -0.0436
 4346SOL    HW124674   2.000   4.140  12.405  1.0021  0.1746  1.1164
 4346SOL    HW224675   2.076   4.014  12.406  0.9833  1.8537 -0.5157
 4347SOL     OW24676   4.363   3.873   3.327  0.0935 -0.3885 -0.1340
 4347SOL    HW124677   4.298   3.815   3.368 -0.7185  0.7783  0.2683
 4347SOL    HW224678   4.420   3.808   3.286  1.0016 -1.5967  3.0461
 4348SOL     OW24679   2.172   4.383   1.887  0.6136  0.1115  0.0785
 4348SOL    HW124680   2.197   4.455   1.945 -0.8360  1.1214 -0.5624
 4348SOL    HW224681   2.254   4.369   1.840  0.5984  0.4901 -0.0542
 4349SOL     OW24682   3.623   2.725   9.845  0.8127  0.2403 -0.0439
 4349SOL    HW124683   3.687   2.663   9.879 -1.2394 -2.0226 -0.2426
 4349SOL    HW224684   3.651   2.740   9.755 -0.0108 -0.3117 -0.3903
 4350SOL     OW24685   2.686   4.485   8.334 -0.0827 -0.0663  0.0688
 4350SOL    HW124686   2.681   4.394   8.362  2.5973 -0.8407 -1.9463
 4350SOL    HW224687   2.690   4.526   8.420 -0.3353  1.0928 -0.4789
 4351SOL     OW24688   2.433   0.415   3.863  0.1971  0.7450  0.3902
 4351SOL    HW124689   2.403   0.489   3.916 -1.5697  1.5118 -1.6962
 4351SOL    HW224690   2.482   0.375   3.935 -1.8397 -1.9206  0.3002
 4352SOL     OW24691   0.153   4.245  13.730  0.2047 -0.3639 -0.4621
 4352SOL    HW124692   0.228   4.233  13.671 -0.5710  1.8421 -1.8996
 4352SOL    HW224693   0.117   4.156  13.734 -1.1439  0.1645 -0.8936
 4353SOL     OW24694   1.338   0.300  17.168 -0.1668 -0.4959  0.3391
 4353SOL    HW124695   1.318   0.221  17.117  0.5751 -0.1115 -0.5492
 4353SOL    HW224696   1.275   0.356  17.123  1.6986 -1.8863 -3.9936
 4354SOL     OW24697   0.700   4.641   5.137 -0.0470 -0.3258  0.0411
 4354SOL    HW124698   0.683   4.656   5.230  2.2651 -1.0747  0.5871
 4354SOL    HW224699   0.773   4.703   5.134 -0.2803  0.0239  1.5217
 4355SOL     OW24700   1.620   0.619   8.736 -0.0192  0.3866  0.1504
 4355SOL    HW124701   1.652   0.691   8.681  1.3385  1.1573  1.9574
 4355SOL    HW224702   1.704   0.584   8.766  0.3087 -1.1152 -2.4904
 4356SOL     OW24703   0.769   1.688   7.029 -0.5531 -0.2924  0.3289
 4356SOL    HW124704   0.712   1.725   6.961  0.5996 -0.3803 -0.6894
 4356SOL    HW224705   0.779   1.599   6.997 -3.1487  0.0086 -1.3248
 4357SOL     OW24706   2.878   2.247   2.546  0.2163 -0.7108  0.1223
 4357SOL    HW124707   2.891   2.282   2.634 -0.1996 -0.5870  0.1364
 4357SOL    HW224708   2.843   2.159   2.564 -2.1249  0.7590  2.6608
 4358SOL     OW24709   3.742   3.545   3.980  0.8790  0.0279 -0.1718
 4358SOL    HW124710   3.665   3.547   4.038 -0.3686 -1.0712 -1.7863
 4358SOL    HW224711   3.763   3.452   3.984 -2.1277 -0.5002  3.4017
 4359SOL     OW24712   0.159   3.955  11.053 -0.5492  0.2968 -0.4582
 4359SOL    HW124713   0.083   4.011  11.073  0.5659  1.1607  1.3359
 4359SOL    HW224714   0.232   4.017  11.053 -0.7612  0.5422 -1.0149
 4360SOL     OW24715   4.616   1.456   7.146  0.0194  0.2326  0.4314
 4360SOL    HW124716   4.677   1.527   7.127  0.1941  0.1290  0.6022
 4360SOL    HW224717   4.548   1.503   7.194  0.0701  1.3533 -0.5941
 4361SOL     OW24718   2.208   4.617  15.775 -0.0455 -0.5305  0.0368
 4361SOL    HW124719   2.218   4.651  15.864  0.4870 -0.4790 -0.0430
 4361SOL    HW224720   2.134   4.670  15.748  0.5650  0.9098  1.2051
 4362SOL     OW24721   2.358   3.628   1.800  0.5796 -0.0200  0.0138
 4362SOL    HW124722   2.383   3.592   1.885 -1.6545  0.7526  1.0105
 4362SOL    HW224723   2.272   3.594   1.775 -0.6210  1.2685  2.4379
 4363SOL     OW24724   3.586   0.226   2.846  0.7856  0.2104  0.0200
 4363SOL    HW124725   3.554   0.260   2.763  0.4232 -2.3895 -0.9021
 4363SOL    HW224726   3.659   0.173   2.815 -0.6343 -2.3749  1.1705
 4364SOL     OW24727   3.779   4.614   1.504 -0.1207  0.1398 -0.3366
 4364SOL    HW124728   3.757   4.698   1.464 -0.5339  0.6628  0.9710
 4364SOL    HW224729   3.720   4.555   1.458 -0.0391 -1.5893  1.7487
 4365SOL     OW24730   1.467   0.007  15.911  0.5119 -0.3142 -0.3716
 4365SOL    HW124731   1.444   0.079  15.852  0.2271 -0.5569 -0.5515
 4365SOL    HW224732   1.455   0.057  15.991  0.8625 -1.8150  0.6169
 4366SOL     OW24733   2.691   0.336   3.978 -0.0458 -0.3323 -0.4528
 4366SOL    HW124734   2.724   0.295   4.058 -2.5458 -0.0939  0.7094
 4366SOL    HW224735   2.717   0.426   4.000 -1.9460 -0.2997  1.6932
 4367SOL     OW24736   0.128   2.695   2.282 -0.1752 -0.8017  0.2486
 4367SOL    HW124737   0.149   2.622   2.340  2.5295 -0.1964  0.0014
 4367SOL    HW224738   0.193   2.763   2.296 -2.1994  0.8101  1.9408
 4368SOL     OW24739   1.969   4.159   7.673  0.1033  0.1217  0.0736
 4368SOL    HW124740   1.938   4.206   7.751 -2.1093  0.1553 -0.8357
 4368SOL    HW224741   1.908   4.180   7.602  0.6187 -2.4181 -1.1397
 4369SOL     OW24742   0.310   4.315  14.439 -0.8019  0.3742 -0.8212
 4369SOL    HW124743   0.404   4.320  14.456 -1.4322 -1.5853  3.2598
 4369SOL    HW224744   0.272   4.319  14.527  1.2339  1.8026 -0.0047
 4370SOL     OW24745   0.266   3.986   4.997 -0.2118 -0.2771  0.4330
 4370SOL    HW124746   0.244   4.014   5.086 -0.0050  1.3189 -0.0287
 4370SOL    HW224747   0.338   3.928   5.022 -1.9125 -2.4397  0.3389
 4371SOL     OW24748   3.376   3.614   0.854 -0.1166  0.0399 -0.1833
 4371SOL    HW124749   3.385   3.709   0.845  2.8230 -0.3089 -0.9588
 4371SOL    HW224750   3.457   3.595   0.806  0.4996  1.0780  0.4432
 4372SOL     OW24751   0.245   1.106   7.085  0.6320 -0.7398  0.4466
 4372SOL    HW124752   0.224   1.198   7.070  2.6506 -0.3151  0.1610
 4372SOL    HW224753   0.320   1.097   7.026  1.2085  0.7738  0.9475
 4373SOL     OW24754   0.799   0.950  10.098 -0.5248 -0.1780 -0.5045
 4373SOL    HW124755   0.885   0.969  10.137 -0.7109 -1.5822  0.5726
 4373SOL    HW224756   0.808   0.988  10.010  1.9538 -0.1049 -0.2404
 4374SOL     OW24757   3.287   2.566   1.826  0.2555 -0.1219 -0.2583
 4374SOL    HW124758   3.271   2.639   1.887  2.2408  0.0850  0.0415
 4374SOL    HW224759   3.349   2.517   1.879 -0.0346 -1.3108 -1.0387
 4375SOL     OW24760   4.312   2.662   6.094  0.0360 -0.2661  0.0394
 4375SOL    HW124761   4.235   2.631   6.141 -0.7535  0.6779 -0.6344
 4375SOL    HW224762   4.321   2.751   6.129  2.4329  0.1771 -1.7108
 4376SOL     OW24763   2.543   1.087   5.125 -0.5564 -0.2825 -0.5746
 4376SOL    HW124764   2.611   1.058   5.065 -2.1125 -3.3204 -0.8895
 4376SOL    HW224765   2.498   1.147   5.065 -0.7597  0.3383  0.2044
 4377SOL     OW24766   0.735   2.916   2.805 -0.2987 -0.2943  0.1043
 4377SOL    HW124767   0.755   2.980   2.737  0.4527 -0.1996  0.4082
 4377SOL    HW224768   0.795   2.848   2.774  1.2615 -0.4683  3.4310
 4378SOL     OW24769   1.610   1.998  13.716 -0.3912 -0.2932 -0.2785
 4378SOL    HW124770   1.702   1.973  13.702 -0.2765 -2.2688  3.8742
 4378SOL    HW224771   1.564   1.926  13.674 -1.3507  1.9124 -2.9629
 4379SOL     OW24772   3.266   2.070   1.565  0.6192 -0.1238 -0.5037
 4379SOL    HW124773   3.261   2.026   1.480 -0.3901 -0.5808 -0.2099
 4379SOL    HW224774   3.186   2.122   1.567  2.3691  2.5884 -2.3021
 4380SOL     OW24775   1.880   2.930  10.456  0.7596 -0.0373 -0.5518
 4380SOL    HW124776   1.874   3.025  10.458  0.5082 -0.0641  0.0138
 4380SOL    HW224777   1.972   2.920  10.432  0.0443 -3.8378 -1.6808
 4381SOL     OW24778   1.961   2.540  14.099  0.5279  0.0537 -0.0087
 4381SOL    HW124779   1.939   2.616  14.045 -1.6948  1.2395  2.5606
 4381SOL    HW224780   1.883   2.487  14.081  0.5582  0.6699 -2.0006
 4382SOL     OW24781   0.631   3.750   2.033  0.0912 -0.1640 -0.2847
 4382SOL    HW124782   0.607   3.687   1.966  1.2272 -1.2502  0.3419
 4382SOL    HW224783   0.726   3.750   2.026 -0.0014  4.6745 -1.6399
 4383SOL     OW24784   2.484   3.202   8.056  0.3557 -0.1318 -0.4868
 4383SOL    HW124785   2.563   3.254   8.071  0.4269  0.1740 -1.8686
 4383SOL    HW224786   2.491   3.151   8.136  0.6923 -0.6685 -0.8513
 4384SOL     OW24787   1.826   1.572   5.724 -0.0763  0.1329  0.1088
 4384SOL    HW124788   1.809   1.633   5.652  1.3136 -0.5370 -0.8132
 4384SOL    HW224789   1.886   1.514   5.677  0.5308  0.9320 -0.1108
 4385SOL     OW24790   4.109   0.662   3.328 -0.4605  0.2343 -0.1102
 4385SOL    HW124791   4.062   0.624   3.402  2.2259  0.3358  1.6388
 4385SOL    HW224792   4.085   0.754   3.339  1.3186  0.7470 -0.4715
 4386SOL     OW24793   4.279   1.787   0.900 -0.2537  0.4503  0.0562
 4386SOL    HW124794   4.358   1.780   0.954  1.4644  2.0601 -2.2386
 4386SOL    HW224795   4.242   1.700   0.915  1.5589 -0.8120 -2.8690
 4387SOL     OW24796   4.628   0.722   7.134  0.1622 -0.6485  0.5141
 4387SOL    HW124797   4.614   0.789   7.200 -0.2711 -2.6455  2.4351
 4387SOL    HW224798   4.722   0.705   7.140  0.5680  1.6552  0.6936
 4388SOL     OW24799   2.885   3.720   6.078 -0.2233  0.0189  0.1148
 4388SOL    HW124800   2.953   3.774   6.118  0.7469 -0.2885 -1.0927
 4388SOL    HW224801   2.903   3.634   6.117 -0.9099  0.0578  0.5075
 4389SOL     OW24802   0.340   2.286   9.275 -0.1959  0.0589 -0.4811
 4389SOL    HW124803   0.366   2.330   9.355 -1.1284  0.3919 -0.3566
 4389SOL    HW224804   0.263   2.335   9.246  0.2645 -1.3754 -4.0634
 4390SOL     OW24805   1.578   1.440   3.555 -0.6854  0.1528  0.5084
 4390SOL    HW124806   1.541   1.373   3.612  1.1434 -1.8881 -0.6876
 4390SOL    HW224807   1.498   1.488   3.533 -0.5870 -0.3588 -0.9804
 4391SOL     OW24808   0.996   3.937   4.937 -0.4412 -0.0164 -0.4982
 4391SOL    HW124809   0.985   4.011   4.877  1.3736  1.2466  0.7034
 4391SOL    HW224810   0.977   3.856   4.889 -0.7914  0.2036 -0.7302
 4392SOL     OW24811   3.837   1.090   9.653 -0.2011 -0.2401  0.4286
 4392SOL    HW124812   3.852   0.996   9.660  0.3241 -0.0217  2.3439
 4392SOL    HW224813   3.880   1.128   9.577 -0.5614 -1.0245 -0.1655
 4393SOL     OW24814   1.298   3.359   0.405  0.0003  0.2375 -0.1951
 4393SOL    HW124815   1.275   3.372   0.313 -0.1307  0.9445 -0.0614
 4393SOL    HW224816   1.393   3.360   0.400  0.0434  1.3058  0.8032
 4394SOL     OW24817   2.987   3.056   3.526  0.6238  0.0466  0.1001
 4394SOL    HW124818   2.911   3.110   3.504  0.6766 -0.1779 -0.6454
 4394SOL    HW224819   3.054   3.124   3.514  0.2166  0.4392  0.0507
 4395SOL     OW24820   3.850   3.753   2.527  0.5173 -0.3118  0.8316
 4395SOL    HW124821   3.863   3.802   2.608  0.8178 -0.9058  1.1340
 4395SOL    HW224822   3.755   3.742   2.527  0.2394  2.1283 -1.0495
 4396SOL     OW24823   0.362   1.782   4.755  0.1168 -0.0313 -0.2697
 4396SOL    HW124824   0.457   1.788   4.754  0.0287  1.2240 -0.8791
 4396SOL    HW224825   0.348   1.859   4.810  0.8828  0.6083 -0.9548
 4397SOL     OW24826   0.581   0.328   6.181 -0.2479  0.1080  0.0737
 4397SOL    HW124827   0.629   0.349   6.101  2.9091  0.7183  2.0916
 4397SOL    HW224828   0.636   0.253   6.204  0.2505  0.2041 -0.8041
 4398SOL     OW24829   3.652   1.600   6.778 -0.2810  0.3296  0.2727
 4398SOL    HW124830   3.576   1.657   6.766 -0.9657 -0.1914  2.1199
 4398SOL    HW224831   3.616   1.558   6.856  0.5356 -0.3170  0.2976
 4399SOL     OW24832   3.256   3.536   7.777 -0.2567 -0.4674 -0.4224
 4399SOL    HW124833   3.169   3.575   7.780 -0.3362 -0.8212  1.7139
 4399SOL    HW224834   3.291   3.579   7.699  2.6266 -0.4943  0.8519
 4400SOL     OW24835   0.564   4.486   0.840  0.3293 -0.3708 -0.3642
 4400SOL    HW124836   0.621   4.540   0.786  0.8356 -1.2158 -0.6769
 4400SOL    HW224837   0.505   4.456   0.770  0.2699 -0.1555 -0.4063
 4401SOL     OW24838   3.395   3.540  14.215 -0.2058 -0.5015 -0.2904
 4401SOL    HW124839   3.358   3.537  14.127  0.2041  0.4154 -0.4983
 4401SOL    HW224840   3.382   3.634  14.229 -2.1499 -0.5397 -1.8696
 4402SOL     OW24841   0.890   1.350   7.272 -0.0638  0.1117  0.7034
 4402SOL    HW124842   0.805   1.394   7.274 -0.5281 -0.6696 -1.9777
 4402SOL    HW224843   0.948   1.391   7.208 -2.0708  1.7200 -0.0952
 4403SOL     OW24844   0.583   0.813   7.319  0.2078  0.1160 -0.0214
 4403SOL    HW124845   0.564   0.826   7.226 -1.3586 -1.0027  0.1533
 4403SOL    HW224846   0.577   0.718   7.329 -1.0174  0.5196  3.0753
 4404SOL     OW24847   0.258   2.768   0.853 -0.4688 -0.5118 -0.0891
 4404SOL    HW124848   0.324   2.813   0.799  0.3380 -0.8768  0.5813
 4404SOL    HW224849   0.248   2.679   0.819  0.0476  0.0712 -1.7761
 4405SOL     OW24850   0.376   2.801   6.697  0.3507 -0.2443  0.3917
 4405SOL    HW124851   0.447   2.850   6.657  1.2114 -2.1742 -0.4441
 4405SOL    HW224852   0.332   2.777   6.616  3.0262  0.1476 -1.1772
 4406SOL     OW24853   3.214   2.329   7.874  0.1628  0.4096  0.2076
 4406SOL    HW124854   3.231   2.423   7.881 -1.4372  0.6841  0.4791
 4406SOL    HW224855   3.300   2.301   7.907  0.0875 -0.1284 -0.0436
 4407SOL     OW24856   1.496   1.324   4.795 -0.6124 -0.0162 -0.6529
 4407SOL    HW124857   1.562   1.259   4.818  1.7804  1.9124 -2.1648
 4407SOL    HW224858   1.437   1.319   4.871  0.7163  1.7386  0.4794
 4408SOL     OW24859   4.135   4.094   6.506 -0.1635  0.1535  0.0308
 4408SOL    HW124860   4.068   4.107   6.573 -0.5841 -0.3906 -0.2938
 4408SOL    HW224861   4.088   4.126   6.429  0.9849  0.1447 -0.6863
 4409SOL     OW24862   1.971   1.999   7.141  0.1980 -0.2823  0.3384
 4409SOL    HW124863   2.006   1.916   7.173 -0.9298 -0.2522  1.6564
 4409SOL    HW224864   2.035   2.036   7.081 -0.9443  3.5670  1.4919
 4410SOL     OW24865   0.725   2.530   4.019  0.3416  0.4292  0.2752
 4410SOL    HW124866   0.751   2.443   3.987  0.4147  0.6179 -0.1698
 4410SOL    HW224867   0.637   2.531   3.982  0.2585 -0.6743  0.4198
 4411SOL     OW24868   2.963   3.702   9.282  0.3267 -0.3292  0.3790
 4411SOL    HW124869   2.948   3.623   9.230 -3.1005 -0.9163  2.2102
 4411SOL    HW224870   3.057   3.689   9.277  0.2719 -0.6645  0.2097
 4412SOL     OW24871   1.216   0.350   5.584  0.6768 -0.7917  0.5202
 4412SOL    HW124872   1.276   0.416   5.550 -0.6083 -1.4763 -3.0536
 4412SOL    HW224873   1.166   0.406   5.644 -0.3323 -0.5621 -0.5347
 4413SOL     OW24874   3.202   1.676   6.299 -0.0255  0.1794 -0.5807
 4413SOL    HW124875   3.142   1.734   6.346 -0.2355 -0.7314  0.2716
 4413SOL    HW224876   3.287   1.716   6.318  0.1248  0.4035 -1.7250
 4414SOL     OW24877   0.430   2.772   6.074  0.2067  0.4701 -0.7237
 4414SOL    HW124878   0.338   2.755   6.095  0.6137 -0.6349  0.1922
 4414SOL    HW224879   0.468   2.705   6.131  0.5705 -0.6660 -2.3098
 4415SOL     OW24880   2.484   2.795  17.246 -0.3945  0.2860  0.0597
 4415SOL    HW124881   2.469   2.701  17.255 -2.2003  0.4881 -0.8196
 4415SOL    HW224882   2.570   2.805  17.287  0.3709  1.5570 -1.8762
 4416SOL     OW24883   3.346   1.731   9.909 -0.0220 -0.6187  0.2419
 4416SOL    HW124884   3.361   1.659   9.970 -2.8664 -2.1318 -0.8316
 4416SOL    HW224885   3.437   1.760   9.900  0.2508 -0.9801  1.9718
 4417SOL     OW24886   3.835   4.445   3.651 -0.4800 -0.1219 -0.0653
 4417SOL    HW124887   3.926   4.462   3.677 -0.1861 -1.1738 -0.3932
 4417SOL    HW224888   3.810   4.375   3.711  0.7640 -0.6839 -0.1854
 4418SOL     OW24889   3.795   3.990   0.802 -0.3018  0.2030 -0.2047
 4418SOL    HW124890   3.804   3.986   0.707  1.2764 -2.2874  0.0217
 4418SOL    HW224891   3.731   4.060   0.801  0.8113  1.2080 -1.3815
 4419SOL     OW24892   4.401   3.336   6.287  0.4678 -0.3209  0.3878
 4419SOL    HW124893   4.392   3.425   6.320 -0.5786  0.0074 -0.8087
 4419SOL    HW224894   4.344   3.288   6.348 -0.8524 -1.7934 -2.0014
 4420SOL     OW24895   0.595   4.648   7.754 -0.2752 -0.1408  0.0763
 4420SOL    HW124896   0.594   4.602   7.838  1.3375 -1.3577 -0.5592
 4420SOL    HW224897   0.667   4.605   7.708 -1.3999 -0.1215 -1.7071
 4421SOL     OW24898   3.656   2.234  14.457  0.5907  0.1604  0.2268
 4421SOL    HW124899   3.633   2.317  14.500 -1.6725 -0.6148  0.4785
 4421SOL    HW224900   3.634   2.266  14.369  0.8652 -0.8936 -0.2242
 4422SOL     OW24901   0.781   2.380   7.548 -0.4839  0.3846 -0.3969
 4422SOL    HW124902   0.876   2.382   7.557 -0.4796 -1.3511  0.0060
 4422SOL    HW224903   0.773   2.399   7.455  0.7290 -0.8665 -0.7588
 4423SOL     OW24904   3.884   3.848  16.978  0.0816 -0.0066  0.1336
 4423SOL    HW124905   3.945   3.821  16.910  0.9141  0.4624  0.6789
 4423SOL    HW224906   3.823   3.902  16.928 -0.9904 -0.9363  0.4409
 4424SOL     OW24907   2.011   1.972   3.729  0.1949  0.3081  0.0036
 4424SOL    HW124908   2.018   1.955   3.823  1.8481 -0.2569 -0.2298
 4424SOL    HW224909   1.919   1.954   3.713  0.2907  0.1205 -0.3297
 4425SOL     OW24910   4.447   0.934   4.922  0.1053  0.4352 -0.2777
 4425SOL    HW124911   4.463   0.948   4.829  0.2176 -1.1648 -0.5042
 4425SOL    HW224912   4.523   0.963   4.973  0.9110 -0.5239 -0.9164
 4426SOL     OW24913   0.844   4.549   4.675  0.1077 -0.3057  0.3324
 4426SOL    HW124914   0.860   4.606   4.600 -0.4216  0.7948  1.0526
 4426SOL    HW224915   0.861   4.460   4.645 -3.1113 -0.9552  0.4657
 4427SOL     OW24916   3.881   0.152   8.173  0.1049  0.0677  0.4673
 4427SOL    HW124917   3.818   0.155   8.101 -2.2226  2.0183  2.5933
 4427SOL    HW224918   3.845   0.090   8.237 -0.2017  0.6162  0.8246
 4428SOL     OW24919   0.708   0.406   9.725  0.3814  0.5877  0.2738
 4428SOL    HW124920   0.679   0.378   9.638 -1.7480 -2.2653  1.9305
 4428SOL    HW224921   0.620   0.405   9.763 -0.8866  1.1625 -2.6333
 4429SOL     OW24922   2.474   0.269  11.447  0.2536 -0.6771 -0.7471
 4429SOL    HW124923   2.567   0.281  11.426 -0.1452  2.3283 -0.7842
 4429SOL    HW224924   2.469   0.231  11.534 -0.8063 -1.1659 -1.0256
 4430SOL     OW24925   3.499   0.498   5.548 -0.0553  0.2826  0.3628
 4430SOL    HW124926   3.588   0.497   5.514 -0.5886  0.4892 -1.0282
 4430SOL    HW224927   3.499   0.581   5.595  1.2100  0.9553 -0.8541
 4431SOL     OW24928   1.757   0.727   0.971 -0.1943  0.1755  0.3409
 4431SOL    HW124929   1.718   0.811   0.946 -1.4699 -0.5228 -0.0112
 4431SOL    HW224930   1.691   0.676   0.925  2.1272 -0.4775 -2.2525
 4432SOL     OW24931   1.717   4.539   6.617 -0.5864  0.3424  0.3467
 4432SOL    HW124932   1.656   4.476   6.578  1.0262 -0.7297 -0.4687
 4432SOL    HW224933   1.648   4.593   6.655 -2.3982 -1.2263 -0.6968
 4433SOL     OW24934   4.710   0.254   3.740  0.0785  0.5810  0.1790
 4433SOL    HW124935   0.052   0.294   3.754  1.3955 -2.2155  0.2583
 4433SOL    HW224936   4.712   0.212   3.654 -2.4078  1.4382 -0.2898
 4434SOL     OW24937   4.055   3.508   1.335 -0.6368  0.2007  0.3891
 4434SOL    HW124938   4.098   3.593   1.332 -1.9242  0.8397  0.2525
 4434SOL    HW224939   4.107   3.456   1.273 -2.4144  0.3260 -1.2167
 4435SOL     OW24940   1.034   3.519   2.878 -0.0667 -0.1234 -0.8998
 4435SOL    HW124941   1.045   3.461   2.803  0.3290 -0.8420 -0.2874
 4435SOL    HW224942   1.054   3.475   2.960  0.1183  0.7407 -0.4840
 4436SOL     OW24943   0.412   2.140   6.402  0.1450  0.2912 -0.0189
 4436SOL    HW124944   0.485   2.130   6.342  0.0554 -1.8258  0.2271
 4436SOL    HW224945   0.360   2.209   6.360 -1.0221 -0.7159 -0.2386
 4437SOL     OW24946   0.311   3.668   3.689  0.3114  0.0083 -0.1972
 4437SOL    HW124947   0.254   3.739   3.720 -0.5079 -0.5047 -0.5423
 4437SOL    HW224948   0.349   3.640   3.772  0.8061  0.8741 -0.1320
 4438SOL     OW24949   0.808   1.337   4.780  0.8804 -0.2387  0.2569
 4438SOL    HW124950   0.714   1.319   4.780  0.1657  3.6358 -2.3908
 4438SOL    HW224951   0.842   1.309   4.696 -0.2509  1.5815 -0.8069
 4439SOL     OW24952   0.253   4.356   4.488 -0.1682  0.0492  0.3073
 4439SOL    HW124953   0.218   4.267   4.497 -0.6436  0.3538  1.4804
 4439SOL    HW224954   0.253   4.358   4.392  0.5971  1.3008  0.3387
 4440SOL     OW24955   4.034   3.590   5.512  0.3609 -0.4978 -0.1805
 4440SOL    HW124956   3.943   3.591   5.544  0.7403  2.0500  0.7965
 4440SOL    HW224957   4.083   3.668   5.534 -0.7941 -0.0975  0.9943
 4441SOL     OW24958   3.049   0.966   6.955  0.4498  0.0883 -0.4784
 4441SOL    HW124959   3.134   0.939   6.991  0.8414 -2.8804 -3.6200
 4441SOL    HW224960   3.040   0.912   6.877  0.4979 -0.9922  0.2692
 4442SOL     OW24961   3.027   2.795   3.045  0.0548 -0.9891  0.5527
 4442SOL    HW124962   3.022   2.799   3.141  0.8635  0.1131  0.5496
 4442SOL    HW224963   2.947   2.746   3.025  0.5128 -2.2033  1.6674
 4443SOL     OW24964   3.202   2.336   2.904  0.0664 -0.0357  0.4569
 4443SOL    HW124965   3.253   2.413   2.928 -1.4571  1.9386 -2.6735
 4443SOL    HW224966   3.260   2.260   2.909  1.5835  1.0131 -1.2417
 4444SOL     OW24967   1.919   2.215  16.631  0.9510 -0.2815  0.2770
 4444SOL    HW124968   1.863   2.270  16.577 -0.5019 -2.3298 -0.2792
 4444SOL    HW224969   1.855   2.182  16.694 -0.3077 -0.8207 -1.3113
 4445SOL     OW24970   0.950   0.860   3.666 -0.5270  0.1825 -0.0308
 4445SOL    HW124971   0.978   0.806   3.592 -0.1321  1.9379 -1.1624
 4445SOL    HW224972   0.916   0.940   3.625 -1.3082 -1.0967 -1.9254
 4446SOL     OW24973   1.512   0.156   8.018 -0.4437 -0.2652 -0.0980
 4446SOL    HW124974   1.521   0.195   8.105  0.0313 -0.0775 -0.2314
 4446SOL    HW224975   1.439   0.101   8.045 -0.9298 -0.0912 -1.0425
 4447SOL     OW24976   1.463   1.837   5.394  0.2399  0.4927  0.1670
 4447SOL    HW124977   1.558   1.849   5.389  0.3325  0.4825  1.8090
 4447SOL    HW224978   1.429   1.866   5.310  0.4322  0.6558  0.1446
 4448SOL     OW24979   3.307   0.412   0.776  0.1158  0.1849 -0.4371
 4448SOL    HW124980   3.387   0.359   0.777 -1.7470 -2.6330  1.0173
 4448SOL    HW224981   3.316   0.463   0.856 -1.9638  1.1579 -0.8102
 4449SOL     OW24982   4.622   0.261  12.411  0.0982 -0.3342  0.1236
 4449SOL    HW124983   4.686   0.316  12.365  0.2137 -0.1109  0.5484
 4449SOL    HW224984   4.544   0.297  12.369  0.9124  0.2686 -0.8864
 4450SOL     OW24985   3.036   2.146   4.009  0.6971 -0.0897  0.6758
 4450SOL    HW124986   3.127   2.131   4.031  0.0423 -4.0262  0.7105
 4450SOL    HW224987   2.990   2.109   4.084  0.3449 -0.5909  0.2168
 4451SOL     OW24988   0.035   2.874   3.518  0.1425  0.9327 -0.1573
 4451SOL    HW124989   0.090   2.945   3.485 -0.7865  1.1847 -1.1550
 4451SOL    HW224990   0.093   2.807   3.555  1.0116  2.9939  2.2252
 4452SOL     OW24991   3.477   1.172   7.812  0.1883  0.3272 -0.5265
 4452SOL    HW124992   3.455   1.202   7.724  1.5132 -0.3244 -1.0951
 4452SOL    HW224993   3.455   1.255   7.853  0.5177 -0.2307  0.8055
 4453SOL     OW24994   1.773   2.432   0.183 -0.5840  1.4362  0.0474
 4453SOL    HW124995   1.688   2.422   0.139 -1.1079 -0.2839  1.4208
 4453SOL    HW224996   1.756   2.504   0.242  1.3207  0.0230  2.3058
 4454SOL     OW24997   3.540   2.702   5.988 -0.3522 -0.2464  0.3809
 4454SOL    HW124998   3.506   2.782   6.029  1.6976  0.3930  0.8317
 4454SOL    HW224999   3.617   2.732   5.939  0.2015 -0.0528  1.3642
 4455SOL     OW25000   4.326   0.852  11.825  0.8654 -0.2152 -0.5302
 4455SOL    HW125001   4.253   0.912  11.840  1.0153 -0.3071  0.5691
 4455SOL    HW225002   4.325   0.783  11.891  2.4347  1.4348  1.2219
 4456SOL     OW25003   4.370   1.375  10.098 -0.5141  0.0039  0.5110
 4456SOL    HW125004   4.434   1.345  10.162 -0.6016 -1.6761 -0.2137
 4456SOL    HW225005   4.429   1.394  10.025 -1.5886 -1.0643 -0.6196
 4457SOL     OW25006   1.573   4.158   2.076  0.1918  0.2280  0.2837
 4457SOL    HW125007   1.484   4.193   2.065  0.5655  1.6843  1.9113
 4457SOL    HW225008   1.594   4.171   2.169 -0.3134 -1.2232  0.5965
 4458SOL     OW25009   1.621   0.298  13.871  0.2789 -0.6694  0.3143
 4458SOL    HW125010   1.709   0.318  13.839 -0.4288 -1.4063 -2.0444
 4458SOL    HW225011   1.573   0.315  13.791 -1.1771 -1.1665  1.0802
 4459SOL     OW25012   3.045   3.752  17.387  0.3462  0.2155  0.2431
 4459SOL    HW125013   3.045   3.660  17.411  0.0055  0.5160  1.4001
 4459SOL    HW225014   3.014   3.804  17.462 -0.7067 -3.9005  2.6166
 4460SOL     OW25015   2.522   3.411   4.761  0.2451 -0.3695 -0.0004
 4460SOL    HW125016   2.470   3.331   4.760 -0.8156  0.3281 -0.1283
 4460SOL    HW225017   2.602   3.394   4.710 -0.7174 -2.3332 -0.8552
 4461SOL     OW25018   1.511   3.344   8.886  0.2863 -0.8441 -0.4666
 4461SOL    HW125019   1.424   3.378   8.908  0.2241 -1.9280  1.0221
 4461SOL    HW225020   1.494   3.253   8.912 -3.0434 -0.2323 -0.5152
 4462SOL     OW25021   4.067   0.702  16.831  0.4371  0.0025  0.0902
 4462SOL    HW125022   4.057   0.796  16.814  3.1212  0.6868  2.3040
 4462SOL    HW225023   4.121   0.715  16.909  1.6574  0.3693 -0.8273
 4463SOL     OW25024   3.498   0.737   5.022  0.0061  0.2321  0.0761
 4463SOL    HW125025   3.494   0.753   5.117 -1.4510 -0.9361  0.2192
 4463SOL    HW225026   3.466   0.647   5.017  2.2241 -0.6855  2.2790
 4464SOL     OW25027   0.598   2.726   7.724  0.1216  0.5106  1.0250
 4464SOL    HW125028   0.613   2.799   7.783  1.3788  0.7085  0.4609
 4464SOL    HW225029   0.506   2.740   7.701  0.1653  0.5927  0.8972
 4465SOL     OW25030   3.191   4.067   5.002  0.0334  0.6955  0.0184
 4465SOL    HW125031   3.204   3.973   4.988  1.9123  0.7783  1.1476
 4465SOL    HW225032   3.271   4.104   4.966  1.2423 -0.6292  1.3036
 4466SOL     OW25033   1.007   4.129   7.651  0.6473 -0.2688  0.2201
 4466SOL    HW125034   0.972   4.149   7.565 -1.3915 -0.4809  0.9949
 4466SOL    HW225035   1.029   4.216   7.684  0.1493 -0.2358  0.4679
 4467SOL     OW25036   2.849   2.743  13.378 -0.0304 -0.0692 -0.4803
 4467SOL    HW125037   2.844   2.830  13.418 -0.3333  0.2062 -1.1236
 4467SOL    HW225038   2.760   2.708  13.375  0.2701 -0.6950 -1.8902
 4468SOL     OW25039   0.952   4.238   6.551  0.4192  0.3174 -0.2477
 4468SOL    HW125040   0.950   4.152   6.593  2.2472  0.9715  1.1739
 4468SOL    HW225041   1.014   4.282   6.608 -0.1399 -1.0052  1.3910
 4469SOL     OW25042   4.419   0.025   8.365  0.2065  0.3035 -0.0043
 4469SOL    HW125043   4.385   0.098   8.417  2.8731  0.2500  1.8026
 4469SOL    HW225044   4.336   4.734   8.332 -1.1475  1.5770  2.1087
 4470SOL     OW25045   2.657   2.150   7.748 -0.4466 -0.2000  0.2587
 4470SOL    HW125046   2.675   2.119   7.837  0.9806  0.0964  0.0817
 4470SOL    HW225047   2.579   2.203   7.765 -1.9549 -1.4969 -2.5737
 4471SOL     OW25048   0.166   3.181  12.908 -0.4533 -0.6071 -0.0773
 4471SOL    HW125049   0.099   3.113  12.916 -0.3861 -0.8047 -1.2299
 4471SOL    HW225050   0.112   3.252  12.874  1.9647  1.6870  0.8809
 4472SOL     OW25051   4.186   2.918   9.364 -0.1505 -0.1773 -0.7103
 4472SOL    HW125052   4.190   3.006   9.401 -1.7743 -0.2464 -0.4007
 4472SOL    HW225053   4.138   2.880   9.437  1.8073  0.4125  0.8959
 4473SOL     OW25054   3.441   3.116   6.357 -0.4747 -0.4757 -0.1448
 4473SOL    HW125055   3.378   3.073   6.300 -0.3885 -0.5399 -0.1913
 4473SOL    HW225056   3.472   3.193   6.309  0.3168  0.5532  1.9955
 4474SOL     OW25057   3.325   1.694   7.927 -0.6555  0.2512  0.0748
 4474SOL    HW125058   3.339   1.763   7.862  2.8191  1.0214  1.6264
 4474SOL    HW225059   3.264   1.734   7.989 -0.2062  0.1251  0.5925
 4475SOL     OW25060   2.915   2.187  15.697 -0.0456  0.2836  0.5085
 4475SOL    HW125061   2.843   2.158  15.754  0.4809  3.4515  2.7597
 4475SOL    HW225062   2.958   2.104  15.678 -0.1041  0.7814 -1.8769
 4476SOL     OW25063   2.602   1.341  16.652 -0.3746 -0.3308 -0.5969
 4476SOL    HW125064   2.630   1.432  16.639 -2.2338  0.3459  0.2075
 4476SOL    HW225065   2.678   1.291  16.683 -0.8350 -0.9293 -0.4419
 4477SOL     OW25066   3.208   1.718   8.376  0.3571  1.1784 -0.2849
 4477SOL    HW125067   3.245   1.648   8.430 -0.3643  1.1585  0.1835
 4477SOL    HW225068   3.238   1.791   8.430  0.8064 -0.0324  1.0792
 4478SOL     OW25069   2.712   3.605  17.215  0.6486 -0.2143  0.2585
 4478SOL    HW125070   2.679   3.683  17.260  2.3358  0.6795 -0.0591
 4478SOL    HW225071   2.648   3.537  17.237  1.5456 -0.3327  2.4899
 4479SOL     OW25072   1.773   4.041   4.196 -0.1022  0.1790 -0.3076
 4479SOL    HW125073   1.859   4.083   4.197  0.8226 -1.6835 -0.4345
 4479SOL    HW225074   1.737   4.061   4.110  1.9416  0.6358 -1.0586
 4480SOL     OW25075   1.078   2.105  16.452  0.2705  0.0479 -0.7268
 4480SOL    HW125076   1.129   2.112  16.532 -0.8833 -0.4320  0.0476
 4480SOL    HW225077   0.990   2.116  16.487  0.5771  4.0548 -1.1309
 4481SOL     OW25078   2.029   2.279   9.415 -0.6965  0.2141 -0.0463
 4481SOL    HW125079   2.070   2.197   9.389  0.3833  0.4219  1.0026
 4481SOL    HW225080   2.097   2.325   9.463  0.6301 -0.7265 -1.0395
 4482SOL     OW25081   0.952   3.781   6.766  0.4080 -0.7598  0.4778
 4482SOL    HW125082   0.861   3.751   6.776  0.0531  0.7375  1.6738
 4482SOL    HW225083   0.992   3.699   6.737  0.5864 -0.9254  1.2020
 4483SOL     OW25084   1.100   4.734   6.701 -0.6470  0.3984 -0.1608
 4483SOL    HW125085   1.007   4.714   6.713 -0.8116  1.0289 -0.3929
 4483SOL    HW225086   1.091   0.025   6.612 -1.1324  1.8699  0.4514
 4484SOL     OW25087   3.181   4.096  17.707 -0.7975  0.7476 -0.0387
 4484SOL    HW125088   3.093   4.073  17.740 -2.3162 -0.2665 -4.8171
 4484SOL    HW225089   3.161   4.172  17.652 -0.8581  0.8754  0.1604
 4485SOL     OW25090   4.694   2.448  17.022 -0.1455 -0.2588  0.7042
 4485SOL    HW125091   4.697   2.414  16.932 -1.2073  0.5740  0.3519
 4485SOL    HW225092   4.742   2.530  17.012  0.7351 -0.6782  1.4742
 4486SOL     OW25093   3.508   1.373   3.682 -0.1291  0.1938  0.2838
 4486SOL    HW125094   3.421   1.413   3.669  0.2922  1.0088 -0.0418
 4486SOL    HW225095   3.494   1.285   3.647  1.6153  0.5109 -1.1924
 4487SOL     OW25096   0.513   4.547  16.920  0.0350 -0.6528  0.0500
 4487SOL    HW125097   0.547   4.532  16.832  0.3507  0.0926  0.0446
 4487SOL    HW225098   0.596   4.544  16.966  0.9460  2.2689 -1.4193
 4488SOL     OW25099   1.610   1.274   1.291 -0.0345 -0.2052 -0.1847
 4488SOL    HW125100   1.662   1.206   1.249 -0.4506  0.1099 -1.2146
 4488SOL    HW225101   1.647   1.268   1.379 -0.1838  1.5591 -0.0027
 4489SOL     OW25102   1.022   2.801   2.986 -0.1870  0.3014 -0.2876
 4489SOL    HW125103   0.963   2.876   2.987 -2.0936 -1.1887 -1.0081
 4489SOL    HW225104   0.994   2.745   3.059 -0.8207 -1.1510 -1.6519
 4490SOL     OW25105   1.909   4.493  15.414  0.2134  0.1597 -0.1915
 4490SOL    HW125106   1.886   4.478  15.322  1.0562  0.5750 -0.4756
 4490SOL    HW225107   1.857   4.423  15.453  0.7434  0.6929  1.4708
 4491SOL     OW25108   4.539   3.360   3.109  0.3224  0.2685  1.1220
 4491SOL    HW125109   4.455   3.388   3.073  0.9999 -0.9767 -1.4242
 4491SOL    HW225110   4.601   3.433   3.102  0.3205  0.0855 -0.5851
 4492SOL     OW25111   3.700   0.432  14.987  0.5984  0.2530 -0.4349
 4492SOL    HW125112   3.637   0.467  14.923 -0.7235 -0.7439  0.3083
 4492SOL    HW225113   3.651   0.355  15.016  0.3763  0.6188  0.1490
 4493SOL     OW25114   4.200   2.613   8.215  0.1563 -0.1301 -0.4910
 4493SOL    HW125115   4.168   2.703   8.201 -1.1435 -0.5439 -0.1390
 4493SOL    HW225116   4.294   2.628   8.225 -0.0020  0.5235  0.0759
 4494SOL     OW25117   0.340   4.261  14.176 -0.1351  0.2084  0.3006
 4494SOL    HW125118   0.308   4.294  14.260 -1.7595  1.3556 -0.7639
 4494SOL    HW225119   0.430   4.235  14.192 -0.2706  1.5662  3.2709
 4495SOL     OW25120   0.794   4.425   3.990 -0.2636  0.5015 -0.2402
 4495SOL    HW125121   0.831   4.492   4.048  1.1907 -0.9022  0.4746
 4495SOL    HW225122   0.780   4.355   4.054  0.2462 -0.3176 -1.0294
 4496SOL     OW25123   4.569   3.152   7.510 -0.2656 -0.4956 -0.3269
 4496SOL    HW125124   4.593   3.203   7.433  0.7243  1.7125  1.4391
 4496SOL    HW225125   4.650   3.144   7.560 -0.7888 -0.4743  0.5196
 4497SOL     OW25126   2.385   2.914   9.417  0.1778  0.1898 -0.0390
 4497SOL    HW125127   2.423   2.949   9.337  0.2503  1.2376  0.4618
 4497SOL    HW225128   2.454   2.938   9.478  0.5583 -0.3498 -0.2575
 4498SOL     OW25129   1.377   3.027   1.030  0.0595  0.1555 -0.0865
 4498SOL    HW125130   1.286   3.052   1.047  0.4354 -0.2210  2.4480
 4498SOL    HW225131   1.424   3.100   1.070 -0.9467  0.9987 -0.4372
 4499SOL     OW25132   1.566   4.234   5.691 -0.0859 -0.2090  0.0991
 4499SOL    HW125133   1.624   4.226   5.615 -0.7265  0.1740 -0.4240
 4499SOL    HW225134   1.619   4.284   5.753  1.1576  1.3710 -2.2113
 4500SOL     OW25135   0.460   2.799   7.069  0.3063  0.0414 -0.5051
 4500SOL    HW125136   0.454   2.727   7.006 -2.6224  0.5420 -0.7816
 4500SOL    HW225137   0.492   2.868   7.011  2.2239  0.7079  1.3289
 4501SOL     OW25138   4.389   3.290   6.714 -0.3053  0.0077  0.0394
 4501SOL    HW125139   4.326   3.286   6.643 -1.3117 -0.0688  0.9390
 4501SOL    HW225140   4.457   3.354   6.693 -1.4080  0.8702 -0.8576
 4502SOL     OW25141   3.505   1.798  15.775  0.1166  0.5914 -0.1873
 4502SOL    HW125142   3.594   1.783  15.743 -1.6513 -2.6140 -3.6543
 4502SOL    HW225143   3.524   1.770  15.864  1.8858  0.9724 -0.4312
 4503SOL     OW25144   2.470   0.853   3.398  0.2446  0.6053 -0.3189
 4503SOL    HW125145   2.419   0.810   3.329 -0.8002  0.5428  0.5028
 4503SOL    HW225146   2.406   0.914   3.434 -1.2163 -0.8283 -0.5161
 4504SOL     OW25147   0.016   1.338   4.588  0.8241 -0.3859 -0.1264
 4504SOL    HW125148   0.004   1.417   4.640 -1.6298 -0.4411 -0.5844
 4504SOL    HW225149   0.109   1.323   4.605  0.7031 -2.0402 -0.9529
 4505SOL     OW25150   3.481   1.468   4.632 -0.1166  0.5007 -0.0630
 4505SOL    HW125151   3.536   1.546   4.629 -2.7556  2.3041 -1.1436
 4505SOL    HW225152   3.547   1.398   4.637 -0.4832  0.3626  3.1284
 4506SOL     OW25153   3.328   4.532   4.803  0.2407 -0.3719 -0.0356
 4506SOL    HW125154   3.339   4.484   4.721  1.3063  0.3361 -0.3005
 4506SOL    HW225155   3.253   4.587   4.779  0.6786 -0.0352 -0.6545
 4507SOL     OW25156   3.093   2.929  15.706  0.2569  0.0088  0.0139
 4507SOL    HW125157   3.032   3.001  15.724  0.9460  0.8432 -1.0156
 4507SOL    HW225158   3.100   2.881  15.788 -1.7395  0.5195  0.4829
 4508SOL     OW25159   1.436   2.489   8.223 -0.5635  0.1323 -0.4741
 4508SOL    HW125160   1.519   2.451   8.252 -1.0641  0.8672  1.8860
 4508SOL    HW225161   1.381   2.414   8.248  2.6939 -1.3180  2.4018
 4509SOL     OW25162   1.201   2.336   8.833 -0.8094  0.2489  0.1322
 4509SOL    HW125163   1.259   2.367   8.764 -0.4479 -0.5795  0.0644
 4509SOL    HW225164   1.149   2.266   8.794 -1.2210  0.6435 -0.0260
 4510SOL     OW25165   1.305   2.057  14.573 -0.3704 -0.1768 -0.0231
 4510SOL    HW125166   1.364   2.111  14.520 -0.6153  0.7940  0.6832
 4510SOL    HW225167   1.223   2.100  14.548 -0.2282  0.0057 -0.1786
 4511SOL     OW25168   3.871   3.780   2.811  0.2391  0.3268 -0.1658
 4511SOL    HW125169   3.956   3.756   2.848 -0.3008  1.0769  1.5167
 4511SOL    HW225170   3.819   3.707   2.845 -0.9024  0.7833 -0.9100
 4512SOL     OW25171   1.255   1.360   4.195 -0.1199 -0.0137 -0.5043
 4512SOL    HW125172   1.177   1.363   4.250  1.2156  1.7274  1.2644
 4512SOL    HW225173   1.305   1.432   4.232  0.7827 -0.1344 -1.4872
 4513SOL     OW25174   0.246   2.327   6.247 -0.2934  0.1450 -0.7870
 4513SOL    HW125175   0.201   2.382   6.312  1.9094  0.6104  0.3287
 4513SOL    HW225176   0.287   2.399   6.198 -0.6790  1.3670  0.6694
 4514SOL     OW25177   1.236   0.360   3.217  0.0070  0.5020  0.0227
 4514SOL    HW125178   1.286   0.281   3.238 -2.0853 -0.6403  0.7089
 4514SOL    HW225179   1.276   0.412   3.286 -0.7601  2.1482 -0.7806
 4515SOL     OW25180   4.528   0.399   3.573 -0.1046 -0.1412  0.4108
 4515SOL    HW125181   4.596   0.374   3.635  2.6079  3.7738 -0.9492
 4515SOL    HW225182   4.467   0.435   3.637 -0.3047 -0.7644  0.5694
 4516SOL     OW25183   1.326   0.887   7.760  0.1998  0.1063  0.3129
 4516SOL    HW125184   1.345   0.863   7.670  1.2705 -1.3483  0.9226
 4516SOL    HW225185   1.351   0.800   7.792 -1.2745 -0.3240  0.2986
 4517SOL     OW25186   2.376   0.673   7.816 -0.1474 -0.1847  0.1298
 4517SOL    HW125187   2.311   0.634   7.876 -0.0567 -0.4565  0.0523
 4517SOL    HW225188   2.348   0.762   7.838 -1.1429 -1.0801  2.4760
 4518SOL     OW25189   0.297   0.904   3.124 -0.2897  1.3349  0.3539
 4518SOL    HW125190   0.337   0.824   3.088 -0.1059  1.2136  0.8251
 4518SOL    HW225191   0.316   0.963   3.051 -1.9608  0.8270 -0.4884
 4519SOL     OW25192   1.502   1.177   5.119  0.1454 -0.1444  0.1219
 4519SOL    HW125193   1.466   1.125   5.192  0.8065 -0.0481  0.5131
 4519SOL    HW225194   1.419   1.204   5.079  0.9805  1.2868 -0.6262
 4520SOL     OW25195   3.162   0.027  16.286 -0.0935 -0.2100 -0.2595
 4520SOL    HW125196   3.078   0.062  16.256  0.8993  1.8467 -0.6928
 4520SOL    HW225197   3.161   0.035  16.381 -0.1706  0.6840 -0.3302
 4521SOL     OW25198   0.510   0.929   1.527 -0.0850 -0.0287 -0.3459
 4521SOL    HW125199   0.425   0.970   1.539  0.9900  1.4753  2.1846
 4521SOL    HW225200   0.499   0.835   1.516  1.9721  0.0472 -3.1825
 4522SOL     OW25201   4.596   4.197   7.086 -0.3186 -0.1372  0.1458
 4522SOL    HW125202   4.598   4.248   7.005  0.6349  3.8016  2.5854
 4522SOL    HW225203   4.676   4.223   7.132 -0.5038 -0.0414  0.4174
 4523SOL     OW25204   4.450   3.867   3.768  0.2708  0.2941  0.0459
 4523SOL    HW125205   4.427   3.906   3.853  0.1009  0.7580 -0.2156
 4523SOL    HW225206   4.484   3.944   3.722  1.5480 -1.3903 -1.8335
 4524SOL     OW25207   2.444   1.457   2.986  0.0547 -0.0735  0.0837
 4524SOL    HW125208   2.482   1.387   3.039 -1.1970 -0.2410  0.7593
 4524SOL    HW225209   2.483   1.527   3.039  0.5195  0.1676 -0.5832
 4525SOL     OW25210   1.721   1.436   3.053 -0.2162  0.6303  0.2347
 4525SOL    HW125211   1.697   1.473   2.969 -1.1409 -1.0949 -0.2547
 4525SOL    HW225212   1.753   1.352   3.018  0.1334  1.0460 -0.4321
 4526SOL     OW25213   1.299   2.090   8.181  0.0360 -0.9336  0.3798
 4526SOL    HW125214   1.246   2.161   8.217  1.2468  0.2748 -0.2206
 4526SOL    HW225215   1.380   2.106   8.230 -0.3921  0.5114  0.6307
 4527SOL     OW25216   1.441   2.237  16.412 -0.5083 -0.4533  0.2958
 4527SOL    HW125217   1.453   2.259  16.505  2.7263  1.2101 -0.5089
 4527SOL    HW225218   1.466   2.321  16.373 -0.6390  0.6886  2.6440
 4528SOL     OW25219   4.422   4.686  12.365  0.3428 -0.5542 -0.4329
 4528SOL    HW125220   4.425   4.596  12.334 -2.1241 -0.1454 -1.9205
 4528SOL    HW225221   4.353   4.680  12.431 -0.9169  0.1889 -1.6799
 4529SOL     OW25222   3.049   2.211   2.299  0.6812 -0.2090 -0.0417
 4529SOL    HW125223   2.988   2.213   2.373 -0.2370 -0.6853 -0.7830
 4529SOL    HW225224   3.118   2.277   2.309 -0.0861  0.7516 -1.0508
 4530SOL     OW25225   3.195   1.388   1.811  0.2463  0.3814 -0.0492
 4530SOL    HW125226   3.153   1.371   1.727  1.2959  0.9666 -0.6886
 4530SOL    HW225227   3.202   1.483   1.802  1.9177  0.2771  0.2531
 4531SOL     OW25228   2.158   4.739   8.669  0.4281  0.1132  0.1386
 4531SOL    HW125229   2.067   0.026   8.670  0.5434  0.5058 -0.9784
 4531SOL    HW225230   2.147   4.661   8.723  4.4483  0.7292  1.8426
 4532SOL     OW25231   1.760   2.058   6.935  0.8484  0.3320  0.2026
 4532SOL    HW125232   1.823   2.034   7.003  1.4909 -0.7752 -0.7749
 4532SOL    HW225233   1.809   2.041   6.854 -0.8181 -1.9345 -0.3160
 4533SOL     OW25234   4.672   1.524   1.084  0.0489  0.0089  0.0953
 4533SOL    HW125235   4.630   1.608   1.065  1.0123  0.6977  1.0137
 4533SOL    HW225236   4.611   1.481   1.143 -2.6165  0.0976 -2.5881
 4534SOL     OW25237   4.089   3.053   5.415 -0.0352  0.0334  0.5091
 4534SOL    HW125238   4.179   3.055   5.383  0.0591  2.4543  0.9378
 4534SOL    HW225239   4.066   3.146   5.410  0.1792  0.1379  1.4709
 4535SOL     OW25240   4.120   3.788   9.187 -0.0416 -0.0591  0.0878
 4535SOL    HW125241   4.167   3.867   9.212  1.4154 -1.2437  1.0794
 4535SOL    HW225242   4.052   3.789   9.255  0.4049  0.8713  0.5224
 4536SOL     OW25243   2.233   0.331   8.648  0.5963 -0.1182  0.6350
 4536SOL    HW125244   2.256   0.422   8.630  0.3712 -0.3505 -0.8429
 4536SOL    HW225245   2.201   0.297   8.565  2.1977  1.3193 -0.5683
 4537SOL     OW25246   1.353   3.305   2.977  0.2789 -0.6654  0.1232
 4537SOL    HW125247   1.296   3.334   3.047 -1.0839  0.6109 -1.5139
 4537SOL    HW225248   1.429   3.364   2.977 -1.5950  1.7676 -0.4510
 4538SOL     OW25249   4.205   0.854  17.031  0.4993  0.4293 -0.3799
 4538SOL    HW125250   4.214   0.949  17.041  1.8044  0.1475  0.9929
 4538SOL    HW225251   4.268   0.818  17.093 -0.8293 -2.3943 -0.6914
 4539SOL     OW25252   3.637   1.647   9.855 -0.2919  0.0943  0.1824
 4539SOL    HW125253   3.612   1.554   9.855  3.0377 -0.8131 -0.7924
 4539SOL    HW225254   3.699   1.650   9.928  0.9029  0.4497 -0.8531
 4540SOL     OW25255   4.077   0.711   8.834 -0.1443 -0.4481 -0.5209
 4540SOL    HW125256   3.992   0.750   8.814 -0.2022  1.0609  2.7880
 4540SOL    HW225257   4.137   0.736   8.764  0.5122 -0.6732 -0.0339
 4541SOL     OW25258   3.844   2.309  15.384 -0.1402  0.4924  0.1336
 4541SOL    HW125259   3.907   2.324  15.313 -0.3325 -2.2578 -0.6407
 4541SOL    HW225260   3.855   2.215  15.396 -1.3351  0.3736  0.2622
 4542SOL     OW25261   0.237   4.405   0.908  0.2757 -0.5232 -0.1674
 4542SOL    HW125262   0.287   4.326   0.885 -0.5346 -1.1816  0.3436
 4542SOL    HW225263   0.148   4.380   0.887 -0.6347  1.7294  1.0316
 4543SOL     OW25264   0.343   1.980   5.370  0.0781  0.5136 -0.4283
 4543SOL    HW125265   0.370   2.035   5.296 -1.3423  0.7592 -0.7585
 4543SOL    HW225266   0.260   2.022   5.392 -0.8650 -0.4720 -2.1000
 4544SOL     OW25267   1.318   1.832   6.368  0.3204 -0.5957 -0.4843
 4544SOL    HW125268   1.263   1.818   6.444  1.1433  2.2288  0.6325
 4544SOL    HW225269   1.266   1.906   6.338 -0.8205 -0.7272  1.2263
 4545SOL     OW25270   2.075   3.819   2.461  0.2106  0.0703  0.0437
 4545SOL    HW125271   2.086   3.861   2.546  0.2226  0.5022 -0.1714
 4545SOL    HW225272   2.162   3.796   2.429 -0.7727 -3.2624 -0.3192
 4546SOL     OW25273   1.839   1.720   5.486  0.3079  0.3015  0.5374
 4546SOL    HW125274   1.927   1.744   5.455  0.6803  0.6670  1.8788
 4546SOL    HW225275   1.787   1.797   5.462  2.3756  1.6745  0.4720
 4547SOL     OW25276   0.705   0.803   8.851  0.1305 -0.2367 -0.1775
 4547SOL    HW125277   0.766   0.783   8.922  1.0934  0.9682 -0.6550
 4547SOL    HW225278   0.620   0.800   8.895  0.0720 -0.4084 -0.3052
 4548SOL     OW25279   2.184   1.324   8.971  0.4350  0.2127  0.4016
 4548SOL    HW125280   2.268   1.279   8.978  0.3625  0.1884  1.1438
 4548SOL    HW225281   2.120   1.253   8.976 -0.8236  1.2951 -0.2664
 4549SOL     OW25282   0.475   2.442   3.328  0.1861  0.5067  0.2497
 4549SOL    HW125283   0.529   2.402   3.396 -0.5249  2.5821  2.0532
 4549SOL    HW225284   0.499   2.535   3.329 -0.1882  0.5980  1.6813
 4550SOL     OW25285   1.530   4.096   9.655 -1.1136  0.8516  0.1563
 4550SOL    HW125286   1.552   4.006   9.628 -0.1306  0.7998  1.1616
 4550SOL    HW225287   1.535   4.129   9.565  0.8128  1.0990  0.3623
 4551SOL     OW25288   0.888   0.938   2.969 -0.1228 -0.1880 -0.2739
 4551SOL    HW125289   0.967   0.984   2.997 -1.4601  0.9201  1.6744
 4551SOL    HW225290   0.917   0.848   2.958 -0.9638 -0.3931 -0.7649
 4552SOL     OW25291   3.834   0.216  12.262 -0.2229 -0.0970 -0.5528
 4552SOL    HW125292   3.924   0.221  12.230  0.2079 -1.3150  0.4530
 4552SOL    HW225293   3.793   0.201  12.177 -0.5149 -1.4769 -0.1707
 4553SOL     OW25294   0.081   1.003   7.583  0.1256  0.0579  0.5325
 4553SOL    HW125295   0.069   1.095   7.560  1.4383 -0.7090 -3.2399
 4553SOL    HW225296   0.173   0.995   7.556  0.7431 -0.1132  2.6487
 4554SOL     OW25297   0.759   0.320  13.376 -0.4203  0.0712  0.7098
 4554SOL    HW125298   0.698   0.280  13.437 -0.7029 -0.3569  0.1527
 4554SOL    HW225299   0.833   0.316  13.435 -0.4480  0.5058  0.7751
 4555SOL     OW25300   3.732   0.945   5.586  0.4032 -0.1854 -0.1797
 4555SOL    HW125301   3.750   1.037   5.568  0.2127 -0.0180  0.4778
 4555SOL    HW225302   3.803   0.923   5.646  0.3836  1.0154  0.2813
 4556SOL     OW25303   4.437   2.861  16.170 -0.1971 -0.0094 -0.3005
 4556SOL    HW125304   4.361   2.880  16.115  0.3682 -1.5320 -1.6094
 4556SOL    HW225305   4.508   2.919  16.142 -0.3426 -0.8257 -2.3753
 4557SOL     OW25306   1.590   4.061   9.932 -0.0197  0.0518 -0.7911
 4557SOL    HW125307   1.505   4.102   9.947 -0.7258 -1.4455 -0.6589
 4557SOL    HW225308   1.598   4.086   9.840 -1.7394 -0.3477 -1.0491
 4558SOL     OW25309   0.675   3.560   3.984  0.3685 -0.1305  0.3820
 4558SOL    HW125310   0.659   3.505   4.061  1.9171 -2.2243 -0.8004
 4558SOL    HW225311   0.595   3.613   3.987 -0.7859 -2.1392  4.3513
 4559SOL     OW25312   2.175   1.483  11.833 -0.1521 -0.0242 -0.3012
 4559SOL    HW125313   2.231   1.493  11.910  0.2803  3.4427 -1.0852
 4559SOL    HW225314   2.205   1.403  11.790  0.0552  0.4943 -1.1083
 4560SOL     OW25315   3.045   2.403   7.618 -0.1020  0.0048  0.1630
 4560SOL    HW125316   2.979   2.452   7.667  1.4672  0.5444  1.7358
 4560SOL    HW225317   2.983   2.348   7.570  2.1344 -3.0842  0.7492
 4561SOL     OW25318   4.729   1.457   8.671  0.7575 -0.4558 -0.4247
 4561SOL    HW125319   0.015   1.548   8.666 -0.6427  0.1148  1.8231
 4561SOL    HW225320   4.644   1.470   8.714  0.2484 -0.9015 -1.2779
 4562SOL     OW25321   2.931   4.057  13.684  0.2038 -0.2235  0.4365
 4562SOL    HW125322   2.877   3.989  13.725 -0.7943  0.8522  0.9163
 4562SOL    HW225323   2.914   4.132  13.742 -0.5444  1.0246 -1.4136
 4563SOL     OW25324   2.095   0.949   4.688  1.0585 -0.2409  0.0314
 4563SOL    HW125325   2.009   0.909   4.677  1.2408 -1.3128  2.4061
 4563SOL    HW225326   2.080   1.030   4.737  0.3990  0.0290 -0.6216
 4564SOL     OW25327   4.101   2.669  16.864  0.0557  0.8004 -0.1413
 4564SOL    HW125328   4.154   2.704  16.792 -1.7037  0.5272 -1.5610
 4564SOL    HW225329   4.108   2.575  16.845 -1.6776  0.5250  0.6037
 4565SOL     OW25330   1.887   3.257   9.096  0.4533  0.3735  0.1582
 4565SOL    HW125331   1.874   3.295   9.009  3.1015  0.2500 -0.2954
 4565SOL    HW225332   1.819   3.191   9.086  1.8036 -1.0215  0.2995
 4566SOL     OW25333   1.679   3.506  12.270 -0.5115 -0.1115  0.4496
 4566SOL    HW125334   1.733   3.554  12.332 -0.9373  2.1409 -0.9365
 4566SOL    HW225335   1.710   3.415  12.269 -2.0253 -0.6280 -0.5733
 4567SOL     OW25336   2.566   0.955   7.445 -0.4214  0.1418  0.4560
 4567SOL    HW125337   2.544   0.880   7.501  2.5375 -1.2377 -0.2359
 4567SOL    HW225338   2.651   0.929   7.410 -0.8555  0.8630 -1.1012
 4568SOL     OW25339   0.180   0.928   9.423 -0.9551 -0.7958  0.4156
 4568SOL    HW125340   0.260   0.876   9.427 -0.3921  0.0629  0.1305
 4568SOL    HW225341   0.166   0.949   9.515  1.8366  0.2540  0.5773
 4569SOL     OW25342   2.352   0.640   6.355 -0.0007 -0.5080  0.1961
 4569SOL    HW125343   2.433   0.646   6.405  0.6246 -0.8063 -0.7801
 4569SOL    HW225344   2.280   0.656   6.416  0.0748  0.6977 -0.0323
 4570SOL     OW25345   2.552   1.605   7.314  0.8314  0.2640  0.2484
 4570SOL    HW125346   2.561   1.647   7.399  4.2037 -1.5850  0.7863
 4570SOL    HW225347   2.627   1.645   7.270  0.0629  1.0775 -0.3193
 4571SOL     OW25348   3.042   4.254   8.308  0.0162  0.3692  0.7181
 4571SOL    HW125349   3.071   4.168   8.337 -0.2116  0.5193  1.3938
 4571SOL    HW225350   2.987   4.226   8.235 -1.6725  1.7783  1.4815
 4572SOL     OW25351   0.480   2.062   8.692 -0.1744  0.3192 -0.4259
 4572SOL    HW125352   0.500   2.024   8.607  2.4997  0.8579 -0.0615
 4572SOL    HW225353   0.385   2.057   8.694 -0.0796 -0.9067  1.3348
 4573SOL     OW25354   2.835   0.254   4.902  0.7309  0.3704 -0.0049
 4573SOL    HW125355   2.780   0.331   4.892  1.0902  0.8063  1.5082
 4573SOL    HW225356   2.804   0.225   4.988 -1.2128  2.4508 -0.0038
 4574SOL     OW25357   0.525   3.575   5.186 -0.6688 -0.1955  0.2751
 4574SOL    HW125358   0.576   3.549   5.263 -0.9997 -1.0492  0.2017
 4574SOL    HW225359   0.445   3.525   5.201 -1.2092  0.9855  1.3954
 4575SOL     OW25360   1.065   1.607   5.524  0.3202  0.2782  0.2542
 4575SOL    HW125361   0.976   1.635   5.543 -0.9797 -1.3594 -3.3817
 4575SOL    HW225362   1.059   1.617   5.429 -1.5170  1.5345  0.5019
 4576SOL     OW25363   4.158   3.019   7.171  0.4874 -0.0418  0.4412
 4576SOL    HW125364   4.084   3.078   7.189 -0.0768 -0.4508 -0.5458
 4576SOL    HW225365   4.122   2.933   7.152  1.6701  0.3529 -3.6414
 4577SOL     OW25366   0.412   0.888   9.946  0.1782 -0.0686 -0.2359
 4577SOL    HW125367   0.480   0.832   9.908  2.0327  2.5180 -0.7158
 4577SOL    HW225368   0.477   0.956   9.963  0.5474 -0.5213  0.1503
 4578SOL     OW25369   1.095   2.392   3.586 -0.1173 -0.1073 -1.1204
 4578SOL    HW125370   1.089   2.327   3.516 -2.6412 -2.6257  1.4146
 4578SOL    HW225371   1.005   2.392   3.620 -0.3190 -0.3064 -1.6482
 4579SOL     OW25372   0.070   1.989   8.097  0.1966 -1.1400  0.0192
 4579SOL    HW125373   0.059   1.895   8.083  1.3975 -1.4278  1.0821
 4579SOL    HW225374   0.162   1.993   8.072 -0.2140 -1.4841 -1.5796
 4580SOL     OW25375   2.824   1.897   5.867  0.3225 -0.5878 -0.2327
 4580SOL    HW125376   2.886   1.955   5.823  0.5126  0.0125  0.8344
 4580SOL    HW225377   2.838   1.812   5.825  0.8176  0.2769 -1.8260
 4581SOL     OW25378   2.102   3.696  14.178  0.3940 -0.2006 -0.1986
 4581SOL    HW125379   2.178   3.662  14.226  0.9024  0.3701 -0.5893
 4581SOL    HW225380   2.094   3.627  14.112 -0.4667  1.2919 -1.6408
 4582SOL     OW25381   4.337   4.566   7.769 -0.1620 -0.1967  0.4564
 4582SOL    HW125382   4.388   4.488   7.748  1.7505  0.7427  1.7026
 4582SOL    HW225383   4.405   4.626   7.797 -2.1637  2.4399 -0.3834
 4583SOL     OW25384   3.160   0.976   4.487  0.2338 -0.0270 -0.0137
 4583SOL    HW125385   3.130   0.889   4.514  2.4705 -0.1368  2.0727
 4583SOL    HW225386   3.181   0.953   4.396 -3.2551  0.1753 -0.8703
 4584SOL     OW25387   0.200   3.196  13.281 -0.2126  0.0321 -0.3327
 4584SOL    HW125388   0.149   3.245  13.346 -3.1590 -1.8588 -1.2453
 4584SOL    HW225389   0.134   3.157  13.224  0.2521  1.6962 -1.9945
 4585SOL     OW25390   0.764   2.279   9.753 -0.2241  0.1795 -0.0551
 4585SOL    HW125391   0.789   2.222   9.680  2.8573  0.8855  0.4485
 4585SOL    HW225392   0.853   2.295   9.783 -1.2967  2.4525  1.8685
 4586SOL     OW25393   0.886   0.799   9.057  0.1226  0.2311  0.1604
 4586SOL    HW125394   0.955   0.746   9.018 -0.3044 -0.3352  0.1732
 4586SOL    HW225395   0.894   0.763   9.145  0.4196 -1.4849 -0.5650
 4587SOL     OW25396   3.646   1.208   4.040  0.5576 -0.7097 -0.2041
 4587SOL    HW125397   3.585   1.146   4.080  0.4455 -0.5066 -0.0585
 4587SOL    HW225398   3.633   1.193   3.946  0.1858  1.3639 -0.4715
 4588SOL     OW25399   0.776   1.460  14.022  0.4410 -0.1014 -0.0330
 4588SOL    HW125400   0.790   1.389  13.959 -1.4925  0.1853 -0.7834
 4588SOL    HW225401   0.681   1.456  14.033  0.3986  2.3913  0.5398
 4589SOL     OW25402   0.893   3.243   9.340  0.0177  0.1312 -0.8314
 4589SOL    HW125403   0.915   3.248   9.247  0.1500 -0.5998 -0.8387
 4589SOL    HW225404   0.830   3.173   9.354 -0.0219  0.6013  1.4276
 4590SOL     OW25405   0.195   2.769  11.355 -0.0683 -0.3595 -0.0702
 4590SOL    HW125406   0.118   2.824  11.370  0.0575  0.6824 -3.2603
 4590SOL    HW225407   0.228   2.804  11.272 -1.2390  0.8422 -0.0312
 4591SOL     OW25408   0.008   0.586   8.118  0.4966  0.1675 -0.1302
 4591SOL    HW125409   4.661   0.598   8.088  0.8089  0.5595 -0.9086
 4591SOL    HW225410   0.049   0.663   8.078 -1.3005 -0.0462 -2.3725
 4592SOL     OW25411   0.357   3.838   7.653  0.8754 -0.4869 -0.0649
 4592SOL    HW125412   0.423   3.779   7.690  1.5212  0.2990  0.0328
 4592SOL    HW225413   0.278   3.784   7.653  1.0606 -0.7574  0.4315
 4593SOL     OW25414   3.444   2.631   3.320  0.6167  0.0166 -0.4754
 4593SOL    HW125415   3.427   2.721   3.348  1.6514 -0.1726  0.7413
 4593SOL    HW225416   3.525   2.649   3.272 -0.6631  1.0671 -2.2501
 4594SOL     OW25417   4.151   1.294   0.269  0.0818 -0.6440  0.0693
 4594SOL    HW125418   4.233   1.280   0.222 -0.6908 -0.3093 -1.3687
 4594SOL    HW225419   4.184   1.346   0.342  0.0337 -0.1900 -0.2370
 4595SOL     OW25420   4.489   3.529   1.936  0.1667  0.2627  0.2198
 4595SOL    HW125421   4.444   3.507   1.855  2.4137 -1.8888 -0.4366
 4595SOL    HW225422   4.493   3.623   1.916 -1.3936  0.3119  0.1110
 4596SOL     OW25423   1.705   4.048   4.954 -0.3599 -0.0863 -0.1388
 4596SOL    HW125424   1.709   4.035   5.049 -5.0267  0.1341  0.1052
 4596SOL    HW225425   1.775   4.106   4.924 -1.3425  0.2291 -1.7984
 4597SOL     OW25426   2.018   0.155   5.262  0.2267 -0.8492 -0.2933
 4597SOL    HW125427   1.993   0.223   5.324  1.5407  0.3801 -1.1241
 4597SOL    HW225428   2.095   0.198   5.224 -0.1242  0.8889  0.9877
 4598SOL     OW25429   4.463   2.674  13.984 -0.6392 -0.1418 -0.2201
 4598SOL    HW125430   4.542   2.728  13.971 -1.3952  1.3350  1.3356
 4598SOL    HW225431   4.499   2.639  14.066 -1.3911  0.2605  0.2885
 4599SOL     OW25432   1.466   1.875  17.172 -0.1593  0.4901 -0.2161
 4599SOL    HW125433   1.454   1.790  17.216 -1.2937 -0.4806 -2.4313
 4599SOL    HW225434   1.423   1.932  17.236 -1.2243  0.0725 -0.5532
 4600SOL     OW25435   2.220   3.735  12.042 -0.1662  0.6245 -0.8777
 4600SOL    HW125436   2.221   3.829  12.061 -2.1805  0.7782 -1.4991
 4600SOL    HW225437   2.287   3.735  11.974  1.6430  1.3954  0.9119
 4601SOL     OW25438   2.101   4.127   5.462 -0.5170  0.0719 -0.4104
 4601SOL    HW125439   2.107   4.099   5.553  1.0840 -1.4537 -0.9843
 4601SOL    HW225440   2.117   4.221   5.454 -0.3409  0.0719 -0.0109
 4602SOL     OW25441   2.877   3.987   4.187 -0.2633 -0.3731 -0.9602
 4602SOL    HW125442   2.919   3.955   4.267 -1.2362 -2.6255 -1.3382
 4602SOL    HW225443   2.787   4.007   4.211  0.7189  4.2570 -1.2162
 4603SOL     OW25444   3.083   2.049  15.363  0.1405  0.2236  0.2715
 4603SOL    HW125445   3.153   1.986  15.346 -0.5517 -0.1502 -1.1709
 4603SOL    HW225446   3.135   2.124  15.390 -1.4552  1.4202  0.0545
 4604SOL     OW25447   4.074   0.021  11.373  1.1155  0.2204  0.3634
 4604SOL    HW125448   4.024   4.708  11.433  1.6587  2.1817  2.6322
 4604SOL    HW225449   4.027   0.010  11.290 -0.5795  0.9506  1.2327
 4605SOL     OW25450   1.922   2.681   5.538  0.2655 -0.0017 -0.3375
 4605SOL    HW125451   1.831   2.701   5.556  0.7484  1.6566  0.3021
 4605SOL    HW225452   1.942   2.726   5.456  1.8182 -1.7416 -0.9169
 4606SOL     OW25453   1.335   2.261   9.753  0.4595  0.5094  0.3367
 4606SOL    HW125454   1.353   2.287   9.843 -1.7946 -0.0985  0.9559
 4606SOL    HW225455   1.354   2.343   9.708 -0.5350 -0.0698 -1.1324
 4607SOL     OW25456   3.132   3.166   2.904  0.0872 -0.9455 -0.2367
 4607SOL    HW125457   3.173   3.179   2.989 -1.7921 -1.4770  0.7549
 4607SOL    HW225458   3.118   3.071   2.898  2.2565 -1.2348 -0.5231
 4608SOL     OW25459   1.707   1.912   5.327  0.0815  0.3046  0.1229
 4608SOL    HW125460   1.755   1.994   5.322  1.5906 -0.5938 -0.0453
 4608SOL    HW225461   1.710   1.887   5.234 -0.2639  1.8941 -0.3066
 4609SOL     OW25462   2.220   3.311   6.813  0.2250  0.1089 -0.0987
 4609SOL    HW125463   2.275   3.368   6.867  0.2841 -1.6232  1.6863
 4609SOL    HW225464   2.286   3.249   6.782  0.1692  1.0695 -2.1669
 4610SOL     OW25465   2.865   0.568  12.489 -0.1569 -0.0726 -0.1351
 4610SOL    HW125466   2.910   0.556  12.573 -1.3921  0.0706  0.5412
 4610SOL    HW225467   2.945   0.593  12.442 -0.3299  0.3668 -0.1917
 4611SOL     OW25468   3.289   2.904  11.684 -0.1961 -0.4170  0.5890
 4611SOL    HW125469   3.362   2.895  11.622  0.7046  0.8341  1.4662
 4611SOL    HW225470   3.335   2.893  11.767  2.4697 -1.7713 -1.0621
 4612SOL     OW25471   1.902   2.816   5.270 -0.0603 -0.0377  0.4962
 4612SOL    HW125472   1.993   2.818   5.241 -0.2569  1.6400 -0.0367
 4612SOL    HW225473   1.896   2.909   5.289  1.0250 -0.2258  1.7128
 4613SOL     OW25474   1.768   4.386   3.280 -0.6301 -0.6457 -0.0114
 4613SOL    HW125475   1.738   4.370   3.191  0.2180  2.3763 -0.8452
 4613SOL    HW225476   1.717   4.465   3.299  0.3601 -0.2651  1.0896
 4614SOL     OW25477   1.301   1.209   1.661  0.3156  0.1402 -0.1925
 4614SOL    HW125478   1.358   1.133   1.670  0.7895  0.4376 -0.6519
 4614SOL    HW225479   1.353   1.275   1.708  1.1502  0.0843 -1.0468
 4615SOL     OW25480   4.410   0.439   6.298  0.4215  0.5080  0.0416
 4615SOL    HW125481   4.467   0.514   6.282  0.2551  0.5815 -0.2049
 4615SOL    HW225482   4.409   0.438   6.394 -1.3115 -0.5803  0.0043
 4616SOL     OW25483   3.767   4.687   4.328  0.3946 -0.0644 -0.3035
 4616SOL    HW125484   3.692   4.629   4.326 -0.3392  0.8461  0.6798
 4616SOL    HW225485   3.798   4.682   4.238 -1.4710 -2.0760 -0.8380
 4617SOL     OW25486   1.216   1.097  10.474  0.4430 -0.2381 -0.3584
 4617SOL    HW125487   1.245   1.014  10.438 -1.5416 -2.2983  2.7825
 4617SOL    HW225488   1.121   1.082  10.472  0.0771  1.7023  1.0891
 4618SOL     OW25489   0.701   1.153  15.693  0.1336  0.0388 -0.4962
 4618SOL    HW125490   0.726   1.208  15.620 -1.3844  3.5863  1.6651
 4618SOL    HW225491   0.679   1.070  15.650 -2.7219 -0.0845  1.1741
 4619SOL     OW25492   3.143   1.154   9.162  0.0780 -0.4197  0.0531
 4619SOL    HW125493   3.226   1.128   9.202  1.7729  2.1932 -1.7547
 4619SOL    HW225494   3.128   1.088   9.094  0.9016 -0.1502 -0.3841
 4620SOL     OW25495   4.523   4.724   1.967  0.1347 -0.4347 -0.2755
 4620SOL    HW125496   4.544   0.066   2.006 -0.3439 -0.5320  0.1942
 4620SOL    HW225497   4.595   4.668   1.997 -0.8778 -1.2150  0.6876
 4621SOL     OW25498   0.891   4.363   8.436 -0.2727  0.5012 -0.0487
 4621SOL    HW125499   0.933   4.352   8.521 -2.2671 -2.7442  0.4862
 4621SOL    HW225500   0.949   4.311   8.379 -1.6744  0.6658 -1.6344
 4622SOL     OW25501   0.351   2.191   5.915 -0.0431  0.0578 -0.3248
 4622SOL    HW125502   0.270   2.226   5.953 -0.2710 -1.2023  0.3213
 4622SOL    HW225503   0.333   2.101   5.942 -1.6379  0.4309 -0.1414
 4623SOL     OW25504   1.872   4.174   6.833  0.0623 -0.0455 -0.4784
 4623SOL    HW125505   1.823   4.095   6.854 -1.0278  1.0858  1.1930
 4623SOL    HW225506   1.954   4.134   6.801 -0.0275 -0.5556 -0.0688
 4624SOL     OW25507   0.768   4.091  14.401  0.1373  0.2454  0.4007
 4624SOL    HW125508   0.852   4.099  14.356 -0.7480  2.3822 -0.8665
 4624SOL    HW225509   0.790   4.130  14.486 -1.7729  0.2271  0.8972
 4625SOL     OW25510   0.266   4.728   8.831 -0.2440 -0.7213  0.0996
 4625SOL    HW125511   0.331   4.679   8.881 -0.3684 -1.2506 -0.2618
 4625SOL    HW225512   0.316   0.005   8.752  0.1770  0.0859  0.5661
 4626SOL     OW25513   1.274   1.286   4.971  0.2746  0.2329  0.5800
 4626SOL    HW125514   1.266   1.381   4.979 -2.7728  0.2884 -2.8639
 4626SOL    HW225515   1.183   1.257   4.966  0.8917 -1.3579 -1.0723
 4627SOL     OW25516   3.820   2.702   8.636 -0.1304  0.4523 -0.4669
 4627SOL    HW125517   3.796   2.782   8.683 -2.9202  0.5199 -2.0002
 4627SOL    HW225518   3.820   2.739   8.547 -1.2038 -1.1416 -1.1235
 4628SOL     OW25519   2.696   4.040   3.586 -0.3821 -0.4043  0.7084
 4628SOL    HW125520   2.603   4.037   3.563 -0.4309 -0.1308  0.8736
 4628SOL    HW225521   2.712   3.946   3.596  3.0195 -0.0833 -1.7835
 4629SOL     OW25522   1.104   1.916   9.027  0.3566 -0.1107  0.3990
 4629SOL    HW125523   1.093   2.009   9.009  0.9264  0.0688  0.9977
 4629SOL    HW225524   1.199   1.908   9.033  0.4806  0.0706 -1.2706
 4630SOL     OW25525   2.339   0.694   2.007 -0.2256  0.2139  0.0325
 4630SOL    HW125526   2.402   0.740   2.063 -0.3073  0.7174 -0.2938
 4630SOL    HW225527   2.307   0.623   2.062  0.6271  1.1535  1.7410
 4631SOL     OW25528   4.303   0.975   7.449  0.2427 -0.9594 -0.0098
 4631SOL    HW125529   4.229   1.027   7.480 -0.2555 -1.2598 -0.7072
 4631SOL    HW225530   4.370   0.990   7.516 -0.7714  0.0316  0.7766
 4632SOL     OW25531   1.434   0.034   6.981 -0.5737 -0.1895  0.0221
 4632SOL    HW125532   1.348   0.001   6.958 -0.7845 -0.2728  0.9354
 4632SOL    HW225533   1.444   0.120   6.941 -2.4173  0.2734  0.5765
 4633SOL     OW25534   0.069   1.853   6.637 -0.4923 -0.2233 -0.5225
 4633SOL    HW125535   4.735   1.906   6.660  0.0121  0.7162 -0.9822
 4633SOL    HW225536   0.136   1.919   6.620 -1.6990  1.1646  0.0643
 4634SOL     OW25537   0.066   4.009   3.019  0.0845  0.0002  0.2526
 4634SOL    HW125538   0.008   4.083   3.034  0.6361  0.2071  1.3729
 4634SOL    HW225539   0.009   3.959   2.960 -0.3574  0.3931  0.3496
 4635SOL     OW25540   3.760   2.104   4.621 -0.0617  0.1584 -0.1364
 4635SOL    HW125541   3.777   2.102   4.527 -0.4868  0.5422 -0.2240
 4635SOL    HW225542   3.794   2.018   4.648  0.3271  0.2468 -0.3560
 4636SOL     OW25543   2.593   1.364   3.593  0.2427 -0.0831 -0.0270
 4636SOL    HW125544   2.642   1.435   3.634  1.4267  0.1268 -1.8440
 4636SOL    HW225545   2.633   1.348   3.508 -0.6354 -0.3818 -0.3867
 4637SOL     OW25546   0.001   1.096   8.767 -0.0861 -0.1703 -0.1912
 4637SOL    HW125547   4.700   1.147   8.699 -1.1422 -1.3685 -0.4067
 4637SOL    HW225548   4.708   1.009   8.750  2.0677 -0.7322 -1.9658
 4638SOL     OW25549   0.367   4.002  13.154  0.0828 -0.4228 -0.0021
 4638SOL    HW125550   0.386   4.017  13.061 -3.7691 -1.0226 -0.8690
 4638SOL    HW225551   0.451   3.961  13.176 -1.1994 -2.4258  1.1051
 4639SOL     OW25552   0.136   3.864   3.836 -0.0450  0.1238  0.2262
 4639SOL    HW125553   0.208   3.895   3.891  0.2162  0.4005 -0.2728
 4639SOL    HW225554   0.141   3.925   3.762  0.8425  0.9467  0.9739
 4640SOL     OW25555   4.456   0.472   4.349  0.4920 -0.5021  0.1176
 4640SOL    HW125556   4.399   0.397   4.331  0.4028 -0.8600  1.9823
 4640SOL    HW225557   4.395   0.536   4.385 -0.3967  0.1419 -2.4982
 4641SOL     OW25558   4.743   1.834   9.592  0.2084 -0.4950 -0.0092
 4641SOL    HW125559   4.653   1.843   9.624  0.5789  0.9980  0.6099
 4641SOL    HW225560   0.018   1.921   9.558 -2.3684 -0.2147 -0.7183
 4642SOL     OW25561   2.677   4.081   2.963  0.2894 -0.2594  0.6409
 4642SOL    HW125562   2.628   4.014   2.916  0.9459  0.5169 -1.1464
 4642SOL    HW225563   2.601   4.132   2.993 -0.6225 -1.0708 -0.2608
 4643SOL     OW25564   3.071   1.097   5.533 -0.0876 -0.0420  0.3483
 4643SOL    HW125565   2.988   1.139   5.557 -1.3619 -3.2280  1.5483
 4643SOL    HW225566   3.109   1.111   5.620  1.6674 -2.8514  0.0140
 4644SOL     OW25567   4.485   0.010   2.785 -0.5657  0.4687 -0.1431
 4644SOL    HW125568   4.549   0.066   2.827 -1.4444  0.4084  1.2840
 4644SOL    HW225569   4.522   0.004   2.696 -0.1764  0.6734  0.0080
 4645SOL     OW25570   0.274   0.414   8.671  0.2719  0.7486  0.3410
 4645SOL    HW125571   0.264   0.374   8.758  0.8479  0.6060  0.3432
 4645SOL    HW225572   0.257   0.505   8.696  0.4681  1.3962 -1.9020
 4646SOL     OW25573   3.797   0.127  13.013 -0.0041 -0.4848  0.1920
 4646SOL    HW125574   3.782   0.124  12.919 -1.3500  3.0787  0.2849
 4646SOL    HW225575   3.804   0.222  13.028  0.6848 -0.3910 -0.7311
 4647SOL     OW25576   4.686   2.392   1.468  0.6993  0.5705 -0.6867
 4647SOL    HW125577   4.732   2.474   1.447 -1.3121  2.0736  0.8426
 4647SOL    HW225578   4.688   2.411   1.562 -1.4483 -1.8780 -0.1627
 4648SOL     OW25579   3.200   4.376  17.129 -0.1391  0.0444  0.5274
 4648SOL    HW125580   3.190   4.395  17.035 -0.3831  0.3655  0.6164
 4648SOL    HW225581   3.150   4.448  17.169 -1.2164 -0.8766  0.8325
 4649SOL     OW25582   3.885   2.570  13.368 -0.3431  0.0341 -0.0810
 4649SOL    HW125583   3.831   2.504  13.410  0.6751 -0.7823 -0.0367
 4649SOL    HW225584   3.888   2.545  13.275  2.9275 -2.5587  0.7219
 4650SOL     OW25585   2.294   3.837  14.037  0.0935  0.5212 -0.1566
 4650SOL    HW125586   2.234   3.785  14.090  0.8638 -0.0068  0.1969
 4650SOL    HW225587   2.311   3.771  13.971  0.5730  2.0993 -1.6072
 4651SOL     OW25588   3.345   3.097  14.439  1.0326  0.1137  0.1761
 4651SOL    HW125589   3.288   3.032  14.398 -1.4190  2.6029 -0.3394
 4651SOL    HW225590   3.294   3.110  14.519 -1.7298  0.5159 -1.6954
 4652SOL     OW25591   0.616   2.910   6.819 -0.0016 -0.4278 -0.0978
 4652SOL    HW125592   0.666   2.896   6.739 -0.9409  1.1196 -0.9577
 4652SOL    HW225593   0.651   2.833   6.864  1.9983 -0.1487 -1.1612
 4653SOL     OW25594   3.764   3.865  17.578 -0.4550  0.2944  0.2839
 4653SOL    HW125595   3.672   3.865  17.551  0.2460 -1.3258 -2.1014
 4653SOL    HW225596   3.794   3.813  17.503  0.8952  1.7057 -0.1662
 4654SOL     OW25597   3.895   2.087  10.939  0.3822 -0.0807  0.7276
 4654SOL    HW125598   3.886   2.068  11.032  3.4275 -0.8544  0.8525
 4654SOL    HW225599   3.803   2.108  10.918  0.7703  0.4607 -0.4366
 4655SOL     OW25600   3.874   1.843   7.571  0.3694  0.1289 -0.1272
 4655SOL    HW125601   3.942   1.792   7.614  0.9414  1.2745  0.3516
 4655SOL    HW225602   3.811   1.853   7.642  0.6095  0.5892  0.0269
 4656SOL     OW25603   3.957   4.106  10.726 -0.5115  0.1156 -0.0401
 4656SOL    HW125604   3.896   4.049  10.679  0.7932 -1.6831  0.4444
 4656SOL    HW225605   3.901   4.167  10.774 -2.1048 -0.3553 -1.2947
 4657SOL     OW25606   4.022   1.134   0.561 -0.5411 -0.2620  0.7078
 4657SOL    HW125607   3.961   1.207   0.569 -1.8446 -1.2591 -0.1776
 4657SOL    HW225608   3.962   1.061   0.552 -1.7125  0.6152  1.4266
 4658SOL     OW25609   3.336   0.227   1.451  0.0583  0.5523  0.4681
 4658SOL    HW125610   3.388   0.149   1.468  0.0017  0.7036  1.3161
 4658SOL    HW225611   3.383   0.300   1.491  0.4334  2.3685 -3.2390
 4659SOL     OW25612   2.683   2.851  16.695 -0.2529 -0.4403  0.0009
 4659SOL    HW125613   2.779   2.855  16.696 -0.2429 -1.2721  2.0490
 4659SOL    HW225614   2.666   2.853  16.789 -1.0166  0.4377 -0.1600
 4660SOL     OW25615   4.730   3.831   7.149  0.0576 -0.6325  0.1679
 4660SOL    HW125616   0.079   3.855   7.151  0.1944 -1.2482  0.9903
 4660SOL    HW225617   4.722   3.803   7.058 -0.4078 -2.7043  0.8541
 4661SOL     OW25618   1.117   4.654   1.744 -0.2777  0.1765  0.1200
 4661SOL    HW125619   1.117   4.643   1.839 -2.8467 -0.8055 -0.0076
 4661SOL    HW225620   1.099   4.565   1.714  2.2147  0.3498 -1.9128
 4662SOL     OW25621   0.226   2.166   3.466  0.6263  0.4393 -0.2859
 4662SOL    HW125622   0.171   2.232   3.511  0.3551 -0.0133  0.0500
 4662SOL    HW225623   0.198   2.172   3.375  0.3016  0.3054 -0.1985
 4663SOL     OW25624   0.140   1.837   8.844 -0.0453  0.2608 -0.0386
 4663SOL    HW125625   0.069   1.860   8.785 -1.0156  0.6956  1.2971
 4663SOL    HW225626   0.177   1.924   8.860  0.2161  0.2164 -0.4072
 4664SOL     OW25627   0.900   0.228   8.291 -0.3088 -0.3305  0.1517
 4664SOL    HW125628   0.894   0.225   8.387  2.7731 -2.7071  0.2585
 4664SOL    HW225629   0.882   0.320   8.270  0.2979  0.1210  1.6263
 4665SOL     OW25630   1.900   0.060  17.502 -0.0214 -0.3268  0.1893
 4665SOL    HW125631   1.905   0.121  17.576  0.0933 -1.4047  1.0630
 4665SOL    HW225632   1.926   4.723  17.546  1.5467 -0.5252 -1.0820
 4666SOL     OW25633   4.694   2.892   6.624 -0.3564  0.0238  0.4325
 4666SOL    HW125634   4.687   2.986   6.636  0.2785  0.1184  0.0302
 4666SOL    HW225635   0.026   2.872   6.679  0.4045  1.6489 -0.0212
 4667SOL     OW25636   0.733   2.703   6.974  0.2052 -1.0318 -0.2966
 4667SOL    HW125637   0.756   2.697   7.067 -0.2472 -0.4497 -0.1489
 4667SOL    HW225638   0.806   2.654   6.935  3.0042  2.1151  0.9953
 4668SOL     OW25639   1.355   2.521   9.316  0.4204  0.4438 -0.1913
 4668SOL    HW125640   1.416   2.447   9.326  3.2932  2.8441  0.0452
 4668SOL    HW225641   1.415   2.592   9.338 -2.4035  2.4923  0.9106
 4669SOL     OW25642   3.384   0.378   4.827 -0.2448 -0.0616 -0.4210
 4669SOL    HW125643   3.439   0.299   4.831  0.5010  0.4365 -0.8921
 4669SOL    HW225644   3.451   0.443   4.807 -0.8975  0.8874  0.4812
 4670SOL     OW25645   3.093   4.121  16.487 -0.3072 -0.2557 -0.1505
 4670SOL    HW125646   3.161   4.054  16.495 -0.2145 -0.1107  0.3022
 4670SOL    HW225647   3.035   4.098  16.559 -0.3179 -2.9176 -1.0044
 4671SOL     OW25648   3.657   0.793   9.621  0.0228 -0.5814  0.4901
 4671SOL    HW125649   3.638   0.812   9.713 -4.0674  0.3275 -0.5640
 4671SOL    HW225650   3.607   0.713   9.603  0.6522 -1.3906  2.2881
 4672SOL     OW25651   1.200   1.013  16.765 -0.5187 -0.2970 -0.3374
 4672SOL    HW125652   1.250   1.047  16.839  1.0136 -0.0560 -1.4931
 4672SOL    HW225653   1.260   1.045  16.698  0.6950  0.1673  0.9755
 4673SOL     OW25654   4.043   3.301   9.653 -0.1348  0.4694 -0.4154
 4673SOL    HW125655   4.115   3.308   9.715 -0.3121 -1.7413  0.0446
 4673SOL    HW225656   3.988   3.373   9.685  0.8647  0.8644  0.3774
 4674SOL     OW25657   3.750   3.285   6.527 -0.1036  0.5448  0.0996
 4674SOL    HW125658   3.830   3.299   6.577  1.6046 -1.5108 -2.0603
 4674SOL    HW225659   3.690   3.344   6.573 -2.1764 -0.3269 -1.4726
 4675SOL     OW25660   4.042   0.398   4.906  0.0666  0.1607  0.1333
 4675SOL    HW125661   4.021   0.396   4.813 -2.3839 -1.5230  0.7328
 4675SOL    HW225662   3.976   0.342   4.945 -0.9976  1.1727 -0.2249
 4676SOL     OW25663   2.948   1.745   6.909 -1.0069  0.2423  0.3199
 4676SOL    HW125664   2.879   1.796   6.867 -2.3637  0.3237  2.6227
 4676SOL    HW225665   3.004   1.815   6.943  0.5297 -1.6120  1.6474
 4677SOL     OW25666   1.991   0.994   2.683 -0.2217 -0.0892  0.0263
 4677SOL    HW125667   2.074   1.041   2.670  0.4067 -0.9514  0.8903
 4677SOL    HW225668   1.986   0.994   2.779 -2.3405  0.2877 -0.0875
 4678SOL     OW25669   2.133   2.040   9.334  0.3830  0.5162 -0.2118
 4678SOL    HW125670   2.156   1.974   9.269 -1.7025 -0.6527  0.2414
 4678SOL    HW225671   2.169   1.994   9.410 -0.6846  2.7808  1.6323
 4679SOL     OW25672   4.574   0.617   6.577  0.1263 -0.1925 -0.0076
 4679SOL    HW125673   4.535   0.698   6.544  0.6913 -0.7025 -1.9482
 4679SOL    HW225674   4.660   0.614   6.536  0.4808  0.8319  0.6393
 4680SOL     OW25675   2.675   2.855  11.912  0.0539  0.5621 -0.4861
 4680SOL    HW125676   2.657   2.949  11.916  1.5947  0.7368  1.8507
 4680SOL    HW225677   2.771   2.860  11.909  0.0975 -0.7810 -1.0753
 4681SOL     OW25678   1.709   2.370   2.660  0.3942 -1.0871 -0.1699
 4681SOL    HW125679   1.615   2.358   2.647  0.3897  0.0587 -1.2128
 4681SOL    HW225680   1.752   2.326   2.587 -1.4889  1.3800 -2.7534
 4682SOL     OW25681   1.370   0.126   2.609 -0.0732 -0.0435  0.5797
 4682SOL    HW125682   1.437   0.073   2.565  1.4210  2.1077  0.2416
 4682SOL    HW225683   1.401   0.145   2.697  0.5628 -1.9695  0.7597
 4683SOL     OW25684   4.266   1.606   4.290  0.0826 -1.1001 -0.3313
 4683SOL    HW125685   4.327   1.590   4.218 -0.5487  1.6022 -1.4534
 4683SOL    HW225686   4.185   1.566   4.258 -0.3897 -0.6735  0.3319
 4684SOL     OW25687   3.863   1.999   7.125 -0.1984 -0.2949 -0.0753
 4684SOL    HW125688   3.787   2.035   7.171 -0.6779 -1.0478 -0.2771
 4684SOL    HW225689   3.866   1.909   7.157  2.8370 -0.5634 -1.1862
 4685SOL     OW25690   0.766   1.851   6.571  0.2428 -0.1504 -0.4113
 4685SOL    HW125691   0.720   1.830   6.490  0.8898  0.4636 -0.9451
 4685SOL    HW225692   0.777   1.765   6.610 -1.1082 -0.3162 -0.4129
 4686SOL     OW25693   2.690   4.215   8.490 -0.1135 -0.1840 -0.3333
 4686SOL    HW125694   2.728   4.128   8.497  1.6264  0.4987 -1.1755
 4686SOL    HW225695   2.730   4.256   8.567 -0.6883  1.0415 -0.6768
 4687SOL     OW25696   3.999   2.341  17.008  0.3421  0.6912  0.8196
 4687SOL    HW125697   3.993   2.408  17.076  0.4352  1.1993  0.3271
 4687SOL    HW225698   3.935   2.286  17.053  0.1167 -0.6868 -1.2037
 4688SOL     OW25699   2.233   1.277   0.893  0.2932  0.5895  0.2189
 4688SOL    HW125700   2.302   1.212   0.910  0.5337  0.0469 -2.7792
 4688SOL    HW225701   2.158   1.228   0.926 -0.0341  0.9952  0.0696
 4689SOL     OW25702   0.820   1.257   4.251 -0.0522 -0.4574  0.6407
 4689SOL    HW125703   0.731   1.285   4.270 -0.6061 -0.4723 -1.9277
 4689SOL    HW225704   0.839   1.264   4.157 -0.6965  0.4887  0.5950
 4690SOL     OW25705   2.207   2.571  16.178  0.1355 -0.0291  0.2955
 4690SOL    HW125706   2.140   2.508  16.150  1.6774 -1.5134 -0.0727
 4690SOL    HW225707   2.228   2.532  16.263  0.8592  0.4791  0.3537
 4691SOL     OW25708   2.104   3.658   1.955 -0.0497 -0.4020  0.2183
 4691SOL    HW125709   2.060   3.736   1.922  1.4018 -0.2654 -1.4134
 4691SOL    HW225710   2.146   3.693   2.034  2.0397 -0.8868 -0.6768
 4692SOL     OW25711   1.458   4.454   8.585  0.5660 -0.3656 -0.2690
 4692SOL    HW125712   1.409   4.372   8.582  2.4926 -1.4401 -2.1272
 4692SOL    HW225713   1.436   4.487   8.672  0.4638  1.3178 -0.9423
 4693SOL     OW25714   2.098   0.132  17.696  0.3889 -0.0436  0.0111
 4693SOL    HW125715   2.087   0.041  17.666 -3.3071 -0.1206  1.6889
 4693SOL    HW225716   2.177   0.110  17.747 -0.5718 -0.8384  1.1464
 4694SOL     OW25717   4.134   3.111   6.206 -0.4583 -0.3180 -0.2117
 4694SOL    HW125718   4.228   3.124   6.223 -0.3613 -0.4925 -0.6253
 4694SOL    HW225719   4.129   3.075   6.118 -0.6407  0.4640 -0.5149
 4695SOL     OW25720   0.744   0.508   6.536 -0.2268 -0.4000 -0.1031
 4695SOL    HW125721   0.775   0.540   6.621  1.2205 -0.0933 -0.7435
 4695SOL    HW225722   0.722   0.419   6.562  0.2436  0.1646  2.2053
 4696SOL     OW25723   4.072   1.787   3.063 -0.2912  0.5358 -0.0700
 4696SOL    HW125724   4.065   1.725   2.991  0.1193  0.8813 -0.4076
 4696SOL    HW225725   3.989   1.829   3.042 -0.0345  1.9961  1.8444
 4697SOL     OW25726   3.266   2.179   9.170 -0.0211  0.4037 -0.3276
 4697SOL    HW125727   3.181   2.134   9.159  0.8729 -0.9378 -1.7611
 4697SOL    HW225728   3.278   2.232   9.092 -1.9561 -1.2684 -1.7845
 4698SOL     OW25729   0.198   2.680   3.682  0.0533 -0.2667  0.4559
 4698SOL    HW125730   0.165   2.608   3.737  0.2589  0.6855  1.8203
 4698SOL    HW225731   0.205   2.755   3.741  0.9311  0.0052 -0.0005
 4699SOL     OW25732   4.248   3.429   2.466 -0.2410 -0.2999  0.3230
 4699SOL    HW125733   4.262   3.469   2.380 -0.3163  0.4696  0.6734
 4699SOL    HW225734   4.285   3.345   2.438  0.0195 -0.4566  1.1544
 4700SOL     OW25735   1.190   0.864   2.036  0.0849 -0.2450  0.1959
 4700SOL    HW125736   1.201   0.773   2.010 -0.8600 -0.9704  2.3899
 4700SOL    HW225737   1.151   0.894   1.953  0.2597 -0.4950  0.0268
 4701SOL     OW25738   1.776   0.781   9.340 -0.2551  0.4919  0.2731
 4701SOL    HW125739   1.704   0.843   9.352 -1.8283 -1.2159 -0.4523
 4701SOL    HW225740   1.803   0.765   9.430 -0.7415  2.8369  0.8325
 4702SOL     OW25741   3.798   3.271   3.441 -0.0497 -0.1210 -0.5374
 4702SOL    HW125742   3.795   3.176   3.442  0.1903 -0.1111  0.9602
 4702SOL    HW225743   3.835   3.300   3.525 -0.1733 -2.1294  0.2016
 4703SOL     OW25744   3.710   0.972  17.121  0.2656 -0.7373  0.1218
 4703SOL    HW125745   3.738   0.902  17.062  1.2904  1.2719 -1.8218
 4703SOL    HW225746   3.797   1.005  17.144 -1.1184  0.9650  2.9542
 4704SOL     OW25747   3.900   4.189   4.163 -0.2370  0.1131  0.3303
 4704SOL    HW125748   3.868   4.268   4.119  2.5874  1.5250  0.8299
 4704SOL    HW225749   3.859   4.125   4.105 -0.1555 -0.4733  0.9197
 4705SOL     OW25750   2.178   0.675  12.349  0.5313 -0.5635  0.6630
 4705SOL    HW125751   2.249   0.611  12.340  1.0230 -0.1066  1.2997
 4705SOL    HW225752   2.118   0.629  12.291 -0.3938  1.1641  0.2512
 4706SOL     OW25753   4.124   1.885   4.207 -0.4608 -0.2604 -0.3736
 4706SOL    HW125754   4.093   1.964   4.162  1.0968  0.2310 -0.5726
 4706SOL    HW225755   4.192   1.868   4.143 -1.1555 -1.5995 -0.7529
 4707SOL     OW25756   3.431   0.329   7.909  0.3660 -0.2903 -0.0033
 4707SOL    HW125757   3.470   0.415   7.927  1.0011 -1.0212  2.1020
 4707SOL    HW225758   3.390   0.351   7.825 -0.8294 -0.9812  0.4010
 4708SOL     OW25759   2.223   4.347  10.005 -0.0246  0.0929  0.3347
 4708SOL    HW125760   2.243   4.295   9.928  3.6702  0.9115  0.7400
 4708SOL    HW225761   2.299   4.404  10.019  0.5867 -0.3383 -1.3453
 4709SOL     OW25762   1.440   1.427   1.798  0.2849 -0.0973 -0.0007
 4709SOL    HW125763   1.483   1.504   1.761 -0.9771 -0.6811 -2.7594
 4709SOL    HW225764   1.493   1.427   1.877 -1.0965 -2.1905  0.9493
 4710SOL     OW25765   3.406   2.447   8.583 -0.1696  0.3222 -0.0631
 4710SOL    HW125766   3.492   2.448   8.542  0.0689 -0.0022  0.4298
 4710SOL    HW225767   3.428   2.487   8.667  1.3332 -0.3618 -0.1335
 4711SOL     OW25768   2.392   1.660   0.395  0.6794  0.1062  0.1114
 4711SOL    HW125769   2.330   1.721   0.355  1.3162  0.2187 -0.7229
 4711SOL    HW225770   2.358   1.681   0.481 -3.0038 -2.2808 -0.7567
 4712SOL     OW25771   1.293   4.068   2.603 -0.1018 -0.1136  0.2850
 4712SOL    HW125772   1.212   4.117   2.585 -1.4389 -2.2753  0.3848
 4712SOL    HW225773   1.352   4.142   2.616  1.7747 -1.4773 -0.4693
 4713SOL     OW25774   1.265   3.158   7.377  0.1906 -0.2916  0.4744
 4713SOL    HW125775   1.268   3.122   7.288  0.8606 -0.9665  0.7696
 4713SOL    HW225776   1.344   3.121   7.417  0.3145 -0.9706 -0.3998
 4714SOL     OW25777   4.017   2.443   1.573  0.3556  0.3008  0.7302
 4714SOL    HW125778   3.929   2.422   1.605  0.0011 -0.7085 -0.9072
 4714SOL    HW225779   4.029   2.538   1.572 -0.3342  0.3460 -2.8671
 4715SOL     OW25780   0.897   0.203   9.387  0.9387  0.5978 -0.1084
 4715SOL    HW125781   0.967   0.202   9.452 -0.2823 -0.0265  1.1954
 4715SOL    HW225782   0.928   0.264   9.321 -1.3077  1.1818 -0.6436
 4716SOL     OW25783   0.893   1.928   3.201 -0.2369  0.5258  0.0251
 4716SOL    HW125784   0.879   2.012   3.156 -1.2485 -0.1732 -0.9576
 4716SOL    HW225785   0.911   1.873   3.125  0.6174 -0.8234  1.2105
 4717SOL     OW25786   2.541   3.094  17.363  0.5820 -0.0144 -0.0740
 4717SOL    HW125787   2.586   3.096  17.279  0.4143  0.6161 -0.1486
 4717SOL    HW225788   2.451   3.104  17.331  1.1214  0.2735 -1.4952
 4718SOL     OW25789   4.311   1.697   4.959 -0.2914 -0.4262 -0.1699
 4718SOL    HW125790   4.379   1.682   4.892  0.5252  2.9310 -0.0745
 4718SOL    HW225791   4.226   1.695   4.915 -0.3670 -1.2008  0.0093
 4719SOL     OW25792   4.375   3.831   4.214 -0.1141 -0.2674  0.1630
 4719SOL    HW125793   4.403   3.758   4.270 -0.3903 -1.2728 -1.0027
 4719SOL    HW225794   4.384   3.906   4.273  1.7391 -2.5077  2.7327
 4720SOL     OW25795   3.174   2.566   8.941 -0.7119  0.0465 -0.6332
 4720SOL    HW125796   3.161   2.655   8.908  0.2230  0.4442  0.0682
 4720SOL    HW225797   3.129   2.517   8.872 -1.0795 -1.1330  0.4564
 4721SOL     OW25798   1.567   1.028   5.657  0.5208  0.5475 -0.3043
 4721SOL    HW125799   1.501   1.062   5.718  0.7993  0.0954  0.2456
 4721SOL    HW225800   1.585   0.952   5.711 -0.6097  0.3019 -0.2738
 4722SOL     OW25801   1.611   1.751   6.145 -0.0479 -0.4987 -0.1778
 4722SOL    HW125802   1.692   1.711   6.114 -0.0329 -0.3618 -0.3146
 4722SOL    HW225803   1.622   1.750   6.241 -3.2808  2.1676  0.2234
 4723SOL     OW25804   4.168   4.708   2.451 -0.1676  0.0089  0.0117
 4723SOL    HW125805   4.249   4.740   2.411  2.1089 -1.7204  3.2506
 4723SOL    HW225806   4.178   4.616   2.431  0.4145 -0.2175  1.2846
 4724SOL     OW25807   1.986   3.557   7.722  0.3181  0.1059  0.3340
 4724SOL    HW125808   2.021   3.643   7.746 -1.3203  0.8243  0.0996
 4724SOL    HW225809   2.003   3.498   7.795  1.0460  2.9793  2.5045
 4725SOL     OW25810   4.695   2.587   3.382  0.7810  0.1422 -0.7731
 4725SOL    HW125811   4.683   2.616   3.291 -0.5236  1.2642 -0.2556
 4725SOL    HW225812   0.033   2.538   3.372  1.8333  1.7223  0.0300
 4726SOL     OW25813   3.283   1.742   4.687 -0.4826  0.2581  0.1442
 4726SOL    HW125814   3.209   1.770   4.741 -0.8465 -0.8854  0.2546
 4726SOL    HW225815   3.260   1.654   4.656  0.1675  0.2714 -0.3641
 4727SOL     OW25816   0.573   4.722   8.279 -0.0294 -1.0090  0.0574
 4727SOL    HW125817   0.480   4.730   8.297  0.7043 -0.9773  3.8581
 4727SOL    HW225818   0.595   4.650   8.338 -0.4786 -0.3799  0.9851
 4728SOL     OW25819   2.143   0.979   7.421 -0.4752 -0.1215 -0.4571
 4728SOL    HW125820   2.182   1.024   7.497  0.8257  0.9465 -1.7554
 4728SOL    HW225821   2.215   0.920   7.401  0.1943  1.0629 -1.5456
 4729SOL     OW25822   2.271   2.751   8.685 -0.4031  0.5916 -0.1232
 4729SOL    HW125823   2.353   2.715   8.718 -1.6345 -1.3373  0.8166
 4729SOL    HW225824   2.265   2.684   8.618 -0.9965 -0.4044  0.9311
 4730SOL     OW25825   3.832   3.263  15.196 -0.0685 -0.3541  0.6892
 4730SOL    HW125826   3.912   3.214  15.216  0.9139  0.8095 -0.3769
 4730SOL    HW225827   3.771   3.190  15.201 -0.9109  0.3161  0.1811
 4731SOL     OW25828   1.567   2.521   6.983  0.3239 -0.3957 -0.4760
 4731SOL    HW125829   1.589   2.477   6.900  0.4084 -0.1562 -0.5807
 4731SOL    HW225830   1.612   2.461   7.042  1.2540  1.8333  1.0810
 4732SOL     OW25831   1.558   2.398   0.794  0.1844  0.1601 -0.2521
 4732SOL    HW125832   1.642   2.380   0.835 -0.4862 -1.1799  0.5391
 4732SOL    HW225833   1.529   2.482   0.831 -0.5285 -0.1124 -0.1891
 4733SOL     OW25834   2.935   1.542   2.842  0.7283  0.1612 -0.2027
 4733SOL    HW125835   2.914   1.500   2.759 -0.0322 -0.6762  0.4157
 4733SOL    HW225836   3.003   1.602   2.810 -1.0368  1.5778 -1.2620
 4734SOL     OW25837   0.635   2.496   7.967 -0.0560  0.1693  0.0458
 4734SOL    HW125838   0.628   2.447   7.885  0.1241  0.0938  0.0774
 4734SOL    HW225839   0.711   2.553   7.957 -0.8210  1.6979  2.9778
 4735SOL     OW25840   0.793   0.037   1.557 -0.5008 -0.1190  0.3967
 4735SOL    HW125841   0.725   0.090   1.516  1.6892  0.8962 -1.8865
 4735SOL    HW225842   0.793   0.076   1.645 -0.7564  1.5307 -0.3265
 4736SOL     OW25843   3.961   2.855   8.867  0.2050 -0.3382  0.0419
 4736SOL    HW125844   3.867   2.858   8.882  0.2863  0.4743  0.4119
 4736SOL    HW225845   3.992   2.910   8.940  1.1069 -0.0267 -0.5750
 4737SOL     OW25846   3.082   2.634  14.846 -0.1662  0.3649 -1.0386
 4737SOL    HW125847   3.006   2.672  14.802 -0.0600  1.7711 -0.0232
 4737SOL    HW225848   3.109   2.708  14.901  0.5916 -0.6339 -0.0431
 4738SOL     OW25849   0.627   2.178   2.904  0.1191  0.2474  0.2623
 4738SOL    HW125850   0.662   2.230   2.832 -0.4668  0.2118 -0.0437
 4738SOL    HW225851   0.538   2.213   2.898  0.0328 -0.1390 -0.6789
 4739SOL     OW25852   1.298   3.139   8.132 -0.4573  0.0921  0.0453
 4739SOL    HW125853   1.217   3.190   8.137  0.4392  1.7681 -2.1756
 4739SOL    HW225854   1.268   3.055   8.099  0.8185  0.1451 -1.2541
 4740SOL     OW25855   4.365   0.876  10.681  0.1700  0.0883  0.6314
 4740SOL    HW125856   4.418   0.925  10.618  1.0047 -0.6706  0.7301
 4740SOL    HW225857   4.420   0.797  10.685  1.5050  1.0052  0.5626
 4741SOL     OW25858   0.159   1.214   2.598 -0.3388  0.8129 -0.2074
 4741SOL    HW125859   0.196   1.126   2.599  0.0761  0.9599 -2.6133
 4741SOL    HW225860   0.231   1.275   2.613  0.7325 -0.9314  1.7484
 4742SOL     OW25861   3.087   4.026   5.345 -0.2905  0.2878  0.6895
 4742SOL    HW125862   3.061   4.052   5.256  0.6587 -0.3622  0.2326
 4742SOL    HW225863   3.179   4.051   5.349  0.9703 -4.0416 -1.2770
 4743SOL     OW25864   4.486   2.962   7.200  0.1607  0.1270  0.1802
 4743SOL    HW125865   4.578   2.985   7.214  0.2925 -0.1987 -0.1642
 4743SOL    HW225866   4.485   2.869   7.179  1.1952  0.2207 -0.2956
 4744SOL     OW25867   2.287   3.016   4.612  0.4690  0.5119 -0.0159
 4744SOL    HW125868   2.296   2.943   4.673 -1.2366  0.4101  0.1154
 4744SOL    HW225869   2.338   2.983   4.538  1.5328 -0.8509  1.3117
 4745SOL     OW25870   3.300   2.862   5.065 -0.0007 -0.0211 -0.4763
 4745SOL    HW125871   3.277   2.770   5.052 -3.0674  0.6116  0.6334
 4745SOL    HW225872   3.245   2.881   5.141  1.7132  4.0024 -0.2462
 4746SOL     OW25873   3.405   2.815   7.529  0.2167  0.7965 -0.7714
 4746SOL    HW125874   3.338   2.814   7.597  1.3861 -1.0212  0.3690
 4746SOL    HW225875   3.464   2.884   7.559  0.6727  1.1371 -2.4728
 4747SOL     OW25876   1.571   4.187   2.353  0.1720 -0.0745  0.2053
 4747SOL    HW125877   1.576   4.283   2.362 -2.3857  0.0017  0.8418
 4747SOL    HW225878   1.550   4.158   2.442  2.4536 -0.0909  0.7495
 4748SOL     OW25879   4.232   3.364   5.015 -0.2474  0.3962  0.2063
 4748SOL    HW125880   4.238   3.393   5.106  1.3722 -3.8349  1.4551
 4748SOL    HW225881   4.146   3.323   5.026 -0.5662  1.3369  1.2072
 4749SOL     OW25882   4.194   1.846   6.226  0.3380  0.2297 -0.5394
 4749SOL    HW125883   4.233   1.762   6.201  1.1437  0.2864  0.4971
 4749SOL    HW225884   4.106   1.831   6.192  0.9568 -0.9522 -1.6170
 4750SOL     OW25885   3.215   3.498   0.548  0.3908  0.0112  0.3271
 4750SOL    HW125886   3.199   3.436   0.618  1.3352 -0.1381  0.4070
 4750SOL    HW225887   3.129   3.512   0.507 -0.1346 -0.7114  1.1898
 4751SOL     OW25888   2.729   0.423   1.892 -0.0877 -0.4750 -0.1008
 4751SOL    HW125889   2.757   0.358   1.957  0.3340  0.0868  0.2815
 4751SOL    HW225890   2.685   0.483   1.952 -0.2107  0.0552 -0.7304
 4752SOL     OW25891   4.303   1.091  13.063  0.2028  0.3103 -0.7491
 4752SOL    HW125892   4.346   1.138  12.992  0.4756 -0.9409 -1.4064
 4752SOL    HW225893   4.256   1.019  13.021  0.5637 -1.5504  2.0129
 4753SOL     OW25894   4.593   1.193   9.890 -0.3561 -0.6332  0.6625
 4753SOL    HW125895   4.627   1.265   9.838 -1.7361 -3.2691 -3.9239
 4753SOL    HW225896   4.526   1.162   9.829 -1.1168  0.7397  0.8057
 4754SOL     OW25897   1.431   1.720  16.707  0.2369  0.0558 -0.0650
 4754SOL    HW125898   1.458   1.673  16.786 -1.3653 -0.8617 -0.0676
 4754SOL    HW225899   1.460   1.810  16.725  0.2370 -0.0022  0.2279
 4755SOL     OW25900   4.237   0.450   8.431  0.2237  0.6854 -0.0790
 4755SOL    HW125901   4.324   0.441   8.391 -0.0215 -1.3295 -0.1642
 4755SOL    HW225902   4.192   0.499   8.363 -0.2291  0.7970  0.2983
 4756SOL     OW25903   1.054   2.154   8.693  0.4424 -0.2165  0.4194
 4756SOL    HW125904   1.085   2.107   8.616  1.7385 -0.5192  1.1352
 4756SOL    HW225905   1.011   2.083   8.740  2.6126 -0.5869  1.8235
 4757SOL     OW25906   0.368   2.426  17.755 -0.1130  0.1466  0.1619
 4757SOL    HW125907   0.330   2.353   0.034  1.0399  0.2201  1.1922
 4757SOL    HW225908   0.462   2.406  17.759 -0.5839 -2.0303  0.3305
 4758SOL     OW25909   2.943   0.375   6.524 -0.4220 -0.0328 -0.3794
 4758SOL    HW125910   2.914   0.402   6.611 -0.5890  1.8596 -1.0140
 4758SOL    HW225911   2.897   0.426   6.457 -0.5711  0.1944 -0.1032
 4759SOL     OW25912   2.576   0.718  16.912 -0.3920 -0.0491 -0.2378
 4759SOL    HW125913   2.536   0.652  16.969 -1.2039  2.6137  2.2714
 4759SOL    HW225914   2.540   0.693  16.827  0.7199  1.2304 -1.0644
 4760SOL     OW25915   4.107   2.418   2.470  0.1712 -0.5755  0.2876
 4760SOL    HW125916   4.166   2.434   2.397 -1.6520 -0.8843 -1.2449
 4760SOL    HW225917   4.026   2.443   2.428  0.2528 -2.0595 -0.7531
 4761SOL     OW25918   2.859   1.078   5.103  0.0590 -0.2872  0.5771
 4761SOL    HW125919   2.893   1.035   5.024 -2.7993 -1.2218 -0.1684
 4761SOL    HW225920   2.909   1.158   5.116 -5.0335  2.6798  1.9116
 4762SOL     OW25921   4.087   3.122  13.163 -0.0767 -0.2437  0.0059
 4762SOL    HW125922   4.052   3.160  13.243 -0.1421 -0.1030 -0.0890
 4762SOL    HW225923   4.095   3.207  13.120  1.6282 -0.3250  0.1788
 4763SOL     OW25924   1.896   2.742   2.991 -0.2462  0.3862 -0.0332
 4763SOL    HW125925   1.805   2.761   2.968 -0.2440 -0.1510 -0.4824
 4763SOL    HW225926   1.930   2.697   2.913 -0.2605 -0.1424  0.2640
 4764SOL     OW25927   4.653   2.520  15.190  0.4407  0.4522  0.1169
 4764SOL    HW125928   4.595   2.597  15.195  1.0291  0.8893  0.2283
 4764SOL    HW225929   4.605   2.447  15.229  1.3206 -1.9495 -3.2601
 4765SOL     OW25930   0.491   3.488   5.897  0.1155 -0.0371 -0.0400
 4765SOL    HW125931   0.581   3.520   5.886  0.1571 -0.3155 -0.5200
 4765SOL    HW225932   0.453   3.571   5.925 -0.5466 -0.5574  0.5817
 4766SOL     OW25933   1.295   0.734   4.300  0.2449 -0.3583 -0.3324
 4766SOL    HW125934   1.242   0.748   4.221 -0.6197 -0.0023  0.3124
 4766SOL    HW225935   1.250   0.788   4.365  1.8441  1.5926 -0.8447
 4767SOL     OW25936   1.080   4.737   6.023  0.0752 -0.6730  0.0856
 4767SOL    HW125937   1.149   0.040   5.975 -1.3589 -0.5474 -1.8515
 4767SOL    HW225938   1.073   4.661   5.965 -0.2447  0.2766 -1.1191
 4768SOL     OW25939   0.215   0.121   6.674  0.5240 -0.3232 -0.8540
 4768SOL    HW125940   0.182   0.176   6.602 -1.5708  0.7158  0.9132
 4768SOL    HW225941   0.196   0.181   6.746  1.7950 -1.2721  0.2515
 4769SOL     OW25942   0.437   1.489   8.820  0.1092 -0.5314 -0.2893
 4769SOL    HW125943   0.396   1.417   8.773 -0.8541  0.8255 -1.5498
 4769SOL    HW225944   0.456   1.554   8.752  0.3392  1.6665  1.8610
 4770SOL     OW25945   0.439   0.287   7.197  0.0094  0.1962  0.0171
 4770SOL    HW125946   0.465   0.338   7.120  0.5693 -0.3927 -0.1804
 4770SOL    HW225947   0.404   0.207   7.157 -1.0594  0.1045  1.1481
 4771SOL     OW25948   4.099   2.866   8.152  0.0429  0.3537 -0.1590
 4771SOL    HW125949   4.148   2.948   8.162 -1.3507  1.3806 -1.6832
 4771SOL    HW225950   4.074   2.854   8.060  0.9339 -0.4814 -0.2961
 4772SOL     OW25951   2.793   0.258  14.360 -0.2333 -0.7092 -0.2274
 4772SOL    HW125952   2.804   0.228  14.450  0.7653  2.0116  0.5636
 4772SOL    HW225953   2.846   0.190  14.318  0.2571 -0.1891 -0.4506
 4773SOL     OW25954   0.047   1.395  10.065  0.7247  0.5095 -0.4156
 4773SOL    HW125955   0.030   1.417   9.973 -0.5594  1.0686 -0.0452
 4773SOL    HW225956   4.726   1.455  10.103 -0.5707 -0.1978 -1.5000
 4774SOL     OW25957   3.160   0.351  12.160  0.0558 -0.1793 -0.2178
 4774SOL    HW125958   3.138   0.319  12.073 -1.0942  0.9840 -0.3544
 4774SOL    HW225959   3.097   0.423  12.161  0.1778 -0.0910  1.1429
 4775SOL     OW25960   1.155   1.791   2.770 -0.5270  0.1003 -0.0146
 4775SOL    HW125961   1.142   1.730   2.697  2.3626  1.7549 -1.9069
 4775SOL    HW225962   1.231   1.840   2.740  0.1316 -0.0226  1.4672
 4776SOL     OW25963   4.277   1.277   3.464  0.0603 -0.1935  0.3754
 4776SOL    HW125964   4.345   1.333   3.426 -1.1161  1.8205  1.2813
 4776SOL    HW225965   4.211   1.335   3.500  0.2270 -0.4974  1.1901
 4777SOL     OW25966   4.037   1.733  15.672  0.2292  0.1461  0.0795
 4777SOL    HW125967   4.047   1.650  15.719 -0.1643  0.9009  1.5213
 4777SOL    HW225968   4.125   1.763  15.695  0.4589 -0.5941  0.1565
 4778SOL     OW25969   3.766   3.516   3.662  0.2188 -0.2631  0.5249
 4778SOL    HW125970   3.764   3.538   3.755  0.0867  0.2604  0.3960
 4778SOL    HW225971   3.809   3.592   3.622 -1.8828  0.6877  0.0949
 4779SOL     OW25972   0.109   3.431   6.110  0.4661  0.0410  0.0923
 4779SOL    HW125973   0.134   3.512   6.065 -1.1942  1.4919  1.7428
 4779SOL    HW225974   0.018   3.423   6.081  0.5903 -1.7541  0.2137
 4780SOL     OW25975   3.861   4.330   5.790  0.2015 -0.4648 -0.2831
 4780SOL    HW125976   3.877   4.343   5.883 -0.0923 -1.7834 -0.0599
 4780SOL    HW225977   3.783   4.385   5.786  2.0169  2.0388 -1.2781
 4781SOL     OW25978   0.638   1.008   6.330  0.0701 -0.0577 -0.1288
 4781SOL    HW125979   0.713   1.067   6.335  0.6175 -0.6946 -1.1181
 4781SOL    HW225980   0.691   0.929   6.320  0.3779 -0.4099  3.9890
 4782SOL     OW25981   4.020   0.630   5.269  0.2917  0.0322 -0.0822
 4782SOL    HW125982   3.929   0.609   5.247 -0.5819  1.9797  1.6881
 4782SOL    HW225983   4.016   0.644   5.363 -0.1405  0.7745 -0.2045
 4783SOL     OW25984   0.677   0.294   6.920  0.4978  0.2129  0.1018
 4783SOL    HW125985   0.601   0.268   6.869  1.4983  0.1398 -1.3496
 4783SOL    HW225986   0.746   0.294   6.853 -2.7570 -1.0094 -3.2562
 4784SOL     OW25987   2.201   0.165   1.850 -0.0146  0.1702 -0.6062
 4784SOL    HW125988   2.264   0.227   1.814 -0.4486  1.2275  0.4386
 4784SOL    HW225989   2.129   0.189   1.791  0.0402 -0.7817 -1.0647
 4785SOL     OW25990   3.708   4.413   8.492 -0.5916  0.1018 -0.1459
 4785SOL    HW125991   3.624   4.394   8.533 -1.4716 -1.0015 -2.4114
 4785SOL    HW225992   3.775   4.406   8.560  0.3841 -4.2271 -1.5749
 4786SOL     OW25993   3.078   0.052   2.438  0.2529  0.1684 -0.1055
 4786SOL    HW125994   2.993   0.069   2.479  0.7378  1.7169  0.2795
 4786SOL    HW225995   3.067   0.100   2.356 -2.8720  0.8325  0.6874
 4787SOL     OW25996   0.929   3.391   7.886  0.6420 -0.0986  0.4742
 4787SOL    HW125997   0.961   3.452   7.819  0.0474  0.7446  0.9516
 4787SOL    HW225998   0.879   3.444   7.949  1.5491 -0.3735  1.4122
 4788SOL     OW25999   4.691   0.299   6.959 -0.0023 -0.3794  0.1251
 4788SOL    HW126000   4.656   0.378   6.919 -2.9249 -1.1463  1.0845
 4788SOL    HW226001   0.038   0.290   6.930 -0.3647  2.9003 -1.9427
 4789SOL     OW26002   4.251   1.769   2.384  0.4008 -0.3112  0.0209
 4789SOL    HW126003   4.179   1.794   2.326  0.3670  1.5487  0.8418
 4789SOL    HW226004   4.207   1.803   2.462  0.8207 -0.1060  0.1681
 4790SOL     OW26005   2.134   3.646   8.896 -0.6164  0.6433 -0.1808
 4790SOL    HW126006   2.162   3.587   8.967 -0.3137 -0.0637 -0.8787
 4790SOL    HW226007   2.042   3.646   8.920  0.1388  0.5628  2.7859
 4791SOL     OW26008   4.558   3.697  16.234  0.6542 -0.6194  0.1584
 4791SOL    HW126009   4.628   3.711  16.170 -0.7147  0.4447 -1.1301
 4791SOL    HW226010   4.473   3.705  16.189  0.6560  1.8086  0.6090
 4792SOL     OW26011   1.103   4.491   6.220  0.7985 -0.5934 -0.6885
 4792SOL    HW126012   1.100   4.587   6.226 -0.0980 -0.5479 -1.7479
 4792SOL    HW226013   1.123   4.486   6.126 -0.7183 -0.7158 -1.0041
 4793SOL     OW26014   1.707   2.261   5.528  0.2262 -0.1013  0.3500
 4793SOL    HW126015   1.637   2.323   5.508  0.5330  0.0872 -0.1582
 4793SOL    HW226016   1.675   2.196   5.590  0.3213  1.8726  2.4814
 4794SOL     OW26017   0.107   0.581   4.271 -0.0679  0.2076  0.1973
 4794SOL    HW126018   0.071   0.655   4.222  0.6954  0.1367 -0.4637
 4794SOL    HW226019   0.101   0.624   4.356 -0.3903 -0.4027  0.4881
 4795SOL     OW26020   1.811   4.626   7.080 -0.1720  0.0438 -0.0931
 4795SOL    HW126021   1.817   4.659   6.991 -1.6529  1.2236  0.2434
 4795SOL    HW226022   1.781   4.538   7.059  1.4826 -0.6887  0.6405
 4796SOL     OW26023   0.332   2.071   8.046  0.1861  0.2828 -0.7742
 4796SOL    HW126024   0.300   2.148   8.094 -0.7398 -0.4703 -0.1886
 4796SOL    HW226025   0.423   2.078   8.074  0.0904  2.1384 -0.9373
 4797SOL     OW26026   0.819   2.796   4.765 -0.4388 -0.6793  0.3189
 4797SOL    HW126027   0.843   2.885   4.740  0.0163 -0.6507  0.8770
 4797SOL    HW226028   0.881   2.750   4.708 -1.7300 -1.3492 -0.5590
 4798SOL     OW26029   2.831   1.844   4.385  0.3008  0.6450 -0.0258
 4798SOL    HW126030   2.884   1.853   4.464 -0.5142 -0.6332  0.6620
 4798SOL    HW226031   2.792   1.756   4.385  2.5300 -0.3600 -1.4651
 4799SOL     OW26032   0.938   4.136  15.689  0.0782  0.2492 -0.0094
 4799SOL    HW126033   0.947   4.121  15.783 -0.0607 -0.3280 -0.0927
 4799SOL    HW226034   1.004   4.079  15.650  0.6810  1.0645 -0.1798
 4800SOL     OW26035   0.802   2.250   3.685 -0.3146  0.2317 -0.1955
 4800SOL    HW126036   0.779   2.227   3.595  1.6387 -0.8196 -0.4304
 4800SOL    HW226037   0.724   2.221   3.733  1.0093 -0.4539  1.5231
 4801SOL     OW26038   3.725   0.924   7.799 -0.2875 -0.1551  0.0365
 4801SOL    HW126039   3.689   0.884   7.720  0.4207 -2.0419  0.6751
 4801SOL    HW226040   3.816   0.934   7.770 -0.0150 -1.8163  0.3396
 4802SOL     OW26041   3.890   4.247   7.679 -0.4778  0.3694  0.1481
 4802SOL    HW126042   3.858   4.322   7.629 -1.6864 -0.3169 -0.0915
 4802SOL    HW226043   3.883   4.280   7.769  0.9766 -0.0404  0.4247
 4803SOL     OW26044   4.386   3.270   3.993 -0.0413  0.2701 -0.0953
 4803SOL    HW126045   4.385   3.361   4.024 -0.6784 -0.3799  1.7790
 4803SOL    HW226046   4.394   3.212   4.068 -1.4866  1.5704  1.0481
 4804SOL     OW26047   2.130   3.181   7.437  0.4219  0.0166 -0.0415
 4804SOL    HW126048   2.094   3.134   7.513  1.8801 -0.3046  0.4391
 4804SOL    HW226049   2.057   3.204   7.380  0.2295 -4.0794 -1.3761
 4805SOL     OW26050   1.508   4.648   7.696 -0.2154 -0.0340  0.1557
 4805SOL    HW126051   1.428   4.649   7.644  0.2693  1.0938 -0.5682
 4805SOL    HW226052   1.512   4.554   7.717 -3.8756  0.2225  1.9300
 4806SOL     OW26053   3.642   0.912  13.003 -0.5518 -0.4887 -0.0223
 4806SOL    HW126054   3.601   0.878  12.925  1.5962 -1.5164 -0.7087
 4806SOL    HW226055   3.668   0.994  12.960 -1.7246 -0.4780 -0.6837
 4807SOL     OW26056   0.829   2.224   5.442  0.5331  0.0008 -0.5830
 4807SOL    HW126057   0.882   2.233   5.363  1.6905  1.6419  0.3821
 4807SOL    HW226058   0.810   2.316   5.463 -1.2938  0.3457 -3.7219
 4808SOL     OW26059   0.338   2.853   9.412  0.8610 -0.0923 -0.0747
 4808SOL    HW126060   0.412   2.822   9.464  1.8998 -0.2017 -1.6165
 4808SOL    HW226061   0.318   2.933   9.461  1.7146  0.5981 -0.8484
 4809SOL     OW26062   0.881   3.698   0.189  0.1985 -0.3450 -0.5610
 4809SOL    HW126063   0.899   3.693   0.283 -2.2133  1.0758 -0.0214
 4809SOL    HW226064   0.787   3.682   0.191  0.1387 -0.0752 -1.4948
 4810SOL     OW26065   4.578   1.685   1.534  0.3368 -0.1441  0.6713
 4810SOL    HW126066   4.521   1.741   1.481 -0.4593 -0.3287  1.3465
 4810SOL    HW226067   4.644   1.680   1.465  1.5300  1.0432  1.7222
 4811SOL     OW26068   1.244   2.525   1.610 -0.3033 -0.0908  0.2536
 4811SOL    HW126069   1.271   2.575   1.687 -1.8236  2.4865 -0.8947
 4811SOL    HW226070   1.246   2.585   1.535  0.7606  0.8021  0.9940
 4812SOL     OW26071   3.318   4.433   8.215  0.2311 -0.1343  0.0173
 4812SOL    HW126072   3.383   4.492   8.177 -0.9488  1.4274  0.4554
 4812SOL    HW226073   3.297   4.486   8.292  0.4768 -1.4137  0.9643
 4813SOL     OW26074   2.755   2.241   8.145 -0.5610 -0.3009  0.0800
 4813SOL    HW126075   2.770   2.186   8.068  0.2350  0.6718 -0.4552
 4813SOL    HW226076   2.754   2.184   8.222 -1.8097  0.7262  0.8294
 4814SOL     OW26077   2.117   0.297  13.984  0.8997  0.2496 -1.1102
 4814SOL    HW126078   2.112   0.202  13.974 -0.6226  0.3849 -1.5972
 4814SOL    HW226079   2.027   0.317  13.959 -0.2164 -0.5942  2.3076
 4815SOL     OW26080   1.993   3.068  15.245  1.0972 -0.2484 -0.1136
 4815SOL    HW126081   1.918   3.053  15.301 -0.2021  2.0884 -1.2044
 4815SOL    HW226082   1.954   3.045  15.161 -2.3855  1.5179  1.0433
 4816SOL     OW26083   2.184   3.844   5.911 -0.5035  0.0999  0.6408
 4816SOL    HW126084   2.242   3.886   5.847  0.2365 -0.8691  0.6868
 4816SOL    HW226085   2.221   3.879   5.992  2.3058 -0.0975 -0.5424
 4817SOL     OW26086   1.061   2.769   6.003  0.0117 -0.2353 -0.5759
 4817SOL    HW126087   1.046   2.790   5.911  1.6004 -0.9802 -1.0247
 4817SOL    HW226088   1.135   2.828   6.016  2.4156 -3.5335  0.7634
 4818SOL     OW26089   3.884   4.524   7.196 -0.7255 -0.0159 -0.5845
 4818SOL    HW126090   3.893   4.548   7.104 -1.4879 -0.2817 -0.7310
 4818SOL    HW226091   3.976   4.521   7.221 -1.2416  0.6113  1.3535
 4819SOL     OW26092   1.377   3.818   8.015  0.5872  0.3117  0.6183
 4819SOL    HW126093   1.473   3.811   8.015  0.6285  0.7559 -2.7015
 4819SOL    HW226094   1.360   3.875   7.940  1.4605 -0.4051 -0.1321
 4820SOL     OW26095   0.659   2.202   1.417 -0.1576  0.2597  0.8575
 4820SOL    HW126096   0.691   2.163   1.336 -0.4792 -1.5590  1.6259
 4820SOL    HW226097   0.567   2.180   1.405  0.6935 -2.9921  0.3820
 4821SOL     OW26098   1.709   1.676  16.392 -0.0713  0.6347 -0.1798
 4821SOL    HW126099   1.731   1.711  16.306 -1.5128  1.1680 -0.3360
 4821SOL    HW226100   1.653   1.745  16.428  0.7688  0.8096  0.7817
 4822SOL     OW26101   2.850   1.065   4.641  0.0469 -0.3625 -0.0521
 4822SOL    HW126102   2.933   1.082   4.687 -0.4931  0.7028  0.5331
 4822SOL    HW226103   2.879   0.990   4.589 -2.1362 -1.6613  0.6218
 4823SOL     OW26104   3.697   2.282  13.942 -0.2350  0.3341  0.0524
 4823SOL    HW126105   3.791   2.266  13.948  0.0675  1.6783 -0.9732
 4823SOL    HW226106   3.697   2.350  13.874 -3.5098  0.6087  0.2992
 4824SOL     OW26107   3.614   3.146  14.553  0.3665  0.2068 -0.2001
 4824SOL    HW126108   3.547   3.192  14.502 -0.0987 -1.7492 -1.3476
 4824SOL    HW226109   3.562   3.108  14.623 -0.7453  0.7513 -0.7254
 4825SOL     OW26110   4.652   4.169   8.667  0.1151 -0.3271 -0.2508
 4825SOL    HW126111   4.635   4.088   8.619 -0.9574  0.4554 -1.2044
 4825SOL    HW226112   4.691   4.211   8.591 -0.5838 -0.4930 -0.7044
 4826SOL     OW26113   4.230   4.062   3.478  0.1616  0.0577  0.3551
 4826SOL    HW126114   4.223   4.029   3.568  2.6476 -0.1702  0.4561
 4826SOL    HW226115   4.275   3.987   3.440 -2.0395 -0.5885 -0.9487
 4827SOL     OW26116   1.288   2.726   3.406  0.1526 -0.0012  0.0139
 4827SOL    HW126117   1.334   2.643   3.391 -1.3871 -0.0542 -4.3239
 4827SOL    HW226118   1.202   2.685   3.405  1.3655 -2.6344  2.5797
 4828SOL     OW26119   1.088   1.530  14.870 -0.3457 -0.2001 -0.0798
 4828SOL    HW126120   1.030   1.466  14.911  1.5889  1.0919  4.7121
 4828SOL    HW226121   1.157   1.528  14.936  0.6563 -1.6586 -1.1552
 4829SOL     OW26122   0.433   2.807   4.596  0.6474 -0.9944  0.3944
 4829SOL    HW126123   0.423   2.897   4.563 -3.3745 -3.1741 -4.2601
 4829SOL    HW226124   0.477   2.761   4.524 -1.7025 -1.3708 -0.7703
 4830SOL     OW26125   3.469   0.421   6.226 -0.1818  0.1585 -0.3805
 4830SOL    HW126126   3.508   0.356   6.285 -0.1656 -0.9020 -1.5467
 4830SOL    HW226127   3.378   0.393   6.215 -0.4333  0.7307  0.2707
 4831SOL     OW26128   0.645   3.091   1.113  0.3099  0.6315 -0.0862
 4831SOL    HW126129   0.712   3.077   1.046  0.9918 -0.9367  0.9240
 4831SOL    HW226130   0.609   3.178   1.095 -1.8633 -0.1284  0.5996
 4832SOL     OW26131   0.395   4.722   4.672 -0.3781 -0.1393 -0.1281
 4832SOL    HW126132   0.337   4.682   4.607 -2.3452  0.4984  1.2162
 4832SOL    HW226133   0.440   4.648   4.712  0.9184 -0.0620 -1.4521
 4833SOL     OW26134   1.487   0.256   1.173 -0.9185  0.2735  0.3119
 4833SOL    HW126135   1.537   0.330   1.209  0.4442  0.3078 -1.6256
 4833SOL    HW226136   1.503   0.188   1.238 -1.0095 -0.4077 -0.3784
 4834SOL     OW26137   1.663   1.773   4.268  0.3774 -0.5374 -0.9567
 4834SOL    HW126138   1.681   1.718   4.345  2.8217  2.5780  0.7128
 4834SOL    HW226139   1.644   1.704   4.205 -0.7259 -0.9127 -0.2026
 4835SOL     OW26140   0.329   2.277   3.009 -0.2788  0.0377 -0.0235
 4835SOL    HW126141   0.303   2.368   3.027 -1.5189 -0.2636 -0.3303
 4835SOL    HW226142   0.265   2.254   2.942 -2.0951 -0.4904  1.8687
 4836SOL     OW26143   3.743   1.507   3.265 -0.0760 -0.0132 -0.0642
 4836SOL    HW126144   3.825   1.460   3.277 -0.4056 -0.4715  0.3669
 4836SOL    HW226145   3.753   1.529   3.172  1.0065  1.7922  0.4818
 4837SOL     OW26146   0.131   1.609   6.481  0.1963  0.4617 -0.2646
 4837SOL    HW126147   0.140   1.693   6.527 -1.1069  0.3643  0.1533
 4837SOL    HW226148   0.052   1.573   6.520  0.6476  1.1527  1.2768
 4838SOL     OW26149   0.533   4.232  14.555 -0.0055 -0.1557 -0.1489
 4838SOL    HW126150   0.511   4.177  14.630 -0.8539 -0.3987 -0.5688
 4838SOL    HW226151   0.629   4.234  14.558  0.0449 -0.5347 -1.6299
 4839SOL     OW26152   4.196   3.146   4.339  0.1720  0.1208 -0.2168
 4839SOL    HW126153   4.258   3.078   4.365 -1.5756 -0.4196  2.6536
 4839SOL    HW226154   4.149   3.151   4.423 -1.3195 -1.0254 -0.9820
 4840SOL     OW26155   2.228   4.416  17.438 -0.2586 -0.2074 -0.1251
 4840SOL    HW126156   2.272   4.495  17.406 -2.9952  1.1137 -0.6495
 4840SOL    HW226157   2.204   4.445  17.526  1.9122  1.0210  0.0574
 4841SOL     OW26158   1.045   3.009   9.955  0.7970  0.1606  0.3470
 4841SOL    HW126159   1.101   2.952  10.007 -1.4474 -2.7108 -0.4155
 4841SOL    HW226160   0.976   2.947   9.933  0.0819  1.1851 -0.3154
 4842SOL     OW26161   1.047   1.960   3.979  0.7722 -0.6405  0.3229
 4842SOL    HW126162   0.951   1.956   3.983  0.8210 -1.2764  0.8080
 4842SOL    HW226163   1.057   2.020   3.905 -0.9640 -1.9261 -0.9645
 4843SOL     OW26164   2.216   3.763   5.077 -0.5544 -0.5165  0.0226
 4843SOL    HW126165   2.171   3.847   5.091 -1.0915 -0.7276 -0.4249
 4843SOL    HW226166   2.308   3.789   5.075 -0.4488 -0.6790  3.1338
 4844SOL     OW26167   0.908   2.993  11.730  0.6390 -0.3334 -0.6906
 4844SOL    HW126168   0.971   2.936  11.687  0.8607 -1.6962  1.4472
 4844SOL    HW226169   0.949   3.079  11.725 -0.3781  0.2788  1.5682
 4845SOL     OW26170   0.329   4.201   6.243 -0.4290  0.2051  0.3691
 4845SOL    HW126171   0.340   4.162   6.157 -1.1688 -1.5940  1.1003
 4845SOL    HW226172   0.364   4.128   6.295  0.5586  0.9657  0.7832
 4846SOL     OW26173   2.655   0.006   7.696  0.2710 -0.1567  0.5909
 4846SOL    HW126174   2.674   4.722   7.606  2.1176  3.2905 -0.0414
 4846SOL    HW226175   2.599   0.083   7.685  0.1547 -0.1093  1.5398
 4847SOL     OW26176   4.083   0.052   3.790 -0.4846  0.2409  0.1045
 4847SOL    HW126177   4.174   0.033   3.768  0.0084  0.3611  1.9966
 4847SOL    HW226178   4.093   0.044   3.885 -1.9999  4.9623  0.6400
 4848SOL     OW26179   1.508   4.436   5.408 -0.2554  0.5380 -0.5779
 4848SOL    HW126180   1.444   4.376   5.371  0.7192 -0.0639 -1.2750
 4848SOL    HW226181   1.464   4.471   5.485 -0.2496 -1.0402  0.1392
 4849SOL     OW26182   0.871   4.403   3.458  0.6478  0.4115 -0.7981
 4849SOL    HW126183   0.818   4.402   3.379 -0.1069  2.7672 -0.3107
 4849SOL    HW226184   0.836   4.329   3.508 -0.9116  0.4468 -1.8502
 4850SOL     OW26185   1.456   1.557   2.244  0.0022 -0.3957 -0.0494
 4850SOL    HW126186   1.522   1.516   2.301 -0.2030 -1.4526 -0.5728
 4850SOL    HW226187   1.421   1.631   2.294 -0.1292  0.1730 -0.9994
 4851SOL     OW26188   2.197   2.559  15.813  0.2637  0.0236  0.8799
 4851SOL    HW126189   2.243   2.638  15.841  0.1730  0.7560 -1.0436
 4851SOL    HW226190   2.174   2.517  15.896 -1.7918 -0.0465  0.2832
 4852SOL     OW26191   3.399   2.712  10.144  0.0489 -0.4420 -0.2642
 4852SOL    HW126192   3.484   2.743  10.177 -0.3179  0.8007 -0.4859
 4852SOL    HW226193   3.345   2.691  10.220 -0.3633  4.5712  0.8279
 4853SOL     OW26194   1.044   2.099  14.526  0.5540  0.2604  0.5167
 4853SOL    HW126195   0.984   2.171  14.509  0.9851  0.2336 -1.1295
 4853SOL    HW226196   1.027   2.058  14.441  1.4422  0.0863  0.4221
 4854SOL     OW26197   4.481   2.291   8.068 -0.4875  0.5131 -0.7050
 4854SOL    HW126198   4.575   2.286   8.051  0.0145  0.0500  2.2387
 4854SOL    HW226199   4.476   2.386   8.055  0.5477  0.5385 -0.9188
 4855SOL     OW26200   4.565   4.091   7.915 -0.1316  0.3207 -0.1679
 4855SOL    HW126201   4.475   4.105   7.944  0.7671 -0.3006  2.9602
 4855SOL    HW226202   4.564   4.039   7.834  1.1284  1.9999 -1.2617
 4856SOL     OW26203   2.513   2.996  12.242  0.2622  0.5077 -0.1304
 4856SOL    HW126204   2.601   2.972  12.271  0.9777  0.6134 -2.1995
 4856SOL    HW226205   2.517   3.066  12.177 -0.0805  0.0203 -0.6713
 4857SOL     OW26206   4.539   4.280   4.950  0.9211  0.1497 -0.5131
 4857SOL    HW126207   4.445   4.296   4.951  1.1607  1.4169  0.9140
 4857SOL    HW226208   4.572   4.342   4.885  0.8522 -0.3364 -1.0102
 4858SOL     OW26209   0.379   3.745   7.262 -0.2071 -0.0220  0.0236
 4858SOL    HW126210   0.319   3.812   7.295 -0.0075 -0.0128  0.3714
 4858SOL    HW226211   0.393   3.690   7.340 -3.0531 -1.8213 -0.7244
 4859SOL     OW26212   3.641   1.501  14.624  0.1177 -0.1732  0.0728
 4859SOL    HW126213   3.564   1.505  14.681 -1.2615  0.3246 -1.7905
 4859SOL    HW226214   3.637   1.588  14.583  0.1876  0.6903  1.9197
 4860SOL     OW26215   0.590   3.728   2.772 -0.7682  0.2926  0.3936
 4860SOL    HW126216   0.589   3.806   2.716  3.7764 -0.7047 -1.0608
 4860SOL    HW226217   0.577   3.763   2.860  0.0603 -1.2573  1.1237
 4861SOL     OW26218   3.309   3.207   7.756  0.4104 -0.1789 -0.4282
 4861SOL    HW126219   3.302   3.264   7.680  0.7404 -0.8168 -0.9350
 4861SOL    HW226220   3.218   3.180   7.763  1.0245 -2.0326  0.2754
 4862SOL     OW26221   1.529   0.656   4.157  0.1678 -0.3388 -0.0854
 4862SOL    HW126222   1.452   0.709   4.179  1.0017  0.0873  1.7592
 4862SOL    HW226223   1.565   0.639   4.244  0.7125  0.1097 -0.2250
 4863SOL     OW26224   4.695   4.237   2.794 -0.1036 -0.2085  0.0189
 4863SOL    HW126225   4.674   4.224   2.886 -0.9938 -0.4289 -0.2100
 4863SOL    HW226226   0.012   4.312   2.789 -0.7120  0.4435  2.5153
 4864SOL     OW26227   0.975   0.154   2.716  0.3248 -0.5670 -0.1918
 4864SOL    HW126228   0.988   0.229   2.773  1.7607 -2.8821  2.4907
 4864SOL    HW226229   1.011   0.084   2.770  1.8156 -1.0412 -1.8151
 4865SOL     OW26230   1.643   2.425   0.538  0.7231  0.1150 -0.1692
 4865SOL    HW126231   1.679   2.513   0.539 -1.8278  1.1545 -0.3111
 4865SOL    HW226232   1.613   2.416   0.629  0.8770  0.7986 -0.0562
 4866SOL     OW26233   0.619   3.923   6.686 -0.7183  0.4191  0.1420
 4866SOL    HW126234   0.646   3.901   6.597  2.6741 -2.1566  1.8011
 4866SOL    HW226235   0.628   3.835   6.724 -0.7624  0.7356  0.8883
 4867SOL     OW26236   4.469   2.615   6.857  0.6869 -0.3921 -0.2538
 4867SOL    HW126237   4.450   2.673   6.783 -2.3221 -0.9783  0.0508
 4867SOL    HW226238   4.545   2.658   6.895  1.4747 -0.5694 -1.6386
 4868SOL     OW26239   3.858   4.605   4.596 -0.2637 -0.1124 -0.3570
 4868SOL    HW126240   3.832   4.624   4.506  0.9918  0.3048 -0.6289
 4868SOL    HW226241   3.788   4.542   4.613  0.4544 -0.0643  2.7094
 4869SOL     OW26242   0.693   0.817  15.190  0.6440  0.2994  0.3988
 4869SOL    HW126243   0.676   0.899  15.236  1.6439  0.2985  0.7636
 4869SOL    HW226244   0.609   0.779  15.162  0.1475  1.5393  0.1757
 4870SOL     OW26245   0.537   3.845   6.219  0.0209  0.2874  0.5589
 4870SOL    HW126246   0.583   3.767   6.250  1.2186  0.7253 -0.1095
 4870SOL    HW226247   0.608   3.909   6.222  0.9434 -0.7021 -0.0567
 4871SOL     OW26248   0.240   3.478   5.082  0.8721  0.1723 -0.0456
 4871SOL    HW126249   0.235   3.534   5.159 -0.8771 -1.9550  1.3683
 4871SOL    HW226250   0.248   3.542   5.011  0.7893  0.1017 -0.1185
 4872SOL     OW26251   4.025   0.656   5.526  0.2600 -0.4278 -0.0678
 4872SOL    HW126252   3.994   0.746   5.519  1.1652 -0.2185 -1.3856
 4872SOL    HW226253   4.089   0.666   5.597 -1.8568 -1.2503  1.9561
 4873SOL     OW26254   1.551   0.406   2.769 -0.1651  0.4676  0.1450
 4873SOL    HW126255   1.562   0.389   2.676  2.6810 -0.1042  0.6023
 4873SOL    HW226256   1.642   0.418   2.796 -1.0290  2.1123  2.4254
 4874SOL     OW26257   1.908   1.754   4.882  0.1567  0.1535  0.2029
 4874SOL    HW126258   1.991   1.708   4.894 -0.3081 -0.4597  1.0926
 4874SOL    HW226259   1.905   1.777   4.789 -1.7612 -0.7585  0.0479
 4875SOL     OW26260   4.298   2.791   5.515 -0.3697 -0.3435 -0.2556
 4875SOL    HW126261   4.292   2.841   5.433  1.8152 -1.1677 -0.9346
 4875SOL    HW226262   4.344   2.856   5.568 -1.6600 -0.8278  1.4584
 4876SOL     OW26263   2.452   1.072   1.234  0.0381 -0.4518 -0.0356
 4876SOL    HW126264   2.363   1.099   1.257  0.0793  0.4189 -0.8859
 4876SOL    HW226265   2.459   1.099   1.143  2.2080  2.8773  1.1406
 4877SOL     OW26266   0.777   3.172   8.577  0.0930 -0.2136 -0.2212
 4877SOL    HW126267   0.723   3.130   8.644 -0.2112  0.3713 -0.0929
 4877SOL    HW226268   0.723   3.250   8.563  0.8898  0.5023  0.7051
 4878SOL     OW26269   1.444   0.822   0.656 -0.0324 -0.6837 -0.0688
 4878SOL    HW126270   1.413   0.739   0.691 -2.9818  0.3598 -0.2559
 4878SOL    HW226271   1.507   0.796   0.589  1.7345 -0.1012  1.3617
 4879SOL     OW26272   2.930   3.624   6.661  0.6468 -0.1033 -0.0339
 4879SOL    HW126273   2.938   3.630   6.757  1.3025  1.0600 -0.1742
 4879SOL    HW226274   2.932   3.717   6.639  1.2273  0.3928  2.0369
 4880SOL     OW26275   1.595   3.936   9.032 -0.0642 -0.3495 -0.3474
 4880SOL    HW126276   1.508   3.976   9.033  0.1208  0.1109 -2.5124
 4880SOL    HW226277   1.653   4.002   8.995  2.9663 -2.3779  0.7873
 4881SOL     OW26278   4.555   0.894   9.738  0.3000  0.1815  0.1097
 4881SOL    HW126279   4.557   0.877   9.644 -1.3196  1.0083 -0.0776
 4881SOL    HW226280   4.605   0.976   9.738  1.3871 -0.4923 -0.9694
 4882SOL     OW26281   3.507   2.600   7.398  0.6800 -0.4001 -0.1149
 4882SOL    HW126282   3.418   2.586   7.431  0.7881  1.9976  1.1596
 4882SOL    HW226283   3.518   2.684   7.443 -1.1008 -0.7052  0.9016
 4883SOL     OW26284   2.849   3.734  16.283  0.0777  0.1434  0.2073
 4883SOL    HW126285   2.843   3.805  16.347 -0.2872 -0.8063  1.2259
 4883SOL    HW226286   2.916   3.687  16.331 -0.2518 -1.4506 -0.9009
 4884SOL     OW26287   0.930   3.348   3.483  0.3045 -0.2771  0.1280
 4884SOL    HW126288   1.007   3.354   3.540 -0.3931 -1.4531  1.2061
 4884SOL    HW226289   0.877   3.421   3.513  1.5037 -0.5641  2.9446
 4885SOL     OW26290   4.178   2.632  12.907  0.0738 -0.3746  0.0403
 4885SOL    HW126291   4.126   2.597  12.834  1.6721 -0.9727 -0.8062
 4885SOL    HW226292   4.265   2.592  12.908 -0.4610 -1.6015 -1.2472
 4886SOL     OW26293   1.614   0.428   4.049 -0.9727 -0.0887 -0.0204
 4886SOL    HW126294   1.528   0.387   4.046 -1.7469  1.4317  1.3750
 4886SOL    HW226295   1.596   0.508   4.098 -0.4743 -0.0917  0.1646
 4887SOL     OW26296   3.085   3.340  10.106 -0.0492  0.1965  0.2825
 4887SOL    HW126297   3.141   3.302  10.039 -0.7898 -0.6901  0.1582
 4887SOL    HW226298   3.009   3.365  10.053 -1.2047 -1.3210  1.2121
 4888SOL     OW26299   4.506   3.484  16.397  0.6806 -0.1263  0.0577
 4888SOL    HW126300   4.506   3.563  16.343 -0.4484  0.1418  0.4637
 4888SOL    HW226301   4.530   3.525  16.480  1.2446  0.0786 -0.2053
 4889SOL     OW26302   3.207   3.072  14.718 -0.2500  0.2081  0.1686
 4889SOL    HW126303   3.119   3.110  14.717  1.0283  3.1049 -1.3119
 4889SOL    HW226304   3.180   2.988  14.680 -1.8079  1.7928 -2.2115
 4890SOL     OW26305   1.664   1.204  16.627 -0.0113 -0.7317  0.2409
 4890SOL    HW126306   1.661   1.247  16.712 -0.4419 -1.8069  0.7745
 4890SOL    HW226307   1.684   1.280  16.572 -0.6396 -2.5383 -2.4966
 4891SOL     OW26308   3.263   4.364   6.067  0.0745 -0.0474  0.4532
 4891SOL    HW126309   3.318   4.442   6.072 -1.4157  0.9703  0.9761
 4891SOL    HW226310   3.250   4.354   5.973  1.8309 -1.1754  0.3305
 4892SOL     OW26311   4.428   3.757   9.267 -0.6893  0.5236 -0.4808
 4892SOL    HW126312   4.418   3.780   9.175 -0.3978  0.4533 -0.5317
 4892SOL    HW226313   4.361   3.689   9.260 -0.3497  0.1710 -0.3129
 4893SOL     OW26314   2.476   4.674   5.187  0.8759 -1.1702 -0.1149
 4893SOL    HW126315   2.469   4.629   5.103 -0.9622 -1.1254  0.0169
 4893SOL    HW226316   2.404   4.636   5.237 -0.8970 -0.4126 -2.1280
 4894SOL     OW26317   3.888   1.295   7.304  0.3484 -0.3946 -0.3213
 4894SOL    HW126318   3.827   1.221   7.298 -0.3187  0.0869  0.5476
 4894SOL    HW226319   3.962   1.242   7.334 -1.8250 -1.7803  2.6158
 4895SOL     OW26320   2.570   1.291   6.855  0.3042  0.4555 -0.2886
 4895SOL    HW126321   2.487   1.306   6.901 -0.0125  2.2051 -1.4293
 4895SOL    HW226322   2.630   1.291   6.930  0.9455 -0.8723 -0.8019
 4896SOL     OW26323   4.716   4.580   1.637 -0.0823 -0.0990 -0.2845
 4896SOL    HW126324   0.023   4.652   1.674  1.9817 -1.2067 -0.9325
 4896SOL    HW226325   4.742   4.580   1.545 -0.1426 -2.5620 -0.3226
 4897SOL     OW26326   0.588   4.225  14.235  0.1438  0.6134  0.7379
 4897SOL    HW126327   0.657   4.288  14.218  0.2908  0.5344  1.0349
 4897SOL    HW226328   0.604   4.186  14.321 -1.1747 -1.9261 -0.1449
 4898SOL     OW26329   0.712   0.055   3.907  0.3417  0.3152 -0.0369
 4898SOL    HW126330   0.702   4.723   3.966 -2.1065 -0.7265 -1.8131
 4898SOL    HW226331   0.745   0.120   3.969 -2.7517  1.1543  0.7026
 4899SOL     OW26332   3.771   0.846   8.878 -0.0742 -0.1271 -0.7458
 4899SOL    HW126333   3.681   0.824   8.852 -0.5316  3.5341 -2.2439
 4899SOL    HW226334   3.765   0.828   8.972  1.2021  1.5082 -0.3697
 4900SOL     OW26335   0.804   2.259   3.969  1.1059 -0.2258 -0.6281
 4900SOL    HW126336   0.808   2.252   3.874  0.0646  1.2312 -0.7682
 4900SOL    HW226337   0.892   2.241   4.002  0.9625  0.1132 -0.0524
 4901SOL     OW26338   4.258   3.779  15.939 -0.1883 -0.1099  0.4077
 4901SOL    HW126339   4.217   3.825  15.865 -1.7161 -1.8019  0.2201
 4901SOL    HW226340   4.348   3.773  15.908 -0.4005 -2.2642  0.2541
 4902SOL     OW26341   1.367   2.362   1.819 -0.5668  0.2015 -0.3301
 4902SOL    HW126342   1.293   2.331   1.768  0.3812 -4.1127  0.8927
 4902SOL    HW226343   1.376   2.299   1.891 -2.9529 -0.4092 -0.5749
 4903SOL     OW26344   4.647   4.693  14.089  0.7859  0.6477 -0.1061
 4903SOL    HW126345   4.671   4.715  13.999 -0.3388 -1.8358 -1.0222
 4903SOL    HW226346   4.682   4.603  14.090  0.7270  0.6105 -1.2954
 4904SOL     OW26347   2.927   2.689   1.683  0.0369 -0.2148 -0.1446
 4904SOL    HW126348   3.006   2.662   1.636 -0.3020  1.1270 -1.4745
 4904SOL    HW226349   2.961   2.689   1.773  1.1930 -2.0750 -0.5771
 4905SOL     OW26350   2.384   0.451   5.393  0.8448 -0.1280 -0.5101
 4905SOL    HW126351   2.445   0.401   5.447 -0.1470 -1.0956 -0.3064
 4905SOL    HW226352   2.308   0.437   5.448  1.3342  2.2318  0.7796
 4906SOL     OW26353   0.150   0.796   2.050  0.4274  0.2084 -0.4432
 4906SOL    HW126354   0.237   0.761   2.071 -0.2751 -1.3049 -0.0977
 4906SOL    HW226355   0.107   0.719   2.014 -0.4829  0.3537  0.3509
 4907SOL     OW26356   1.147   1.894   6.109  0.0506 -0.1866  0.2233
 4907SOL    HW126357   1.221   1.953   6.125  0.8865 -0.7751 -1.5029
 4907SOL    HW226358   1.198   1.814   6.118  0.4183 -0.1146 -1.2400
 4908SOL     OW26359   0.151   2.219   0.968  0.1927  0.3186 -0.0492
 4908SOL    HW126360   0.245   2.233   0.979  0.3993 -1.5926  0.5618
 4908SOL    HW226361   0.114   2.306   0.983 -0.7198 -0.6512  3.2881
 4909SOL     OW26362   0.801   2.207   6.055  0.5210 -0.3583 -0.4175
 4909SOL    HW126363   0.810   2.204   5.960 -0.9249  1.0657 -0.6073
 4909SOL    HW226364   0.741   2.280   6.073 -1.3824 -2.5949  2.3357
 4910SOL     OW26365   3.207   4.129   6.165 -0.3018  0.2870 -0.8221
 4910SOL    HW126366   3.227   4.131   6.259 -0.6329 -1.2389 -0.7157
 4910SOL    HW226367   3.259   4.199   6.127  0.3030  1.5585  2.3452
 4911SOL     OW26368   4.106   0.031   7.577 -0.1451 -0.4380 -0.0260
 4911SOL    HW126369   4.193   0.017   7.615 -0.9348  0.3812  2.0627
 4911SOL    HW226370   4.057   4.697   7.605  2.0340 -1.5155  0.8760
 4912SOL     OW26371   4.664   2.820   5.931  0.3140 -0.5132 -0.4267
 4912SOL    HW126372   4.611   2.899   5.936 -0.1787 -1.0471  3.1871
 4912SOL    HW226373   4.690   2.811   6.022  0.6828 -0.5739 -0.5408
 4913SOL     OW26374   1.854   1.260   0.872  0.6940  0.0447  0.5065
 4913SOL    HW126375   1.929   1.272   0.814 -0.5786  2.0837 -0.6979
 4913SOL    HW226376   1.819   1.177   0.838  0.9943  0.0358  0.2176
 4914SOL     OW26377   0.618   1.527   2.109 -0.2114  0.1034  0.0838
 4914SOL    HW126378   0.675   1.593   2.069  1.0095 -1.0805 -0.1781
 4914SOL    HW226379   0.666   1.447   2.085  0.8793  0.4058  1.2304
 4915SOL     OW26380   0.381   2.911   0.654 -0.4172 -0.4162  1.1118
 4915SOL    HW126381   0.471   2.897   0.624 -1.7906 -3.0013 -1.8461
 4915SOL    HW226382   0.346   2.968   0.586  1.4037 -0.3159  0.2589
 4916SOL     OW26383   0.887   4.008  12.381  0.5125  0.0226 -0.4921
 4916SOL    HW126384   0.970   3.998  12.335 -0.2606  0.6907 -2.0526
 4916SOL    HW226385   0.863   4.097  12.353  1.1465 -0.0403 -1.2278
 4917SOL     OW26386   1.728   2.945   8.842  0.0422 -0.3677 -0.9446
 4917SOL    HW126387   1.754   2.907   8.758  1.4562  0.7136 -0.9756
 4917SOL    HW226388   1.802   2.934   8.901 -1.3124  0.3177  0.9113
 4918SOL     OW26389   1.096   1.720   6.939  0.3584  0.1798  0.5558
 4918SOL    HW126390   1.076   1.723   6.845  2.3270 -0.6913  0.0959
 4918SOL    HW226391   1.013   1.714   6.986  0.3142  1.1331  0.5866
 4919SOL     OW26392   1.240   0.172  10.365  0.3233 -0.0103 -0.4861
 4919SOL    HW126393   1.304   0.103  10.349 -0.6778 -0.4400 -2.6925
 4919SOL    HW226394   1.160   0.120  10.374 -0.0652  0.7754  0.5527
 4920SOL     OW26395   0.756   2.761   9.374  0.7200  0.4841  0.6623
 4920SOL    HW126396   0.772   2.842   9.326 -0.4005  0.1400 -0.3157
 4920SOL    HW226397   0.848   2.735   9.378  0.7463  0.4095 -0.3229
 4921SOL     OW26398   4.656   3.281   8.162 -0.3293  0.1695 -0.2854
 4921SOL    HW126399   0.004   3.251   8.158 -0.0251  1.0167  0.5290
 4921SOL    HW226400   4.643   3.274   8.256  0.9054  0.0893 -0.1177
 4922SOL     OW26401   3.419   1.951   2.517 -0.7058 -0.3417 -0.2624
 4922SOL    HW126402   3.367   2.027   2.545  1.7731  1.1112  0.3715
 4922SOL    HW226403   3.390   1.945   2.426  0.0363 -1.2178 -0.4366
 4923SOL     OW26404   3.352   1.337   9.499 -0.2063  0.1843  0.0082
 4923SOL    HW126405   3.311   1.380   9.424  0.3096 -0.5748 -0.7129
 4923SOL    HW226406   3.422   1.280   9.467  0.6982  2.0031 -1.2348
 4924SOL     OW26407   2.247   4.480   2.246 -0.1044 -0.5006 -0.1866
 4924SOL    HW126408   2.257   4.388   2.221  0.4634 -0.7450  0.8992
 4924SOL    HW226409   2.243   4.488   2.342 -0.2715 -2.0582 -0.0545
 4925SOL     OW26410   4.028   1.598   2.844  0.2979  0.0492 -0.3049
 4925SOL    HW126411   3.990   1.624   2.760  1.1967  0.7621 -0.4984
 4925SOL    HW226412   4.117   1.589   2.808 -0.2023  1.0422 -1.7940
 4926SOL     OW26413   4.350   0.698   9.835  0.4320  0.3411 -0.3587
 4926SOL    HW126414   4.338   0.724   9.926 -0.0582  0.5976 -0.4993
 4926SOL    HW226415   4.393   0.773   9.793 -0.3990  0.6947 -0.5699
 4927SOL     OW26416   1.837   4.068   3.037  0.0302 -0.2812 -0.2729
 4927SOL    HW126417   1.805   4.111   2.958  0.6297 -0.9290 -0.8641
 4927SOL    HW226418   1.756   4.066   3.087 -0.4623  2.8131 -0.9140
 4928SOL     OW26419   4.549   0.398   7.848 -0.7952 -0.0669  0.2780
 4928SOL    HW126420   4.611   0.470   7.839 -3.5252  2.5965  2.7840
 4928SOL    HW226421   4.573   0.333   7.782  1.0811  0.2745  0.6187
 4929SOL     OW26422   3.811   3.599   1.848 -0.1268 -0.0927  0.2054
 4929SOL    HW126423   3.838   3.605   1.756 -1.0033 -0.0004 -0.0429
 4929SOL    HW226424   3.825   3.505   1.860  0.1611 -0.2369 -1.1986
 4930SOL     OW26425   3.506   2.331   9.753 -0.2064 -0.4830  0.2150
 4930SOL    HW126426   3.492   2.392   9.826 -0.8351  0.3527 -0.6041
 4930SOL    HW226427   3.601   2.327   9.762 -0.2788 -0.7402  0.8983
 4931SOL     OW26428   3.029   2.512   4.506 -0.3617  0.0444 -0.0925
 4931SOL    HW126429   3.032   2.606   4.522 -1.0901 -0.4121  2.8261
 4931SOL    HW226430   3.082   2.500   4.427 -0.3108 -0.5693  0.0336
 4932SOL     OW26431   2.287   2.479   6.964 -0.6062 -0.0000 -0.6878
 4932SOL    HW126432   2.291   2.389   6.996  0.3430  0.7732  1.3366
 4932SOL    HW226433   2.314   2.474   6.872 -0.3082 -1.1337 -0.5301
 4933SOL     OW26434   0.856   0.509  12.191  0.1029 -0.3025 -0.1695
 4933SOL    HW126435   0.901   0.588  12.160 -0.2651 -0.0462 -0.0575
 4933SOL    HW226436   0.805   0.493  12.112 -2.4990  0.7128  1.2977
 4934SOL     OW26437   1.626   3.825   5.613 -0.0228  0.6289  0.4578
 4934SOL    HW126438   1.692   3.882   5.653  1.0652 -0.6176  0.4810
 4934SOL    HW226439   1.670   3.741   5.630  3.1455  2.0969 -0.4061
 4935SOL     OW26440   3.480   1.240   5.572 -0.0593  0.0782  0.4983
 4935SOL    HW126441   3.558   1.196   5.605  1.1331  0.9946 -1.0889
 4935SOL    HW226442   3.512   1.281   5.491 -0.0365  0.0228  0.4794
 4936SOL     OW26443   3.743   1.472   2.696 -0.3700 -0.0447  0.0362
 4936SOL    HW126444   3.692   1.553   2.696 -1.9550 -1.0206 -0.9389
 4936SOL    HW226445   3.673   1.408   2.713 -1.8655  0.6949 -3.3146
 4937SOL     OW26446   3.833   2.261   2.730  0.0880 -0.2941  0.1153
 4937SOL    HW126447   3.826   2.166   2.739  1.2823 -0.2325  1.6770
 4937SOL    HW226448   3.793   2.288   2.813 -1.3063 -0.6189 -0.4564
 4938SOL     OW26449   3.773   1.374   8.561 -0.1856 -0.3261 -0.1270
 4938SOL    HW126450   3.708   1.442   8.577  3.6393  3.4484 -0.5374
 4938SOL    HW226451   3.761   1.368   8.466  0.1607 -0.0493 -0.1876
 4939SOL     OW26452   4.444   3.645   7.440  0.4895  0.5813  0.5408
 4939SOL    HW126453   4.467   3.588   7.514 -0.0339  0.2425  0.4384
 4939SOL    HW226454   4.534   3.654   7.409  0.0804  1.6707 -0.2919
 4940SOL     OW26455   0.350   4.144  11.070  0.3777  0.0693 -0.3366
 4940SOL    HW126456   0.351   4.171  11.162 -0.3112 -2.4942  0.4179
 4940SOL    HW226457   0.430   4.189  11.041  1.1340 -1.9500 -1.3279
 4941SOL     OW26458   1.766   1.078   8.823  0.2174 -0.3852 -0.3251
 4941SOL    HW126459   1.832   1.084   8.753  1.8342 -1.1360  1.1517
 4941SOL    HW226460   1.708   1.012   8.786  0.6480 -2.4030  2.6372
 4942SOL     OW26461   2.136   3.946   7.120  0.1604  0.6197 -0.1878
 4942SOL    HW126462   2.138   3.892   7.199 -0.6018 -1.2136 -1.4338
 4942SOL    HW226463   2.103   4.025   7.162 -0.5543  0.1725  0.0873
 4943SOL     OW26464   0.541   3.678   3.497 -0.8227  0.3212 -0.0515
 4943SOL    HW126465   0.480   3.693   3.568 -0.5194 -2.1094  0.7451
 4943SOL    HW226466   0.501   3.743   3.439  0.5575  0.4708 -0.8469
 4944SOL     OW26467   1.865   3.399   4.076 -0.2105  0.0211  0.3038
 4944SOL    HW126468   1.891   3.312   4.106 -0.5756 -0.3326 -0.4056
 4944SOL    HW226469   1.826   3.441   4.153  0.8136 -2.5265  2.1949
 4945SOL     OW26470   2.525   2.818   9.996  0.5621 -0.0794  0.5031
 4945SOL    HW126471   2.551   2.757   9.928  2.6844 -0.0110  1.2492
 4945SOL    HW226472   2.525   2.897   9.942  0.9228 -0.4345 -0.0094
 4946SOL     OW26473   3.785   3.287   4.854 -0.4112  0.3918 -0.9035
 4946SOL    HW126474   3.864   3.276   4.908 -0.3299  2.2871 -0.6320
 4946SOL    HW226475   3.741   3.351   4.911 -0.0218 -0.8448  0.7822
 4947SOL     OW26476   1.792   3.088  14.586  0.0884 -0.1304 -0.2941
 4947SOL    HW126477   1.797   3.153  14.656 -1.1763  1.5387 -1.7517
 4947SOL    HW226478   1.875   3.109  14.544 -2.3322  0.0745 -4.9223
 4948SOL     OW26479   3.720   2.743   4.678 -0.1462  0.2358  0.4787
 4948SOL    HW126480   3.627   2.766   4.676 -0.7116 -2.1649 -1.3996
 4948SOL    HW226481   3.709   2.649   4.667  0.8207  0.3408 -1.5084
 4949SOL     OW26482   0.239   2.106   7.470 -0.5513 -0.0725 -0.4810
 4949SOL    HW126483   0.328   2.083   7.445  0.8211  1.3494  3.0375
 4949SOL    HW226484   0.259   2.150   7.553  0.3533  0.0946 -0.7942
 4950SOL     OW26485   4.531   2.228  17.002  0.6275  0.2552 -0.1298
 4950SOL    HW126486   4.561   2.319  17.007 -0.0004  0.4971 -0.7785
 4950SOL    HW226487   4.463   2.229  17.069 -0.7963 -4.0687 -1.5368
 4951SOL     OW26488   0.250   4.411   9.033 -0.3911  0.5512  0.0824
 4951SOL    HW126489   0.186   4.379   8.970  0.9019 -1.4492 -0.2376
 4951SOL    HW226490   0.228   4.362   9.113 -0.1820 -0.7865 -0.6744
 4952SOL     OW26491   0.641   1.042   2.940  0.0172  0.1602  0.5451
 4952SOL    HW126492   0.728   1.023   2.976  0.0039  1.9423  1.5304
 4952SOL    HW226493   0.613   1.093   3.016 -0.6620  0.5757  0.0064
 4953SOL     OW26494   0.764   0.381   1.933 -0.2158 -0.5499 -0.0966
 4953SOL    HW126495   0.833   0.441   1.906 -1.4829  1.3721  0.9036
 4953SOL    HW226496   0.745   0.398   2.026  1.8354  1.0336  0.0327
 4954SOL     OW26497   2.619   0.528   8.121  0.1029  0.0711 -0.0117
 4954SOL    HW126498   2.685   0.598   8.122 -0.6982  0.8338 -0.4136
 4954SOL    HW226499   2.637   0.474   8.197 -0.6445  2.2127  1.6990
 4955SOL     OW26500   1.932   0.446   6.205 -0.2789 -0.3163  0.3375
 4955SOL    HW126501   2.004   0.401   6.249  0.2580  0.3603  0.1573
 4955SOL    HW226502   1.935   0.528   6.254 -0.3743 -1.5136  2.3251
 4956SOL     OW26503   2.090   2.877   6.914  0.7013  0.0056  0.4289
 4956SOL    HW126504   2.126   2.904   6.999  1.6334  0.5210 -0.1376
 4956SOL    HW226505   2.033   2.801   6.923  0.1600  0.2582 -0.9278
 4957SOL     OW26506   2.583   2.826   2.025  0.2347 -0.4758 -0.2344
 4957SOL    HW126507   2.550   2.913   2.047  1.3391  0.1155 -0.9177
 4957SOL    HW226508   2.523   2.793   1.959 -0.0812  0.2587 -0.3226
 4958SOL     OW26509   3.663   3.726   7.345  0.0924 -0.5691 -0.5869
 4958SOL    HW126510   3.746   3.772   7.361 -0.4797 -0.9450  3.4545
 4958SOL    HW226511   3.608   3.793   7.304  0.1118 -1.4153 -1.9998
 4959SOL     OW26512   4.335   3.763   8.682  0.2801 -0.2481 -0.0091
 4959SOL    HW126513   4.264   3.752   8.620 -1.8299  1.3288  2.1209
 4959SOL    HW226514   4.288   3.759   8.765 -0.0097  0.4225 -0.1382
 4960SOL     OW26515   3.778   2.506  13.773 -0.2835  0.0809 -0.2297
 4960SOL    HW126516   3.849   2.545  13.824  0.7421 -1.9102 -0.1232
 4960SOL    HW226517   3.748   2.585  13.728  0.7440  0.1200 -0.8522
 4961SOL     OW26518   3.473   0.046   5.909  0.8711  0.4988  0.0193
 4961SOL    HW126519   3.423   0.077   5.833  0.8683  0.4934  0.0189
 4961SOL    HW226520   3.562   0.065   5.882  0.8553  1.7948  0.8954
 4962SOL     OW26521   1.819   0.272   0.637  0.2518  0.2900  0.2818
 4962SOL    HW126522   1.801   0.237   0.549 -2.0257  0.5656  0.6325
 4962SOL    HW226523   1.902   0.226   0.650  1.0649  1.5137 -0.5496
 4963SOL     OW26524   0.509   1.015   4.705 -0.1662  0.1417  0.7780
 4963SOL    HW126525   0.511   1.057   4.791 -2.6232  0.1004  0.8540
 4963SOL    HW226526   0.599   1.030   4.675 -1.3194  2.5647 -1.4567
 4964SOL     OW26527   4.701   0.378   4.176  0.4476 -0.3484  0.1806
 4964SOL    HW126528   4.618   0.415   4.206  0.4455 -1.5512  1.6234
 4964SOL    HW226529   0.023   0.434   4.218  1.6303 -0.8245 -1.0052
 4965SOL     OW26530   1.687   1.473   6.355 -0.3639  0.0267  0.0967
 4965SOL    HW126531   1.617   1.525   6.395 -0.9029 -0.1223 -0.6576
 4965SOL    HW226532   1.708   1.414   6.427  0.5067  0.7910  0.4683
 4966SOL     OW26533   2.708   3.878   6.757  0.1366  0.4333  0.2864
 4966SOL    HW126534   2.615   3.863   6.742  0.6043 -0.0436 -2.0664
 4966SOL    HW226535   2.719   3.820   6.832 -2.1550 -1.5247 -0.9113
 4967SOL     OW26536   2.268   1.232   8.337  0.1823  0.5285 -0.1160
 4967SOL    HW126537   2.172   1.224   8.340  0.2948 -0.7040  0.1719
 4967SOL    HW226538   2.294   1.158   8.391 -1.3563 -0.1092 -0.2324
 4968SOL     OW26539   3.739   1.801   2.377 -0.6722 -0.8995 -0.0075
 4968SOL    HW126540   3.672   1.868   2.364 -0.9508 -1.2012 -0.1257
 4968SOL    HW226541   3.715   1.732   2.315  0.7881  0.3587 -1.9593
 4969SOL     OW26542   1.558   0.760   3.360 -0.1589 -0.0551 -0.4177
 4969SOL    HW126543   1.611   0.803   3.427  1.2867 -2.0377 -0.2999
 4969SOL    HW226544   1.610   0.781   3.282  0.5214 -1.0318 -0.2191
 4970SOL     OW26545   4.325   0.486   5.838  0.4115 -0.2749  0.3075
 4970SOL    HW126546   4.418   0.463   5.832  0.7411  0.9640  0.6475
 4970SOL    HW226547   4.287   0.406   5.874 -1.8459  0.5729 -0.1575
 4971SOL     OW26548   0.642   0.486   5.631  0.0369 -0.1673  0.3444
 4971SOL    HW126549   0.708   0.416   5.627  2.0386  1.7910 -1.0292
 4971SOL    HW226550   0.622   0.491   5.537 -1.4467 -0.6735  0.6347
 4972SOL     OW26551   0.685   3.565  12.384 -0.3251  0.7815 -0.2176
 4972SOL    HW126552   0.630   3.604  12.316  0.8876  0.3575 -1.4272
 4972SOL    HW226553   0.680   3.625  12.459  1.0753  0.7919 -0.1287
 4973SOL     OW26554   3.252   3.110   7.003 -0.1163  0.0409  0.5926
 4973SOL    HW126555   3.187   3.103   6.934 -1.8227  2.3871  1.9998
 4973SOL    HW226556   3.259   3.019   7.033  0.7926 -0.6821 -1.8076
 4974SOL     OW26557   3.771   4.091   0.159 -0.6169  0.2792 -0.4276
 4974SOL    HW126558   3.727   4.008   0.174 -0.8399  0.4291 -0.2518
 4974SOL    HW226559   3.783   4.118   0.250  1.3040 -1.4967 -0.1722
 4975SOL     OW26560   4.117   2.780  16.107  0.0653  0.5725 -0.2789
 4975SOL    HW126561   4.068   2.824  16.177  0.5296  1.4227 -0.4927
 4975SOL    HW226562   4.161   2.848  16.057 -0.2350  0.5445 -0.5796
 4976SOL     OW26563   2.886   2.703   1.363  0.1908 -0.1711  0.3659
 4976SOL    HW126564   2.949   2.642   1.401  0.0502 -0.0006  0.8764
 4976SOL    HW226565   2.938   2.735   1.289 -1.5071  0.2549 -0.6295
 4977SOL     OW26566   0.025   2.102   3.879  0.6400  0.0421 -0.0857
 4977SOL    HW126567   0.092   2.159   3.842  0.1765  1.8747  1.8940
 4977SOL    HW226568   0.028   2.128   3.971 -0.1128  1.5312 -0.4791
 4978SOL     OW26569   4.426   4.367   8.838 -0.3765  0.5456  0.0771
 4978SOL    HW126570   4.513   4.334   8.815 -1.1045 -0.9401 -0.5916
 4978SOL    HW226571   4.444   4.411   8.921  0.0903  2.3633 -0.9952
 4979SOL     OW26572   3.665   3.514   2.804  0.2395  0.1215 -0.5267
 4979SOL    HW126573   3.571   3.524   2.818  0.4882 -0.2466  1.3632
 4979SOL    HW226574   3.683   3.433   2.852 -1.0634 -0.3415 -0.8372
 4980SOL     OW26575   0.156   1.121   5.390 -0.3108  0.1182 -0.5398
 4980SOL    HW126576   0.122   1.066   5.319 -1.3574 -1.4948  1.2125
 4980SOL    HW226577   0.183   1.059   5.458  2.5035  0.6146 -1.1896
 4981SOL     OW26578   2.351   1.176   4.959  0.1540  0.4291 -0.2383
 4981SOL    HW126579   2.281   1.224   4.913  0.6194  0.0175 -1.3878
 4981SOL    HW226580   2.359   1.088   4.921 -1.1400  0.5821 -0.8918
 4982SOL     OW26581   1.236   0.237   7.525 -0.1895 -0.0410 -0.1265
 4982SOL    HW126582   1.240   0.220   7.619  0.9532  1.6195  0.1096
 4982SOL    HW226583   1.316   0.193   7.496 -0.5788  0.2876 -1.6922
 4983SOL     OW26584   1.617   1.390   7.908 -0.0169  0.0311  0.0641
 4983SOL    HW126585   1.647   1.437   7.831 -0.5890 -0.5762 -0.5219
 4983SOL    HW226586   1.571   1.311   7.883  0.2272  0.4388 -1.6633
 4984SOL     OW26587   1.024   0.049   7.491 -0.0339 -0.1806  0.1724
 4984SOL    HW126588   1.082   0.116   7.525  1.3392  0.0239 -2.5482
 4984SOL    HW226589   1.023   0.066   7.397 -1.1190 -0.8860  0.0471
 4985SOL     OW26590   0.810   2.445  15.582  0.2013  0.0213  0.0451
 4985SOL    HW126591   0.856   2.524  15.552  2.5928 -0.9306  1.1744
 4985SOL    HW226592   0.849   2.419  15.665  0.8373 -0.2336 -0.3343
 4986SOL     OW26593   0.154   1.351  12.160 -0.0458  0.0081 -0.3257
 4986SOL    HW126594   0.247   1.342  12.139 -0.2308 -1.1531 -0.6766
 4986SOL    HW226595   0.129   1.390  12.076 -0.7197 -1.9281 -1.0252
 4987SOL     OW26596   1.336   1.421   8.370  0.1643  0.6514  0.5029
 4987SOL    HW126597   1.341   1.512   8.400 -0.2586  0.7918  0.1472
 4987SOL    HW226598   1.396   1.420   8.295  1.4163 -0.7674  1.5162
 4988SOL     OW26599   0.074   0.743   3.539  0.5206 -0.4367  0.2940
 4988SOL    HW126600   0.083   0.774   3.449 -0.3601  0.7585  0.6245
 4988SOL    HW226601   0.108   0.654   3.531  1.1568 -0.0203 -1.6458
 4989SOL     OW26602   0.847   3.354   1.603  0.3004 -0.1706 -0.1129
 4989SOL    HW126603   0.918   3.377   1.544 -0.2936  0.3810 -0.6118
 4989SOL    HW226604   0.852   3.426   1.666  0.7459 -1.4542  1.3020
 4990SOL     OW26605   0.955   1.261   9.012 -0.1952 -0.5236  0.3904
 4990SOL    HW126606   1.045   1.277   8.986  0.0319 -2.6280 -0.0915
 4990SOL    HW226607   0.920   1.342   9.050 -3.0626 -1.5180 -0.1341
 4991SOL     OW26608   0.101   0.161   4.043 -0.3175 -0.0598  0.5471
 4991SOL    HW126609   0.025   0.136   4.097 -0.0051  1.2019  1.5679
 4991SOL    HW226610   0.090   0.256   4.049 -1.2712 -0.1249 -0.0358
 4992SOL     OW26611   0.679   1.177   3.858 -0.8130  0.4025 -0.7124
 4992SOL    HW126612   0.754   1.154   3.804  0.1763  0.8821  0.4670
 4992SOL    HW226613   0.715   1.249   3.911  0.6658 -1.7448  1.2177
 4993SOL     OW26614   4.610   0.303   7.350 -0.5856 -0.3118 -0.2933
 4993SOL    HW126615   4.683   0.287   7.410 -0.4335  0.4429 -0.2737
 4993SOL    HW226616   4.657   0.348   7.280  3.2084 -3.1964  0.3983
 4994SOL     OW26617   2.044   1.209  10.180 -0.3497  0.1802  0.1351
 4994SOL    HW126618   2.053   1.120  10.213  0.0987 -0.3971 -1.5734
 4994SOL    HW226619   2.135   1.236  10.169  0.0120 -0.6065  1.2649
 4995SOL     OW26620   0.551   4.512   2.667  0.5227  0.0469 -0.5297
 4995SOL    HW126621   0.614   4.442   2.649  3.0576  2.2666 -0.2071
 4995SOL    HW226622   0.546   4.509   2.762  0.6172  3.9971 -0.3985
 4996SOL     OW26623   1.976   4.232   4.214  0.0861  0.0135 -0.1030
 4996SOL    HW126624   2.037   4.264   4.148  0.5447 -2.4286 -0.8197
 4996SOL    HW226625   1.902   4.290   4.194  0.5944  0.4717 -0.6686
 4997SOL     OW26626   0.823   2.975   9.226  0.2039 -0.0498  0.2874
 4997SOL    HW126627   0.889   2.947   9.162  0.4043  1.4486 -0.1677
 4997SOL    HW226628   0.777   3.037   9.169 -0.0608 -0.3743  0.1472
 4998SOL     OW26629   2.329   4.152   1.633 -0.2303 -0.2887  0.0686
 4998SOL    HW126630   2.333   4.059   1.653 -1.1030  0.2291  2.6152
 4998SOL    HW226631   2.338   4.144   1.538 -0.6953 -2.5382  0.2332
 4999SOL     OW26632   3.481   4.671   7.342 -0.6481  0.7533 -0.2943
 4999SOL    HW126633   3.437   4.675   7.427 -0.9699 -1.0216 -0.3710
 4999SOL    HW226634   3.549   4.735   7.363  0.2691  0.4539 -2.3237
 5000SOL     OW26635   3.023   3.732   1.743  0.7248 -0.4031 -0.1577
 5000SOL    HW126636   2.956   3.785   1.787  1.7439 -1.3521  2.5315
 5000SOL    HW226637   2.966   3.693   1.677  0.2083 -0.6900  0.4539
 5001SOL     OW26638   4.252   0.758   5.172  1.0524  0.0149 -0.3946
 5001SOL    HW126639   4.163   0.739   5.198  2.0055 -3.2805  0.3802
 5001SOL    HW226640   4.302   0.707   5.235 -0.9290  0.5946  1.6317
 5002SOL     OW26641   4.702   0.717   5.426  0.6499  0.3824 -0.2348
 5002SOL    HW126642   0.040   0.718   5.376  0.2394  0.0726 -0.8974
 5002SOL    HW226643   4.705   0.625   5.452  0.5847  0.1494 -1.0505
 5003SOL     OW26644   2.388   1.757   8.800 -0.4153 -0.2636 -0.3544
 5003SOL    HW126645   2.432   1.751   8.715  0.5408 -2.4276  0.2891
 5003SOL    HW226646   2.346   1.672   8.814  1.2608 -0.9805  0.3152
 5004SOL     OW26647   4.054   1.525   9.268 -0.1908  0.7614  0.3503
 5004SOL    HW126648   3.990   1.493   9.331 -0.8540  0.3354 -0.5362
 5004SOL    HW226649   4.133   1.503   9.317 -2.3093 -3.0293  1.9573
 5005SOL     OW26650   0.096   0.411   7.224  0.2012 -0.1085  0.1834
 5005SOL    HW126651   0.090   0.339   7.160  2.3632  0.7155 -0.9564
 5005SOL    HW226652   0.190   0.419   7.238  0.5783 -0.9169 -1.8710
 5006SOL     OW26653   4.229   4.297   7.030  0.8137  0.0934  0.0353
 5006SOL    HW126654   4.202   4.262   7.114 -1.1583 -1.3354 -1.1933
 5006SOL    HW226655   4.322   4.277   7.032  0.8651  0.4372  0.9974
 5007SOL     OW26656   3.681   1.651   4.460  0.3816 -0.3162  0.2689
 5007SOL    HW126657   3.757   1.593   4.467 -0.2712 -1.3093 -1.1042
 5007SOL    HW226658   3.706   1.715   4.393  0.5390  0.7869  1.3548
 5008SOL     OW26659   2.214   3.059   8.434  0.0663  0.5375 -0.4206
 5008SOL    HW126660   2.234   3.081   8.525  0.4654  0.9396 -0.6002
 5008SOL    HW226661   2.150   3.127   8.411  0.6101  0.5833 -1.8274
 5009SOL     OW26662   4.611   0.054   6.997 -0.7378  0.0791  0.1481
 5009SOL    HW126663   4.686   0.002   6.968 -1.6840 -1.0956 -0.1969
 5009SOL    HW226664   4.640   0.142   6.974  0.9432 -0.2687  0.9031
 5010SOL     OW26665   4.545   1.071  10.523  0.1900 -0.2455 -0.1907
 5010SOL    HW126666   4.612   1.075  10.592 -1.6237 -0.6010  1.5888
 5010SOL    HW226667   4.598   1.027  10.457  0.5430  2.1425 -1.5070
 5011SOL     OW26668   2.491   0.172  10.452  0.4472 -0.6161 -0.4972
 5011SOL    HW126669   2.491   0.116  10.530 -0.3400 -0.4526 -0.3884
 5011SOL    HW226670   2.443   0.241  10.498 -2.1476 -1.5813 -1.7994
 5012SOL     OW26671   2.455   3.687  16.353  0.0970 -0.4219  0.7376
 5012SOL    HW126672   2.468   3.629  16.278 -1.6127  0.3421 -0.1415
 5012SOL    HW226673   2.499   3.637  16.422  1.1600  1.9236  1.7886
 5013SOL     OW26674   1.217   0.126  16.583  0.1280  0.1433  0.1049
 5013SOL    HW126675   1.294   0.180  16.563 -1.2367  1.7595 -0.8158
 5013SOL    HW226676   1.166   0.183  16.641 -1.7719 -1.6027  0.1486
 5014SOL     OW26677   4.663   3.785   9.386 -0.0257  0.0785 -0.1073
 5014SOL    HW126678   4.644   3.692   9.377 -0.6739  0.1222  0.8125
 5014SOL    HW226679   4.585   3.817   9.341  0.1188 -1.3902 -1.3819
 5015SOL     OW26680   1.947   0.641   7.802  0.2299 -0.2892  0.2264
 5015SOL    HW126681   1.871   0.587   7.822  0.9293 -0.0456  3.4978
 5015SOL    HW226682   2.007   0.570   7.783 -1.0447 -1.1865 -0.4322
 5016SOL     OW26683   1.296   1.729   7.121 -0.0283 -0.0828 -0.1230
 5016SOL    HW126684   1.229   1.737   7.053  0.0039 -2.3793 -0.4385
 5016SOL    HW226685   1.299   1.822   7.142  1.1497 -0.3061  0.7097
 5017SOL     OW26686   2.815   0.362   1.630 -0.2548  0.0777  0.4593
 5017SOL    HW126687   2.774   0.312   1.700  1.5049 -1.2465  0.5570
 5017SOL    HW226688   2.756   0.437   1.634 -0.5136 -0.0899 -0.3411
 5018SOL     OW26689   1.822   3.244  16.740  0.1200 -0.1271  0.1803
 5018SOL    HW126690   1.877   3.192  16.681  2.3270  0.5822  1.6008
 5018SOL    HW226691   1.734   3.209  16.731  0.0637  0.4949 -1.8722
 5019SOL     OW26692   3.328   4.388   4.580 -0.4471 -0.0058 -0.1886
 5019SOL    HW126693   3.324   4.432   4.495 -1.0748 -2.7527 -1.5903
 5019SOL    HW226694   3.291   4.300   4.569  2.1813 -1.0559 -0.6457
 5020SOL     OW26695   2.534   1.451   6.284  0.2922  0.0614 -0.4060
 5020SOL    HW126696   2.571   1.537   6.264  0.9419 -0.8301 -3.0189
 5020SOL    HW226697   2.446   1.487   6.298 -0.0104 -1.2033  1.0476
 5021SOL     OW26698   3.031   1.612   5.537 -0.1426  0.0986  0.0973
 5021SOL    HW126699   2.986   1.566   5.466  0.2773 -0.8662  0.4659
 5021SOL    HW226700   3.102   1.554   5.562 -1.0032 -0.8626  0.3357
 5022SOL     OW26701   2.164   1.418   5.864  0.2887  0.6671  0.4596
 5022SOL    HW126702   2.200   1.426   5.775 -0.4733 -2.2973 -0.1010
 5022SOL    HW226703   2.110   1.340   5.856  0.4059  0.5359  0.9988
 5023SOL     OW26704   1.549   3.847   8.340 -0.2430 -0.1600 -0.3907
 5023SOL    HW126705   1.469   3.817   8.383 -1.6698  1.6227 -1.7618
 5023SOL    HW226706   1.536   3.941   8.349 -1.5570 -0.6174  2.3082
 5024SOL     OW26707   0.695   1.057   7.377 -0.1164  0.3694  0.1582
 5024SOL    HW126708   0.610   1.087   7.407 -0.2555 -0.4735  0.6034
 5024SOL    HW226709   0.667   0.971   7.348  0.6150 -0.7256  2.6523
 5025SOL     OW26710   0.910   3.582   5.319 -0.1872 -0.9135  0.0799
 5025SOL    HW126711   0.907   3.667   5.277  3.4858 -1.3530 -1.0756
 5025SOL    HW226712   0.994   3.590   5.365 -0.8843  0.7371  1.0522
 5026SOL     OW26713   1.044   0.043   1.502 -0.2471 -0.4212 -0.7034
 5026SOL    HW126714   1.071   4.726   1.572 -1.1915  0.3581  0.3342
 5026SOL    HW226715   0.954   0.060   1.531  0.3040  1.1084  0.1403
 5027SOL     OW26716   2.610   2.615   4.566  0.1526  0.2934  0.5212
 5027SOL    HW126717   2.534   2.557   4.577 -0.4645  0.9571 -0.1925
 5027SOL    HW226718   2.679   2.553   4.588  1.0258  0.7382 -0.9765
 5028SOL     OW26719   1.000   2.043   1.978  1.1041  0.6933 -0.0701
 5028SOL    HW126720   1.046   2.003   2.052 -1.3458 -0.0504  1.0333
 5028SOL    HW226721   1.037   1.997   1.902  0.4950 -2.0940  1.3014
 5029SOL     OW26722   3.427   4.627   1.510  0.3904  0.2531  0.2358
 5029SOL    HW126723   3.486   4.571   1.458 -0.2056 -0.4573  0.3237
 5029SOL    HW226724   3.481   4.632   1.588 -0.5518 -0.9079  0.9601
 5030SOL     OW26725   4.648   4.579   7.414  0.4807  0.2654 -0.2972
 5030SOL    HW126726   4.596   4.567   7.334 -0.8379 -1.6080  0.8362
 5030SOL    HW226727   4.627   4.668   7.441 -0.7962  0.5427 -2.2126
 5031SOL     OW26728   0.762   0.728   2.362  0.3295  0.5144 -0.4280
 5031SOL    HW126729   0.715   0.712   2.280 -0.7457 -0.9861  0.4867
 5031SOL    HW226730   0.687   0.716   2.420  0.7738  0.0741  0.0617
 5032SOL     OW26731   1.414   0.063   7.404  0.0834  0.2475  0.6010
 5032SOL    HW126732   1.350   4.741   7.433  1.3829 -1.7306 -0.9700
 5032SOL    HW226733   1.468   0.008   7.347  0.7494  0.8807  0.6273
 5033SOL     OW26734   2.063   3.680   8.445 -0.4606 -0.4261  0.0919
 5033SOL    HW126735   1.974   3.656   8.471 -1.0011  0.7014 -0.7249
 5033SOL    HW226736   2.105   3.604   8.486 -0.1843 -1.3721 -1.9420
 5034SOL     OW26737   4.170   1.761   9.908 -0.1670  0.2991  0.1617
 5034SOL    HW126738   4.254   1.745   9.865 -0.9603  1.0260 -1.6405
 5034SOL    HW226739   4.157   1.679   9.956  0.6261 -0.3738 -0.7693
 5035SOL     OW26740   4.729   4.546   5.714 -0.3824 -0.0213 -0.6974
 5035SOL    HW126741   0.023   4.597   5.642 -0.1454 -0.3040 -0.7741
 5035SOL    HW226742   4.711   4.613   5.781 -0.4438  0.2368 -0.9752
 5036SOL     OW26743   0.170   2.926   8.309  0.1244  0.2972 -0.0763
 5036SOL    HW126744   0.106   2.857   8.322  1.4251 -0.7648  0.6947
 5036SOL    HW226745   0.252   2.879   8.291  0.1914  0.6932 -0.8103
 5037SOL     OW26746   3.110   1.615   6.621  0.0922 -0.2962 -0.0352
 5037SOL    HW126747   3.029   1.602   6.672 -0.5795  0.2807 -0.9630
 5037SOL    HW226748   3.157   1.685   6.667  0.7508 -0.4328 -0.5179
 5038SOL     OW26749   3.862   4.314   8.706  0.3419 -0.1316 -0.0430
 5038SOL    HW126750   3.899   4.230   8.681  1.4657  0.5800 -0.7968
 5038SOL    HW226751   3.908   4.325   8.788 -0.7977 -1.6397  0.8021
 5039SOL     OW26752   1.133   4.030   8.708  0.3625  0.4266  0.1431
 5039SOL    HW126753   1.054   4.046   8.658  1.1041 -1.4008 -1.5970
 5039SOL    HW226754   1.126   3.935   8.721  0.1865  0.7491  2.4907
 5040SOL     OW26755   1.070   1.811  16.453  0.8781 -0.1978  0.2250
 5040SOL    HW126756   1.060   1.820  16.547 -0.2547  0.5444  0.0338
 5040SOL    HW226757   1.078   1.902  16.425  0.7866  0.1811  1.4635
 5041SOL     OW26758   3.505   4.499   3.430  0.0781 -0.4359 -0.7159
 5041SOL    HW126759   3.422   4.531   3.396 -1.5009 -1.5823  2.0854
 5041SOL    HW226760   3.487   4.420   3.481  0.2522 -1.1288 -1.7163
 5042SOL     OW26761   3.905   2.286   5.927 -0.5834  0.2581  0.0944
 5042SOL    HW126762   3.904   2.370   5.972  0.8293 -0.3160  1.1856
 5042SOL    HW226763   3.993   2.269   5.892 -0.5660  0.9695 -0.2055
 5043SOL     OW26764   2.610   4.245  15.057  0.0337 -0.3328 -0.2044
 5043SOL    HW126765   2.531   4.298  15.058 -0.0194 -0.4581  1.4168
 5043SOL    HW226766   2.609   4.186  15.132 -2.9107  1.7008  1.3301
 5044SOL     OW26767   1.827   3.757   2.989  0.0115 -0.2542 -0.0660
 5044SOL    HW126768   1.741   3.799   2.987  0.5407  0.9487  1.6308
 5044SOL    HW226769   1.878   3.830   3.025  0.6506  0.1529 -1.7875
 5045SOL     OW26770   2.747   4.445   3.072 -0.2944  0.0541  0.2368
 5045SOL    HW126771   2.778   4.463   3.161  0.7191 -0.1835 -0.0807
 5045SOL    HW226772   2.826   4.431   3.021 -0.4294  1.5976 -0.4061
 5046SOL     OW26773   2.647   2.588   3.802 -0.6582 -0.1162 -0.3232
 5046SOL    HW126774   2.656   2.645   3.725  1.7727 -1.5184 -1.0986
 5046SOL    HW226775   2.582   2.524   3.774  0.2605 -1.4390  0.5888
 5047SOL     OW26776   1.768   2.356  16.457  0.0329 -0.7810  0.3691
 5047SOL    HW126777   1.684   2.367  16.412 -0.4004 -2.6387  0.7174
 5047SOL    HW226778   1.797   2.447  16.462 -1.8281 -0.1336 -0.4910
 5048SOL     OW26779   4.351   1.193  13.591  0.4665 -0.4739 -0.3387
 5048SOL    HW126780   4.384   1.281  13.572  2.2329 -1.0718 -0.0778
 5048SOL    HW226781   4.348   1.164  13.499 -1.7804 -2.9196  0.5118
 5049SOL     OW26782   3.595   3.481   6.614 -0.3175 -0.1090  0.4948
 5049SOL    HW126783   3.648   3.551   6.653 -2.2167  1.4048  0.4057
 5049SOL    HW226784   3.575   3.510   6.525 -0.2620 -0.9921  0.1959
 5050SOL     OW26785   3.044   3.381  16.290  0.5917  0.0977  0.2479
 5050SOL    HW126786   3.046   3.398  16.384  1.6642 -1.4951  0.5173
 5050SOL    HW226787   3.069   3.466  16.255 -2.2342  1.3493  1.2947
 5051SOL     OW26788   2.343   2.675   4.244  0.2851  0.1431 -0.1032
 5051SOL    HW126789   2.254   2.685   4.210  0.1186  2.0231  0.8667
 5051SOL    HW226790   2.385   2.618   4.180  2.1523 -1.0080  2.1411
 5052SOL     OW26791   2.477   3.280   8.702  0.1544  0.0853  0.6803
 5052SOL    HW126792   2.390   3.320   8.707 -0.2832 -0.9235  1.0769
 5052SOL    HW226793   2.468   3.197   8.748  2.3665 -0.9379 -0.7724
 5053SOL     OW26794   1.882   2.386  10.609 -0.4067  0.4185  0.0676
 5053SOL    HW126795   1.917   2.309  10.654  1.5431  1.1150 -0.2410
 5053SOL    HW226796   1.947   2.392  10.539 -0.3074 -2.7908 -0.1222
 5054SOL     OW26797   0.669   1.969  14.599 -0.3946  0.5827  0.0152
 5054SOL    HW126798   0.711   1.883  14.604  0.1765  0.7944 -1.0683
 5054SOL    HW226799   0.665   2.011  14.685  1.0561 -1.3523  1.0327
 5055SOL     OW26800   0.410   1.861  11.496  0.1630  0.0460  0.2196
 5055SOL    HW126801   0.460   1.779  11.500  2.7485  1.5785 -0.8420
 5055SOL    HW226802   0.481   1.924  11.501  0.7666 -0.7488  1.7681
 5056SOL     OW26803   2.499   4.720   1.391  0.2765  0.4695  0.0694
 5056SOL    HW126804   2.416   4.675   1.374  1.4358 -1.6572  0.0208
 5056SOL    HW226805   2.484   0.036   1.465 -1.9979  0.6496 -0.5313
 5057SOL     OW26806   0.838   4.671   6.685  0.1207 -0.7062 -0.7859
 5057SOL    HW126807   0.752   4.699   6.653  0.5685  1.3986 -0.1124
 5057SOL    HW226808   0.810   4.582   6.707  1.4991 -0.5659  1.5228
 5058SOL     OW26809   1.625   4.639   6.080  0.0929  0.6157  0.2579
 5058SOL    HW126810   1.562   4.635   6.152  2.7606 -0.3751  2.5546
 5058SOL    HW226811   1.574   4.662   6.002  1.9657  0.4273 -1.0096
 5059SOL     OW26812   3.645   2.191  14.738 -0.2204  0.7551 -0.2407
 5059SOL    HW126813   3.579   2.122  14.736 -0.9752  1.4193  1.3897
 5059SOL    HW226814   3.622   2.258  14.674 -1.2580  1.8072  1.2169
 5060SOL     OW26815   0.040   4.222   6.215 -0.1940  0.0985 -0.0112
 5060SOL    HW126816   0.066   4.135   6.185  0.4834  0.0605  0.6980
 5060SOL    HW226817   0.123   4.270   6.211  0.2673 -0.6117  1.0225
 5061SOL     OW26818   2.117   4.005   4.267  0.1579 -0.3626  0.2117
 5061SOL    HW126819   2.070   4.088   4.259  0.2398 -0.4944 -1.7546
 5061SOL    HW226820   2.119   3.996   4.362  1.1265 -0.1823  0.2081
 5062SOL     OW26821   2.709   3.062  17.560 -0.2105  0.0742 -0.1709
 5062SOL    HW126822   2.646   3.054  17.489 -0.1830  3.1335 -0.5148
 5062SOL    HW226823   2.785   3.104  17.521  0.5816  0.6275  1.9540
 5063SOL     OW26824   1.568   2.746   2.015  0.1083 -0.2554  0.1315
 5063SOL    HW126825   1.658   2.777   2.016 -0.3730  1.1497 -0.3113
 5063SOL    HW226826   1.583   2.658   1.979  1.3688 -0.5228  1.3091
 5064SOL     OW26827   0.936   4.594   0.519  0.3434  0.0957  0.2398
 5064SOL    HW126828   0.961   4.505   0.494 -1.1148 -0.6489  1.4154
 5064SOL    HW226829   0.989   4.646   0.458 -0.8946 -1.3957 -2.1249
 5065SOL     OW26830   2.277   2.610   2.570  0.3651  0.5467 -0.2937
 5065SOL    HW126831   2.278   2.609   2.474  1.1842 -0.7353 -0.2653
 5065SOL    HW226832   2.347   2.673   2.584  0.6066  0.3737 -0.7348
 5066SOL     OW26833   3.341   1.899  11.797 -0.2368  0.6660 -0.2491
 5066SOL    HW126834   3.307   1.812  11.774  1.5223 -0.2094  0.3833
 5066SOL    HW226835   3.397   1.892  11.720  1.8748  0.0651  1.3513
 5067SOL     OW26836   0.466   4.729   7.282  0.0354 -0.8346  0.2804
 5067SOL    HW126837   0.442   0.053   7.346  0.6258 -0.4731  0.1219
 5067SOL    HW226838   0.384   4.684   7.262  0.7442 -1.3671 -1.3807
 5068SOL     OW26839   1.370   2.965   6.902 -0.6597 -0.1575 -0.5535
 5068SOL    HW126840   1.379   2.870   6.888  0.0032 -0.2669  0.5306
 5068SOL    HW226841   1.460   2.997   6.891  0.4881 -3.2037 -0.1398
 5069SOL     OW26842   2.396   0.259   4.510  0.2466 -0.3277  0.0152
 5069SOL    HW126843   2.360   0.185   4.459 -0.1079  0.2474 -0.5672
 5069SOL    HW226844   2.345   0.331   4.475  1.1230 -0.1582 -0.9108
 5070SOL     OW26845   1.114   3.527   5.621 -0.0277  0.8563  0.4213
 5070SOL    HW126846   1.097   3.616   5.588  1.0869  1.3214  1.0729
 5070SOL    HW226847   1.080   3.547   5.708 -1.4824 -1.0944  0.2961
 5071SOL     OW26848   0.005   3.964  15.494 -0.4429 -0.3132  0.3074
 5071SOL    HW126849   0.016   4.051  15.457  2.4294 -1.2632 -1.1198
 5071SOL    HW226850   4.653   3.966  15.502 -0.4446  0.4561  0.0853
 5072SOL     OW26851   2.698   2.540   1.676  0.1716  0.2115  0.0622
 5072SOL    HW126852   2.669   2.555   1.586  1.6087  1.3160 -0.2191
 5072SOL    HW226853   2.783   2.582   1.667  1.1196 -1.5980  0.6421
 5073SOL     OW26854   4.622   1.443   5.053 -0.2597 -0.4255  0.2100
 5073SOL    HW126855   4.691   1.509   5.052 -1.7221  1.0606 -1.7646
 5073SOL    HW226856   4.665   1.375   5.106 -2.4000 -0.2465  2.2031
 5074SOL     OW26857   3.153   3.776   0.365 -0.2863  0.6826 -0.6380
 5074SOL    HW126858   3.202   3.828   0.428 -0.7666  0.2840  0.0548
 5074SOL    HW226859   3.216   3.716   0.324 -0.2862  0.8514 -0.8915
 5075SOL     OW26860   0.359   4.273  13.574 -0.2412 -0.1784 -0.1304
 5075SOL    HW126861   0.360   4.364  13.604  2.2776  0.2037 -1.3403
 5075SOL    HW226862   0.440   4.276  13.522  0.1493  1.4543  0.5612
 5076SOL     OW26863   3.178   2.601   4.950 -0.0070  0.1819  0.0063
 5076SOL    HW126864   3.155   2.619   4.858  1.7072  2.8828  0.0992
 5076SOL    HW226865   3.093   2.615   4.993 -1.0914 -0.2681 -1.9729
 5077SOL     OW26866   3.793   1.555   2.978  0.3481  0.4085  0.1673
 5077SOL    HW126867   3.880   1.566   2.938  0.3264  0.4374  0.1280
 5077SOL    HW226868   3.787   1.461   2.960 -2.0235  0.5466  0.2842
 5078SOL     OW26869   3.397   0.910   6.043  0.3800  0.5397  0.4006
 5078SOL    HW126870   3.444   0.940   5.965  1.8722 -1.7925  0.4127
 5078SOL    HW226871   3.458   0.850   6.086  0.9854  1.6493  1.1102
 5079SOL     OW26872   2.521   1.733   4.889 -0.1249 -0.3901 -0.1256
 5079SOL    HW126873   2.468   1.808   4.863  3.6755  2.0616 -0.7325
 5079SOL    HW226874   2.611   1.756   4.867 -0.4310 -0.6315 -1.6383
 5080SOL     OW26875   2.238   4.654   1.955 -0.7944 -0.0395  0.0524
 5080SOL    HW126876   2.202   4.734   1.918 -1.2842 -1.1210 -1.7925
 5080SOL    HW226877   2.329   4.658   1.925 -0.7423  1.2048  0.3812
 5081SOL     OW26878   3.824   1.666   4.177  0.6132  0.2396 -0.0413
 5081SOL    HW126879   3.837   1.760   4.187 -2.7079  1.0456 -3.1152
 5081SOL    HW226880   3.771   1.676   4.097 -0.8652 -2.2777  0.6466
 5082SOL     OW26881   1.344   2.371   7.507 -0.2708  0.0724  0.1371
 5082SOL    HW126882   1.405   2.318   7.557 -0.5500  2.0519  2.5707
 5082SOL    HW226883   1.402   2.445   7.492 -0.4669  0.3499  0.7398
 5083SOL     OW26884   0.925   1.035   5.282  0.0713 -0.5125 -0.5148
 5083SOL    HW126885   0.903   1.002   5.369 -0.4370 -1.7813 -1.1236
 5083SOL    HW226886   0.881   0.974   5.223  1.2616 -1.6419 -0.2367
 5084SOL     OW26887   3.598   0.840   7.074  0.1077 -0.4426  0.2440
 5084SOL    HW126888   3.596   0.764   7.133 -0.7902 -0.6119  0.0022
 5084SOL    HW226889   3.662   0.806   7.011  1.2009 -0.7251  1.5074
 5085SOL     OW26890   0.189   0.941  13.685 -0.0412 -0.7520  0.5010
 5085SOL    HW126891   0.275   0.981  13.698 -0.7167  0.6961  0.5306
 5085SOL    HW226892   0.154   0.955  13.773  1.5583 -1.1603  1.2071
 5086SOL     OW26893   4.620   0.313   8.487 -0.3770 -0.2375 -0.3627
 5086SOL    HW126894   4.611   0.231   8.535 -1.1105  1.5936  2.6223
 5086SOL    HW226895   4.714   0.306   8.471 -0.3699 -0.1203 -0.3693
 5087SOL     OW26896   4.707   2.040   8.951 -0.6341 -0.4851  0.2098
 5087SOL    HW126897   4.717   2.009   9.041 -0.9448  0.1093  0.4503
 5087SOL    HW226898   0.057   2.051   8.933 -0.3691 -1.6639  0.8738
 5088SOL     OW26899   2.738   3.806   6.365  0.5658  0.4824  0.1595
 5088SOL    HW126900   2.809   3.870   6.369 -0.0654  1.1404  0.9436
 5088SOL    HW226901   2.768   3.740   6.303  2.3439  2.2100 -0.8175
 5089SOL     OW26902   4.726   2.525   1.709 -0.0662  0.3277  0.4481
 5089SOL    HW126903   4.670   2.602   1.703 -0.5289  0.0715  1.4722
 5089SOL    HW226904   4.706   2.482   1.792  0.7875 -0.5876  0.1792
 5090SOL     OW26905   4.046   1.602   3.282  0.5177  0.4310 -0.3034
 5090SOL    HW126906   4.097   1.557   3.215  0.8782  0.9818 -0.3973
 5090SOL    HW226907   4.024   1.684   3.239 -0.7796  0.4334  0.3616
 5091SOL     OW26908   0.462   0.363   8.919 -0.7686  0.7272  0.1753
 5091SOL    HW126909   0.440   0.451   8.888 -1.7598  0.8278  1.1806
 5091SOL    HW226910   0.374   0.341   8.948  0.8434 -1.8456  3.0661
 5092SOL     OW26911   0.630   2.728   2.237 -0.5982 -0.2739  0.1304
 5092SOL    HW126912   0.575   2.704   2.311  0.9998 -1.4033  0.9505
 5092SOL    HW226913   0.568   2.786   2.193  0.9081  0.8685 -0.5131
 5093SOL     OW26914   3.127   1.772   2.096 -0.7938  0.3401  0.0687
 5093SOL    HW126915   3.090   1.746   2.181 -1.6903  1.5453  0.0480
 5093SOL    HW226916   3.055   1.761   2.034  0.1130 -0.9546 -0.7337
 5094SOL     OW26917   2.023   4.559   9.570 -0.2028 -0.1143 -0.3499
 5094SOL    HW126918   1.937   4.598   9.559 -0.4191 -0.8873 -1.4404
 5094SOL    HW226919   2.055   4.581   9.483 -1.6037  0.5346 -0.6864
 5095SOL     OW26920   1.101   4.546   9.009  0.0223  0.2987  0.3205
 5095SOL    HW126921   1.035   4.576   8.946  0.7459  1.3528  0.0567
 5095SOL    HW226922   1.038   4.532   9.079  0.4645 -1.3520  0.4054
 5096SOL     OW26923   2.612   3.875   4.572 -0.5074 -0.1022 -0.5227
 5096SOL    HW126924   2.635   3.815   4.642 -0.2063 -1.4327 -1.7657
 5096SOL    HW226925   2.526   3.839   4.551 -0.2523 -1.9384  1.5731
 5097SOL     OW26926   1.518   0.068   4.328 -0.3807 -0.1545  0.6088
 5097SOL    HW126927   1.433   0.040   4.294 -0.5452 -0.5626  1.3519
 5097SOL    HW226928   1.492   0.108   4.412 -2.0160 -0.2581  0.1605
 5098SOL     OW26929   4.387   3.144  17.336 -0.6949 -0.7941 -0.4119
 5098SOL    HW126930   4.378   3.097  17.253 -1.1551 -1.5614  0.0757
 5098SOL    HW226931   4.435   3.218  17.298  2.0301 -1.5982  1.4774
 5099SOL     OW26932   4.677   1.196   8.443  0.1444  0.2474 -0.0293
 5099SOL    HW126933   4.589   1.220   8.413  0.1636 -1.3390 -1.3731
 5099SOL    HW226934   4.674   1.104   8.468 -0.9956  0.2092 -0.3159
 5100SOL     OW26935   2.819   3.083   2.532 -0.2682  0.3347 -0.2872
 5100SOL    HW126936   2.770   3.109   2.610  1.3793  2.8435 -0.0660
 5100SOL    HW226937   2.839   3.172   2.501  1.5427 -0.2926 -0.8860
 5101SOL     OW26938   0.439   4.648   2.935 -0.4475 -0.4672 -0.0652
 5101SOL    HW126939   0.353   4.690   2.935  0.3923  1.2320  1.0754
 5101SOL    HW226940   0.482   4.658   3.019 -0.6164  0.0906 -0.0478
 5102SOL     OW26941   0.221   4.228   4.888 -0.3865  0.4366 -0.3382
 5102SOL    HW126942   0.244   4.154   4.944 -0.7870  0.0060 -0.7400
 5102SOL    HW226943   0.239   4.308   4.938 -0.9096 -1.4810  2.8611
 5103SOL     OW26944   0.299   1.486  13.044  0.3290 -0.0929  0.2803
 5103SOL    HW126945   0.317   1.484  12.950 -0.8887  1.3699  0.0146
 5103SOL    HW226946   0.372   1.544  13.068  0.6284  0.7126 -2.5503
 5104SOL     OW26947   1.479   0.125  12.883 -0.4567 -0.7726 -0.3819
 5104SOL    HW126948   1.553   0.101  12.827  0.9250  2.5261  0.0395
 5104SOL    HW226949   1.398   0.132  12.833 -0.8363 -0.7450  0.2352
 5105SOL     OW26950   1.396   3.568   8.235 -0.7970 -0.0958 -0.4375
 5105SOL    HW126951   1.376   3.501   8.170 -2.5059 -3.2576  3.3664
 5105SOL    HW226952   1.429   3.640   8.181  0.4465  1.9765  3.1271
 5106SOL     OW26953   2.802   2.961   3.921 -0.0363 -0.5337 -0.2873
 5106SOL    HW126954   2.854   2.933   3.847  1.1053  1.4539 -0.2462
 5106SOL    HW226955   2.824   3.054   3.921 -0.6078 -0.3935 -0.2873
 5107SOL     OW26956   3.388   1.629   4.345 -0.1680 -0.2546 -0.5226
 5107SOL    HW126957   3.434   1.551   4.376 -1.2594 -0.9595 -0.6854
 5107SOL    HW226958   3.445   1.696   4.383 -0.5905  0.2175 -0.7200
 5108SOL     OW26959   3.731   3.158   2.208 -0.2241  0.3614  0.5367
 5108SOL    HW126960   3.821   3.142   2.238 -0.1216  0.0381  0.0381
 5108SOL    HW226961   3.711   3.084   2.152 -1.4186  2.0408 -1.2645
 5109SOL     OW26962   3.392   3.737   4.810 -0.1757 -0.0892  0.3171
 5109SOL    HW126963   3.392   3.799   4.737 -0.0246 -0.7089 -0.2073
 5109SOL    HW226964   3.366   3.653   4.772  0.2730 -0.2479  0.3616
 5110SOL     OW26965   1.445   1.536   4.322  0.4561 -0.2937  0.6051
 5110SOL    HW126966   1.524   1.533   4.268 -0.2936 -0.6242 -0.4798
 5110SOL    HW226967   1.483   1.502   4.403  1.3564  0.7553  0.6321
 5111SOL     OW26968   1.594   2.038   5.640  0.3441 -0.0074 -0.3259
 5111SOL    HW126969   1.526   2.003   5.583  0.1109 -0.4132  0.1967
 5111SOL    HW226970   1.563   2.039   5.731 -1.2543  0.1261 -0.8872
 5112SOL     OW26971   3.596   2.366   6.373  0.0253 -0.0355  0.1751
 5112SOL    HW126972   3.516   2.321   6.346  1.3742 -0.3072 -3.3453
 5112SOL    HW226973   3.591   2.457   6.343 -1.6641  0.5506  2.1626
 5113SOL     OW26974   3.867   3.963  16.640 -0.1184  0.2829 -0.5381
 5113SOL    HW126975   3.878   3.897  16.572  0.6406 -0.7845  0.6092
 5113SOL    HW226976   3.773   3.980  16.634 -0.2597  0.7404  2.8019
 5114SOL     OW26977   0.179   4.368   2.632  0.4719 -0.0110 -0.4757
 5114SOL    HW126978   0.145   4.443   2.681 -0.2253 -1.1344  0.7234
 5114SOL    HW226979   0.243   4.330   2.691 -0.8297 -3.5933 -1.3845
 5115SOL     OW26980   0.335   3.835   4.531 -0.5589 -0.5215 -0.5182
 5115SOL    HW126981   0.299   3.895   4.596 -2.5289 -0.9707 -1.1990
 5115SOL    HW226982   0.403   3.893   4.496 -1.2730  0.7633  0.2274
 5116SOL     OW26983   1.692   4.392   7.695 -0.0574 -0.0132 -0.7045
 5116SOL    HW126984   1.769   4.413   7.642  1.1224 -0.5379  0.8194
 5116SOL    HW226985   1.625   4.375   7.628 -1.1649  1.4922  0.0037
 5117SOL     OW26986   3.495   0.118   5.359  0.7218  0.5588  0.2751
 5117SOL    HW126987   3.503   0.106   5.453 -0.6787  3.6495  0.7684
 5117SOL    HW226988   3.563   0.183   5.344  1.7348 -0.6218 -0.2722
 5118SOL     OW26989   2.794   0.134   2.834  0.2124 -0.0122 -0.3046
 5118SOL    HW126990   2.859   0.074   2.871 -2.5539 -2.3382  0.8111
 5118SOL    HW226991   2.730   0.113   2.903  1.3090  0.5970  0.8967
 5119SOL     OW26992   3.523   4.095   6.120  0.1183  0.2603 -0.1242
 5119SOL    HW126993   3.477   4.052   6.048  3.0869 -1.3844 -1.0474
 5119SOL    HW226994   3.497   4.043   6.196  1.6961 -0.0145  0.2337
 5120SOL     OW26995   2.642   2.026  16.674  0.2168 -0.7043  0.9619
 5120SOL    HW126996   2.576   2.094  16.657 -0.7471 -1.3333  2.1886
 5120SOL    HW226997   2.701   2.034  16.599  0.3008 -2.3064  0.8626
 5121SOL     OW26998   0.619   0.289   1.568  0.0454 -0.2243 -0.1823
 5121SOL    HW126999   0.570   0.233   1.508  1.4749 -0.3226 -1.2551
 5121SOL    HW227000   0.575   0.373   1.553 -1.6884 -1.4134 -1.7091
 5122SOL     OW27001   3.557   2.643   6.285 -0.2507 -0.3201  0.7412
 5122SOL    HW127002   3.594   2.727   6.311  0.6744 -0.2524 -0.8280
 5122SOL    HW227003   3.554   2.645   6.189 -0.3251 -0.9276  0.7264
 5123SOL     OW27004   2.284   4.601   6.916 -0.1139  0.0586  0.8595
 5123SOL    HW127005   2.355   4.538   6.905  0.2901  0.9743 -1.7948
 5123SOL    HW227006   2.217   4.574   6.852 -0.1769  2.0983  0.0876
 5124SOL     OW27007   4.465   0.841   6.423  0.5434 -0.9143 -0.3680
 5124SOL    HW127008   4.508   0.918   6.458  1.5969 -2.0529  0.8679
 5124SOL    HW227009   4.404   0.895   6.373 -0.6459  0.5488  2.6362
 5125SOL     OW27010   4.333   1.076  10.136  0.0170 -0.0535 -0.3017
 5125SOL    HW127011   4.287   1.160  10.128 -2.2197 -1.2652 -0.2836
 5125SOL    HW227012   4.326   1.042  10.225 -0.6932 -2.0445 -1.1115
 5126SOL     OW27013   3.774   1.332   8.275  0.0482  0.3652  0.1986
 5126SOL    HW127014   3.855   1.335   8.224  0.9500  1.6800  1.6884
 5126SOL    HW227015   3.727   1.413   8.252  0.4954  0.1865 -1.3547
 5127SOL     OW27016   3.168   3.825   9.064  0.0605 -0.2399  0.3495
 5127SOL    HW127017   3.165   3.920   9.074  0.1126 -0.4509  2.2718
 5127SOL    HW227018   3.253   3.795   9.032  0.2696 -0.7115  1.3676
 5128SOL     OW27019   0.242   3.222   6.968  0.4086 -0.2005  0.3282
 5128SOL    HW127020   0.193   3.284   6.916 -1.1481 -0.6081  1.3203
 5128SOL    HW227021   0.268   3.154   6.905 -0.0408  0.2380 -0.3232
 5129SOL     OW27022   1.549   2.274  14.803  0.1487  0.5125  0.2020
 5129SOL    HW127023   1.604   2.204  14.840 -0.6554 -1.3714 -2.1984
 5129SOL    HW227024   1.461   2.236  14.804  0.2241  0.4058  2.6874
 5130SOL     OW27025   0.143   2.755   7.975 -0.1524  0.1020 -0.3536
 5130SOL    HW127026   0.147   2.772   8.069  1.1729 -2.1799 -0.0069
 5130SOL    HW227027   0.067   2.806   7.948 -0.2895  0.0138 -0.1403
 5131SOL     OW27028   0.103   0.202   8.645 -0.1206  0.4158 -0.2807
 5131SOL    HW127029   0.159   0.279   8.630  1.4902 -1.1658 -2.4238
 5131SOL    HW227030   0.152   0.167   8.720 -1.4520 -1.7239 -0.4102
 5132SOL     OW27031   3.953   3.659   5.826  0.7524  0.2766 -0.4828
 5132SOL    HW127032   3.869   3.635   5.786  0.1686 -1.3683  1.7444
 5132SOL    HW227033   3.963   3.593   5.894 -0.3836  0.5104 -0.0902
 5133SOL     OW27034   3.229   1.734   9.661 -0.1836 -0.1942  0.3643
 5133SOL    HW127035   3.172   1.661   9.685  1.1389 -2.0733 -2.1517
 5133SOL    HW227036   3.270   1.750   9.746  1.0876 -0.7111 -0.1538
 5134SOL     OW27037   2.894   1.421   6.698 -0.0986  0.5451 -0.7949
 5134SOL    HW127038   2.863   1.398   6.611  0.3049 -0.6755 -0.6084
 5134SOL    HW227039   2.912   1.334   6.735 -0.1628  0.3959 -1.1201
 5135SOL     OW27040   3.084   2.550  11.962  0.1926 -0.5342  0.0816
 5135SOL    HW127041   3.102   2.617  12.028 -1.0080 -1.5137  1.3972
 5135SOL    HW227042   3.090   2.604  11.883  0.6069  0.9088  1.1133
 5136SOL     OW27043   1.807   0.452   3.439  0.0662  0.2532  0.7200
 5136SOL    HW127044   1.888   0.477   3.483  0.8827 -1.7189  0.3713
 5136SOL    HW227045   1.756   0.533   3.447 -1.0714 -0.6385  2.4767
 5137SOL     OW27046   3.324   0.912   5.414  0.0849  0.6772  0.1756
 5137SOL    HW127047   3.234   0.896   5.386  0.3817 -0.0282 -0.3974
 5137SOL    HW227048   3.312   0.883   5.504  2.5925  1.4562  0.7609
 5138SOL     OW27049   4.499   0.463   3.299 -0.0583 -0.6127  0.7495
 5138SOL    HW127050   4.459   0.550   3.300  1.2309  0.0044 -0.5821
 5138SOL    HW227051   4.488   0.435   3.390 -1.1472 -0.0748  0.7864
 5139SOL     OW27052   2.289   0.039   7.266 -0.8208 -0.6122  0.1464
 5139SOL    HW127053   2.230   4.714   7.233  0.5689 -2.2694  1.1009
 5139SOL    HW227054   2.287   0.030   7.361 -2.8681  1.0683  0.2812
 5140SOL     OW27055   4.037   2.025  17.010 -0.3121  0.1825  0.7356
 5140SOL    HW127056   4.085   2.039  16.928 -2.2079  0.5227 -0.3145
 5140SOL    HW227057   3.949   2.017  16.972 -0.0245  0.7654 -0.0519
 5141SOL     OW27058   1.929   3.457   3.040 -0.0720  0.0885  0.4340
 5141SOL    HW127059   1.953   3.547   3.059  0.0271  0.0819  0.3443
 5141SOL    HW227060   1.923   3.459   2.944 -2.5590  1.0907  0.6327
 5142SOL     OW27061   4.420   0.417  11.391 -0.5966  0.1089  0.5055
 5142SOL    HW127062   4.367   0.341  11.366  1.1772 -0.8903 -0.2352
 5142SOL    HW227063   4.351   0.483  11.394 -0.5364  0.1571  0.8107
 5143SOL     OW27064   4.199   2.004   3.200 -0.1864 -0.0341  0.2666
 5143SOL    HW127065   4.136   1.993   3.272  0.5801 -0.2700  0.9054
 5143SOL    HW227066   4.166   1.937   3.140 -0.3076 -1.0560  1.4713
 5144SOL     OW27067   3.640   1.618   8.674 -0.9530 -0.3472  0.0208
 5144SOL    HW127068   3.659   1.703   8.634  0.1852 -1.2478 -1.2866
 5144SOL    HW227069   3.714   1.611   8.734 -1.0909 -0.3877  0.1867
 5145SOL     OW27070   2.076   2.856   8.966  0.0332  0.0798 -0.0041
 5145SOL    HW127071   2.080   2.936   9.018 -0.4245 -0.9576  1.6238
 5145SOL    HW227072   2.167   2.826   8.970 -0.1690 -0.5724 -0.2196
 5146SOL     OW27073   0.158   1.847   9.850 -0.3160 -0.1733 -0.0649
 5146SOL    HW127074   0.142   1.859   9.757 -3.5979 -0.1781  0.4967
 5146SOL    HW227075   0.071   1.859   9.889 -0.3527  1.0858 -0.5265
 5147SOL     OW27076   4.021   2.801  15.257  0.2270  0.4791 -0.8993
 5147SOL    HW127077   4.112   2.776  15.273 -0.5602 -0.1358  2.5281
 5147SOL    HW227078   4.031   2.895  15.241  0.3593  0.3483 -1.6263
 5148SOL     OW27079   3.445   3.576   8.498 -0.3984 -0.9713 -0.0109
 5148SOL    HW127080   3.454   3.628   8.578  2.4119  1.8075 -2.1488
 5148SOL    HW227081   3.517   3.607   8.445  1.1471 -3.5613  0.5728
 5149SOL     OW27082   2.479   3.822   5.627 -0.0657 -0.3243  0.2966
 5149SOL    HW127083   2.433   3.738   5.636 -0.9695  0.2358  0.9757
 5149SOL    HW227084   2.451   3.848   5.539  1.7266 -2.2266 -0.8146
 5150SOL     OW27085   1.832   2.195   9.161  0.2922  0.4016 -0.1627
 5150SOL    HW127086   1.921   2.163   9.174  0.3888  0.1466 -1.4815
 5150SOL    HW227087   1.846   2.285   9.131  1.0872  0.3443  0.0410
 5151SOL     OW27088   1.859   3.666  12.449 -0.1243 -0.5687  0.0920
 5151SOL    HW127089   1.850   3.761  12.460  0.4321 -0.6600  1.2697
 5151SOL    HW227090   1.795   3.639  12.515 -0.5265 -0.4181 -0.2346
 5152SOL     OW27091   0.682   4.543   8.444 -0.0850  0.4916  0.0808
 5152SOL    HW127092   0.766   4.499   8.437  0.6483  1.9077  0.0753
 5152SOL    HW227093   0.672   4.568   8.536 -0.8497 -1.6547  0.5787
 5153SOL     OW27094   3.913   1.117  12.736 -0.4493  0.1579 -0.3391
 5153SOL    HW127095   3.927   1.181  12.666 -2.1216 -0.0540 -0.8603
 5153SOL    HW227096   3.999   1.076  12.739 -0.0988  1.0828  3.1072
 5154SOL     OW27097   3.460   1.460   2.366 -0.4856 -0.3744  0.0100
 5154SOL    HW127098   3.456   1.462   2.270  0.4231  2.7151  0.0549
 5154SOL    HW227099   3.546   1.419   2.375 -1.3139 -2.2851 -0.6678
 5155SOL     OW27100   3.402   3.230   4.948 -0.1634 -0.4395 -0.3807
 5155SOL    HW127101   3.312   3.201   4.960 -0.0221 -0.2143  1.2227
 5155SOL    HW227102   3.405   3.289   5.023  3.9601  1.3673 -1.9060
 5156SOL     OW27103   3.053   4.316   0.221  0.0288 -0.0035 -0.1211
 5156SOL    HW127104   3.017   4.404   0.214  2.7897  1.0949 -0.3269
 5156SOL    HW227105   3.100   4.308   0.139 -0.0349  1.4636 -0.2963
 5157SOL     OW27106   3.043   3.598   0.078  0.4254 -0.1583 -0.2626
 5157SOL    HW127107   3.127   3.636   0.054 -0.1058  2.3793  1.9132
 5157SOL    HW227108   3.006   3.670   0.130 -0.1919 -1.0789  0.5611
 5158SOL     OW27109   2.822   3.850  16.805  0.0586  0.4268  0.6514
 5158SOL    HW127110   2.836   3.943  16.791  2.5985 -0.0448 -0.0292
 5158SOL    HW227111   2.914   3.827  16.787 -0.3023 -0.3152 -0.2711
 5159SOL     OW27112   2.856   4.458  17.085  0.0189 -0.2202  0.2213
 5159SOL    HW127113   2.926   4.509  17.044 -0.4162 -0.7416 -1.1785
 5159SOL    HW227114   2.870   4.461  17.179  2.7086  2.5903 -0.2513
 5160SOL     OW27115   2.452   2.538   6.075  0.3992  0.4106  0.0923
 5160SOL    HW127116   2.397   2.539   6.153 -0.7433  3.1737 -0.7626
 5160SOL    HW227117   2.437   2.456   6.028  0.4349  1.5720 -1.9707
 5161SOL     OW27118   1.594   4.698  17.165 -0.2458 -0.7294 -0.0712
 5161SOL    HW127119   1.591   4.652  17.249  0.2847 -1.1883 -0.3064
 5161SOL    HW227120   1.627   0.043  17.180 -1.4955 -0.1452 -0.7466
 5162SOL     OW27121   4.364   2.899   6.224  0.0401  0.1301 -0.8282
 5162SOL    HW127122   4.443   2.932   6.182 -0.6089 -0.6391 -2.6262
 5162SOL    HW227123   4.382   2.904   6.318  1.6036 -0.2375 -1.1033
 5163SOL     OW27124   4.280   3.540   2.219  0.6287 -0.1864  0.4329
 5163SOL    HW127125   4.326   3.566   2.139 -1.4119  1.3203 -0.2514
 5163SOL    HW227126   4.196   3.508   2.187  1.0155  1.2296 -2.0340
 5164SOL     OW27127   1.463   1.688   5.819  1.4508 -0.3057  0.0559
 5164SOL    HW127128   1.415   1.637   5.754 -1.4926  3.1233 -0.4640
 5164SOL    HW227129   1.544   1.638   5.818  0.4909 -1.7497 -3.0200
 5165SOL     OW27130   3.313   2.397   6.790  0.3961 -0.1514  0.2828
 5165SOL    HW127131   3.328   2.405   6.884  1.1159 -0.2875  0.1785
 5165SOL    HW227132   3.308   2.491   6.771  2.0120  0.1632  1.3409
 5166SOL     OW27133   1.156   2.796  10.089  0.2959 -0.1177 -0.4506
 5166SOL    HW127134   1.185   2.713  10.051 -0.2235  0.3052 -1.7641
 5166SOL    HW227135   1.070   2.763  10.116 -0.1984  0.2127 -1.6456
 5167SOL     OW27136   4.673   3.410   5.764  0.0235 -0.6521  0.7748
 5167SOL    HW127137   4.632   3.406   5.850 -0.0574 -0.4303  0.7453
 5167SOL    HW227138   4.743   3.345   5.770  0.0223 -0.5526  1.8735
 5168SOL     OW27139   0.931   0.021  13.835  0.6663  0.3026  0.0282
 5168SOL    HW127140   1.023   0.006  13.813  0.7839  2.5644 -1.0390
 5168SOL    HW227141   0.903   4.686  13.882 -0.7900 -0.3907 -1.9893
 5169SOL     OW27142   0.572   3.235   2.709 -0.2131 -0.4581 -0.6755
 5169SOL    HW127143   0.584   3.238   2.614 -0.8536  0.7545 -0.7134
 5169SOL    HW227144   0.530   3.320   2.724  0.0630 -0.4007 -0.2126
 5170SOL     OW27145   0.152   0.313   5.703 -0.0539 -0.9946 -0.1485
 5170SOL    HW127146   0.112   0.332   5.788 -0.4214  0.7759 -0.7060
 5170SOL    HW227147   0.235   0.359   5.713 -0.3900 -0.4552  0.2098
 5171SOL     OW27148   0.482   2.541   2.543 -0.3834  0.3707 -0.3426
 5171SOL    HW127149   0.458   2.491   2.465 -0.5452  1.0577 -0.7323
 5171SOL    HW227150   0.577   2.531   2.532 -0.2403  1.4890 -0.0487
 5172SOL     OW27151   3.526   4.570   7.688  0.1512  0.1082  0.0423
 5172SOL    HW127152   3.542   4.586   7.781  0.4916 -2.6819  0.4483
 5172SOL    HW227153   3.446   4.622   7.673 -1.2775 -2.0114  0.2936
 5173SOL     OW27154   0.106   1.333   1.628  0.2166  0.7015  1.0345
 5173SOL    HW127155   0.138   1.309   1.541  1.3651 -1.3976  2.0372
 5173SOL    HW227156   0.026   1.377   1.603  0.2223  0.2795  0.2932
 5174SOL     OW27157   0.658   3.987   2.948  0.4691  0.6445  0.2252
 5174SOL    HW127158   0.622   4.048   2.883  0.8142 -0.1281 -0.6884
 5174SOL    HW227159   0.731   3.945   2.903 -1.7251  0.1454 -2.8900
 5175SOL     OW27160   0.518   3.827  14.590  0.0490  0.1309 -0.2366
 5175SOL    HW127161   0.559   3.753  14.634 -0.5828 -0.0321  0.0761
 5175SOL    HW227162   0.574   3.892  14.631  0.1770 -1.9237  2.8523
 5176SOL     OW27163   3.866   3.442   0.146  0.0228  0.2514  0.2300
 5176SOL    HW127164   3.831   3.379   0.083 -2.1990  1.6719  0.0421
 5176SOL    HW227165   3.828   3.516   0.100  1.4802  0.9092  0.0745
 5177SOL     OW27166   2.204   2.220  14.409  0.0135 -0.0402  0.3861
 5177SOL    HW127167   2.232   2.141  14.362  1.2599  1.1526 -0.8624
 5177SOL    HW227168   2.217   2.288  14.343  0.4084 -0.8864 -0.4105
 5178SOL     OW27169   2.384   3.939  17.521 -0.0631  0.8101  0.6098
 5178SOL    HW127170   2.418   4.027  17.538 -1.5086  1.7559 -1.3967
 5178SOL    HW227171   2.347   3.960  17.435  0.2497  1.0606  0.5336
 5179SOL     OW27172   3.093   3.022   7.787  0.2573 -0.0689 -0.5069
 5179SOL    HW127173   3.153   2.947   7.783 -1.5750 -1.6040  0.7553
 5179SOL    HW227174   3.050   3.004   7.703 -3.2059  1.5515  0.9194
 5180SOL     OW27175   4.337   0.862   2.891 -0.1260  0.1225  0.3249
 5180SOL    HW127176   4.373   0.891   2.807 -0.7530 -1.9451 -0.6554
 5180SOL    HW227177   4.375   0.776   2.906  0.0540  0.1748  0.1667
 5181SOL     OW27178   1.162   4.162   3.517 -0.1867  0.6600  0.6513
 5181SOL    HW127179   1.203   4.076   3.507 -2.0304  0.1077 -2.1014
 5181SOL    HW227180   1.218   4.210   3.456  0.0118 -0.6109 -0.1705
 5182SOL     OW27181   0.170   1.022   1.884 -0.8600  0.0416 -0.1398
 5182SOL    HW127182   0.136   0.949   1.937 -2.1373  1.8060  1.4657
 5182SOL    HW227183   0.106   1.092   1.899 -0.7438  0.5206 -1.9055
 5183SOL     OW27184   1.127   1.352   7.706  0.7138 -0.6255  0.2239
 5183SOL    HW127185   1.070   1.297   7.760  1.4999 -1.2744  0.3836
 5183SOL    HW227186   1.210   1.318   7.738 -0.1745 -2.5131  0.4919
 5184SOL     OW27187   4.639   0.084  13.545 -0.4273  0.2115  0.3908
 5184SOL    HW127188   4.576   0.143  13.585  1.6000  2.0866  0.8191
 5184SOL    HW227189   4.717   0.109  13.595  0.9978 -0.7736 -1.3117
 5185SOL     OW27190   2.408   1.912   3.090 -0.0925 -0.4695  0.2292
 5185SOL    HW127191   2.394   1.992   3.038 -0.8480 -0.5414  0.3195
 5185SOL    HW227192   2.503   1.913   3.091 -0.1550  5.2023 -0.2323
 5186SOL     OW27193   2.346   3.074   2.969 -0.3251 -0.1702 -0.2614
 5186SOL    HW127194   2.360   3.044   2.880  0.5903 -1.0853  0.1991
 5186SOL    HW227195   2.434   3.063   3.004 -0.5969  0.3971  0.6307
 5187SOL     OW27196   0.730   4.007  12.104  0.1029 -0.2408  0.0694
 5187SOL    HW127197   0.800   4.008  12.039 -1.7474 -1.4938 -1.9554
 5187SOL    HW227198   0.763   4.081  12.154 -2.4971  0.6238  0.5071
 5188SOL     OW27199   2.213   0.049  16.718 -0.4010  0.3685  0.7151
 5188SOL    HW127200   2.233   0.091  16.634  2.4542 -2.4185 -0.0494
 5188SOL    HW227201   2.300   0.021  16.746 -0.2703 -0.2165 -0.2501
 5189SOL     OW27202   0.136   2.940   3.806  0.4238 -0.0820  0.4619
 5189SOL    HW127203   0.041   2.944   3.810  0.4349  0.7641 -0.1387
 5189SOL    HW227204   0.153   3.005   3.737 -0.2783  1.3680  1.6724
 5190SOL     OW27205   3.443   0.936   2.938 -0.0757 -0.0371 -0.5358
 5190SOL    HW127206   3.395   0.863   2.977  2.2231 -1.8053 -0.9890
 5190SOL    HW227207   3.450   0.910   2.846  1.4161  0.5217 -0.5836
 5191SOL     OW27208   2.504   3.919   8.873  0.5454  0.2258 -0.3044
 5191SOL    HW127209   2.452   3.894   8.950  2.1532 -1.2949  0.2795
 5191SOL    HW227210   2.433   3.925   8.808  0.2596 -1.1161 -0.1055
 5192SOL     OW27211   1.778   2.291  13.496  0.0131  0.1543 -0.3294
 5192SOL    HW127212   1.749   2.201  13.482 -2.2976  0.7421  0.6702
 5192SOL    HW227213   1.774   2.321  13.405 -2.7582  0.3862 -0.1380
 5193SOL     OW27214   1.339   3.914   3.436  0.2369  0.1917 -0.2258
 5193SOL    HW127215   1.396   3.978   3.478 -0.3417  0.1245  0.6708
 5193SOL    HW227216   1.361   3.826   3.467 -3.3388 -0.5268  0.3605
 5194SOL     OW27217   3.068   4.617   5.241  0.2369 -0.1239 -0.4219
 5194SOL    HW127218   3.143   4.593   5.187  0.2873 -0.4753 -0.1900
 5194SOL    HW227219   3.030   4.692   5.194  2.2010  1.4584  0.5078
 5195SOL     OW27220   0.881   0.671  15.045 -0.4393 -0.2372 -0.2015
 5195SOL    HW127221   0.797   0.659  15.001 -0.8031 -0.6607  0.6001
 5195SOL    HW227222   0.855   0.744  15.100  0.9668  0.0673  0.0519
 5196SOL     OW27223   4.655   3.623   3.582 -0.6049 -0.8225 -0.0668
 5196SOL    HW127224   4.714   3.692   3.553 -0.5653 -0.6476  0.4225
 5196SOL    HW227225   4.575   3.663   3.617  1.0437  0.1435  2.6315
 5197SOL     OW27226   0.905   2.694   8.428 -0.2843  0.3119 -1.0653
 5197SOL    HW127227   0.827   2.748   8.437 -1.0374 -0.7894 -0.9484
 5197SOL    HW227228   0.967   2.737   8.369  1.1329 -0.6766 -0.2838
 5198SOL     OW27229   4.099   3.747   8.498 -0.3289  0.1146 -0.2665
 5198SOL    HW127230   4.120   3.839   8.515  3.0425 -1.0571  1.9659
 5198SOL    HW227231   4.020   3.757   8.445 -0.6235 -0.6775  0.0265
 5199SOL     OW27232   0.110   3.188   2.660  0.3704  0.0034  0.0906
 5199SOL    HW127233   0.037   3.149   2.709 -0.1618  2.8744  1.5518
 5199SOL    HW227234   0.109   3.140   2.577  0.4248  1.7883 -0.9382
 5200SOL     OW27235   1.289   3.192   9.580  0.0342  0.5679 -0.4545
 5200SOL    HW127236   1.355   3.163   9.517  0.1032  2.5655 -1.2956
 5200SOL    HW227237   1.298   3.124   9.647  1.2311  0.1852 -0.9974
 5201SOL     OW27238   2.755   2.601  10.180  0.4600 -0.0216  0.2083
 5201SOL    HW127239   2.673   2.629  10.222 -0.6290 -1.1580 -1.1899
 5201SOL    HW227240   2.727   2.530  10.122 -0.2206 -0.7375  1.4211
 5202SOL     OW27241   1.072   4.105   7.229 -0.7292  0.3557  0.3936
 5202SOL    HW127242   1.160   4.069   7.240 -0.7046  0.5745  0.9200
 5202SOL    HW227243   1.096   4.197   7.240  0.2218  0.3560 -1.7399
 5203SOL     OW27244   1.193   0.559  14.692  0.4542  0.2074  0.0656
 5203SOL    HW127245   1.274   0.601  14.662  0.1349  0.9523  0.2341
 5203SOL    HW227246   1.152   0.620  14.753  1.3289 -0.0627  0.9170
 5204SOL     OW27247   0.852   3.116   2.607 -0.1251 -0.4384 -0.2334
 5204SOL    HW127248   0.867   3.206   2.581 -0.6258 -0.7379 -1.5187
 5204SOL    HW227249   0.818   3.077   2.527  0.1546 -0.7008 -0.2265
 5205SOL     OW27250   0.955   4.658   3.547  0.1886 -0.1336 -0.1926
 5205SOL    HW127251   0.937   4.566   3.526  1.3923 -0.0350 -1.6899
 5205SOL    HW227252   0.865   4.688   3.561  0.9369  1.2893  1.4593
 5206SOL     OW27253   0.397   3.068   6.810  0.5352  0.2536  0.1393
 5206SOL    HW127254   0.410   3.064   6.715 -1.0011  0.6047 -0.0809
 5206SOL    HW227255   0.463   2.999   6.820 -0.2017 -0.2747  1.3589
 5207SOL     OW27256   1.193   1.479   1.343  0.1386  0.2160  0.6351
 5207SOL    HW127257   1.163   1.538   1.273  1.3672 -0.5410 -0.5062
 5207SOL    HW227258   1.277   1.525   1.346  1.1608 -1.6503  0.3286
 5208SOL     OW27259   1.708   3.428   2.507 -0.2055  0.3048  0.3297
 5208SOL    HW127260   1.800   3.403   2.507 -0.0135  0.9364 -3.2584
 5208SOL    HW227261   1.693   3.463   2.419  1.5977 -0.4921 -0.2836
 5209SOL     OW27262   0.248   3.813  14.569 -0.2764 -0.5453 -0.2610
 5209SOL    HW127263   0.221   3.789  14.481  1.6611 -2.9266 -0.1953
 5209SOL    HW227264   0.339   3.834  14.548  0.7622 -2.7497  1.9826
 5210SOL     OW27265   1.157   1.543  10.415  0.7298  0.3056  0.3162
 5210SOL    HW127266   1.173   1.631  10.447 -1.3166  0.6439  0.4294
 5210SOL    HW227267   1.185   1.490  10.490  2.2161 -1.6282 -1.6083
 5211SOL     OW27268   0.218   3.482   3.042  0.3840 -0.4032 -0.2967
 5211SOL    HW127269   0.251   3.420   2.977  0.9983  1.1614 -1.4859
 5211SOL    HW227270   0.169   3.534   2.979  1.5558 -1.0339 -1.7240
 5212SOL     OW27271   0.450   1.796   0.702 -0.8375 -0.9765 -0.0876
 5212SOL    HW127272   0.486   1.735   0.637  0.3170  1.1139 -1.4134
 5212SOL    HW227273   0.428   1.737   0.774 -1.0805  0.4997  1.0497
 5213SOL     OW27274   2.834   3.523   6.342  0.0644  0.3376  0.2047
 5213SOL    HW127275   2.852   3.451   6.403  0.2637  1.1542  1.1131
 5213SOL    HW227276   2.912   3.509   6.289  1.9367  0.3159  2.9268
 5214SOL     OW27277   0.128   0.626   6.768 -0.7539 -0.1606  0.3629
 5214SOL    HW127278   0.136   0.712   6.810  2.4930  0.1504 -0.8887
 5214SOL    HW227279   0.105   0.669   6.686  0.0631  0.3978  0.4268
 5215SOL     OW27280   4.108   2.124   1.046  0.7017  0.1270  0.1083
 5215SOL    HW127281   4.161   2.050   1.077  0.6055 -0.6208 -1.5239
 5215SOL    HW227282   4.035   2.112   1.106  1.1580 -1.7286  0.3029
 5216SOL     OW27283   0.167   3.774   9.166  0.3307  0.2648 -0.5974
 5216SOL    HW127284   0.167   3.838   9.237  1.3779  0.5902 -0.8917
 5216SOL    HW227285   0.083   3.795   9.125  0.4689  0.2374 -0.8952
 5217SOL     OW27286   2.447   4.697  13.429 -0.5713 -0.2220 -0.5193
 5217SOL    HW127287   2.425   4.705  13.336 -0.9296  2.6696 -0.1920
 5217SOL    HW227288   2.394   4.624  13.462 -0.0566 -0.2610  0.2163
 5218SOL     OW27289   1.298   1.133   2.159  0.1477 -0.2308 -0.0555
 5218SOL    HW127290   1.273   1.194   2.089 -0.1751 -0.6474 -0.3020
 5218SOL    HW227291   1.267   1.049   2.125 -0.8208  0.9417 -2.0971
 5219SOL     OW27292   1.649   0.445   5.342  0.3750  1.2278  0.2274
 5219SOL    HW127293   1.643   0.491   5.258 -0.8549  0.5930 -0.0322
 5219SOL    HW227294   1.714   0.497   5.390  0.7502  1.6706 -0.7586
 5220SOL     OW27295   1.471   1.313   7.371  0.0720  0.0935  0.0505
 5220SOL    HW127296   1.527   1.245   7.410 -2.4300 -1.3660  1.0633
 5220SOL    HW227297   1.391   1.296   7.421  0.2280  0.8517  0.5571
 5221SOL     OW27298   0.524   1.538   7.941 -0.1418  0.6846  0.1100
 5221SOL    HW127299   0.477   1.537   7.858 -0.2824 -1.9520  0.2175
 5221SOL    HW227300   0.479   1.476   7.998  0.4065 -0.4817 -0.7211
 5222SOL     OW27301   2.035   3.324  17.239  0.7095 -0.2849  0.0195
 5222SOL    HW127302   1.943   3.300  17.232  0.8437 -0.5439 -0.8181
 5222SOL    HW227303   2.061   3.298  17.151 -0.5888 -3.4215  0.5591
 5223SOL     OW27304   1.710   1.612  13.691 -0.2501  0.5261  0.4742
 5223SOL    HW127305   1.788   1.665  13.677  1.2324 -2.2782 -1.9157
 5223SOL    HW227306   1.636   1.669  13.669  1.1133  1.1486 -2.5290
 5224SOL     OW27307   1.720   0.469   4.968  0.0927  0.2980 -0.1355
 5224SOL    HW127308   1.788   0.403   4.984 -0.1336 -0.1306 -0.9376
 5224SOL    HW227309   1.772   0.548   4.959  1.5237 -0.4457  1.5710
 5225SOL     OW27310   2.803   0.146   5.237 -0.5082  0.0222 -0.1798
 5225SOL    HW127311   2.893   0.174   5.220 -0.3659  0.9784  2.2504
 5225SOL    HW227312   2.796   0.062   5.190 -0.0945 -0.7629  1.1839
 5226SOL     OW27313   0.624   0.286   4.372  0.3654  0.3045 -0.4164
 5226SOL    HW127314   0.592   0.228   4.303  3.2585 -1.2122 -0.4822
 5226SOL    HW227315   0.622   0.239   4.456 -0.4815  2.1884  0.6105
 5227SOL     OW27316   4.713   3.148  11.790 -0.6059  0.2603  0.0710
 5227SOL    HW127317   0.011   3.192  11.716 -0.8539 -2.9015 -1.9183
 5227SOL    HW227318   0.033   3.083  11.821 -2.7854 -1.6184  0.5307
 5228SOL     OW27319   2.778   1.727  15.687  0.0298 -0.2807  0.3477
 5228SOL    HW127320   2.739   1.720  15.600  0.1279 -0.9025  0.3509
 5228SOL    HW227321   2.837   1.653  15.699  0.7500  0.2928  0.3310
 5229SOL     OW27322   1.338   4.151   3.172 -0.4369  0.3464 -0.1942
 5229SOL    HW127323   1.355   4.226   3.229 -0.6114 -0.8446  1.4154
 5229SOL    HW227324   1.245   4.143   3.191 -0.1954 -0.4436  0.6769
 5230SOL     OW27325   0.130   2.391  11.974 -0.3069  0.0980  0.1084
 5230SOL    HW127326   0.166   2.442  11.901  1.2851  1.3090  1.7138
 5230SOL    HW227327   0.153   2.455  12.042  1.0276  0.3638 -0.5901
 5231SOL     OW27328   1.482   1.257   2.871 -0.0241  0.1847 -0.1496
 5231SOL    HW127329   1.410   1.257   2.808  1.6233 -0.8220 -2.0364
 5231SOL    HW227330   1.545   1.296   2.811 -0.3667 -0.9163 -1.2334
 5232SOL     OW27331   0.470   2.389   2.320  0.4172  0.1495  0.5016
 5232SOL    HW127332   0.456   2.295   2.332  2.1897 -0.2466 -0.5050
 5232SOL    HW227333   0.538   2.375   2.254 -1.3329 -0.8364 -1.0870
 5233SOL     OW27334   2.270   3.819   8.729  0.4261 -0.3055 -0.1798
 5233SOL    HW127335   2.215   3.896   8.742  0.8378  0.4916 -3.1072
 5233SOL    HW227336   2.215   3.761   8.781 -1.8216  1.3449 -0.6918
 5234SOL     OW27337   0.815   3.879   4.505 -0.2004 -0.3070 -0.7031
 5234SOL    HW127338   0.755   3.830   4.561  1.0234  1.3147  1.9934
 5234SOL    HW227339   0.808   3.830   4.423 -0.0354 -0.0925 -0.8445
 5235SOL     OW27340   4.473   3.992  15.467 -0.1908 -0.6321  0.8351
 5235SOL    HW127341   4.442   4.069  15.513  2.3730  1.4273 -0.8749
 5235SOL    HW227342   4.425   4.006  15.385 -0.1031 -0.2661  0.8460
 5236SOL     OW27343   2.883   2.916  10.526  0.2027  0.0647 -0.4401
 5236SOL    HW127344   2.893   2.823  10.504  1.9132  0.0055  0.5291
 5236SOL    HW227345   2.931   2.919  10.609 -0.4510  0.9407 -0.0979
 5237SOL     OW27346   2.481   2.688  16.416 -0.7506 -0.3303 -0.9197
 5237SOL    HW127347   2.470   2.740  16.496 -1.1070 -0.8689 -0.6178
 5237SOL    HW227348   2.418   2.734  16.361  0.3306  0.2356 -1.6778
 5238SOL     OW27349   3.466   2.128   1.930 -0.7357 -0.1533  1.1391
 5238SOL    HW127350   3.383   2.116   1.976 -0.7420  1.9388  1.6831
 5238SOL    HW227351   3.513   2.047   1.949  0.1869  0.0739 -0.2217
 5239SOL     OW27352   0.773   0.505  13.668  0.5876  0.6078 -0.2086
 5239SOL    HW127353   0.803   0.583  13.714 -2.1340  2.2178 -1.1127
 5239SOL    HW227354   0.766   0.440  13.738  1.2467  0.6336 -0.1242
 5240SOL     OW27355   3.551   3.527   4.229 -0.0468  0.5202  0.1085
 5240SOL    HW127356   3.527   3.607   4.275  1.2434  1.1356 -0.2746
 5240SOL    HW227357   3.468   3.482   4.219 -0.8633  1.8168  1.0324
 5241SOL     OW27358   3.773   1.027   1.762 -0.4421  0.2405  0.5130
 5241SOL    HW127359   3.856   1.000   1.800 -1.1515 -0.9219  1.2215
 5241SOL    HW227360   3.785   1.004   1.670 -1.5245  0.7422  0.2356
 5242SOL     OW27361   2.091   3.422   4.379 -0.0967 -0.8858  0.2296
 5242SOL    HW127362   2.109   3.480   4.453  1.6211 -1.6774  0.4129
 5242SOL    HW227363   2.006   3.460   4.354  0.5747 -0.1546 -0.9322
 5243SOL     OW27364   4.251   2.687   3.605  0.5133 -0.1565  0.3843
 5243SOL    HW127365   4.263   2.733   3.688  1.0147 -1.9467  1.3004
 5243SOL    HW227366   4.322   2.726   3.554 -0.7058  3.0675  1.1260
 5244SOL     OW27367   2.041   0.880   7.735 -0.5941 -0.0954 -0.4654
 5244SOL    HW127368   2.125   0.840   7.755 -0.5734  0.0429 -0.2690
 5244SOL    HW227369   1.982   0.809   7.759  0.5244 -0.7070  0.4379
 5245SOL     OW27370   3.847   3.742  11.749  0.2181 -0.0727 -0.7086
 5245SOL    HW127371   3.894   3.674  11.701  0.3987 -0.3748 -0.0959
 5245SOL    HW227372   3.920   3.780  11.797 -1.1184 -0.2545  1.4457
 5246SOL     OW27373   1.869   1.049   6.022  0.1395 -0.5674  0.2295
 5246SOL    HW127374   1.930   0.975   6.027  1.7265  0.7649  0.6410
 5246SOL    HW227375   1.908   1.106   5.956 -0.4670  1.2937  1.5090
 5247SOL     OW27376   2.758   2.490   5.339  0.0882 -0.0326  0.5382
 5247SOL    HW127377   2.733   2.439   5.263  1.2349  1.0934 -0.6074
 5247SOL    HW227378   2.684   2.550   5.344  0.2846  0.2375  0.1990
 5248SOL     OW27379   2.052   2.165   7.570  0.4016 -0.3908 -0.3090
 5248SOL    HW127380   1.967   2.181   7.530  0.2199  0.4115  0.3943
 5248SOL    HW227381   2.028   2.162   7.663  0.2561 -2.6408 -0.4218
 5249SOL     OW27382   3.654   2.325   2.920  0.2001 -0.4103  0.7605
 5249SOL    HW127383   3.682   2.312   3.011  0.0725 -2.5916  0.4856
 5249SOL    HW227384   3.573   2.274   2.922  0.9291 -1.5388  1.5467
 5250SOL     OW27385   1.128   2.540   9.192  0.3378  0.1306 -0.2105
 5250SOL    HW127386   1.216   2.514   9.219 -0.4328 -3.0374 -0.7214
 5250SOL    HW227387   1.109   2.613   9.250  2.1810  0.5210 -0.1055
 5251SOL     OW27388   3.321   0.746   2.464 -0.6207 -0.1588  0.2633
 5251SOL    HW127389   3.351   0.833   2.493  0.2965 -0.1938 -0.5686
 5251SOL    HW227390   3.398   0.691   2.476 -0.5289  0.2239  1.4631
 5252SOL     OW27391   2.210   2.552   7.797 -0.3089 -0.5481 -0.2940
 5252SOL    HW127392   2.189   2.619   7.862  0.8705 -0.3469 -0.1082
 5252SOL    HW227393   2.304   2.571   7.789 -0.3698  0.0725  0.4740
 5253SOL     OW27394   3.185   1.033   4.103 -0.4453 -0.3298  0.1708
 5253SOL    HW127395   3.138   0.968   4.154 -1.3239 -1.2358 -1.8237
 5253SOL    HW227396   3.129   1.046   4.027  0.1703 -1.1499 -0.4327
 5254SOL     OW27397   3.729   0.226   3.588 -0.3369  0.6047  0.1939
 5254SOL    HW127398   3.659   0.161   3.598  0.2898  0.2631  2.3030
 5254SOL    HW227399   3.789   0.159   3.558 -0.2996 -1.3837  4.6579
 5255SOL     OW27400   2.113   2.328   8.671 -0.2255  0.0926 -0.7673
 5255SOL    HW127401   2.122   2.242   8.630 -3.9543 -1.3433  1.3805
 5255SOL    HW227402   2.082   2.306   8.759  0.4939  1.5465 -0.1403
 5256SOL     OW27403   0.365   1.665   2.769  0.0113  0.6299  0.4560
 5256SOL    HW127404   0.390   1.723   2.697 -0.5139  0.5387  0.1939
 5256SOL    HW227405   0.311   1.715   2.831  0.7939 -1.6584  2.9655
 5257SOL     OW27406   4.116   2.552   7.916 -0.4662 -0.1530 -0.8833
 5257SOL    HW127407   4.158   2.577   7.998 -1.1554  1.6117 -1.0701
 5257SOL    HW227408   4.027   2.585   7.928  0.5147  2.9714 -2.1897
 5258SOL     OW27409   2.367   3.268   1.024 -0.0442  0.6840 -0.3456
 5258SOL    HW127410   2.362   3.199   1.091  3.1127 -1.2072 -2.0448
 5258SOL    HW227411   2.299   3.325   1.059  0.8167  2.8846 -2.2729
 5259SOL     OW27412   2.736   0.312  11.377  0.0476  0.7033 -0.4444
 5259SOL    HW127413   2.819   0.352  11.404 -0.2087  1.2257 -0.4350
 5259SOL    HW227414   2.762   0.315  11.285 -0.6567  2.9746 -0.5730
 5260SOL     OW27415   0.749   2.597   1.510  0.3323  0.3672  0.5543
 5260SOL    HW127416   0.653   2.596   1.516  0.2283  0.5179 -1.0758
 5260SOL    HW227417   0.756   2.613   1.416 -0.0130  1.2658  0.6815
 5261SOL     OW27418   1.274   3.208   4.963  0.1820  0.4012  0.1245
 5261SOL    HW127419   1.298   3.300   4.975 -0.9963  1.0715 -2.8592
 5261SOL    HW227420   1.222   3.218   4.884  1.1919  2.9498 -0.2449
 5262SOL     OW27421   1.118   3.073   9.355 -0.0909 -0.1489  0.1604
 5262SOL    HW127422   1.162   3.047   9.436  0.2057 -0.9422 -0.2565
 5262SOL    HW227423   1.069   3.149   9.385 -1.8940 -1.1196 -0.3019
 5263SOL     OW27424   4.608   2.794   9.314 -0.2022 -0.0559 -0.1772
 5263SOL    HW127425   4.683   2.771   9.369 -0.4345  0.6368  0.4272
 5263SOL    HW227426   4.609   2.723   9.249  3.0342  0.7041 -0.9733
 5264SOL     OW27427   1.266   1.268   3.462  0.2791  0.1098  0.1051
 5264SOL    HW127428   1.280   1.178   3.494 -1.3171  0.1496  0.9006
 5264SOL    HW227429   1.257   1.240   3.371 -0.0299 -2.6152  0.9748
 5265SOL     OW27430   4.216   1.763   7.401  0.2474  0.2101 -0.4446
 5265SOL    HW127431   4.235   1.851   7.369 -2.3044  0.8956 -0.0757
 5265SOL    HW227432   4.121   1.770   7.395  0.3047  2.4205  1.5112
 5266SOL     OW27433   3.594   0.203  15.084 -0.0702 -0.2832  0.5362
 5266SOL    HW127434   3.568   0.187  14.993 -1.0114  0.7109  0.6328
 5266SOL    HW227435   3.631   0.121  15.118  1.4879 -0.0925 -0.6661
 5267SOL     OW27436   2.259   2.822  17.408 -0.7726  0.0401  0.4742
 5267SOL    HW127437   2.286   2.752  17.349  2.4424  1.5976  0.0624
 5267SOL    HW227438   2.274   2.897  17.349  1.1302 -2.6044 -2.3901
 5268SOL     OW27439   1.151   3.533   3.329 -0.6201  0.2771 -0.4074
 5268SOL    HW127440   1.068   3.555   3.371 -0.6801  0.9119 -0.8718
 5268SOL    HW227441   1.209   3.515   3.403 -1.7401 -0.4402  0.3094
 5269SOL     OW27442   1.427   0.433   8.592 -0.3573 -0.3132 -0.4040
 5269SOL    HW127443   1.421   0.402   8.682  1.2308  0.2192 -0.1119
 5269SOL    HW227444   1.468   0.517   8.613 -1.2571  0.3327 -1.2713
 5270SOL     OW27445   0.591   1.334  15.866 -0.0305 -0.6969  0.6482
 5270SOL    HW127446   0.504   1.350  15.830 -0.6427 -1.2955  1.8752
 5270SOL    HW227447   0.610   1.260  15.808  1.2589 -0.2108  0.4602
 5271SOL     OW27448   1.722   2.280   6.167  0.2079  0.0053 -0.6685
 5271SOL    HW127449   1.721   2.244   6.078  0.0114 -1.7756  0.0614
 5271SOL    HW227450   1.800   2.242   6.208 -0.0814 -1.6577 -1.6281
 5272SOL     OW27451   0.277   1.267   7.736 -0.3585  0.0682 -0.3174
 5272SOL    HW127452   0.203   1.242   7.680 -0.9208  2.1147 -0.4947
 5272SOL    HW227453   0.249   1.357   7.753  4.9836  1.2670  2.1897
 5273SOL     OW27454   3.838   3.745   4.451  0.4131 -0.0092  0.4024
 5273SOL    HW127455   3.866   3.697   4.373  1.0837 -0.5958  1.0055
 5273SOL    HW227456   3.913   3.804   4.462 -0.9484  2.3633 -3.0862
 5274SOL     OW27457   0.723   2.861   1.764  0.1360 -0.1093  0.0661
 5274SOL    HW127458   0.729   2.951   1.795  1.2876 -0.7558  1.7378
 5274SOL    HW227459   0.646   2.868   1.708 -0.4490  0.6382  0.9608
 5275SOL     OW27460   1.160   0.814   6.943  0.2890 -0.0378 -0.1171
 5275SOL    HW127461   1.108   0.840   7.019 -1.0575  2.0185 -1.7237
 5275SOL    HW227462   1.241   0.855   6.973 -0.2839  2.2974 -1.7038
 5276SOL     OW27463   0.356   1.058   6.806 -0.4611  0.2115  0.3204
 5276SOL    HW127464   0.440   1.043   6.762 -1.8984  0.7244 -2.5665
 5276SOL    HW227465   0.299   1.075   6.731  1.5114 -0.8945 -1.4304
 5277SOL     OW27466   0.352   1.737   3.600  0.6623  0.6400 -0.2807
 5277SOL    HW127467   0.288   1.698   3.541 -0.7232 -2.1575  3.1200
 5277SOL    HW227468   0.397   1.654   3.615 -0.2665  0.5250  1.8479
 5278SOL     OW27469   1.421   2.571   4.113  0.0729 -0.3580 -0.1272
 5278SOL    HW127470   1.341   2.528   4.144  1.8507 -2.8192  1.0990
 5278SOL    HW227471   1.492   2.514   4.142 -0.4797 -0.5679  0.7805
 5279SOL     OW27472   2.453   2.523   4.893 -0.5650  0.0684 -0.5703
 5279SOL    HW127473   2.465   2.545   4.801 -2.8440 -1.1840 -1.1777
 5279SOL    HW227474   2.505   2.589   4.938  1.9426 -3.0527  1.1770
 5280SOL     OW27475   2.759   4.357   0.581  0.3865 -0.5479 -0.8577
 5280SOL    HW127476   2.840   4.381   0.535  1.3477  3.9069  3.1236
 5280SOL    HW227477   2.799   4.333   0.665 -0.5213 -2.5377 -0.9946
 5281SOL     OW27478   3.645   0.054   1.099 -0.0128  0.5876  0.6856
 5281SOL    HW127479   3.711   0.069   1.032 -1.4690 -1.4712 -1.1824
 5281SOL    HW227480   3.599   0.138   1.092 -0.6666  0.0685 -1.2671
 5282SOL     OW27481   4.652   2.932   3.025  0.1887  0.1016  0.4448
 5282SOL    HW127482   4.631   3.006   3.081  0.9031 -0.3294  1.2744
 5282SOL    HW227483   0.004   2.936   3.031  0.1569  1.0556  0.3330
 5283SOL     OW27484   3.126   3.898   6.559 -0.2381 -0.1247 -1.2866
 5283SOL    HW127485   3.172   3.974   6.593  1.6344 -0.4203 -3.1049
 5283SOL    HW227486   3.049   3.942   6.523 -0.4950  0.2253 -0.2974
 5284SOL     OW27487   3.646   0.221   9.495  0.0048 -0.1460  0.6581
 5284SOL    HW127488   3.731   0.251   9.462 -0.4771  0.8138  0.3144
 5284SOL    HW227489   3.678   0.140   9.535 -0.0867 -2.1677 -3.3285
 5285SOL     OW27490   4.725   3.369  11.082 -0.2878  0.7755  0.1998
 5285SOL    HW127491   4.725   3.446  11.138 -2.1394  1.4442 -0.7133
 5285SOL    HW227492   0.008   3.414  11.001 -3.0018 -1.5222 -1.9801
 5286SOL     OW27493   3.252   3.727   3.536  0.5911 -0.0375 -0.1581
 5286SOL    HW127494   3.340   3.694   3.522  1.1965  1.6476 -0.2825
 5286SOL    HW227495   3.250   3.805   3.481 -0.2581 -0.3302 -0.5489
 5287SOL     OW27496   0.840   1.634   7.554 -0.4798 -0.8082 -0.1021
 5287SOL    HW127497   0.805   1.704   7.610 -0.0644 -0.5212 -0.2021
 5287SOL    HW227498   0.802   1.558   7.598 -1.6139 -0.1136  0.1235
 5288SOL     OW27499   0.701   3.277   5.718 -0.1181 -0.2893 -0.0161
 5288SOL    HW127500   0.730   3.250   5.631  1.0203 -0.0125  0.2684
 5288SOL    HW227501   0.785   3.312   5.750  0.5199 -1.4390 -0.4559
 5289SOL     OW27502   4.316   0.519  10.947 -0.8189  0.0010  0.1757
 5289SOL    HW127503   4.379   0.449  10.964 -1.6631 -0.3324  1.9779
 5289SOL    HW227504   4.244   0.499  11.007 -0.5263 -0.9361  0.2088
 5290SOL     OW27505   2.663   3.544   5.514  0.3924  0.6620 -0.0549
 5290SOL    HW127506   2.652   3.503   5.428  1.1819  2.5284 -1.0431
 5290SOL    HW227507   2.618   3.477   5.565  1.1790 -0.4134 -0.7755
 5291SOL     OW27508   4.463   2.399   6.084  0.0001  0.1385 -0.3673
 5291SOL    HW127509   4.538   2.432   6.133  2.3346 -1.8190 -2.6182
 5291SOL    HW227510   4.393   2.460   6.107 -1.2531 -0.8785 -1.4925
 5292SOL     OW27511   2.000   1.892   4.001  0.5109  0.4257  0.6906
 5292SOL    HW127512   2.067   1.861   4.061  0.5718 -0.1130  0.3421
 5292SOL    HW227513   1.969   1.965   4.055  0.8719  0.8376  0.3498
 5293SOL     OW27514   0.007   2.040   8.404 -0.1695  0.4426 -0.1144
 5293SOL    HW127515   0.011   1.995   8.319 -3.4272 -0.9713  0.4819
 5293SOL    HW227516   4.665   2.082   8.396 -0.6806 -0.8395 -1.3161
 5294SOL     OW27517   0.050   3.023   4.817  0.0691 -0.2361  0.0717
 5294SOL    HW127518   0.131   3.035   4.865 -0.3863 -0.8783  1.0030
 5294SOL    HW227519   0.047   3.106   4.769 -2.0046 -0.3628 -0.0314
 5295SOL     OW27520   2.839   4.154   0.822  0.2715  0.0709 -0.4112
 5295SOL    HW127521   2.925   4.128   0.855 -0.0229  1.4398  1.4133
 5295SOL    HW227522   2.840   4.099   0.744  0.5242  1.0812 -1.1153
 5296SOL     OW27523   4.544   0.726   1.275  0.2259 -0.0873 -0.1939
 5296SOL    HW127524   4.523   0.679   1.356 -2.1387  1.3417  0.0114
 5296SOL    HW227525   4.518   0.664   1.207 -0.9769  0.8082 -0.5436
 5297SOL     OW27526   1.291   2.114   6.206  0.2510  0.0731  0.4114
 5297SOL    HW127527   1.233   2.189   6.219  1.2290  0.6567  1.4743
 5297SOL    HW227528   1.364   2.163   6.169 -0.0687  0.3785  0.1866
 5298SOL     OW27529   1.265   2.887   3.059  0.3715 -0.3368 -0.2168
 5298SOL    HW127530   1.305   2.803   3.039  2.2259  0.6396 -0.5619
 5298SOL    HW227531   1.178   2.867   3.024 -0.0091  1.1689 -0.1599
 5299SOL     OW27532   1.347   2.444  13.576 -0.0320  0.8122  0.2591
 5299SOL    HW127533   1.414   2.493  13.624 -2.7745  2.4793  2.4049
 5299SOL    HW227534   1.334   2.365  13.629  0.6477 -0.7183 -1.8238
 5300SOL     OW27535   0.660   3.580   5.416 -0.1275  0.0926 -0.1894
 5300SOL    HW127536   0.658   3.547   5.505 -0.5000 -0.9459 -0.5820
 5300SOL    HW227537   0.754   3.574   5.396 -0.2809 -0.4691 -0.7535
 5301SOL     OW27538   0.069   2.434   4.592  0.5216 -0.9203  0.0741
 5301SOL    HW127539   0.138   2.387   4.640 -0.5672 -1.0039  1.5227
 5301SOL    HW227540   0.042   2.501   4.655  0.6369  0.9047 -1.8200
 5302SOL     OW27541   3.826   2.336  10.690 -0.0646 -0.0450 -0.4375
 5302SOL    HW127542   3.775   2.271  10.739  0.8240 -0.1241  0.3765
 5302SOL    HW227543   3.886   2.360  10.761 -1.4578  0.4044  0.6170
 5303SOL     OW27544   3.434   1.601  10.142  0.3490 -0.3016 -0.7224
 5303SOL    HW127545   3.439   1.520  10.091  0.3398 -1.2249  0.7553
 5303SOL    HW227546   3.516   1.597  10.192  0.3804 -0.2470 -0.7691
 5304SOL     OW27547   3.504   1.953   9.167 -0.0501  0.1131  0.0271
 5304SOL    HW127548   3.585   2.000   9.150  0.2822 -0.0929  1.0485
 5304SOL    HW227549   3.434   2.018   9.158 -0.0696  0.1383  0.3610
 5305SOL     OW27550   0.073   2.903   0.481 -0.1383 -0.1028  0.7585
 5305SOL    HW127551   0.071   2.990   0.441 -1.5525 -0.7070 -0.4971
 5305SOL    HW227552   0.072   2.841   0.408 -3.8115 -0.9746  1.5445
 5306SOL     OW27553   0.086   2.227  15.167 -0.5338 -0.3578  0.5730
 5306SOL    HW127554   0.038   2.292  15.218  0.0844  1.0769 -0.6750
 5306SOL    HW227555   0.010   2.191  15.122  0.5643  0.0939 -1.6807
 5307SOL     OW27556   1.263   1.018   0.758  0.2230 -0.0693 -0.4896
 5307SOL    HW127557   1.303   1.090   0.805 -2.2842  1.4693 -0.7346
 5307SOL    HW227558   1.337   0.970   0.720  2.4775  0.9806  2.5923
 5308SOL     OW27559   1.136   3.730   8.852  0.1941  0.4892 -0.5213
 5308SOL    HW127560   1.109   3.677   8.926 -0.3263 -0.3182 -1.2883
 5308SOL    HW227561   1.055   3.758   8.809  1.2579  0.0731 -2.8273
 5309SOL     OW27562   2.135   4.348   4.043 -0.0893  0.1087  0.1112
 5309SOL    HW127563   2.148   4.376   3.953 -1.3077 -1.9481 -0.6899
 5309SOL    HW227564   2.226   4.337   4.070  0.2722  0.8942 -0.7893
 5310SOL     OW27565   0.840   0.599   7.081  0.6512  0.0415 -0.6307
 5310SOL    HW127566   0.931   0.570   7.072  1.0425  1.9312 -2.7014
 5310SOL    HW227567   0.819   0.544   7.157 -0.6011 -1.2991 -1.9579
 5311SOL     OW27568   3.596   4.353   6.072  0.5363 -0.0538 -0.0659
 5311SOL    HW127569   3.573   4.260   6.069 -0.4905  0.1615  1.0399
 5311SOL    HW227570   3.667   4.361   6.136  1.6570 -0.6677 -1.2377
 5312SOL     OW27571   2.084   2.855   7.475 -0.1088 -0.2906 -0.5641
 5312SOL    HW127572   2.141   2.786   7.509 -0.3826  0.0056  0.4890
 5312SOL    HW227573   2.077   2.924   7.540 -0.4547 -1.1427  0.2918
 5313SOL     OW27574   2.044   1.173  12.340  0.2106 -0.1720 -0.1354
 5313SOL    HW127575   2.058   1.216  12.424 -0.1520 -0.1608 -0.0800
 5313SOL    HW227576   2.057   1.084  12.374 -3.5862 -0.4461  0.6113
 5314SOL     OW27577   4.094   0.764  10.229 -0.3038 -0.2762 -0.2816
 5314SOL    HW127578   4.111   0.832  10.295 -1.9027 -1.2579  1.1450
 5314SOL    HW227579   4.175   0.731  10.191  0.4158  3.2982 -1.7956
 5315SOL     OW27580   4.614   3.123   3.216  0.4459  0.3202  0.2083
 5315SOL    HW127581   4.702   3.162   3.217  0.6578 -0.1999  1.3919
 5315SOL    HW227582   4.563   3.198   3.185 -0.2984  0.2447  1.2479
 5316SOL     OW27583   2.633   3.109   0.445  0.1466  0.9055 -0.2123
 5316SOL    HW127584   2.727   3.097   0.436  0.0319 -1.1135  1.2130
 5316SOL    HW227585   2.621   3.127   0.538  1.3920 -0.4200  0.2064
 5317SOL     OW27586   4.405   2.058  16.852  0.4423 -0.3119  0.2933
 5317SOL    HW127587   4.457   2.095  16.923 -0.0316 -0.7448  0.8773
 5317SOL    HW227588   4.419   1.963  16.861  1.5754 -0.2643 -1.0388
 5318SOL     OW27589   3.675   4.618   8.048 -0.1124 -0.0251 -0.0718
 5318SOL    HW127590   3.722   4.699   8.029  0.3748 -0.2892  0.0053
 5318SOL    HW227591   3.596   4.652   8.090 -0.0896 -1.1304  0.8857
 5319SOL     OW27592   1.654   4.045   4.450 -0.2279 -0.1487 -0.0334
 5319SOL    HW127593   1.725   4.048   4.514 -0.0614 -1.9331 -0.1343
 5319SOL    HW227594   1.707   4.032   4.372  0.4980 -0.2587  0.4827
 5320SOL     OW27595   0.066   3.196   0.384  0.2882 -0.2863 -0.3414
 5320SOL    HW127596   0.044   3.267   0.445  0.3610 -2.3745  2.0890
 5320SOL    HW227597   0.159   3.198   0.360  0.3089  0.5468 -0.1796
 5321SOL     OW27598   1.545   4.412   7.453 -0.3132 -0.4797  0.4111
 5321SOL    HW127599   1.526   4.343   7.389  1.7584 -0.6035 -0.0843
 5321SOL    HW227600   1.460   4.408   7.497 -1.7278  2.3894 -2.1188
 5322SOL     OW27601   3.096   1.628   4.267  0.0209 -0.4401 -0.2785
 5322SOL    HW127602   3.044   1.549   4.281  0.2417 -0.4512  0.4783
 5322SOL    HW227603   3.161   1.619   4.337  1.8735 -1.3975 -2.1204
 5323SOL     OW27604   2.340   3.811   9.059 -0.5607 -0.7294  0.9570
 5323SOL    HW127605   2.275   3.875   9.089  2.5599  2.5666  0.7125
 5323SOL    HW227606   2.280   3.757   9.008 -0.2967 -0.5197  0.4189
 5324SOL     OW27607   0.195   3.082   2.988 -0.0824  0.7136  0.5381
 5324SOL    HW127608   0.248   3.151   2.948  1.9806 -0.7041  0.7935
 5324SOL    HW227609   0.169   3.140   3.059 -1.5854 -0.3940  0.8862
 5325SOL     OW27610   2.486   4.274   5.461  0.1243  0.1361 -0.1605
 5325SOL    HW127611   2.580   4.266   5.471  0.2965  0.7376 -1.3394
 5325SOL    HW227612   2.486   4.268   5.365  1.9891  2.1090 -0.2610
 5326SOL     OW27613   3.579   2.389  15.395  0.1751  0.8100 -0.0789
 5326SOL    HW127614   3.544   2.301  15.387 -0.8409  1.5850 -4.2318
 5326SOL    HW227615   3.674   2.388  15.383  0.2613  1.4464  0.5599
 5327SOL     OW27616   2.246   3.158  12.764  0.3157  0.3001 -0.1386
 5327SOL    HW127617   2.162   3.202  12.758 -0.1984 -0.5001  1.1488
 5327SOL    HW227618   2.267   3.164  12.671 -2.9704 -0.7594 -0.9607
 5328SOL     OW27619   3.889   3.191  16.842  0.2657 -0.1595  0.3964
 5328SOL    HW127620   3.933   3.267  16.802  2.3278 -0.4863  2.0127
 5328SOL    HW227621   3.968   3.138  16.854  1.1610  1.0469 -0.1162
 5329SOL     OW27622   1.375   1.883   1.526  0.2813 -0.0725 -0.2413
 5329SOL    HW127623   1.440   1.953   1.536  1.2870 -0.8253 -1.5032
 5329SOL    HW227624   1.404   1.814   1.586 -1.0011  0.1532  0.6249
 5330SOL     OW27625   3.473   3.042  17.292 -0.9290 -0.2964 -0.0355
 5330SOL    HW127626   3.422   2.976  17.339 -0.2003 -0.2031  0.8896
 5330SOL    HW227627   3.558   3.001  17.277 -2.0944 -1.3804 -3.5611
 5331SOL     OW27628   1.520   1.698   6.468 -0.6053  0.5735 -0.0987
 5331SOL    HW127629   1.470   1.648   6.532  1.3505 -0.6993  0.4409
 5331SOL    HW227630   1.455   1.743   6.414  0.3644  3.6763  1.3189
 5332SOL     OW27631   1.334   1.471   0.820  0.0684  0.3896 -0.0765
 5332SOL    HW127632   1.399   1.481   0.750 -0.7723 -3.6239 -1.4232
 5332SOL    HW227633   1.387   1.449   0.896 -0.1879 -0.0214 -0.0135
 5333SOL     OW27634   1.356   2.653   6.098  0.5698  0.6398 -0.1659
 5333SOL    HW127635   1.367   2.726   6.159 -1.5767 -1.6328  2.9480
 5333SOL    HW227636   1.277   2.612   6.133  0.3045  0.8349 -0.5305
 5334SOL     OW27637   0.750   2.587  17.209 -0.7898 -0.2647  0.0033
 5334SOL    HW127638   0.670   2.544  17.240 -0.4788 -0.0337  1.1022
 5334SOL    HW227639   0.755   2.671  17.254  0.7301 -0.3233 -0.0494
 5335SOL     OW27640   1.889   4.179   8.630 -0.0892  0.2554 -0.2797
 5335SOL    HW127641   1.886   4.164   8.535  2.0830 -2.7895  0.1462
 5335SOL    HW227642   1.795   4.166   8.645 -0.4459  1.2871 -1.5856
 5336SOL     OW27643   3.577   3.491  13.872 -0.1592 -0.4926 -0.5606
 5336SOL    HW127644   3.593   3.448  13.955 -0.0771 -2.0444 -1.3825
 5336SOL    HW227645   3.650   3.551  13.855  0.3580 -0.4959  1.7273
 5337SOL     OW27646   4.169   1.909   3.738  0.3898 -0.1780  0.5819
 5337SOL    HW127647   4.127   1.981   3.692  1.5566 -1.4613 -2.4903
 5337SOL    HW227648   4.105   1.897   3.809 -0.6206 -0.6587 -0.4079
 5338SOL     OW27649   1.101   0.991   6.627  0.1999 -0.3059  0.1499
 5338SOL    HW127650   1.125   0.937   6.703 -0.9110  1.1747  1.5623
 5338SOL    HW227651   1.104   0.919   6.564  1.6778 -0.1145 -0.0094
 5339SOL     OW27652   4.129   0.891  10.497  0.2923  0.3425  0.1026
 5339SOL    HW127653   4.214   0.904  10.454 -0.4346  1.7445 -0.9023
 5339SOL    HW227654   4.159   0.869  10.586 -0.4242 -1.2043 -0.0460
 5340SOL     OW27655   2.827   3.217  12.153 -0.2522  1.0261  0.7454
 5340SOL    HW127656   2.849   3.305  12.121  0.9990  0.4496  0.0337
 5340SOL    HW227657   2.765   3.193  12.084 -1.1669  0.7635  1.6636
 5341SOL     OW27658   3.051   3.112  12.039  0.3478  0.0651 -0.1625
 5341SOL    HW127659   3.121   3.156  12.087 -0.5074  1.0616  0.1628
 5341SOL    HW227660   2.977   3.132  12.095 -0.3419  1.6921 -1.6839
 5342SOL     OW27661   3.444   1.330   1.857  0.5120  0.0411 -0.0570
 5342SOL    HW127662   3.468   1.238   1.844  3.2489  1.1040 -2.3409
 5342SOL    HW227663   3.359   1.333   1.813  0.4928  0.2215 -0.0060
 5343SOL     OW27664   2.535   2.726  14.777 -0.3530  0.6655 -0.0830
 5343SOL    HW127665   2.535   2.745  14.683 -1.6345 -1.4878 -0.5117
 5343SOL    HW227666   2.625   2.745  14.801  0.7703 -2.2324 -1.9589
 5344SOL     OW27667   2.145   3.762   6.668  0.0891 -0.2075  0.1036
 5344SOL    HW127668   2.181   3.681   6.633  2.6448  0.2129  1.7601
 5344SOL    HW227669   2.057   3.738   6.696 -0.4705  3.3671  1.3681
 5345SOL     OW27670   1.311   2.935   4.437  0.0834  0.0023 -0.2754
 5345SOL    HW127671   1.353   2.973   4.514 -0.6243  1.6243 -0.6917
 5345SOL    HW227672   1.346   2.846   4.445  0.2878  0.2012  1.1112
 5346SOL     OW27673   1.057   3.964   6.288 -0.1377  0.0960 -0.7474
 5346SOL    HW127674   1.100   4.025   6.348 -0.7209  0.9373 -1.1893
 5346SOL    HW227675   1.138   3.919   6.262  0.2784  0.4095  0.0005
 5347SOL     OW27676   3.408   2.865   5.544  0.3457  0.1709  0.2629
 5347SOL    HW127677   3.468   2.818   5.486  0.5257  0.9377 -0.1855
 5347SOL    HW227678   3.388   2.796   5.606 -0.2353 -0.9578 -1.1732
 5348SOL     OW27679   2.816   2.465   8.771 -0.2089 -0.3411 -0.3265
 5348SOL    HW127680   2.769   2.394   8.815  2.6531 -2.6753 -1.0074
 5348SOL    HW227681   2.798   2.534   8.835 -1.0483  0.1679 -1.1138
 5349SOL     OW27682   4.132   0.780  17.402 -0.0305 -0.8076 -0.9183
 5349SOL    HW127683   4.149   0.699  17.450  1.2457 -1.2193 -2.0620
 5349SOL    HW227684   4.203   0.829  17.443 -1.6961  0.9251 -0.0636
 5350SOL     OW27685   0.790   4.009   6.246  0.1010  0.2454  0.3139
 5350SOL    HW127686   0.875   3.968   6.263 -0.4175 -1.2349 -0.7183
 5350SOL    HW227687   0.821   4.097   6.224 -2.7746  1.4118  0.9916
 5351SOL     OW27688   0.095   2.979   0.726  0.1232  0.4058 -0.0668
 5351SOL    HW127689   0.158   2.919   0.765  1.3136  0.4213 -1.9871
 5351SOL    HW227690   0.082   2.930   0.646  2.1918 -0.3709  0.0609
 5352SOL     OW27691   0.137   3.230   3.177 -0.3265 -0.3096  0.6727
 5352SOL    HW127692   0.136   3.318   3.139 -0.5869  0.5996  2.7951
 5352SOL    HW227693   0.168   3.230   3.268  1.3338  2.6018  0.1172
 5353SOL     OW27694   0.082   1.588  16.915  0.2458  0.3909  0.6016
 5353SOL    HW127695   0.096   1.617  16.825 -0.6634 -1.8002 -0.2540
 5353SOL    HW227696   0.155   1.526  16.925  0.1451  0.3574  1.1580
 5354SOL     OW27697   1.581   1.028  10.039  0.3002 -0.6801  0.1583
 5354SOL    HW127698   1.646   0.981   9.987 -1.5761 -1.1654 -1.7602
 5354SOL    HW227699   1.586   1.115  10.000 -2.4806 -1.1074 -1.1675
 5355SOL     OW27700   3.751   2.952   2.511 -0.6363  0.1373  0.0124
 5355SOL    HW127701   3.789   2.868   2.487  3.8257  1.7689  1.3881
 5355SOL    HW227702   3.670   2.924   2.554 -0.0330 -0.4177  0.7703
 5356SOL     OW27703   3.042   3.548   8.715  0.1168 -0.4407  0.0734
 5356SOL    HW127704   3.129   3.511   8.696  0.5966 -0.3197  2.0306
 5356SOL    HW227705   3.018   3.488   8.786 -0.9900  0.2817  0.3126
 5357SOL     OW27706   2.912   1.113   4.326 -0.1750 -1.0321  0.1977
 5357SOL    HW127707   2.993   1.062   4.327  0.6732  0.3226  0.7632
 5357SOL    HW227708   2.943   1.203   4.320  1.8505 -1.7332  0.1761
 5358SOL     OW27709   0.268   4.256   6.847  0.0324 -0.2553 -0.2279
 5358SOL    HW127710   0.249   4.174   6.892 -1.1562  0.8870  1.3384
 5358SOL    HW227711   0.320   4.215   6.778 -1.2798  0.2791 -1.5270
 5359SOL     OW27712   2.214   4.113   9.277  0.4740  0.3954 -0.1642
 5359SOL    HW127713   2.190   4.085   9.189 -3.3178  1.1072  0.6444
 5359SOL    HW227714   2.198   4.033   9.327  0.3280 -0.1175 -1.0253
 5360SOL     OW27715   3.123   4.004   8.417  0.4164 -0.0321 -0.4015
 5360SOL    HW127716   3.112   3.919   8.374  0.1102 -0.6133  0.8258
 5360SOL    HW227717   3.184   3.984   8.488  1.2018  0.2870 -0.9878
 5361SOL     OW27718   0.557   4.652  11.079  0.8557 -0.1681  0.0872
 5361SOL    HW127719   0.643   4.682  11.051  1.1963  0.3687  1.7263
 5361SOL    HW227720   0.495   4.708  11.032  0.0735  0.0170  1.3581
 5362SOL     OW27721   0.709   3.693   6.809  0.3363  0.5276 -0.2169
 5362SOL    HW127722   0.714   3.665   6.900  1.7044 -1.3101 -0.8519
 5362SOL    HW227723   0.641   3.634   6.778  1.1275  0.6613 -2.1964
 5363SOL     OW27724   1.777   3.735   8.263  0.0001  0.1874 -0.7268
 5363SOL    HW127725   1.687   3.765   8.280 -0.2074 -0.7059 -0.2265
 5363SOL    HW227726   1.821   3.817   8.242  0.7418  0.0877  0.4499
 5364SOL     OW27727   3.674   0.327   8.564  0.4675 -0.1350  0.5611
 5364SOL    HW127728   3.755   0.282   8.586  0.8689  0.3058 -0.0057
 5364SOL    HW227729   3.696   0.342   8.472 -1.0052 -1.3713  0.0056
 5365SOL     OW27730   1.837   2.278  10.944 -0.4786 -0.4455  0.0059
 5365SOL    HW127731   1.773   2.343  10.975  0.2569 -0.3021  1.2044
 5365SOL    HW227732   1.909   2.294  11.005 -0.0520  0.8774 -0.8374
 5366SOL     OW27733   2.265   2.188   9.100  0.4305  0.4108 -0.3155
 5366SOL    HW127734   2.302   2.139   9.174 -0.1839  0.3285 -0.0603
 5366SOL    HW227735   2.201   2.125   9.066  3.0302 -1.2870 -2.0183
 5367SOL     OW27736   1.766   0.140   6.608 -0.1981  0.3805 -0.6330
 5367SOL    HW127737   1.816   0.111   6.532 -0.7702  1.1904 -1.3261
 5367SOL    HW227738   1.805   0.227   6.622  1.0645 -0.6090  2.0421
 5368SOL     OW27739   3.584   1.494   9.191 -0.7215  0.4254  0.3455
 5368SOL    HW127740   3.639   1.532   9.260  2.1844 -1.4572 -0.9435
 5368SOL    HW227741   3.524   1.569   9.192 -0.4129  0.6577  1.4347
 5369SOL     OW27742   4.690   1.496   3.867  0.6038 -0.1041 -0.0830
 5369SOL    HW127743   4.632   1.436   3.914 -0.7686  2.3297  1.2987
 5369SOL    HW227744   0.030   1.448   3.862  0.5273 -0.1619 -0.8709
 5370SOL     OW27745   4.135   1.987   5.197  0.3432 -0.2477  0.1364
 5370SOL    HW127746   4.149   2.019   5.286  1.4262 -2.5693  0.8142
 5370SOL    HW227747   4.133   1.891   5.205 -4.1667 -0.2266 -0.7873
 5371SOL     OW27748   1.787   0.158   4.012 -0.3723 -0.1244  0.1221
 5371SOL    HW127749   1.785   0.151   4.108 -1.1482 -2.4744 -0.0491
 5371SOL    HW227750   1.786   0.253   4.016  0.2492 -0.1766  1.4567
 5372SOL     OW27751   1.802   4.067   8.964 -0.2793 -0.1643  0.0922
 5372SOL    HW127752   1.786   4.091   9.055 -2.8940  0.4572 -0.5409
 5372SOL    HW227753   1.875   4.119   8.929 -1.2217 -0.5815 -2.5275
 5373SOL     OW27754   2.486   1.980  12.171  0.1958 -0.0936  0.1110
 5373SOL    HW127755   2.445   2.042  12.111  1.0305 -0.2767 -0.6517
 5373SOL    HW227756   2.574   1.960  12.138  0.0686 -0.0355 -0.2574
 5374SOL     OW27757   1.721   1.295  16.906 -0.0253  0.2489  0.0757
 5374SOL    HW127758   1.774   1.230  16.952  0.6744  1.4283  0.9419
 5374SOL    HW227759   1.792   1.357  16.888  1.9799 -1.8512  0.7923
 5375SOL     OW27760   1.572   0.285   8.267 -0.1664 -0.5434  0.6371
 5375SOL    HW127761   1.497   0.345   8.262  0.8947  0.6052 -1.5782
 5375SOL    HW227762   1.547   0.215   8.327 -0.0085  0.1156  1.4631
 5376SOL     OW27763   4.484   3.884   4.645  0.6319  0.1928 -0.0319
 5376SOL    HW127764   4.570   3.873   4.606  1.7939 -0.5153  2.7062
 5376SOL    HW227765   4.501   3.835   4.726  0.1497 -2.1309 -1.3462
 5377SOL     OW27766   1.220   0.275  14.634  0.6694  0.6638 -0.8545
 5377SOL    HW127767   1.184   0.362  14.618  2.0651  1.2790 -0.6261
 5377SOL    HW227768   1.313   0.299  14.633  1.4419 -2.1976  1.9771
 5378SOL     OW27769   2.284   0.273  10.289 -0.1194  0.0506  0.7530
 5378SOL    HW127770   2.195   0.304  10.272  0.4975  0.9795 -0.8018
 5378SOL    HW227771   2.262   0.203  10.351  0.6235 -0.6339  0.2538
 5379SOL     OW27772   0.952   0.594   9.274  0.2549  0.2238 -0.4509
 5379SOL    HW127773   0.898   0.597   9.353 -1.5065 -1.9043 -1.5471
 5379SOL    HW227774   1.039   0.607   9.310 -0.7236 -0.2028  2.0665
 5380SOL     OW27775   3.065   1.898   3.748 -0.7502  0.0376  0.2400
 5380SOL    HW127776   3.093   1.915   3.838 -0.6742  1.6617 -0.0909
 5380SOL    HW227777   3.150   1.893   3.704 -0.3706 -0.6913  1.0476
 5381SOL     OW27778   3.242   0.363   6.445 -0.3716 -0.1342  0.2456
 5381SOL    HW127779   3.185   0.287   6.459 -0.6806  0.3170  1.4247
 5381SOL    HW227780   3.185   0.414   6.387 -1.0796 -0.1504  0.9198
 5382SOL     OW27781   1.187   4.598   8.378 -0.0545  0.2757 -0.1057
 5382SOL    HW127782   1.181   4.693   8.381 -0.8610  0.2956 -2.9359
 5382SOL    HW227783   1.098   4.573   8.353 -0.3392  0.8046  0.3802
 5383SOL     OW27784   1.459   1.703   2.482  0.2551 -0.8226 -0.7298
 5383SOL    HW127785   1.488   1.619   2.517  2.4323 -0.1187 -0.8330
 5383SOL    HW227786   1.446   1.754   2.562  0.0786 -0.4362 -1.0033
 5384SOL     OW27787   0.291   3.491   7.683 -0.1090  0.3656 -0.5491
 5384SOL    HW127788   0.281   3.396   7.671 -2.6573  0.6266 -0.4900
 5384SOL    HW227789   0.283   3.505   7.778 -0.3792  3.2036 -0.9834
 5385SOL     OW27790   2.811   0.441   8.779 -0.4471 -0.2789  0.1727
 5385SOL    HW127791   2.720   0.428   8.804 -0.2247  0.4662  1.3723
 5385SOL    HW227792   2.841   0.385   8.851 -0.2643  0.1528  0.4329
 5386SOL     OW27793   1.127   3.856   5.209  0.1981  0.1668 -0.5034
 5386SOL    HW127794   1.154   3.939   5.169 -0.6140  1.4585  1.6535
 5386SOL    HW227795   1.171   3.793   5.150 -0.8310 -0.1916 -0.8900
 5387SOL     OW27796   3.211   0.267   3.375 -0.7023  0.3569 -0.2526
 5387SOL    HW127797   3.220   0.194   3.437  0.4850  0.9142  0.2307
 5387SOL    HW227798   3.235   0.221   3.294  1.1355  1.8006 -0.5140
 5388SOL     OW27799   3.052   1.448  16.410 -0.1036 -0.4181  0.2672
 5388SOL    HW127800   3.052   1.533  16.366 -2.1153 -0.1366  0.8212
 5388SOL    HW227801   3.139   1.450  16.451  0.1344 -0.3971 -0.2424
 5389SOL     OW27802   0.488   2.596   9.031  0.3768  0.3456  0.1673
 5389SOL    HW127803   0.518   2.528   8.972  0.7217  0.9886 -0.4052
 5389SOL    HW227804   0.520   2.570   9.118 -0.9337  1.9459  1.1251
 5390SOL     OW27805   2.528   2.744   2.633  0.0648  0.3637  0.3591
 5390SOL    HW127806   2.610   2.697   2.651 -2.0739 -3.4458  0.1433
 5390SOL    HW227807   2.552   2.788   2.552  1.7867 -1.2954 -0.0434
 5391SOL     OW27808   2.448   3.411   5.044  0.3347 -0.1474  0.2613
 5391SOL    HW127809   2.461   3.404   4.950  1.1712  0.0017  0.3699
 5391SOL    HW227810   2.352   3.406   5.040  0.6923 -2.3756 -5.3852
 5392SOL     OW27811   2.103   3.059   3.849  0.3421 -0.1775  0.2848
 5392SOL    HW127812   2.091   2.964   3.849 -0.1833 -0.1140 -2.2156
 5392SOL    HW227813   2.026   3.079   3.902  0.5243 -0.1088  0.5213
 5393SOL     OW27814   2.399   0.334   4.174 -0.1746 -0.6318 -0.3026
 5393SOL    HW127815   2.318   0.298   4.139 -1.4168  0.4195  1.4825
 5393SOL    HW227816   2.435   0.251   4.206 -0.4092 -0.2160  1.0537
 5394SOL     OW27817   4.021   2.507   4.986  0.1419  0.2495  0.7681
 5394SOL    HW127818   4.105   2.529   5.026  0.3564  3.0302 -1.2497
 5394SOL    HW227819   4.038   2.414   4.970 -4.0541 -0.5676  1.1303
 5395SOL     OW27820   2.325   0.496   2.219 -0.1292  0.4120  0.2907
 5395SOL    HW127821   2.405   0.507   2.270 -0.1962 -1.7558  0.8940
 5395SOL    HW227822   2.370   0.432   2.164 -0.7686  0.2114 -0.0026
 5396SOL     OW27823   3.425   2.071   6.428 -0.4089  0.3379 -0.1356
 5396SOL    HW127824   3.424   2.131   6.502 -1.2459  0.2825 -0.0973
 5396SOL    HW227825   3.376   2.127   6.368 -1.5541 -0.3825  0.1147
 5397SOL     OW27826   0.126   2.391   6.737 -0.0423 -0.4775  0.0225
 5397SOL    HW127827   0.044   2.344   6.727  0.8914 -2.1368  0.2204
 5397SOL    HW227828   0.164   2.373   6.823 -2.5142 -2.6720  0.6255
 5398SOL     OW27829   4.370   4.499  12.798 -0.7152 -0.1587  0.5012
 5398SOL    HW127830   4.397   4.416  12.759 -0.2868 -0.4748  1.4737
 5398SOL    HW227831   4.376   4.475  12.890  3.1580 -0.0504  0.2883
 5399SOL     OW27832   0.244   4.327   2.882  0.6343  0.6124  0.1065
 5399SOL    HW127833   0.214   4.417   2.888 -1.2164  0.0609 -0.8686
 5399SOL    HW227834   0.242   4.304   2.975 -0.0557  0.8100  0.1437
 5400SOL     OW27835   3.979   2.185  13.965 -0.3895  0.6327 -0.2067
 5400SOL    HW127836   4.007   2.095  13.985  2.2574  1.2213 -1.3046
 5400SOL    HW227837   4.062   2.231  13.971 -0.6903  1.4651 -2.1887
 5401SOL     OW27838   4.484   1.742   2.534 -0.3270 -0.1626  0.0768
 5401SOL    HW127839   4.538   1.706   2.463  2.4734  0.8594  1.6643
 5401SOL    HW227840   4.400   1.751   2.489 -1.3957  0.7056  2.2519
 5402SOL     OW27841   2.896   1.633   7.980 -0.2291  0.2375 -0.0621
 5402SOL    HW127842   2.822   1.679   7.941 -0.4812  2.5167  3.1457
 5402SOL    HW227843   2.853   1.563   8.028  0.5200 -0.4480 -0.3888
 5403SOL     OW27844   1.658   0.190  14.350 -0.1892 -0.7095 -0.1639
 5403SOL    HW127845   1.656   0.283  14.373 -0.9099 -0.9651  0.8096
 5403SOL    HW227846   1.674   0.160  14.439  0.8285  1.5748  0.4430
 5404SOL     OW27847   2.078   4.718   2.807 -0.2497  0.1376 -0.7127
 5404SOL    HW127848   2.163   4.743   2.843 -0.6486 -1.6978  1.5175
 5404SOL    HW227849   2.061   4.634   2.849 -1.1075  0.3840 -0.5446
 5405SOL     OW27850   4.586   2.141  15.106 -0.5977  0.8556 -0.2002
 5405SOL    HW127851   4.553   2.057  15.139  1.8549  0.2121  0.5978
 5405SOL    HW227852   4.505   2.193  15.108 -1.0838  0.0349  1.4144
 5406SOL     OW27853   3.301   0.490   3.612  0.7859 -0.7808 -0.3520
 5406SOL    HW127854   3.384   0.490   3.565  0.9240 -0.8101 -0.1099
 5406SOL    HW227855   3.281   0.397   3.599 -1.4553 -0.4483  0.6976
 5407SOL     OW27856   2.851   3.667   9.547 -0.3804 -0.0790  0.3015
 5407SOL    HW127857   2.924   3.683   9.487 -0.7732 -0.6024 -0.3120
 5407SOL    HW227858   2.783   3.682   9.482  0.2710  1.4337 -0.0402
 5408SOL     OW27859   3.296   4.443   3.074  0.3318  0.0860 -0.1252
 5408SOL    HW127860   3.312   4.505   3.145 -0.3181  1.6036 -1.3138
 5408SOL    HW227861   3.390   4.442   3.055  0.0363 -0.8617 -1.5130
 5409SOL     OW27862   0.408   4.094   4.213  0.2727 -0.0750  0.6501
 5409SOL    HW127863   0.476   4.088   4.280 -0.7052  4.0672  2.0192
 5409SOL    HW227864   0.396   4.000   4.200 -1.7936  0.3019 -0.2700
 5410SOL     OW27865   2.156   4.700   3.961 -0.2419 -0.0180 -0.1414
 5410SOL    HW127866   2.186   4.656   3.881 -0.1438  1.5041 -0.9436
 5410SOL    HW227867   2.137   0.041   3.921  0.9828 -0.2353 -1.1846
 5411SOL     OW27868   2.640   0.608   3.838 -0.3547  0.3350 -0.0490
 5411SOL    HW127869   2.569   0.554   3.873 -0.9744 -0.3058 -2.2858
 5411SOL    HW227870   2.591   0.633   3.759 -0.2157 -0.8056 -0.4950
 5412SOL     OW27871   0.634   3.942   3.850 -0.3066  0.1930 -0.0414
 5412SOL    HW127872   0.558   3.912   3.900  0.9681 -1.3011  1.0034
 5412SOL    HW227873   0.597   3.971   3.766  0.6587  1.6750  0.0491
 5413SOL     OW27874   2.130   3.239  12.022  0.2602 -0.8155  0.5392
 5413SOL    HW127875   2.090   3.194  11.947  2.3416 -1.6437 -0.0900
 5413SOL    HW227876   2.126   3.329  11.991  3.3325 -1.3052 -1.2904
 5414SOL     OW27877   1.392   4.580   6.216 -0.2649  0.1198  0.0024
 5414SOL    HW127878   1.318   4.641   6.209 -1.4561 -1.7300 -3.5726
 5414SOL    HW227879   1.359   4.499   6.178 -2.6381  0.8736  0.4457
 5415SOL     OW27880   0.816   3.055   3.477 -0.1151  0.2335 -0.1225
 5415SOL    HW127881   0.854   3.011   3.553  2.7626  1.0487 -1.0768
 5415SOL    HW227882   0.855   3.142   3.485  0.0974 -0.1176  2.7489
 5416SOL     OW27883   2.194   3.709  16.448  0.2991 -0.1246 -0.1901
 5416SOL    HW127884   2.279   3.709  16.403  2.2880 -0.4809  3.5607
 5416SOL    HW227885   2.175   3.617  16.464  2.2667 -0.4202  0.4968
 5417SOL     OW27886   2.668   3.186  11.947 -0.6495  0.3960  0.0420
 5417SOL    HW127887   2.573   3.190  11.954 -0.9672 -2.9309 -2.0719
 5417SOL    HW227888   2.681   3.229  11.862  2.4222  0.7700  0.6975
 5418SOL     OW27889   1.093   2.384   4.020 -0.1586  0.7804 -0.3734
 5418SOL    HW127890   1.183   2.360   3.997  0.4933 -0.0271  2.9833
 5418SOL    HW227891   1.053   2.413   3.938 -2.2836 -0.0986  0.3563
 5419SOL     OW27892   3.338   2.902  13.921 -0.1974 -0.6774  0.2586
 5419SOL    HW127893   3.317   2.981  13.972 -1.2044 -1.4724  1.0665
 5419SOL    HW227894   3.418   2.883  13.970  0.3468 -1.1672 -0.8206
 5420SOL     OW27895   3.533   1.884   8.328  0.2584  0.6396 -0.0930
 5420SOL    HW127896   3.446   1.891   8.287 -0.2063  1.7562  1.0849
 5420SOL    HW227897   3.560   1.975   8.320 -0.7529  1.1705  2.4541
 5421SOL     OW27898   1.516   1.236   6.196  0.5813  0.3715  0.0868
 5421SOL    HW127899   1.428   1.239   6.160  0.5954 -0.0655  0.0168
 5421SOL    HW227900   1.498   1.248   6.289 -1.9219  0.1433 -0.3777
 5422SOL     OW27901   4.314   0.888   2.228 -0.0598 -0.2554 -1.1227
 5422SOL    HW127902   4.320   0.878   2.133  0.6163  3.5766 -1.5084
 5422SOL    HW227903   4.281   0.978   2.236 -0.7267 -0.8596  3.0158
 5423SOL     OW27904   4.209   2.863   2.721  0.1394  0.2903 -0.0126
 5423SOL    HW127905   4.194   2.956   2.702 -1.6270  0.1141  0.5089
 5423SOL    HW227906   4.121   2.830   2.738  0.3705  0.9599  2.6261
 5424SOL     OW27907   3.855   1.820   6.471 -0.1199 -0.4380  0.7050
 5424SOL    HW127908   3.809   1.881   6.528  0.9122 -1.1920  2.3524
 5424SOL    HW227909   3.839   1.863   6.387 -1.2532  0.4243  1.3683
 5425SOL     OW27910   4.123   4.528   4.594 -0.6894  0.0808  0.0820
 5425SOL    HW127911   4.031   4.532   4.568 -0.0639 -0.2296 -2.2213
 5425SOL    HW227912   4.164   4.489   4.516  1.8054  0.9729  0.9479
 5426SOL     OW27913   1.088   3.288   5.489  0.0944 -0.0534  0.4615
 5426SOL    HW127914   1.089   3.380   5.517 -0.0681 -0.3061  1.2904
 5426SOL    HW227915   1.179   3.270   5.466 -0.0164  0.3352 -0.3015
 5427SOL     OW27916   3.811   0.919   0.777  0.0950 -0.0336 -0.2064
 5427SOL    HW127917   3.763   0.874   0.707 -1.6546 -0.2020  1.0935
 5427SOL    HW227918   3.812   1.012   0.756  1.1388 -0.4584 -1.9744
 5428SOL     OW27919   2.343   0.810  14.911  0.4592 -0.0903 -0.4373
 5428SOL    HW127920   2.249   0.821  14.923  0.7641  1.6116  0.4796
 5428SOL    HW227921   2.336   0.779  14.821 -1.4746 -2.2632  0.4777
 5429SOL     OW27922   4.286   4.314   6.216 -0.0600 -0.2463 -0.3004
 5429SOL    HW127923   4.356   4.254   6.241  0.2397  0.4447  0.5329
 5429SOL    HW227924   4.316   4.391   6.265  0.8056 -0.9950  0.3548
 5430SOL     OW27925   1.481   1.749   3.284  0.0869 -0.5050 -0.2494
 5430SOL    HW127926   1.553   1.702   3.243 -1.4646 -0.3744 -3.1228
 5430SOL    HW227927   1.530   1.814   3.335  2.4654 -2.9537  0.5316
 5431SOL     OW27928   4.631   0.276  10.379  0.2820 -0.3554  0.6008
 5431SOL    HW127929   4.567   0.330  10.426 -0.2957 -2.5575  2.3479
 5431SOL    HW227930   4.573   0.240  10.312  2.3960 -0.1318 -1.3199
 5432SOL     OW27931   2.134   2.209   9.714  0.4541 -0.0774  0.0743
 5432SOL    HW127932   2.040   2.220   9.730  0.3131  0.1373 -0.8933
 5432SOL    HW227933   2.151   2.294   9.672 -0.7676 -0.1968 -0.6611
 5433SOL     OW27934   2.471   3.102   6.242 -0.2293 -0.5369  1.1954
 5433SOL    HW127935   2.435   3.020   6.208  1.4135 -0.5033 -0.6164
 5433SOL    HW227936   2.455   3.088   6.335  0.1692 -0.4276  1.2800
 5434SOL     OW27937   2.563   3.567   2.837 -0.1677  0.0309 -0.4644
 5434SOL    HW127938   2.600   3.601   2.919  1.5029 -3.5608  0.2650
 5434SOL    HW227939   2.645   3.547   2.792 -1.2887 -0.2829 -2.3194
 5435SOL     OW27940   3.286   3.520   4.508 -0.4328 -0.1336 -0.3337
 5435SOL    HW127941   3.339   3.500   4.586  0.2076  0.1987 -0.6816
 5435SOL    HW227942   3.341   3.583   4.463 -0.2694 -1.1201 -1.5112
 5436SOL     OW27943   4.221   3.347  12.389 -0.5713  0.3661  0.6227
 5436SOL    HW127944   4.186   3.296  12.316  0.0505  0.6786  0.1077
 5436SOL    HW227945   4.241   3.275  12.449  1.0417 -0.0068 -0.3619
 5437SOL     OW27946   4.408   3.844   8.226  0.5214 -0.6141 -0.7074
 5437SOL    HW127947   4.432   3.813   8.139 -0.4071  0.7028 -1.4360
 5437SOL    HW227948   4.454   3.782   8.283 -2.5202 -0.5138  1.8458
 5438SOL     OW27949   3.102   3.922   7.722  0.5296 -0.2265 -0.7653
 5438SOL    HW127950   3.053   3.997   7.755  2.1899 -0.6518  2.6134
 5438SOL    HW227951   3.052   3.891   7.647  0.6053 -0.0656 -0.8828
 5439SOL     OW27952   2.507   0.508   2.588  0.1840  0.0485 -0.3185
 5439SOL    HW127953   2.478   0.594   2.619 -2.4223 -0.2292 -1.9220
 5439SOL    HW227954   2.502   0.470   2.676 -1.7265 -0.3648 -0.5997
 5440SOL     OW27955   2.601   0.190   7.389  0.1491 -0.5904  0.3339
 5440SOL    HW127956   2.575   0.270   7.344  2.4636 -0.7839 -1.3029
 5440SOL    HW227957   2.582   0.137   7.312 -3.6564  1.7373 -0.3556
 5441SOL     OW27958   0.484   2.140  10.418 -0.3130  0.5551 -0.1158
 5441SOL    HW127959   0.423   2.212  10.431  1.3083  2.2653 -1.8656
 5441SOL    HW227960   0.526   2.137  10.504 -0.2576  0.1425 -0.1562
 5442SOL     OW27961   2.832   2.806   0.252  0.6907  0.2857  0.6281
 5442SOL    HW127962   2.742   2.813   0.286  0.1114  0.0689 -0.8713
 5442SOL    HW227963   2.838   2.878   0.190  1.1506 -0.3205 -0.0186
 5443SOL     OW27964   3.118   3.146  16.754 -0.3374 -0.4162  0.0558
 5443SOL    HW127965   3.084   3.118  16.839 -2.8610  0.4222 -0.6576
 5443SOL    HW227966   3.042   3.129  16.698 -1.4648  0.7273  1.2442
 5444SOL     OW27967   1.958   0.873   5.704 -0.1128 -0.3837  0.3307
 5444SOL    HW127968   1.948   0.822   5.785 -3.9094 -0.1657 -0.0218
 5444SOL    HW227969   2.052   0.889   5.707 -0.2787  0.6679 -0.1283
 5445SOL     OW27970   0.925   4.591   3.152  0.0701  0.5965 -0.1593
 5445SOL    HW127971   0.979   4.520   3.187 -1.3796 -0.2752  0.3045
 5445SOL    HW227972   0.852   4.535   3.128  0.3300 -0.4582  1.5332
 5446SOL     OW27973   0.934   2.067  10.933  0.4148 -0.7474  0.1955
 5446SOL    HW127974   0.963   2.098  11.018 -0.6084  0.5721  0.0720
 5446SOL    HW227975   0.843   2.045  10.954  0.1418 -0.5870 -0.7719
 5447SOL     OW27976   2.484   2.095  13.771 -0.0192  0.9020  0.6533
 5447SOL    HW127977   2.527   2.180  13.760  0.0157  1.0049  1.6452
 5447SOL    HW227978   2.514   2.045  13.695  0.0087  1.8271  0.0514
 5448SOL     OW27979   0.606   1.713  15.859  0.4770 -0.0481  0.2004
 5448SOL    HW127980   0.542   1.665  15.807  0.0812 -1.4247  1.9897
 5448SOL    HW227981   0.640   1.781  15.799 -0.9450  0.9209  0.4951
 5449SOL     OW27982   1.091   0.600   3.187 -0.2654 -0.1968 -0.5691
 5449SOL    HW127983   1.175   0.644   3.178  1.0817 -3.0021 -1.7036
 5449SOL    HW227984   1.118   0.510   3.205  0.5821  0.4625  1.4223
 5450SOL     OW27985   0.019   1.704   5.723  0.1056  0.0533  0.1432
 5450SOL    HW127986   4.668   1.704   5.742 -0.3311  0.7714 -2.0251
 5450SOL    HW227987   0.047   1.794   5.742 -0.4572  0.6604 -1.9395
 5451SOL     OW27988   1.503   2.157   6.881  0.1366  0.4763 -0.2924
 5451SOL    HW127989   1.573   2.096   6.906 -0.0250  0.8457  1.0696
 5451SOL    HW227990   1.541   2.239   6.851  0.5721  2.2736  5.2518
 5452SOL     OW27991   1.319   1.062   3.625 -0.0749 -0.4598  0.3070
 5452SOL    HW127992   1.343   0.970   3.621 -0.9676 -0.7016  0.6432
 5452SOL    HW227993   1.395   1.104   3.666 -1.1651  1.0169  0.8517
 5453SOL     OW27994   2.292   0.179   2.500 -0.0554 -0.1217 -0.2556
 5453SOL    HW127995   2.299   0.117   2.427  1.3760  2.5031 -2.3628
 5453SOL    HW227996   2.373   0.169   2.550 -1.2007 -1.6906  1.2614
 5454SOL     OW27997   2.614   1.668  10.129  0.0928  0.4839 -0.1055
 5454SOL    HW127998   2.689   1.686  10.072  0.7226 -2.1317 -0.1052
 5454SOL    HW227999   2.547   1.702  10.070 -1.5428 -1.5003  0.6050
 5455SOL     OW28000   0.189   2.194  14.157 -0.2244  0.5377 -0.2132
 5455SOL    HW128001   0.176   2.212  14.250  3.3520  1.2286  0.1777
 5455SOL    HW228002   0.281   2.164  14.159  0.7354  3.4611 -1.5024
 5456SOL     OW28003   3.356   2.104  10.849 -0.1004  0.2696 -0.2733
 5456SOL    HW128004   3.315   2.103  10.935 -0.1709  1.8489 -0.2923
 5456SOL    HW228005   3.338   2.016  10.816  0.9056  0.0750 -0.3057
 5457SOL     OW28006   0.225   0.686   0.059 -0.3221 -0.1699 -0.0403
 5457SOL    HW128007   0.267   0.636   0.128  0.4546 -2.1930 -1.9731
 5457SOL    HW228008   0.272   0.671  17.746  0.3828  0.4302  0.2611
 5458SOL     OW28009   3.098   0.636  14.293  0.1122 -0.0167  0.3155
 5458SOL    HW128010   3.065   0.589  14.217  0.5377  1.4337 -0.7757
 5458SOL    HW228011   3.190   0.656  14.277 -0.0269  0.7550  0.4747
 5459SOL     OW28012   2.080   2.015   8.628 -0.1214 -0.4641  0.3696
 5459SOL    HW128013   2.170   2.019   8.662 -0.4904  2.9969  0.9618
 5459SOL    HW228014   2.092   2.003   8.534  2.0438  0.7304  0.4715
 5460SOL     OW28015   1.648   3.410   7.776 -0.4381  0.2019  0.7960
 5460SOL    HW128016   1.633   3.379   7.687  1.4519 -1.4049  1.0440
 5460SOL    HW228017   1.667   3.503   7.764 -0.8830  0.2158  0.2146
 5461SOL     OW28018   1.767   3.023   9.115  0.2713  0.1509 -0.2512
 5461SOL    HW128019   1.768   2.956   9.183 -1.8307  0.0152 -0.3467
 5461SOL    HW228020   1.727   2.987   9.036 -1.1457  1.6580 -0.2329
 5462SOL     OW28021   2.985   3.716   7.568 -0.3730 -0.2200  0.6364
 5462SOL    HW128022   3.030   3.639   7.532 -1.4652  0.2516 -1.6947
 5462SOL    HW228023   2.909   3.732   7.512 -0.8569 -0.2201  1.2972
 5463SOL     OW28024   3.354   0.268   2.330 -0.7461  0.1494 -0.0295
 5463SOL    HW128025   3.421   0.328   2.297 -3.1916  2.5936 -0.5641
 5463SOL    HW228026   3.373   0.191   2.276 -1.1304  0.1936 -0.2312
 5464SOL     OW28027   2.049   2.128   2.249 -0.5626 -0.0030  0.0688
 5464SOL    HW128028   2.013   2.043   2.222  0.8497 -1.3329  2.3884
 5464SOL    HW228029   2.068   2.099   2.338 -0.0846 -0.2749 -0.1170
 5465SOL     OW28030   2.626   3.593   9.411 -0.0134 -0.6715  0.2533
 5465SOL    HW128031   2.606   3.651   9.338 -0.1473 -0.1297  0.7246
 5465SOL    HW228032   2.651   3.509   9.373 -2.8787 -1.3622 -0.0550
 5466SOL     OW28033   1.282   4.508   5.572  0.1399  0.1811 -0.3300
 5466SOL    HW128034   1.283   4.592   5.617 -0.7050 -0.0250  0.0830
 5466SOL    HW228035   1.194   4.512   5.533  0.4184 -0.2283 -1.0038
 5467SOL     OW28036   2.299   2.597  14.112 -0.4300 -0.4205 -0.2081
 5467SOL    HW128037   2.251   2.618  14.032 -2.6783  0.5143  1.3643
 5467SOL    HW228038   2.307   2.502  14.105  0.1760 -0.2644 -1.5896
 5468SOL     OW28039   0.298   2.513   8.458 -0.0194  0.3937  0.3188
 5468SOL    HW128040   0.305   2.500   8.553  2.0420  1.4230  0.3139
 5468SOL    HW228041   0.256   2.431   8.435  0.3083  0.0539  0.9223
 5469SOL     OW28042   0.641   3.438   7.099 -0.3815 -0.0100 -0.1175
 5469SOL    HW128043   0.597   3.523   7.094 -0.1818  0.0879 -0.2330
 5469SOL    HW228044   0.577   3.376   7.065 -0.1169  0.8528 -2.1481
 5470SOL     OW28045   4.098   2.746  15.829  0.1839 -0.1695  0.0876
 5470SOL    HW128046   4.160   2.777  15.895 -0.6408 -0.3103  0.9439
 5470SOL    HW228047   4.020   2.799  15.847  0.2632 -0.1735  0.4580
 5471SOL     OW28048   1.136   2.375  16.279  0.0969 -0.2474  0.4901
 5471SOL    HW128049   1.158   2.447  16.339 -1.3113  0.4544  0.1497
 5471SOL    HW228050   1.070   2.331  16.332 -1.4492  0.3178 -0.9794
 5472SOL     OW28051   2.803   3.538   2.713  0.4466 -0.0123 -0.0097
 5472SOL    HW128052   2.886   3.492   2.724 -1.5652 -3.5015  0.3113
 5472SOL    HW228053   2.831   3.615   2.663 -0.2360  0.4321  0.2945
 5473SOL     OW28054   4.251   0.663   4.389  0.2190  0.1631 -0.1563
 5473SOL    HW128055   4.214   0.752   4.391 -0.3833 -0.1062  0.5485
 5473SOL    HW228056   4.304   0.672   4.468 -0.6257 -0.6412  0.5000
 5474SOL     OW28057   4.630   0.813   5.690 -0.6430 -0.3591  0.5039
 5474SOL    HW128058   4.672   0.772   5.766 -3.0880 -1.6019  1.1794
 5474SOL    HW228059   4.663   0.767   5.613 -0.6489 -1.2043  1.0169
 5475SOL     OW28060   4.077   3.085   6.605  0.2954  0.4199 -0.3021
 5475SOL    HW128061   4.069   3.003   6.653 -0.1086  1.3040  1.1693
 5475SOL    HW228062   4.014   3.140   6.652 -0.5156 -0.9818  0.2377
 5476SOL     OW28063   3.902   3.965  12.873  0.5848  0.1001 -0.6917
 5476SOL    HW128064   3.848   4.026  12.922 -0.5581  0.1574 -2.0194
 5476SOL    HW228065   3.848   3.958  12.794 -2.4836  0.0091  1.4071
 5477SOL     OW28066   3.668   2.495   8.498 -0.0853  0.2041  0.3270
 5477SOL    HW128067   3.757   2.464   8.514  0.6973  1.5843 -1.3979
 5477SOL    HW228068   3.677   2.590   8.493  0.3221  0.1360 -0.2078
 5478SOL     OW28069   2.131   3.260   6.395  0.4541  0.0391  0.6071
 5478SOL    HW128070   2.225   3.278   6.398  0.4943 -0.3571  1.5632
 5478SOL    HW228071   2.135   3.185   6.335 -0.1334  1.3149 -1.0470
 5479SOL     OW28072   0.771   1.542   8.213 -0.1073  0.1104  0.0162
 5479SOL    HW128073   0.820   1.478   8.264  1.2025  1.7666  0.8434
 5479SOL    HW228074   0.770   1.506   8.125  0.1676  2.2072 -0.8312
 5480SOL     OW28075   3.983   4.487   6.075  0.3321 -0.7111  0.1481
 5480SOL    HW128076   4.069   4.519   6.101 -0.4761  0.9902  0.6886
 5480SOL    HW228077   3.925   4.492   6.151 -0.4165 -0.2913 -0.4635
 5481SOL     OW28078   0.904   4.449  15.652 -0.4142 -0.3831 -0.5033
 5481SOL    HW128079   0.999   4.450  15.654 -0.4447  1.3551  0.9673
 5481SOL    HW228080   0.893   4.354  15.645 -0.8344 -0.5092  1.8066
 5482SOL     OW28081   1.880   4.494   0.190  0.1310  0.3662  0.3312
 5482SOL    HW128082   1.804   4.547   0.213 -2.9097 -3.0870 -1.9125
 5482SOL    HW228083   1.835   4.437   0.128  0.3976 -2.0783  2.4004
 5483SOL     OW28084   2.457   3.748  11.849  0.6365 -0.3882 -0.1722
 5483SOL    HW128085   2.419   3.803  11.781 -0.9723 -1.9429 -0.5231
 5483SOL    HW228086   2.543   3.741  11.807 -0.7097  1.1310 -3.1464
 5484SOL     OW28087   1.433   2.786   9.855 -0.0538  0.2098 -0.8916
 5484SOL    HW128088   1.481   2.743   9.785 -2.2786 -1.1751 -1.5735
 5484SOL    HW228089   1.458   2.755   9.941 -2.3761  1.3271  0.2112
 5485SOL     OW28090   1.108   0.667   8.260 -0.3087 -0.2262  0.3102
 5485SOL    HW128091   1.055   0.742   8.286  0.6045  1.3213 -2.3959
 5485SOL    HW228092   1.043   0.599   8.281 -0.4492 -0.4407 -0.8176
 5486SOL     OW28093   0.049   2.426   7.348  0.6187  0.1562  0.1174
 5486SOL    HW128094   0.040   2.350   7.405 -0.5381  0.3031  0.1136
 5486SOL    HW228095   4.719   2.486   7.353 -1.4956 -2.5168  1.0193
 5487SOL     OW28096   0.948   1.537   2.201  0.0956  0.0889  0.2613
 5487SOL    HW128097   1.033   1.517   2.162  0.0076  2.3087 -1.0893
 5487SOL    HW228098   0.882   1.479   2.163  1.2418 -0.2221 -1.2596
 5488SOL     OW28099   1.718   1.487   2.764  0.5456 -0.7154  0.3441
 5488SOL    HW128100   1.813   1.489   2.776  0.4344 -0.0878  1.0950
 5488SOL    HW228101   1.702   1.569   2.716  2.1221  0.7844  2.3700
 5489SOL     OW28102   1.673   2.918  10.657  0.2091 -0.5728  0.3903
 5489SOL    HW128103   1.744   2.889  10.600 -0.6815 -0.4859 -0.7484
 5489SOL    HW228104   1.718   2.988  10.705 -1.0823  0.8171 -0.3973
 5490SOL     OW28105   2.594   2.949   2.959 -0.3827  0.0827 -0.4737
 5490SOL    HW128106   2.626   2.924   3.046 -1.3456  0.9369  0.1276
 5490SOL    HW228107   2.525   2.885   2.940 -1.1373  0.3928  1.2375
 5491SOL     OW28108   1.995   2.741   4.652  0.7240 -0.3719 -0.3784
 5491SOL    HW128109   1.901   2.726   4.646  0.4596  0.4301  1.5234
 5491SOL    HW228110   2.017   2.769   4.563 -1.8017  1.1506 -0.5124
 5492SOL     OW28111   4.434   1.407   9.765  0.0628 -0.5557 -0.3377
 5492SOL    HW128112   4.427   1.311   9.768  1.1787 -0.6786 -2.0362
 5492SOL    HW228113   4.405   1.426   9.675 -2.1077 -0.7064  0.3116
 5493SOL     OW28114   4.738   3.893   6.566  0.0117  1.0189  0.1445
 5493SOL    HW128115   4.687   3.945   6.629  0.2642 -0.3594  1.4857
 5493SOL    HW228116   4.726   3.963   6.502 -0.9772  1.3025  0.6407
 5494SOL     OW28117   1.120   0.101   2.468 -0.4002 -0.3860 -0.3365
 5494SOL    HW128118   1.186   0.128   2.532  0.0021 -1.1881 -0.4029
 5494SOL    HW228119   1.050   0.110   2.532  0.1435 -0.9872  0.3543
 5495SOL     OW28120   2.801   2.659   4.265  0.3094 -0.7067  0.3346
 5495SOL    HW128121   2.738   2.698   4.326 -1.4578 -0.6876 -1.4793
 5495SOL    HW228122   2.879   2.655   4.320 -0.3053 -0.6418  1.2004
 5496SOL     OW28123   1.590   0.346   2.495 -0.2905  0.1464  0.2290
 5496SOL    HW128124   1.663   0.283   2.494 -0.9108 -0.5668  0.1297
 5496SOL    HW228125   1.634   0.426   2.467  1.6523 -0.5032  1.3615
 5497SOL     OW28126   2.459   1.005   9.171  0.5176 -0.2224  0.4968
 5497SOL    HW128127   2.442   1.098   9.184  0.9931 -0.0850  0.1580
 5497SOL    HW228128   2.368   0.976   9.168  0.1644  1.1483 -2.0543
 5498SOL     OW28129   0.420   4.085   7.542 -0.0190  0.1933 -0.4016
 5498SOL    HW128130   0.436   4.145   7.616 -0.7530  2.0354 -1.7458
 5498SOL    HW228131   0.384   4.002   7.573  1.3239 -0.3023 -0.1750
 5499SOL     OW28132   0.591   4.039   4.834 -0.3186  0.0341  0.7554
 5499SOL    HW128133   0.627   3.988   4.762 -0.9084 -1.6543  1.6403
 5499SOL    HW228134   0.530   4.100   4.792  0.4174 -0.8474 -1.5319
 5500SOL     OW28135   1.238   0.270   2.949 -0.0994 -0.5310 -0.4064
 5500SOL    HW128136   1.249   0.320   3.031 -1.0138 -0.2006 -0.4918
 5500SOL    HW228137   1.143   0.263   2.959 -0.4072  1.0333 -2.3464
 5501SOL     OW28138   4.613   0.193   3.295  0.3820 -0.0681  0.8494
 5501SOL    HW128139   4.606   0.170   3.202  1.0790  1.1538  0.4943
 5501SOL    HW228140   4.576   0.281   3.290 -0.7359 -0.5222  1.2117
 5502SOL     OW28141   3.785   2.382   4.121 -0.0128  0.4323 -0.7221
 5502SOL    HW128142   3.837   2.437   4.062  0.4207  0.6222 -0.1662
 5502SOL    HW228143   3.828   2.387   4.206 -1.5105 -2.2355  0.1715
 5503SOL     OW28144   4.306   3.952   7.684  0.6383 -0.4649  0.0994
 5503SOL    HW128145   4.282   3.900   7.760 -1.3636  2.1586  1.2720
 5503SOL    HW228146   4.393   3.926   7.655  1.5917 -1.3260  3.7725
 5504SOL     OW28147   3.614   1.911   9.447 -0.8114 -0.3481 -0.9784
 5504SOL    HW128148   3.567   1.978   9.497  2.1931  0.8008  0.3571
 5504SOL    HW228149   3.559   1.894   9.371 -3.5237  3.0361  0.2194
 5505SOL     OW28150   0.828   3.877  13.317 -0.2670  0.1514  0.7493
 5505SOL    HW128151   0.900   3.899  13.377  1.1148 -2.0112 -0.1217
 5505SOL    HW228152   0.853   3.785  13.321 -0.9532 -0.0521  0.1089
 5506SOL     OW28153   0.915   4.572   5.613 -0.2462 -0.1025  0.2656
 5506SOL    HW128154   0.945   4.512   5.545 -0.8410  1.3937 -1.3149
 5506SOL    HW228155   0.828   4.534   5.624  0.1884 -1.1693  0.0548
 5507SOL     OW28156   2.488   3.397   7.131  0.0245 -0.0372 -0.3895
 5507SOL    HW128157   2.415   3.335   7.127 -0.5339  0.4788  2.2428
 5507SOL    HW228158   2.444   3.462   7.076  0.4105  2.3381  2.1182
 5508SOL     OW28159   0.024   1.918   9.220 -0.0807  0.1489 -0.0021
 5508SOL    HW128160   0.107   1.927   9.268  2.0024  0.0858 -3.6064
 5508SOL    HW228161   0.033   1.824   9.206  0.2321  0.2746 -0.6571
 5509SOL     OW28162   2.358   2.930   6.066 -0.2735  0.2185 -0.0955
 5509SOL    HW128163   2.392   2.938   5.977 -1.4586  0.6150 -0.5163
 5509SOL    HW228164   2.374   2.838   6.087 -1.0255 -0.1466 -1.1562
 5510SOL     OW28165   2.817   3.004  11.655  0.1158 -0.8373  0.6134
 5510SOL    HW128166   2.845   3.095  11.650  1.5388 -1.2548  1.0608
 5510SOL    HW228167   2.865   2.970  11.731  0.4886 -0.0466  0.7266
 5511SOL     OW28168   1.704   3.521   5.615 -0.5395  0.1846 -0.5581
 5511SOL    HW128169   1.737   3.497   5.701  0.7896 -0.7382 -1.3148
 5511SOL    HW228170   1.777   3.508   5.554 -1.8827 -1.9069 -1.7114
 5512SOL     OW28171   2.769   1.127   0.547 -0.1281 -0.3245  0.0849
 5512SOL    HW128172   2.738   1.196   0.489 -1.6249 -0.8385  0.2682
 5512SOL    HW228173   2.862   1.148   0.546 -0.0623 -0.6221 -0.1420
 5513SOL     OW28174   1.425   1.133   9.086  0.5651  0.5538 -0.3886
 5513SOL    HW128175   1.453   1.042   9.079  0.6310  0.4067  1.7561
 5513SOL    HW228176   1.472   1.174   9.013  2.0110  1.8822  1.2761
 5514SOL     OW28177   1.330   0.546   0.810 -0.2368  0.2807  0.2108
 5514SOL    HW128178   1.284   0.597   0.876  0.7946  0.8740  0.4724
 5514SOL    HW228179   1.411   0.538   0.861  0.5240  0.0361 -1.0335
 5515SOL     OW28180   0.310   0.273  10.574  0.2107 -0.6268 -0.4223
 5515SOL    HW128181   0.310   0.350  10.631  2.0283  1.1630 -2.8072
 5515SOL    HW228182   0.370   0.222  10.630 -3.3673 -2.1738  1.9775
 5516SOL     OW28183   2.055   1.955   1.882 -0.6157  0.2038  0.2067
 5516SOL    HW128184   1.964   1.941   1.908  0.3505 -1.2567  2.7764
 5516SOL    HW228185   2.063   1.908   1.798 -0.3365 -0.1953  0.4593
 5517SOL     OW28186   3.755   1.681   1.683 -0.5093  0.1569  0.4072
 5517SOL    HW128187   3.727   1.719   1.600  0.8916  1.1086  0.3773
 5517SOL    HW228188   3.819   1.745   1.714 -1.6559  1.7723 -0.5572
 5518SOL     OW28189   1.735   4.184   1.562  0.5498 -0.2198  0.2690
 5518SOL    HW128190   1.818   4.137   1.562 -1.2157 -3.3485  0.0553
 5518SOL    HW228191   1.750   4.250   1.630 -1.8074 -2.1826  2.6825
 5519SOL     OW28192   4.313   3.806   0.750 -0.0756  0.0450  0.3156
 5519SOL    HW128193   4.293   3.721   0.789 -1.1058 -0.2770 -0.9073
 5519SOL    HW228194   4.233   3.854   0.775  0.0640 -0.5275  1.8734
 5520SOL     OW28195   1.227   2.403  17.556  0.1845 -0.0426  0.0224
 5520SOL    HW128196   1.187   2.488  17.536  0.7959 -0.0607 -1.2412
 5520SOL    HW228197   1.309   2.410  17.507 -0.0862  0.6176 -0.3321
 5521SOL     OW28198   4.067   0.392  10.769 -0.1450  0.8007 -0.0629
 5521SOL    HW128199   4.139   0.328  10.774 -0.8749 -0.0923 -0.8489
 5521SOL    HW228200   4.000   0.345  10.819  0.4482 -0.4981 -0.4849
 5522SOL     OW28201   1.608   3.300   0.759  0.0721 -0.7333 -0.1450
 5522SOL    HW128202   1.557   3.350   0.822  1.9183  0.7436  0.1891
 5522SOL    HW228203   1.660   3.260   0.828  1.4060  0.4222 -0.4741
 5523SOL     OW28204   1.969   4.065  10.591  0.3785 -0.1386  0.0292
 5523SOL    HW128205   1.998   4.146  10.548  0.8690  1.1003  2.7291
 5523SOL    HW228206   1.920   4.019  10.523  0.4836  0.3649 -0.3937
 5524SOL     OW28207   2.822   3.709  14.528 -0.3316 -0.0647  0.0061
 5524SOL    HW128208   2.849   3.625  14.491  0.1048  0.4784 -0.9056
 5524SOL    HW228209   2.728   3.696  14.528 -0.3414 -0.0794  1.6761
 5525SOL     OW28210   3.820   2.141   4.341 -0.0532 -0.2341  0.2268
 5525SOL    HW128211   3.814   2.099   4.255  0.8624 -0.6354  0.3613
 5525SOL    HW228212   3.861   2.068   4.388  1.7102 -0.2330 -1.3028
 5526SOL     OW28213   0.522   2.140   7.311  0.0845  0.2485  0.0802
 5526SOL    HW128214   0.615   2.129   7.332 -0.1395  1.9263  1.9804
 5526SOL    HW228215   0.523   2.125   7.217 -1.1632 -0.4893  0.1928
 5527SOL     OW28216   3.728   4.154  15.550  0.3773  0.0314  0.2304
 5527SOL    HW128217   3.703   4.245  15.567  2.5514  0.4423  1.2064
 5527SOL    HW228218   3.773   4.128  15.630 -2.4381 -1.4942  1.3325
 5528SOL     OW28219   0.555   1.737   6.379 -0.1501 -0.1137 -0.2452
 5528SOL    HW128220   0.478   1.682   6.366 -0.7138  0.8005 -0.8472
 5528SOL    HW228221   0.521   1.822   6.351  1.7504 -0.1352 -2.6951
 5529SOL     OW28222   0.063   3.020   2.054 -0.4035 -0.1234  0.1752
 5529SOL    HW128223   0.026   3.091   2.106 -0.1686 -0.4079  0.7253
 5529SOL    HW228224   0.023   2.937   2.080 -0.2075 -0.2623  0.0426
 5530SOL     OW28225   1.664   1.207   3.373 -0.7879 -0.7380  0.1218
 5530SOL    HW128226   1.692   1.245   3.290  0.0691 -1.8737 -0.1227
 5530SOL    HW228227   1.653   1.278   3.436 -1.1831 -0.2621 -0.4847
 5531SOL     OW28228   2.402   0.696   8.214 -0.2293  0.0107  0.2309
 5531SOL    HW128229   2.457   0.619   8.200 -0.0431  0.2925 -0.6200
 5531SOL    HW228230   2.345   0.675   8.140 -0.6523  0.6220  0.3877
 5532SOL     OW28231   2.774   2.494   7.727 -0.3705  0.0474  0.8496
 5532SOL    HW128232   2.682   2.520   7.735 -0.2025  0.4980  1.2767
 5532SOL    HW228233   2.812   2.515   7.812  0.9373 -1.6611  0.6866
 5533SOL     OW28234   3.890   0.144  17.294  0.2610  0.4024  0.6744
 5533SOL    HW128235   3.957   0.079  17.272 -0.2065  0.4393 -0.8878
 5533SOL    HW228236   3.944   0.221  17.308  0.3496  0.3584  0.5827
 5534SOL     OW28237   0.242   2.488   1.653 -0.0628  0.5055 -0.2565
 5534SOL    HW128238   0.150   2.515   1.642  0.2998  1.2401 -1.4813
 5534SOL    HW228239   0.238   2.430   1.729  0.3280  0.2876 -0.4058
 5535SOL     OW28240   3.643   2.338  15.814 -0.2905 -0.0954 -0.3689
 5535SOL    HW128241   3.625   2.393  15.890  3.7145  1.2927 -0.4253
 5535SOL    HW228242   3.686   2.395  15.750  1.5908  0.2895  1.2438
 5536SOL     OW28243   4.207   2.291   4.968  0.5687 -0.2994  0.3143
 5536SOL    HW128244   4.273   2.356   4.990 -0.9658  1.1057  0.7215
 5536SOL    HW228245   4.263   2.217   4.944  2.3778  1.9720 -2.4848
 5537SOL     OW28246   1.248   4.039   1.767  0.8069  0.0343  0.7765
 5537SOL    HW128247   1.270   4.120   1.721 -2.1079  0.4541  0.1184
 5537SOL    HW228248   1.312   3.975   1.735  0.7959  0.0730  0.6773
 5538SOL     OW28249   0.358   2.328   7.728  0.2906  0.4497  0.2624
 5538SOL    HW128250   0.435   2.385   7.732  0.3190  0.3165  1.7634
 5538SOL    HW228251   0.296   2.384   7.775  0.0758 -1.0109  1.7334
 5539SOL     OW28252   2.556   1.531  14.689  0.8749 -0.1924 -0.3780
 5539SOL    HW128253   2.529   1.583  14.614  0.8953  0.6556  0.1963
 5539SOL    HW228254   2.558   1.607  14.748  3.4425 -1.0575  0.6466
 5540SOL     OW28255   4.678   0.180   7.690 -0.0966  0.3010 -0.0417
 5540SOL    HW128256   4.720   0.105   7.733 -0.6573 -0.2079 -0.3936
 5540SOL    HW228257   0.012   0.203   7.638  0.0193 -0.2993 -0.1356
 5541SOL     OW28258   1.451   1.116  10.674  0.6100  0.1898 -0.2868
 5541SOL    HW128259   1.359   1.098  10.690  0.6311 -0.3053 -0.7389
 5541SOL    HW228260   1.448   1.178  10.601  0.3934  0.7084  0.1624
 5542SOL     OW28261   0.357   3.250   4.198  0.1036 -0.3271 -0.1260
 5542SOL    HW128262   0.273   3.205   4.191  1.0873 -1.9205 -1.6257
 5542SOL    HW228263   0.339   3.343   4.209 -1.6263 -0.8182  1.1332
 5543SOL     OW28264   1.629   3.085   5.434 -0.3474 -0.7446 -0.0556
 5543SOL    HW128265   1.577   3.028   5.378  0.8915 -1.5946 -0.3435
 5543SOL    HW228266   1.608   3.172   5.400  3.7737  0.9104  1.6739
 5544SOL     OW28267   1.025   3.125   2.813 -0.3245  0.2478  0.7370
 5544SOL    HW128268   1.104   3.139   2.760 -0.7773 -1.4003 -0.3888
 5544SOL    HW228269   0.969   3.134   2.737 -0.3698 -1.1517  0.6044
 5545SOL     OW28270   1.628   4.696  11.470 -0.1374 -0.0968 -0.2790
 5545SOL    HW128271   1.593   0.025  11.522  1.8970  0.8093 -0.1574
 5545SOL    HW228272   1.620   4.725  11.379 -0.7473  2.2123  0.5207
 5546SOL     OW28273   1.856   4.670   3.070 -0.4197  0.8681 -0.1665
 5546SOL    HW128274   1.865   0.022   3.078  0.8449  0.8941 -1.8625
 5546SOL    HW228275   1.944   4.638   3.089 -0.8418 -0.2807 -0.1455
 5547SOL     OW28276   2.791   0.737  12.116  0.2343 -0.2272  0.0154
 5547SOL    HW128277   2.808   0.831  12.120 -0.8751 -0.0342  0.2182
 5547SOL    HW228278   2.764   0.726  12.025 -0.3722  1.1046  0.0431
 5548SOL     OW28279   0.899   1.718   8.620  0.3794  0.1255  0.0494
 5548SOL    HW128280   0.987   1.683   8.603  0.7940  0.8978  0.6215
 5548SOL    HW228281   0.870   1.722   8.529  0.7700  2.3975  0.0370
 5549SOL     OW28282   0.044   3.329  13.461 -0.1792 -0.2588 -0.1236
 5549SOL    HW128283   0.011   3.354  13.547  2.2123 -2.0100  1.3194
 5549SOL    HW228284   4.710   3.352  13.410 -1.6498 -2.3806  1.1354
 5550SOL     OW28285   0.397   4.475   5.756  0.7155  0.0794  0.2113
 5550SOL    HW128286   0.344   4.520   5.691  0.4658 -0.6956 -0.1108
 5550SOL    HW228287   0.487   4.471   5.724  0.8018  2.9370  0.0136
 5551SOL     OW28288   0.475   3.211   7.803 -0.5556 -0.0687  0.2139
 5551SOL    HW128289   0.459   3.231   7.895  0.2942 -1.6055  0.7006
 5551SOL    HW228290   0.533   3.285   7.783 -2.0949  1.0926  0.0906
 5552SOL     OW28291   3.529   1.057   5.268 -0.7230  0.2002  0.4495
 5552SOL    HW128292   3.476   0.985   5.302 -1.4772  0.3386 -0.4542
 5552SOL    HW228293   3.572   1.015   5.194  1.5671  0.6265  1.5113
 5553SOL     OW28294   2.893   3.088   3.146  0.3900  0.1864 -0.2654
 5553SOL    HW128295   2.958   3.017   3.141  2.0651  1.7033 -0.1492
 5553SOL    HW228296   2.818   3.034   3.171  1.5881 -1.8172 -0.9985
 5554SOL     OW28297   2.283   1.821   5.704  0.6039  0.5439 -0.0515
 5554SOL    HW128298   2.375   1.797   5.715  0.3218 -0.2761  0.5651
 5554SOL    HW228299   2.240   1.796   5.786  0.3859 -0.7228 -0.5468
 5555SOL     OW28300   0.598   4.481  10.133 -0.8911 -0.5639  0.1069
 5555SOL    HW128301   0.668   4.430  10.092 -0.7046  0.5339 -0.9586
 5555SOL    HW228302   0.635   4.569  10.126 -1.1726 -0.4822 -0.3839
 5556SOL     OW28303   4.595   4.676  17.336  0.1086  0.0517 -0.4496
 5556SOL    HW128304   4.668   4.654  17.277  2.5035 -1.6569  3.1682
 5556SOL    HW228305   4.637   4.693  17.420 -1.5996  1.6147  0.0946
 5557SOL     OW28306   0.601   1.916   5.253  0.2721 -0.1631 -0.1864
 5557SOL    HW128307   0.562   2.003   5.259  1.1645  0.2417 -0.2254
 5557SOL    HW228308   0.649   1.918   5.336 -1.1918  2.0139  0.6007
 5558SOL     OW28309   3.163   0.526   2.517  0.1533  0.1602  0.2374
 5558SOL    HW128310   3.077   0.548   2.552 -0.6774 -2.7671  0.0660
 5558SOL    HW228311   3.201   0.611   2.495  0.2213 -0.6030 -2.6723
 5559SOL     OW28312   0.892   1.701  15.297 -0.0002 -0.5823  0.5307
 5559SOL    HW128313   0.836   1.772  15.264  2.8464  1.6369  0.4833
 5559SOL    HW228314   0.923   1.729  15.383  0.3182  1.7125 -0.3315
 5560SOL     OW28315   2.082   1.508  12.898 -0.1504  0.6447  0.1339
 5560SOL    HW128316   2.128   1.582  12.937  1.7202 -0.1279 -0.6068
 5560SOL    HW228317   2.145   1.439  12.923  0.0714  0.3818 -1.1548
 5561SOL     OW28318   2.450   2.225   1.937 -0.0557 -0.0175 -0.1214
 5561SOL    HW128319   2.450   2.266   2.024  1.4859 -4.6332  2.0818
 5561SOL    HW228320   2.358   2.210   1.916  0.4548  0.8984 -2.9334
 5562SOL     OW28321   2.874   2.149   6.478  0.0200  0.2125  0.0583
 5562SOL    HW128322   2.951   2.200   6.451  0.6255 -0.9079 -0.3170
 5562SOL    HW228323   2.815   2.159   6.403 -1.1805 -2.2505  0.7130
 5563SOL     OW28324   1.764   3.300   3.227 -0.3270 -0.0363  0.0229
 5563SOL    HW128325   1.842   3.354   3.213  0.7609 -1.1373  1.7316
 5563SOL    HW228326   1.758   3.289   3.322 -1.1504 -2.0207 -0.2476
 5564SOL     OW28327   0.841   3.371   6.510  0.1067 -0.1356 -0.3285
 5564SOL    HW128328   0.761   3.319   6.523  1.6392 -1.9783  1.8583
 5564SOL    HW228329   0.899   3.300   6.484 -0.5420 -0.7310 -0.1578
 5565SOL     OW28330   3.038   4.269  12.128  0.7873  0.4579 -0.3366
 5565SOL    HW128331   3.113   4.213  12.108  1.2941  0.5256  1.4249
 5565SOL    HW228332   2.982   4.233  12.197  0.0852  1.4737 -0.3768
 5566SOL     OW28333   1.633   0.524   7.636 -0.7922 -0.3165 -0.5357
 5566SOL    HW128334   1.723   0.506   7.662 -1.3485 -0.0713  1.5194
 5566SOL    HW228335   1.597   0.437   7.624 -1.1800 -0.1956 -0.2555
 5567SOL     OW28336   2.156   0.657   3.591 -0.4176  0.0597  0.4699
 5567SOL    HW128337   2.122   0.739   3.627  1.0008  1.6014 -1.7074
 5567SOL    HW228338   2.100   0.598   3.641  0.5675 -0.2587  1.1765
 5568SOL     OW28339   2.621   2.160   5.800  0.8367 -0.4536  0.0444
 5568SOL    HW128340   2.558   2.108   5.751 -0.0065  0.6739 -0.0784
 5568SOL    HW228341   2.562   2.232   5.823  0.6560 -0.1972 -1.2243
 5569SOL     OW28342   0.786   3.481   6.175  0.2836 -0.6955  0.2473
 5569SOL    HW128343   0.786   3.386   6.171 -1.3305 -0.8157  2.7388
 5569SOL    HW228344   0.770   3.495   6.082 -1.6874 -2.7520  0.2733
 5570SOL     OW28345   0.803   0.836   6.836 -0.5598 -0.4778  0.3746
 5570SOL    HW128346   0.778   0.811   6.924  1.9151 -1.5101  0.7809
 5570SOL    HW228347   0.865   0.908   6.844  1.8595 -2.7079  1.8229
 5571SOL     OW28348   0.188   4.360   3.899 -0.0024  0.3134 -0.3390
 5571SOL    HW128349   0.253   4.293   3.879 -1.8041 -1.4445 -0.2456
 5571SOL    HW228350   0.232   4.432   3.945 -0.0486 -0.1015  0.3579
 5572SOL     OW28351   0.023   3.728  16.017 -0.2759 -0.3981  0.1689
 5572SOL    HW128352   0.030   3.821  15.997 -1.1811 -0.8140 -1.9892
 5572SOL    HW228353   0.107   3.715  16.062  1.1796  1.4348 -2.0741
 5573SOL     OW28354   2.752   0.518   7.049  0.0582 -0.6728  0.4078
 5573SOL    HW128355   2.824   0.582   7.045 -0.2593 -0.3833 -0.6963
 5573SOL    HW228356   2.680   0.578   7.064  1.0297  0.4880  0.4501
 5574SOL     OW28357   0.680   1.681   1.398 -0.1456  0.6308 -0.2790
 5574SOL    HW128358   0.727   1.601   1.422  0.4236  0.6110 -1.5065
 5574SOL    HW228359   0.736   1.753   1.426 -0.6554  1.5815 -1.6643
 5575SOL     OW28360   4.447   0.080   4.363 -0.0448  0.8273  0.6097
 5575SOL    HW128361   4.510   0.118   4.424  0.3894  0.5922  0.3082
 5575SOL    HW228362   4.369   0.135   4.370 -0.4969  0.2469  0.0867
 5576SOL     OW28363   3.446   2.648   7.123  0.6991 -0.0852 -0.2990
 5576SOL    HW128364   3.420   2.740   7.115 -1.4405 -0.5627  1.2388
 5576SOL    HW228365   3.485   2.632   7.209 -0.0547  0.3139  0.1196
 5577SOL     OW28366   0.237   1.358   6.434 -0.3198 -0.4522 -0.4966
 5577SOL    HW128367   0.214   1.433   6.489 -3.2223 -0.6407 -1.4675
 5577SOL    HW228368   0.166   1.354   6.370 -0.8654 -0.2198  0.0949
 5578SOL     OW28369   2.660   2.626   6.620  0.2242  0.2744 -0.1513
 5578SOL    HW128370   2.728   2.572   6.659  0.5271 -0.7159 -2.0217
 5578SOL    HW228371   2.671   2.595   6.530 -4.0427 -0.3299 -0.4737
 5579SOL     OW28372   4.051   2.627  11.051  0.0394  0.0686  0.2399
 5579SOL    HW128373   4.080   2.694  10.988  1.4591 -0.2315  0.5816
 5579SOL    HW228374   4.015   2.563  10.990 -0.2378  1.3359 -0.9320
 5580SOL     OW28375   0.741   0.356   3.934  0.0640  0.2439  0.7670
 5580SOL    HW128376   0.693   0.351   3.851 -0.2678 -1.5500  1.0783
 5580SOL    HW228377   0.708   0.437   3.974  1.6549  0.3173  1.9379
 5581SOL     OW28378   4.431   1.381   4.874  0.2903 -0.3152  0.8864
 5581SOL    HW128379   4.490   1.407   4.945  2.2011 -2.4508  0.1018
 5581SOL    HW228380   4.369   1.316   4.907 -0.5925 -1.0143 -2.1979
 5582SOL     OW28381   0.466   0.607   2.938 -0.5821  0.0455 -0.2787
 5582SOL    HW128382   0.373   0.602   2.960 -0.8013 -1.0203 -1.4215
 5582SOL    HW228383   0.466   0.582   2.845  0.4062 -0.1915 -0.2155
 5583SOL     OW28384   1.562   4.392   9.396  0.7980 -0.0912 -0.0821
 5583SOL    HW128385   1.537   4.307   9.359 -0.6478  0.0046  0.6936
 5583SOL    HW228386   1.645   4.405   9.350 -0.8617 -0.0929 -3.0668
 5584SOL     OW28387   1.625   3.959   7.223 -0.0991 -0.5014  0.1147
 5584SOL    HW128388   1.656   4.014   7.296 -1.6616 -0.6104  0.8471
 5584SOL    HW228389   1.687   3.888   7.238 -0.7353 -0.5458  2.5823
 5585SOL     OW28390   2.322   3.329   4.317  0.2320 -0.1298  0.1454
 5585SOL    HW128391   2.370   3.395   4.368 -1.3484  0.8822  0.3231
 5585SOL    HW228392   2.236   3.372   4.319 -0.2186 -0.9997 -0.7776
 5586SOL     OW28393   3.924   0.667   9.844 -0.3209 -0.6625 -0.2052
 5586SOL    HW128394   3.862   0.600   9.814 -1.6623  0.1562  0.7314
 5586SOL    HW228395   3.968   0.617   9.913  1.4448 -0.1547 -0.9593
 5587SOL     OW28396   1.455   2.429   6.583 -0.1762 -0.4198  0.2100
 5587SOL    HW128397   1.396   2.427   6.508 -0.1376 -0.4507  0.1808
 5587SOL    HW228398   1.397   2.433   6.659 -0.9656 -0.6284 -0.3813
 5588SOL     OW28399   0.669   2.302   5.805  0.2377  0.1981  0.1630
 5588SOL    HW128400   0.701   2.339   5.722 -0.8802  1.6653  0.3878
 5588SOL    HW228401   0.597   2.253   5.766 -0.5895 -0.5399  2.6834
 5589SOL     OW28402   2.464   1.701   5.160  0.0906  0.3514  0.2861
 5589SOL    HW128403   2.481   1.705   5.066 -1.0052  1.1468  0.1140
 5589SOL    HW228404   2.477   1.794   5.180 -1.9058  0.5557  0.6716
 5590SOL     OW28405   1.571   1.086  17.289 -0.3818  0.4681  0.6615
 5590SOL    HW128406   1.509   1.077  17.216  0.4166  0.6713 -0.0362
 5590SOL    HW228407   1.556   1.004  17.337 -0.7733  0.0977 -0.0847
 5591SOL     OW28408   0.326   3.680  14.960  0.0797 -0.6591 -0.3892
 5591SOL    HW128409   0.297   3.725  14.880  1.7305 -0.9056 -1.1156
 5591SOL    HW228410   0.393   3.618  14.931 -0.5890 -0.3282 -2.6589
 5592SOL     OW28411   4.055   3.924   0.765 -0.3657  0.4357 -0.3391
 5592SOL    HW128412   4.038   3.923   0.671  2.7302  1.6232 -0.8883
 5592SOL    HW228413   3.963   3.924   0.793  0.1224 -1.9488  1.3008
 5593SOL     OW28414   2.071   4.603   4.615 -0.3039  0.3871 -0.0915
 5593SOL    HW128415   2.020   4.682   4.596 -0.8983  0.1586  0.5956
 5593SOL    HW228416   2.009   4.542   4.576 -0.6728  0.1782  0.8419
 5594SOL     OW28417   0.605   1.514   4.614 -1.1588  0.2589  0.2794
 5594SOL    HW128418   0.675   1.492   4.676 -0.2612 -2.4285 -1.6766
 5594SOL    HW228419   0.636   1.599   4.583 -1.8318  0.9005  1.3775
 5595SOL     OW28420   3.871   0.189   7.751 -0.3404 -0.1274  0.2167
 5595SOL    HW128421   3.873   0.123   7.682 -0.5494  0.4462 -0.3418
 5595SOL    HW228422   3.961   0.178   7.781 -0.4013 -0.5728  0.2377
 5596SOL     OW28423   2.767   4.138   7.658  0.0233 -0.3923  0.4119
 5596SOL    HW128424   2.726   4.099   7.580 -0.6373 -3.1072  2.1071
 5596SOL    HW228425   2.784   4.228   7.631  4.3960 -0.9862  1.1698
 5597SOL     OW28426   1.049   1.286   5.336 -0.5798 -0.3940 -0.0719
 5597SOL    HW128427   0.992   1.217   5.303  0.7891 -0.9419 -1.2958
 5597SOL    HW228428   1.007   1.304   5.420 -0.7985 -0.9666 -0.0545
 5598SOL     OW28429   4.398   3.567   6.071  0.1217  0.7281 -0.8479
 5598SOL    HW128430   4.370   3.484   6.033  0.1187  1.6605 -2.8605
 5598SOL    HW228431   4.320   3.596   6.119  0.0975  1.4543 -1.3278
 5599SOL     OW28432   3.267   1.904   8.598 -0.1670  0.0708 -0.4309
 5599SOL    HW128433   3.248   1.911   8.692  2.0305 -2.2270  0.1744
 5599SOL    HW228434   3.300   1.991   8.575  0.3491 -0.3722 -1.3378
 5600SOL     OW28435   1.693   3.317  17.631  0.2376 -0.2474  0.5352
 5600SOL    HW128436   1.632   3.359  17.692  0.1886  0.8744 -0.2854
 5600SOL    HW228437   1.728   3.258  17.698 -1.8656 -1.7816  0.2803
 5601SOL     OW28438   3.943   1.391   0.149 -0.2451  0.2277  0.1924
 5601SOL    HW128439   4.023   1.345   0.174  0.5463  1.8302  0.5995
 5601SOL    HW228440   3.881   1.321   0.168 -1.9623  1.9073  0.7686
 5602SOL     OW28441   3.175   0.089   3.102  0.3195 -0.3032  0.3483
 5602SOL    HW128442   3.082   0.103   3.083  0.0386 -0.1352  1.8589
 5602SOL    HW228443   3.224   0.152   3.050  1.1637 -0.0541  1.4560
 5603SOL     OW28444   0.164   1.753   2.106  0.1758  0.5281 -0.2152
 5603SOL    HW128445   0.208   1.733   2.023 -0.9011 -0.8688 -0.4597
 5603SOL    HW228446   0.175   1.671   2.155 -2.2044 -0.9030 -2.0724
 5604SOL     OW28447   4.235   1.925   4.687  0.2690  0.5033 -0.3469
 5604SOL    HW128448   4.147   1.893   4.667  0.9081  0.7549 -3.6134
 5604SOL    HW228449   4.281   1.901   4.606 -0.3108  0.3580 -0.6348
 5605SOL     OW28450   0.522   3.059  13.731 -0.5448  0.2771 -0.5403
 5605SOL    HW128451   0.599   3.109  13.705 -0.1063 -0.1959 -0.1693
 5605SOL    HW228452   0.499   2.995  13.664 -2.1252 -0.7842  0.9950
 5606SOL     OW28453   0.368   3.032   4.452  0.3081  0.1110  0.3430
 5606SOL    HW128454   0.401   3.116   4.485  0.7517 -0.5530  1.5976
 5606SOL    HW228455   0.391   3.049   4.361 -0.1850 -0.0156  0.1990
 5607SOL     OW28456   4.376   1.562   7.269 -0.1300 -0.0316  0.0046
 5607SOL    HW128457   4.327   1.625   7.322 -0.0760  0.2206 -0.2439
 5607SOL    HW228458   4.351   1.593   7.182 -1.2575  3.1970  1.4962
 5608SOL     OW28459   4.059   4.661   0.756  0.1949 -0.5735  0.1810
 5608SOL    HW128460   4.063   4.617   0.841  0.7239 -2.4323 -0.8006
 5608SOL    HW228461   4.113   4.608   0.697  0.2336  0.4107 -0.6681
 5609SOL     OW28462   0.828   0.262   5.583  0.1510 -0.4787 -0.3360
 5609SOL    HW128463   0.894   0.208   5.626 -0.5900 -0.6458  0.6006
 5609SOL    HW228464   0.873   0.296   5.506  2.2726 -1.7139  0.3567
 5610SOL     OW28465   4.028   2.757   6.610  0.2094  0.4120  0.1753
 5610SOL    HW128466   3.980   2.736   6.529  1.2710  1.0868 -0.6252
 5610SOL    HW228467   3.967   2.759   6.684  1.2287 -0.9676  1.0388
 5611SOL     OW28468   2.482   4.542   8.712 -0.6547  0.4281 -0.5221
 5611SOL    HW128469   2.441   4.606   8.654  0.7891  1.2221 -0.6568
 5611SOL    HW228470   2.571   4.547   8.678 -0.1008 -0.7303  0.7392
 5612SOL     OW28471   2.973   1.949  14.242  0.3051 -0.4694  0.0143
 5612SOL    HW128472   2.908   1.986  14.182  0.8218 -0.4015 -0.5053
 5612SOL    HW228473   3.058   1.973  14.204  0.7127  0.9528  1.7928
 5613SOL     OW28474   4.341   2.733   2.485 -0.0649 -0.5568  0.0893
 5613SOL    HW128475   4.304   2.819   2.502  0.7754  0.0172 -0.9812
 5613SOL    HW228476   4.436   2.742   2.473 -0.1157  0.6412  0.6576
 5614SOL     OW28477   1.007   3.250  11.705  0.4286  0.2802  0.4288
 5614SOL    HW128478   1.086   3.303  11.716 -1.6816  3.7210 -0.8502
 5614SOL    HW228479   0.950   3.316  11.666  0.6762  0.1880 -0.0773
 5615SOL     OW28480   1.984   1.101   7.928  0.1071  0.6868  0.1343
 5615SOL    HW128481   2.039   1.035   7.886 -1.1887 -1.0161  1.1345
 5615SOL    HW228482   2.049   1.170   7.941  0.8070 -0.1880  1.2259
 5616SOL     OW28483   0.185   2.496   9.178  0.2088 -0.2501 -0.5313
 5616SOL    HW128484   0.217   2.586   9.184  0.5382 -0.3276 -1.0965
 5616SOL    HW228485   0.115   2.500   9.244 -0.8755  0.9420 -1.7442
 5617SOL     OW28486   4.087   4.400   1.932  0.8682 -0.2483 -0.5337
 5617SOL    HW128487   4.093   4.313   1.894 -1.4714 -0.3691 -0.6135
 5617SOL    HW228488   4.157   4.446   1.885  0.5058 -0.2879 -1.1152
 5618SOL     OW28489   1.955   2.398   5.938  0.3462  0.3619 -0.2527
 5618SOL    HW128490   2.005   2.317   5.947 -1.4300 -0.8684 -1.5507
 5618SOL    HW228491   1.991   2.424   6.023 -2.3037 -0.6880  1.2048
 5619SOL     OW28492   2.415   0.012  14.659  0.7425 -0.1788 -0.5504
 5619SOL    HW128493   2.470   0.082  14.695 -2.3924  0.6980  2.5795
 5619SOL    HW228494   2.488   4.711  14.617  0.6839  1.5077 -2.4162
 5620SOL     OW28495   4.381   0.378  10.019 -0.1617 -0.0618  0.3567
 5620SOL    HW128496   4.364   0.391   9.926 -0.8046  0.9196  0.6119
 5620SOL    HW228497   4.477   0.385  10.021 -0.2032  1.5229 -3.1995
 5621SOL     OW28498   2.852   4.158   8.129  0.9643 -0.5096  0.4959
 5621SOL    HW128499   2.762   4.137   8.154  1.8520 -2.8422  1.7101
 5621SOL    HW228500   2.844   4.225   8.061 -2.3741  0.1106  1.4969
 5622SOL     OW28501   1.243   0.920   3.299  0.0401  0.0902 -0.6614
 5622SOL    HW128502   1.216   0.898   3.210 -0.9027  0.7059 -0.5229
 5622SOL    HW228503   1.317   0.978   3.282 -0.4960  0.3773 -1.9690
 5623SOL     OW28504   3.267   4.122  10.808 -0.0613  0.3817 -0.4888
 5623SOL    HW128505   3.186   4.172  10.801 -0.2067  0.4322  1.4441
 5623SOL    HW228506   3.321   4.194  10.842  1.4905 -0.6141 -0.8009
 5624SOL     OW28507   4.049   2.917   3.879 -0.1082 -0.2182  0.3857
 5624SOL    HW128508   4.030   2.951   3.967 -0.6713 -1.2978  0.6798
 5624SOL    HW228509   4.062   2.999   3.831  0.9955 -1.2613 -1.0818
 5625SOL     OW28510   3.348   1.971   3.539 -1.1444  0.1621 -1.2401
 5625SOL    HW128511   3.285   2.002   3.475  0.2067  0.5529 -2.3862
 5625SOL    HW228512   3.355   1.880   3.512 -1.4652 -1.2450  3.4845
 5626SOL     OW28513   1.809   0.890  14.430  0.3089  0.1490 -0.2225
 5626SOL    HW128514   1.770   0.973  14.457  1.0844  0.0690  1.1401
 5626SOL    HW228515   1.727   0.839  14.433 -0.7380  1.8790  0.4200
 5627SOL     OW28516   1.660   0.556   4.404 -0.0554  0.6467  0.4675
 5627SOL    HW128517   1.569   0.550   4.432  0.0648 -2.0440  0.2999
 5627SOL    HW228518   1.695   0.590   4.486 -2.2879  1.2804  1.1460
 5628SOL     OW28519   0.284   3.873   2.907  0.3271 -0.4543  0.5303
 5628SOL    HW128520   0.302   3.909   2.819 -1.1082  1.9402  1.2257
 5628SOL    HW228521   0.213   3.925   2.944  2.9006  1.7881  2.3703
 5629SOL     OW28522   4.508   2.505   3.685 -0.1017 -0.0731  0.1899
 5629SOL    HW128523   4.497   2.452   3.606  0.4047  0.8450 -0.5049
 5629SOL    HW228524   4.487   2.594   3.657 -1.1600 -0.6600 -0.9102
 5630SOL     OW28525   2.015   3.531   0.399  0.8739 -0.0471 -0.3806
 5630SOL    HW128526   2.016   3.498   0.309  0.5796 -2.3238  0.4578
 5630SOL    HW228527   1.995   3.624   0.385 -3.0363 -1.0863 -1.6547
 5631SOL     OW28528   1.438   1.998   1.098 -0.0394  0.0827  0.0393
 5631SOL    HW128529   1.344   1.991   1.080  0.0633 -0.5403 -0.2815
 5631SOL    HW228530   1.449   1.911   1.137  1.2311  0.7312  1.1099
 5632SOL     OW28531   3.272   3.385   7.079 -0.4265  0.1503 -0.3739
 5632SOL    HW128532   3.280   3.291   7.062  0.6153  0.3146 -0.8115
 5632SOL    HW228533   3.204   3.386   7.146 -0.4388 -0.8934 -0.3668
 5633SOL     OW28534   4.451   3.834   9.011  0.2089  0.4612 -0.0887
 5633SOL    HW128535   4.488   3.903   9.066  1.2301 -0.3889  0.2863
 5633SOL    HW228536   4.498   3.860   8.932  2.8773  0.6589  1.5498
 5634SOL     OW28537   2.202   0.052   4.999  0.0715 -0.6774 -0.2004
 5634SOL    HW128538   2.134   0.047   4.932  1.1000 -0.4555 -1.2648
 5634SOL    HW228539   2.166   4.743   5.070 -1.7648  0.6665 -0.1569
 5635SOL     OW28540   1.181   3.298   2.260  0.1138 -0.9073 -0.7390
 5635SOL    HW128541   1.204   3.274   2.349  0.7630 -0.8459 -0.8946
 5635SOL    HW228542   1.119   3.370   2.274 -0.2036 -1.5314  1.0047
 5636SOL     OW28543   1.999   4.545   2.091 -0.0526  0.5977 -0.1051
 5636SOL    HW128544   2.055   4.518   2.163  1.0993 -1.1559 -1.6548
 5636SOL    HW228545   2.069   4.594   2.048  0.9621  0.1627  1.0466
 5637SOL     OW28546   3.260   0.792  17.610  0.2892 -0.0646  0.2052
 5637SOL    HW128547   3.241   0.772  17.519  2.3994 -2.3180  0.2550
 5637SOL    HW228548   3.170   0.785  17.642 -0.6548  3.3112 -1.6988
 5638SOL     OW28549   2.817   1.701  14.687 -0.1525 -0.0278 -0.0549
 5638SOL    HW128550   2.909   1.677  14.699 -0.2002 -0.5185 -0.5986
 5638SOL    HW228551   2.831   1.785  14.643  1.3095 -0.9082 -1.2739
 5639SOL     OW28552   3.355   1.737   1.921 -0.1815  0.3512 -0.8704
 5639SOL    HW128553   3.291   1.773   1.982 -1.7550  0.2213 -2.4454
 5639SOL    HW228554   3.305   1.686   1.857 -0.4441 -1.5274  0.8358
 5640SOL     OW28555   0.590   0.159  14.091  0.7577  0.2699  0.0508
 5640SOL    HW128556   0.530   0.095  14.053 -0.6676  0.7720  1.4846
 5640SOL    HW228557   0.625   0.197  14.010  2.2855 -4.6296 -1.5981
 5641SOL     OW28558   0.091   2.650   8.239  0.1720  0.4726  0.7192
 5641SOL    HW128559   0.184   2.627   8.233 -0.0108  0.1941 -1.0285
 5641SOL    HW228560   0.055   2.578   8.291 -0.5790  0.2344 -0.1503
 5642SOL     OW28561   1.988   0.447   0.836  0.3199 -0.7470 -0.4532
 5642SOL    HW128562   2.012   0.364   0.795 -0.1457  0.2019 -2.6391
 5642SOL    HW228563   1.917   0.421   0.894  1.0932 -1.1645  0.3197
 5643SOL     OW28564   0.150   1.847   5.156 -0.1602 -0.4954  0.0295
 5643SOL    HW128565   0.134   1.902   5.078 -0.9695 -0.7874 -0.0137
 5643SOL    HW228566   0.069   1.859   5.206  0.9279  1.0176  1.4029
 5644SOL     OW28567   3.336   1.528   5.303 -0.0948 -0.1299  0.3182
 5644SOL    HW128568   3.413   1.506   5.251 -0.1821  0.0479  0.1124
 5644SOL    HW228569   3.326   1.449   5.356  1.1026  0.7948  1.9453
 5645SOL     OW28570   1.536   1.036   3.998  0.7603  0.4775 -0.1689
 5645SOL    HW128571   1.599   1.064   3.932  0.5247 -0.1471 -0.6544
 5645SOL    HW228572   1.515   0.950   3.962  1.7638  0.3780 -0.5197
 5646SOL     OW28573   2.916   1.651   5.791  0.0561  0.5609  0.1333
 5646SOL    HW128574   2.942   1.657   5.699  1.3157 -0.5709  0.4228
 5646SOL    HW228575   2.877   1.564   5.785  1.4170 -0.1369  1.4958
 5647SOL     OW28576   4.525   1.789   9.451  0.0254 -0.2635  0.0565
 5647SOL    HW128577   4.487   1.708   9.416  1.1583 -0.9503  0.3824
 5647SOL    HW228578   4.617   1.779   9.425  0.0280 -1.6867  0.5959
 5648SOL     OW28579   0.421   4.238   7.759 -0.0195 -0.2797  0.4077
 5648SOL    HW128580   0.361   4.247   7.833  0.8282 -0.9493  1.1721
 5648SOL    HW228581   0.478   4.176   7.805 -0.5907 -0.8183  0.3917
 5649SOL     OW28582   4.577   2.555   2.835  0.2965  0.4097  0.0989
 5649SOL    HW128583   4.555   2.468   2.870  0.0245 -0.7406 -2.9427
 5649SOL    HW228584   4.491   2.590   2.813 -0.4281 -0.4155  1.5487
 5650SOL     OW28585   3.930   0.916   6.692  0.2371  0.4660  0.4899
 5650SOL    HW128586   3.882   0.926   6.609 -1.5499 -1.4270  1.2883
 5650SOL    HW228587   3.911   0.822   6.694 -0.6058  0.6320  0.0864
 5651SOL     OW28588   1.990   4.179   5.995  0.4636  0.1254  0.1340
 5651SOL    HW128589   2.003   4.273   6.005 -1.2623  0.3595  0.2643
 5651SOL    HW228590   1.898   4.171   6.022 -0.8380  0.0052 -4.3401
 5652SOL     OW28591   3.333   0.600   3.841 -0.3004  0.1425  0.1583
 5652SOL    HW128592   3.424   0.626   3.854  0.1353  0.2063 -2.9031
 5652SOL    HW228593   3.329   0.577   3.748  0.1372  1.5495 -0.2044
 5653SOL     OW28594   2.677   1.823   6.836 -0.1771  0.3373  0.2898
 5653SOL    HW128595   2.598   1.835   6.890  2.0441  3.9949  2.7288
 5653SOL    HW228596   2.656   1.890   6.770 -1.9533 -0.3655  0.1325
 5654SOL     OW28597   4.489   1.822   2.778 -0.3195 -0.1422 -0.4976
 5654SOL    HW128598   4.413   1.879   2.776  0.9140  1.5352  0.7190
 5654SOL    HW228599   4.499   1.789   2.689 -0.5426 -0.0661 -0.5493
 5655SOL     OW28600   1.347   3.296   7.751 -0.0807 -0.4304 -0.0359
 5655SOL    HW128601   1.336   3.386   7.779 -1.1889 -1.1338  1.7543
 5655SOL    HW228602   1.421   3.264   7.802 -1.7168 -2.5925  0.9632
 5656SOL     OW28603   3.908   3.832   8.911  0.2427  0.0354 -0.2785
 5656SOL    HW128604   3.871   3.897   8.971  0.6967 -0.0845  0.1295
 5656SOL    HW228605   3.995   3.870   8.898 -0.5268  0.5859 -3.9485
 5657SOL     OW28606   2.798   1.925  12.101 -0.3416  0.4540  0.7966
 5657SOL    HW128607   2.818   1.899  12.011  1.1457  0.8443  1.0137
 5657SOL    HW228608   2.835   1.857  12.158  0.2805 -0.3873 -0.6166
 5658SOL     OW28609   0.680   3.710   8.563  0.4273 -0.0041  0.9402
 5658SOL    HW128610   0.693   3.804   8.574 -0.6768  0.4052 -1.2280
 5658SOL    HW228611   0.751   3.675   8.616  0.6613  0.6944  1.0926
 5659SOL     OW28612   2.120   1.057  11.279  0.3799 -0.4754  0.1089
 5659SOL    HW128613   2.105   0.968  11.312 -0.8687 -0.1425  0.4522
 5659SOL    HW228614   2.062   1.064  11.203  2.2449 -0.9576 -1.3640
 5660SOL     OW28615   3.015   1.519   1.037 -0.1667 -0.1091  0.0522
 5660SOL    HW128616   3.060   1.454   1.091 -0.1606  0.4563  0.7358
 5660SOL    HW228617   2.952   1.462   0.993  0.0250 -0.6770  0.5150
 5661SOL     OW28618   1.707   0.794  14.744  0.5167 -0.1808  0.2093
 5661SOL    HW128619   1.659   0.804  14.662 -0.6328  0.4556  0.9654
 5661SOL    HW228620   1.786   0.845  14.727 -1.4878  2.5683 -0.9210
 5662SOL     OW28621   0.551   3.282   6.861  0.0744  0.1800  0.5211
 5662SOL    HW128622   0.503   3.322   6.789 -1.9940 -0.1022  1.7399
 5662SOL    HW228623   0.509   3.198   6.880  0.5055 -0.3339 -0.8054
 5663SOL     OW28624   3.034   4.108   4.704 -0.5767 -0.7638  0.0788
 5663SOL    HW128625   3.104   4.116   4.769 -0.1617  0.4120 -0.5055
 5663SOL    HW228626   2.965   4.172   4.716  0.8289  0.5236  1.2867
 5664SOL     OW28627   0.613   0.272   9.507  0.3609 -0.5586  0.5091
 5664SOL    HW128628   0.700   0.232   9.513  1.4105  1.1210 -3.5434
 5664SOL    HW228629   0.603   0.291   9.414  1.3151 -0.3785  0.4461
 5665SOL     OW28630   0.474   0.466   9.861 -0.2809 -0.0277  0.0490
 5665SOL    HW128631   0.405   0.521   9.898 -1.8052 -0.4169 -2.1799
 5665SOL    HW228632   0.510   0.429   9.941  1.0191  0.3814 -0.3431
 5666SOL     OW28633   2.260   1.279  11.669  0.0750 -0.3847  0.3443
 5666SOL    HW128634   2.210   1.275  11.587  0.7022 -1.7133  0.0123
 5666SOL    HW228635   2.215   1.214  11.725  1.7100 -1.1589  0.7535
 5667SOL     OW28636   3.086   2.895   5.246 -0.0815  0.0402 -0.0513
 5667SOL    HW128637   3.082   2.817   5.302 -3.0432 -0.5504 -1.1142
 5667SOL    HW228638   2.993   2.917   5.247 -0.2202 -0.5474  0.0339
 5668SOL     OW28639   1.519   1.286   8.894 -0.2481  0.6777  0.3371
 5668SOL    HW128640   1.529   1.378   8.871 -1.0822 -0.0522 -2.9280
 5668SOL    HW228641   1.599   1.252   8.853 -1.3421 -2.7657  1.0588
 5669SOL     OW28642   0.227   1.833   6.309  0.4515 -0.3000  0.4595
 5669SOL    HW128643   0.191   1.921   6.296 -2.4168 -1.7113 -1.2557
 5669SOL    HW228644   0.149   1.778   6.309  0.6492 -0.5775  0.5196
 5670SOL     OW28645   1.546   4.136   9.280 -0.1226  0.1199 -0.2382
 5670SOL    HW128646   1.517   4.133   9.189 -0.0494 -1.6840 -0.2105
 5670SOL    HW228647   1.471   4.080   9.301  0.9973 -1.2500  0.1494
 5671SOL     OW28648   3.630   0.361   9.136 -0.0378  0.3441  0.8007
 5671SOL    HW128649   3.582   0.373   9.218 -1.3415  0.9576 -0.0359
 5671SOL    HW228650   3.557   0.377   9.075  2.2328  4.4087 -0.8033
 5672SOL     OW28651   0.168   0.445   3.753 -0.0443 -0.0136  0.0710
 5672SOL    HW128652   0.206   0.523   3.793  2.0461 -1.8294  1.6017
 5672SOL    HW228653   0.202   0.453   3.664 -0.8372 -0.3855 -0.2607
 5673SOL     OW28654   2.217   1.372  14.096 -0.2814 -0.0106  0.6879
 5673SOL    HW128655   2.187   1.402  14.182 -0.0055  1.2676  0.3419
 5673SOL    HW228656   2.287   1.428  14.065 -1.1862  0.7893  0.0820
 5674SOL     OW28657   2.009   2.854   4.418  0.2649 -0.2652  0.4027
 5674SOL    HW128658   1.941   2.852   4.351  2.2299  3.7080 -1.6770
 5674SOL    HW228659   2.076   2.910   4.380  1.0722 -0.9706  0.7794
 5675SOL     OW28660   3.652   3.071  15.156 -0.1856 -0.1050 -0.2229
 5675SOL    HW128661   3.643   3.007  15.086  1.1690 -1.0385  0.4653
 5675SOL    HW228662   3.581   3.045  15.214  0.4367 -0.7204  0.2544
 5676SOL     OW28663   2.912   0.008  11.440  0.2736  0.4361 -0.1579
 5676SOL    HW128664   2.848   0.046  11.501 -0.3476 -1.1707  0.1983
 5676SOL    HW228665   2.919   0.071  11.369  0.1008  0.0534 -0.5180
 5677SOL     OW28666   1.286   4.662   3.158 -0.2773  0.2120  0.4569
 5677SOL    HW128667   1.300   4.689   3.248 -1.4434 -0.0070  0.7019
 5677SOL    HW228668   1.356   4.715   3.119  1.6738 -2.1840  0.7020
 5678SOL     OW28669   1.382   1.841  11.878  0.0531 -0.6135 -0.2072
 5678SOL    HW128670   1.377   1.917  11.820  1.6921  0.5172  1.0829
 5678SOL    HW228671   1.330   1.874  11.951  0.2171  0.6066 -0.6373
 5679SOL     OW28672   0.845   1.183   0.955 -0.1738  0.1266 -0.2943
 5679SOL    HW128673   0.849   1.113   1.020 -0.3392 -0.4088 -0.8573
 5679SOL    HW228674   0.758   1.167   0.918 -1.6776  1.7211  2.5417
 5680SOL     OW28675   0.240   4.090   8.977 -0.4956  0.0241  0.1793
 5680SOL    HW128676   0.174   4.021   8.967 -0.8312  0.4504 -0.5241
 5680SOL    HW228677   0.300   4.064   8.907  0.0037  1.0092  0.2459
 5681SOL     OW28678   2.153   1.601   7.383  0.2665 -0.4973  0.4233
 5681SOL    HW128679   2.090   1.563   7.322  2.2476  0.6894 -2.3923
 5681SOL    HW228680   2.196   1.519   7.407  1.2634  0.5036  2.0706
 5682SOL     OW28681   4.096   1.217  15.265 -0.2152 -0.1484 -1.0991
 5682SOL    HW128682   4.031   1.263  15.211  1.1059  2.1308 -0.7468
 5682SOL    HW228683   4.093   1.136  15.215  0.6049  0.3426 -1.9610
 5683SOL     OW28684   1.524   2.719   1.458 -0.1209  0.0429 -0.7764
 5683SOL    HW128685   1.441   2.767   1.450  0.5667  1.3787  0.1293
 5683SOL    HW228686   1.521   2.685   1.548  3.3450  3.1723  0.4844
 5684SOL     OW28687   2.566   1.682   6.129 -0.8904  0.5231 -0.4909
 5684SOL    HW128688   2.528   1.735   6.059 -0.6598  0.3712 -0.7290
 5684SOL    HW228689   2.650   1.651   6.095 -2.7062 -1.1071 -3.4253
 5685SOL     OW28690   1.735   2.455   2.259  0.4006  0.5858  0.1239
 5685SOL    HW128691   1.656   2.507   2.244 -0.9233 -1.1383  1.0199
 5685SOL    HW228692   1.791   2.513   2.310  1.3221 -0.2791  0.1078
 5686SOL     OW28693   1.154   2.088  15.594  0.0330  0.5398  0.1281
 5686SOL    HW128694   1.187   2.006  15.631 -0.9230  1.6297  3.4283
 5686SOL    HW228695   1.222   2.143  15.634 -0.7078  1.2633  0.3797
 5687SOL     OW28696   4.494   3.918   2.257  0.1622 -0.0749 -0.7510
 5687SOL    HW128697   4.405   3.941   2.229 -0.5806 -1.5472  0.4102
 5687SOL    HW228698   4.467   3.841   2.307  0.6301  0.8256  0.8868
 5688SOL     OW28699   2.565   0.987  16.903  0.0810  0.6629  0.1692
 5688SOL    HW128700   2.616   1.008  16.825  1.1582 -1.8962  0.1892
 5688SOL    HW228701   2.548   0.893  16.907  0.6818  0.6290  1.7606
 5689SOL     OW28702   0.641   0.754   4.983 -0.3215 -0.4253 -0.6220
 5689SOL    HW128703   0.660   0.669   5.025 -2.7776 -1.5817 -1.8404
 5689SOL    HW228704   0.545   0.751   4.977 -0.5384  0.8753  2.0254
 5690SOL     OW28705   3.803   0.679   0.887  0.1164  0.3068 -0.2236
 5690SOL    HW128706   3.778   0.771   0.877  0.9274  0.4670 -0.7832
 5690SOL    HW228707   3.796   0.669   0.981 -0.6412 -0.0035 -0.3112
 5691SOL     OW28708   1.090   0.688   6.691  0.0922  0.5823 -0.1033
 5691SOL    HW128709   1.010   0.643   6.717  0.5568 -1.6145 -2.4705
 5691SOL    HW228710   1.110   0.729   6.775 -0.0183  2.0893 -0.7997
 5692SOL     OW28711   0.225   0.676  16.186  0.2445 -0.4261  0.2359
 5692SOL    HW128712   0.264   0.738  16.125 -0.5025 -0.4953 -0.3223
 5692SOL    HW228713   0.197   0.739  16.253  0.2813  0.3997 -0.5380
 5693SOL     OW28714   4.161   0.309   7.577  0.3098  0.2687  0.6054
 5693SOL    HW128715   4.246   0.300   7.533  0.5831  3.2208  0.4768
 5693SOL    HW228716   4.138   0.225   7.616 -1.1562  0.3996  0.0210
 5694SOL     OW28717   2.582   3.304   5.642  0.2176 -0.5626 -0.3034
 5694SOL    HW128718   2.511   3.334   5.699  1.4974  1.4106  0.2229
 5694SOL    HW228719   2.620   3.247   5.708  2.6776  0.1569 -1.1134
 5695SOL     OW28720   0.747   1.408   7.666 -0.0085 -0.3895 -0.2082
 5695SOL    HW128721   0.809   1.342   7.634 -2.5724 -1.0490 -3.9216
 5695SOL    HW228722   0.675   1.351   7.693 -1.0887  1.9157  1.7288
 5696SOL     OW28723   0.157   1.711   8.556  0.5088 -0.5105 -0.1735
 5696SOL    HW128724   0.222   1.653   8.596  0.2372 -0.9651 -0.3996
 5696SOL    HW228725   0.191   1.800   8.569 -1.7830  0.3991 -0.4136
 5697SOL     OW28726   2.296   0.431   3.048 -1.0356 -0.0295 -0.0733
 5697SOL    HW128727   2.245   0.446   3.128  1.1044 -0.5105  1.3990
 5697SOL    HW228728   2.359   0.364   3.076  0.8911  1.6610 -0.3189
 5698SOL     OW28729   1.047   1.574   8.098  0.6624  0.0617  0.4572
 5698SOL    HW128730   0.984   1.519   8.053  1.0552 -0.6156  0.7268
 5698SOL    HW228731   1.007   1.580   8.185  1.5477  0.2777  0.8587
 5699SOL     OW28732   3.944   2.982   4.128  0.0127 -0.3267  0.4170
 5699SOL    HW128733   3.861   2.934   4.135  0.3200 -0.6938  1.6158
 5699SOL    HW228734   3.922   3.033   4.206 -0.6409  0.4625 -0.2825
 5700SOL     OW28735   1.452   0.483   1.580 -0.1949  0.6968  1.2369
 5700SOL    HW128736   1.421   0.393   1.590  1.5011 -0.2025 -1.6824
 5700SOL    HW228737   1.464   0.501   1.673  0.9983  1.0577  1.0142
 5701SOL     OW28738   3.103   1.872   7.617  0.3143 -0.7382  0.1791
 5701SOL    HW128739   3.087   1.956   7.660 -3.2043 -2.1094  1.4638
 5701SOL    HW228740   3.063   1.876   7.531 -0.5467  0.8602  0.6585
 5702SOL     OW28741   4.299   0.630  12.176 -0.3061  0.4595  0.0210
 5702SOL    HW128742   4.205   0.644  12.163 -0.4442  1.1188  1.8212
 5702SOL    HW228743   4.331   0.653  12.089  0.4737 -0.4936  0.0554
 5703SOL     OW28744   4.361   4.125   5.661 -0.2437 -0.4698  0.5804
 5703SOL    HW128745   4.350   4.214   5.694 -0.0807 -0.7090  1.2749
 5703SOL    HW228746   4.274   4.100   5.693 -1.1194  2.4865  0.4766
 5704SOL     OW28747   3.938   2.805   7.398  0.3096 -0.6129  0.0983
 5704SOL    HW128748   3.863   2.844   7.443 -0.7664 -0.6119 -1.6870
 5704SOL    HW228749   4.002   2.866   7.435 -0.7854  0.1681  0.6968
 5705SOL     OW28750   4.515   1.874   8.215 -0.0830 -0.4984 -0.1387
 5705SOL    HW128751   4.491   1.882   8.307 -0.2462  0.2464 -0.2430
 5705SOL    HW228752   4.447   1.935   8.184  0.3726  0.7695  1.3734
 5706SOL     OW28753   0.856   1.451   1.462 -0.2380 -0.1654 -0.1709
 5706SOL    HW128754   0.924   1.422   1.523  0.0441  1.9971  0.5316
 5706SOL    HW228755   0.877   1.404   1.380  0.0392  0.0859 -0.2403
 5707SOL     OW28756   1.267   1.475   6.979 -0.5705 -0.5274  0.2984
 5707SOL    HW128757   1.347   1.480   6.928  0.1008 -1.1227  1.2961
 5707SOL    HW228758   1.218   1.555   6.960  0.8456  0.0796 -0.7907
 5708SOL     OW28759   0.978   4.030   1.875  0.0926  0.0645 -0.5316
 5708SOL    HW128760   1.068   4.036   1.842  0.9249  1.7159  1.9857
 5708SOL    HW228761   0.935   4.012   1.792  0.1116  0.1442 -0.5590
 5709SOL     OW28762   3.587   0.606   6.563 -0.3294 -0.5046  0.0139
 5709SOL    HW128763   3.551   0.658   6.491 -1.0138 -0.7642  0.1704
 5709SOL    HW228764   3.677   0.587   6.538 -0.0253  0.9367  0.0253
 5710SOL     OW28765   3.670   3.658   8.301 -0.0149  0.2328 -0.2446
 5710SOL    HW128766   3.639   3.686   8.215  0.7623  0.4162 -0.4695
 5710SOL    HW228767   3.695   3.567   8.283 -0.3621 -0.0737  0.8508
 5711SOL     OW28768   3.983   0.056   5.616 -0.0696 -0.2663  0.1697
 5711SOL    HW128769   3.924   4.743   5.566  0.7364 -0.5631 -0.4553
 5711SOL    HW228770   3.998   0.001   5.693  1.5214 -0.8497 -0.5474
 5712SOL     OW28771   1.906   2.768   6.120 -0.5100 -0.5242 -0.2956
 5712SOL    HW128772   1.849   2.800   6.191  0.7963 -1.8437  1.3353
 5712SOL    HW228773   1.844   2.723   6.063 -1.7894 -0.9635  1.4657
 5713SOL     OW28774   0.490   2.571   1.599 -0.0338 -0.1672  0.7818
 5713SOL    HW128775   0.400   2.547   1.624 -0.8753  0.1117 -1.9496
 5713SOL    HW228776   0.536   2.515   1.662 -0.2146 -1.9436 -0.6393
 5714SOL     OW28777   2.464   2.523   4.059 -0.0653  0.4502 -0.1774
 5714SOL    HW128778   2.505   2.437   4.050 -0.0815  0.5128 -0.8433
 5714SOL    HW228779   2.462   2.544   3.966 -0.9494  0.5938 -0.1264
 5715SOL     OW28780   3.448   0.381   9.389 -0.8627 -0.8880 -0.1092
 5715SOL    HW128781   3.504   0.310   9.420  1.5618  0.1779 -2.0907
 5715SOL    HW228782   3.371   0.332   9.359 -1.7244  0.2367  0.2565
 5716SOL     OW28783   1.082   4.466   6.923 -0.2066  0.6672  0.0841
 5716SOL    HW128784   1.024   4.465   6.999 -0.0144  0.8393  0.2322
 5716SOL    HW228785   1.047   4.549   6.891 -1.1703  0.1000 -0.3328
 5717SOL     OW28786   0.461   1.785   1.919  0.5112 -0.1858  0.0571
 5717SOL    HW128787   0.478   1.707   1.971  2.7682  1.2860  1.4939
 5717SOL    HW228788   0.531   1.797   1.855  0.5190  0.5189  0.2059
 5718SOL     OW28789   3.034   3.087  16.996  0.0301 -0.6213  0.6338
 5718SOL    HW128790   2.959   3.145  17.007 -0.9493 -1.6203 -0.6863
 5718SOL    HW228791   3.102   3.137  17.041  0.8056 -2.9514  2.0943
 5719SOL     OW28792   4.250   0.171  13.758  0.0329 -0.4450  0.3269
 5719SOL    HW128793   4.163   0.185  13.721  0.1496 -0.0388  0.2159
 5719SOL    HW228794   4.302   0.231  13.705 -1.1647 -0.8886 -1.3556
 5720SOL     OW28795   1.871   1.915   2.164 -0.0858  0.5371  0.0559
 5720SOL    HW128796   1.833   1.964   2.092 -1.8972  0.2108  0.7702
 5720SOL    HW228797   1.791   1.867   2.190 -1.1590  0.7772 -2.8493
 5721SOL     OW28798   4.326   2.968  14.114  0.3423  0.0349 -0.0321
 5721SOL    HW128799   4.420   2.969  14.101  0.3711  1.1024  0.1926
 5721SOL    HW228800   4.303   3.056  14.083  1.3431  0.8551  1.5651
 5722SOL     OW28801   0.573   2.644   7.354  0.7216 -1.4214  0.9513
 5722SOL    HW128802   0.509   2.573   7.351  1.7166 -2.2617 -0.4021
 5722SOL    HW228803   0.532   2.696   7.423 -0.6833 -1.8001  0.4143
 5723SOL     OW28804   3.425   2.877   3.426  0.9284 -0.1941 -0.2743
 5723SOL    HW128805   3.450   2.969   3.432  0.4062  0.1707 -3.3863
 5723SOL    HW228806   3.369   2.875   3.503 -0.1970  1.3345 -1.0582
 5724SOL     OW28807   3.528   3.792  13.575  0.2612 -0.3062  0.4093
 5724SOL    HW128808   3.478   3.791  13.656  1.0799  1.4552  0.9388
 5724SOL    HW228809   3.576   3.874  13.583 -0.3929  0.0190  1.0236
 5725SOL     OW28810   1.573   0.226  16.825  0.0720 -0.6226 -0.2262
 5725SOL    HW128811   1.626   0.267  16.756 -0.8242 -0.2131 -0.6690
 5725SOL    HW228812   1.537   0.306  16.863 -0.0027 -1.1330  0.7649
 5726SOL     OW28813   0.439   1.456   9.321  0.1747  0.8460  0.1974
 5726SOL    HW128814   0.447   1.529   9.260  0.6259 -0.9677 -1.8999
 5726SOL    HW228815   0.521   1.411   9.302 -0.8857 -0.4556 -1.2926
 5727SOL     OW28816   0.726   2.502   2.473  0.5122 -0.1628  0.1127
 5727SOL    HW128817   0.755   2.477   2.385  0.8864  1.9323 -0.3568
 5727SOL    HW228818   0.805   2.541   2.509  0.1935  0.3926  0.2060
 5728SOL     OW28819   1.641   1.479   5.889  0.4782  0.2736 -0.0146
 5728SOL    HW128820   1.686   1.441   5.965 -0.5194  0.0601  0.4818
 5728SOL    HW228821   1.711   1.489   5.825 -0.3727 -0.8360 -1.1331
 5729SOL     OW28822   3.753   0.309  16.176 -0.1657  0.1981 -0.0904
 5729SOL    HW128823   3.720   0.336  16.262  0.1514  2.8160 -0.7954
 5729SOL    HW228824   3.740   0.388  16.124  2.1574 -1.3790 -3.0849
 5730SOL     OW28825   2.807   3.346   4.353  0.6030 -1.3315 -0.2230
 5730SOL    HW128826   2.848   3.406   4.291  1.3745  0.7341  2.3058
 5730SOL    HW228827   2.744   3.308   4.292  0.3774 -0.8296 -0.2995
 5731SOL     OW28828   3.366   4.301  16.433  0.3672  0.0924 -0.1174
 5731SOL    HW128829   3.352   4.393  16.413 -1.8993 -0.5535 -1.4899
 5731SOL    HW228830   3.288   4.286  16.485  0.0577  1.5345 -0.1702
 5732SOL     OW28831   1.715   0.639  16.904 -0.2625  0.1032 -0.0325
 5732SOL    HW128832   1.688   0.552  16.934 -0.8156  0.0460 -0.7147
 5732SOL    HW228833   1.648   0.703  16.927 -1.3478 -0.5017 -1.5237
 5733SOL     OW28834   1.997   4.403   5.504 -0.0710  0.0200 -0.3579
 5733SOL    HW128835   1.969   4.480   5.455 -1.1271  1.2687  2.2228
 5733SOL    HW228836   1.918   4.348   5.510  0.5492 -0.7087  0.9352
 5734SOL     OW28837   4.566   2.955   2.364  0.1431  0.0613 -0.3707
 5734SOL    HW128838   4.606   2.916   2.286  0.7358 -0.5743  0.2498
 5734SOL    HW228839   4.635   2.974   2.428 -0.1876  1.0374 -0.3024
 5735SOL     OW28840   1.454   4.488   4.484 -0.1689 -0.5899  0.4796
 5735SOL    HW128841   1.417   4.426   4.421  0.0123  1.0321 -1.2436
 5735SOL    HW228842   1.493   4.430   4.549  0.2825  0.1571  0.8753
 5736SOL     OW28843   0.116   0.828   7.791  0.1094 -0.0088 -0.4429
 5736SOL    HW128844   0.110   0.878   7.710  2.6607  0.9615 -0.0224
 5736SOL    HW228845   0.187   0.884   7.823  0.6298 -1.7883  1.5084
 5737SOL     OW28846   2.647   2.078   4.438 -0.2385 -0.1882 -0.3027
 5737SOL    HW128847   2.594   2.015   4.488 -3.0580  2.9867  0.7128
 5737SOL    HW228848   2.715   2.025   4.396 -1.5614 -0.8608 -1.6021
 5738SOL     OW28849   0.238   4.717   2.291 -0.1573  0.0582  0.3252
 5738SOL    HW128850   0.323   4.732   2.250  0.4768 -0.5231  1.4270
 5738SOL    HW228851   0.262   4.662   2.365 -2.4278  0.6709  1.5515
 5739SOL     OW28852   2.105   0.005   0.897  0.2482 -0.8526 -0.3280
 5739SOL    HW128853   2.036   4.742   0.963  0.1653 -1.9918 -0.5229
 5739SOL    HW228854   2.184   4.722   0.944  0.6343  1.0962  0.0931
 5740SOL     OW28855   3.224   0.873   6.367  0.0625 -0.2007  0.4694
 5740SOL    HW128856   3.177   0.916   6.439  0.1962  0.1287  0.3619
 5740SOL    HW228857   3.151   0.824   6.329  0.6449  0.6789 -1.8076
 5741SOL     OW28858   2.518   1.846  15.904  0.1134  0.5177 -0.5755
 5741SOL    HW128859   2.557   1.761  15.884  1.2319  0.5612  1.4405
 5741SOL    HW228860   2.475   1.819  15.985  1.0240  0.7645 -0.0083
 5742SOL     OW28861   0.999   3.492   2.021  0.0490 -0.5472 -0.4686
 5742SOL    HW128862   0.920   3.534   2.056  0.1255  1.2810 -2.5142
 5742SOL    HW228863   1.066   3.556   2.046 -0.3140 -0.5500  0.5309
 5743SOL     OW28864   3.767   4.672   8.333 -0.2242 -0.6453 -0.3919
 5743SOL    HW128865   3.759   4.596   8.391 -1.5229 -0.2198 -0.0123
 5743SOL    HW228866   3.703   4.728   8.376  1.8160  0.8490  0.6926
 5744SOL     OW28867   3.370   1.194   7.255 -0.3550  0.4177 -0.2118
 5744SOL    HW128868   3.329   1.256   7.196 -0.2132  2.2917  1.6700
 5744SOL    HW228869   3.318   1.118   7.228  0.2481  1.0619 -3.1695
 5745SOL     OW28870   1.408   1.134  17.008 -0.1276 -0.2715 -0.0575
 5745SOL    HW128871   1.479   1.126  16.945 -1.0282 -1.0609 -0.9678
 5745SOL    HW228872   1.406   1.229  17.000 -1.4371 -0.1804  1.4535
 5746SOL     OW28873   1.092   2.439  15.072  0.1399 -0.0969  0.3979
 5746SOL    HW128874   1.087   2.444  15.168 -0.0773 -1.3888  0.4524
 5746SOL    HW228875   1.117   2.347  15.065  2.3384  0.4549  1.1301
 5747SOL     OW28876   1.816   2.910   7.658 -0.5013 -0.2371  0.3094
 5747SOL    HW128877   1.784   2.885   7.571 -1.0928  0.5029  0.3166
 5747SOL    HW228878   1.903   2.942   7.635 -0.8944  0.4544 -0.1926
 5748SOL     OW28879   1.542   2.978   3.625  0.5877 -0.4953 -0.1289
 5748SOL    HW128880   1.488   2.912   3.669 -0.4309 -0.2768 -1.0465
 5748SOL    HW228881   1.486   3.054   3.636 -0.7501 -1.6302  0.9998
 5749SOL     OW28882   3.718   4.129   7.406  0.7270  0.1847  0.1720
 5749SOL    HW128883   3.733   4.223   7.400  2.6677 -0.3135 -2.7129
 5749SOL    HW228884   3.702   4.119   7.500  0.5463 -0.3916  0.0825
 5750SOL     OW28885   2.081   1.426   8.178  0.4623 -0.3098  0.0946
 5750SOL    HW128886   2.170   1.394   8.191 -0.2582 -2.7692 -1.0479
 5750SOL    HW228887   2.098   1.518   8.156 -0.4561 -0.1340  0.1057
 5751SOL     OW28888   3.907   0.979   7.027  0.2640 -0.5914 -0.4202
 5751SOL    HW128889   3.939   0.909   7.084  0.4233 -0.2206 -0.0558
 5751SOL    HW228890   3.986   1.033   7.023  0.4169 -0.8317 -0.5974
 5752SOL     OW28891   3.199   3.035   8.161 -0.4062  0.0949  0.6176
 5752SOL    HW128892   3.153   2.978   8.100  2.0463 -1.6815  0.3906
 5752SOL    HW228893   3.285   3.038   8.120 -0.3099 -1.4597  0.6916
 5753SOL     OW28894   2.705   0.339   5.462 -0.3310 -0.2262  0.1063
 5753SOL    HW128895   2.761   0.294   5.398 -2.0199 -0.6721 -1.0492
 5753SOL    HW228896   2.767   0.364   5.530  0.6128  0.0240 -0.8447
 5754SOL     OW28897   1.075   2.187   2.624  0.7283  0.1005 -0.4597
 5754SOL    HW128898   1.067   2.233   2.541  0.9374 -1.0019 -1.0927
 5754SOL    HW228899   1.001   2.126   2.615  1.0051 -0.2504 -0.3375
 5755SOL     OW28900   1.489   1.829   9.773  0.5791 -0.4355 -0.6002
 5755SOL    HW128901   1.396   1.847   9.768  0.2582 -1.8810  0.2692
 5755SOL    HW228902   1.525   1.845   9.686  2.3061  2.7156  0.6977
 5756SOL     OW28903   0.886   1.585  12.972  0.0844  0.0937  0.3051
 5756SOL    HW128904   0.834   1.513  12.935  0.4761  0.1303 -0.3082
 5756SOL    HW228905   0.880   1.655  12.908 -0.0774  0.7857  1.0818
 5757SOL     OW28906   3.454   0.003   2.152 -0.0328  0.1297 -0.3554
 5757SOL    HW128907   3.529   0.017   2.209  0.2671 -0.3485 -0.6311
 5757SOL    HW228908   3.477   0.054   2.075 -0.6379 -0.4748 -0.9433
 5758SOL     OW28909   3.922   4.526   0.969  0.3879 -0.2867  0.1689
 5758SOL    HW128910   3.826   4.530   0.966  0.4881  1.4013 -0.7250
 5758SOL    HW228911   3.927   4.440   0.928 -1.5246 -0.5124  0.3869
 5759SOL     OW28912   0.612   2.808   8.898  0.2628  0.0849  0.1761
 5759SOL    HW128913   0.543   2.747   8.922 -2.3046  2.7440 -0.5138
 5759SOL    HW228914   0.689   2.753   8.885 -0.5434 -0.8059 -0.7756
 5760SOL     OW28915   3.281   0.272   7.674 -0.5375  0.0104  0.3598
 5760SOL    HW128916   3.298   0.346   7.615  0.2964 -0.5192 -0.0794
 5760SOL    HW228917   3.222   0.226   7.613  0.0902 -0.7279  0.3033
 5761SOL     OW28918   2.507   3.860  12.582 -0.0003 -0.4186  0.3096
 5761SOL    HW128919   2.599   3.873  12.559  0.0321 -3.3759 -1.3214
 5761SOL    HW228920   2.516   3.793  12.650  0.9453 -1.3134 -0.7062
 5762SOL     OW28921   1.816   1.869  17.588  0.5614 -0.4201  0.0444
 5762SOL    HW128922   1.907   1.852  17.610  0.4036  1.0767  1.9125
 5762SOL    HW228923   1.773   1.856  17.672  0.7162 -0.3881  0.1289
 5763SOL     OW28924   4.070   0.447   4.314 -0.2904 -0.5825  0.2267
 5763SOL    HW128925   4.064   0.415   4.404 -0.4929  3.4887  1.6204
 5763SOL    HW228926   4.028   0.533   4.319 -1.1512 -1.0591  1.1552
 5764SOL     OW28927   3.415   2.274   5.287 -0.1740 -0.0277  0.2606
 5764SOL    HW128928   3.489   2.309   5.238  1.2173 -0.8279  1.8029
 5764SOL    HW228929   3.347   2.308   5.229  2.3770  1.2532 -1.9699
 5765SOL     OW28930   2.026   1.429   3.505 -0.3425  0.4387 -0.3936
 5765SOL    HW128931   1.977   1.352   3.474 -0.1537  0.1891 -0.0747
 5765SOL    HW228932   2.088   1.427   3.432 -0.0828 -2.2908 -0.1148
 5766SOL     OW28933   3.656   3.277  14.963 -0.3020 -0.7073  0.1778
 5766SOL    HW128934   3.590   3.208  14.957 -0.8841 -0.0833 -0.6809
 5766SOL    HW228935   3.678   3.266  15.055 -1.4517  2.5502  0.8562
 5767SOL     OW28936   4.701   2.690   6.437  0.2727  0.7712  0.2217
 5767SOL    HW128937   4.705   2.769   6.491 -3.6274  0.7509  0.5236
 5767SOL    HW228938   4.631   2.641   6.480  0.9708 -1.4697 -1.1470
 5768SOL     OW28939   3.054   0.791   7.477 -0.1660 -0.0543 -0.4556
 5768SOL    HW128940   3.105   0.803   7.557 -0.5360  0.0724 -0.2382
 5768SOL    HW228941   3.068   0.700   7.452 -0.6923 -0.3170  0.2177
 5769SOL     OW28942   2.013   0.875   3.711 -0.2066  0.1584 -0.1359
 5769SOL    HW128943   2.041   0.965   3.729  0.4099  0.0395 -0.5147
 5769SOL    HW228944   2.005   0.857   3.805 -0.6776  0.4631 -0.1170
 5770SOL     OW28945   0.832   1.682  14.920  0.6939  0.2505 -0.6150
 5770SOL    HW128946   0.849   1.594  14.955  1.3290  0.7531  0.3508
 5770SOL    HW228947   0.914   1.728  14.935  0.9000 -0.4813  0.5270
 5771SOL     OW28948   0.741   2.448   5.028 -0.3720 -0.6571 -0.1157
 5771SOL    HW128949   0.695   2.532   5.020 -2.0046 -1.3453  2.3172
 5771SOL    HW228950   0.832   2.473   5.041 -0.9814 -0.2129  3.1934
 5772SOL     OW28951   3.166   1.282   4.213  0.2435 -0.1297  0.4196
 5772SOL    HW128952   3.177   1.198   4.169 -2.3678  1.0008 -2.3007
 5772SOL    HW228953   3.250   1.278   4.261 -0.0563 -0.2148  0.9404
 5773SOL     OW28954   0.418   3.287   5.682 -0.2449  0.9046 -0.1433
 5773SOL    HW128955   0.420   3.270   5.588  1.2229  0.7593 -0.0825
 5773SOL    HW228956   0.510   3.311   5.695  0.1043 -0.1215 -0.6736
 5774SOL     OW28957   3.987   3.938   5.921 -0.2217 -0.2359 -0.3295
 5774SOL    HW128958   3.904   3.956   5.964  0.5528  1.7537  0.3677
 5774SOL    HW228959   3.964   3.854   5.882 -1.2334  0.9124 -2.1896
 5775SOL     OW28960   1.307   1.436  13.219 -0.1197  1.0846 -0.2730
 5775SOL    HW128961   1.269   1.400  13.139 -1.4138  1.3898  0.2064
 5775SOL    HW228962   1.378   1.485  13.178 -0.1562  1.5858  0.2696
 5776SOL     OW28963   1.728   3.903   3.560  0.7612  0.2597 -0.2763
 5776SOL    HW128964   1.657   3.848   3.593  2.3257 -1.4614  0.3169
 5776SOL    HW228965   1.718   3.886   3.467 -1.9199  1.3976 -0.1788
 5777SOL     OW28966   4.152   3.110   2.635 -0.1969 -0.5443  0.6844
 5777SOL    HW128967   4.129   3.202   2.650  1.2168 -0.3266  1.5077
 5777SOL    HW228968   4.107   3.090   2.553 -1.0282  1.4973  0.6411
 5778SOL     OW28969   4.400   0.881   2.619  0.1683  0.2073  0.0150
 5778SOL    HW128970   4.306   0.876   2.600  0.2639  1.9766 -0.8625
 5778SOL    HW228971   4.435   0.930   2.545  0.6754 -1.4159 -0.8189
 5779SOL     OW28972   2.587   3.516   7.697  0.4198 -0.2459 -0.3403
 5779SOL    HW128973   2.617   3.588   7.642  0.7312 -0.2698 -0.2054
 5779SOL    HW228974   2.667   3.474   7.730 -0.1340 -1.8717 -1.0706
 5780SOL     OW28975   2.145   3.823   4.746  0.4726  0.0879 -0.0259
 5780SOL    HW128976   2.086   3.777   4.807 -1.9531  1.7862 -1.0996
 5780SOL    HW228977   2.225   3.804   4.795  0.2480  2.0088  1.0677
 5781SOL     OW28978   2.098   1.517  14.304  0.1419 -0.3825  0.4469
 5781SOL    HW128979   2.021   1.507  14.248 -1.0071  2.8092  1.4048
 5781SOL    HW228980   2.060   1.545  14.388  0.2270  0.4010  0.2260
 5782SOL     OW28981   1.893   1.453   4.914  0.2443  0.2489  0.3215
 5782SOL    HW128982   1.952   1.529   4.908  0.1874  0.0545 -2.6176
 5782SOL    HW228983   1.870   1.460   5.007 -0.8409  2.1567 -0.0852
 5783SOL     OW28984   0.567   3.259   4.030 -0.1799  0.0171  0.4193
 5783SOL    HW128985   0.533   3.275   3.941  1.8468 -0.0523 -0.3649
 5783SOL    HW228986   0.490   3.268   4.085 -1.4378  1.2732 -1.5227
 5784SOL     OW28987   1.391   1.861   5.133 -0.1771  0.0934  0.0020
 5784SOL    HW128988   1.379   1.829   5.043  1.4515 -0.6174  0.0316
 5784SOL    HW228989   1.375   1.954   5.118 -0.8096  0.1901  1.3033
 5785SOL     OW28990   0.189   3.881   7.371 -0.6563 -0.0268 -0.1181
 5785SOL    HW128991   0.130   3.953   7.391 -0.8750 -0.7733  1.8214
 5785SOL    HW228992   0.189   3.835   7.455  0.7672  0.8946  0.3873
 5786SOL     OW28993   1.646   0.272   9.781 -0.1298 -0.5638  0.3460
 5786SOL    HW128994   1.592   0.293   9.705  0.1500  2.1475  0.9115
 5786SOL    HW228995   1.690   0.356   9.797 -0.4815 -0.4136  0.5322
 5787SOL     OW28996   1.049   3.532   5.928 -0.5696 -0.1219 -0.2621
 5787SOL    HW128997   1.099   3.612   5.943  1.7155 -2.1347  2.7227
 5787SOL    HW228998   1.062   3.492   6.014  0.1082 -0.1634 -0.3827
 5788SOL     OW28999   2.400   3.780   3.737  0.2713  0.3844 -0.5337
 5788SOL    HW129000   2.332   3.743   3.682 -0.7873 -0.0932  1.1094
 5788SOL    HW229001   2.463   3.807   3.670 -0.2972  1.5995 -0.5803
 5789SOL     OW29002   0.506   2.272   4.272 -0.2899  0.0519 -0.0966
 5789SOL    HW129003   0.594   2.254   4.303 -0.8198 -0.9305  0.8304
 5789SOL    HW229004   0.529   2.327   4.197  0.5324  1.1189  0.9481
 5790SOL     OW29005   2.338   0.014   9.347 -0.2377 -0.1522  0.0569
 5790SOL    HW129006   2.335   0.067   9.267 -1.0317  1.1613  0.9553
 5790SOL    HW229007   2.418   0.053   9.382  0.7607 -0.8465 -1.4719
 5791SOL     OW29008   1.882   0.189   2.860  0.1447  0.1385  0.1566
 5791SOL    HW129009   1.864   0.182   2.954  1.2529  0.9725  0.4298
 5791SOL    HW229010   1.922   0.106   2.837 -2.0286 -0.7680 -0.3138
 5792SOL     OW29011   4.288   3.357   5.542 -0.2316  0.0434 -0.1835
 5792SOL    HW129012   4.274   3.394   5.629  1.6818  1.3833 -0.4436
 5792SOL    HW229013   4.359   3.418   5.523 -1.6733  1.3609 -1.4312
 5793SOL     OW29014   3.404   4.299  17.273  0.0997 -0.1634  0.3194
 5793SOL    HW129015   3.326   4.310  17.219 -0.8894 -0.6262  1.6450
 5793SOL    HW229016   3.418   4.386  17.309 -1.3078  0.8565 -1.6020
 5794SOL     OW29017   2.616   3.770   3.562 -0.2360  0.3444 -0.8903
 5794SOL    HW129018   2.574   3.725   3.488 -1.6540 -2.2411  1.5052
 5794SOL    HW229019   2.687   3.709   3.580 -1.8488 -1.1839  0.2288
 5795SOL     OW29020   4.511   2.000  13.640 -0.1293 -0.4875  0.6512
 5795SOL    HW129021   4.523   1.936  13.569  1.7205 -0.3536  0.8446
 5795SOL    HW229022   4.417   1.994  13.655 -0.1245  0.2021  0.9582
 5796SOL     OW29023   0.538   1.445  11.706  0.2789 -0.6684  0.5517
 5796SOL    HW129024   0.499   1.379  11.650 -2.0511  0.6879  0.5712
 5796SOL    HW229025   0.537   1.524  11.652 -1.9079 -1.2071 -0.1751
 5797SOL     OW29026   0.600   3.632   0.194 -0.0553 -0.2226 -0.2436
 5797SOL    HW129027   0.532   3.584   0.241  1.5321 -2.5184 -0.2953
 5797SOL    HW229028   0.546   3.672   0.125  2.3630 -1.2687 -2.7828
 5798SOL     OW29029   3.640   3.587  16.827  0.8617  0.3358  0.3128
 5798SOL    HW129030   3.550   3.554  16.835  0.6566  0.7170 -0.4909
 5798SOL    HW229031   3.691   3.517  16.787  1.5336  0.5137  0.8670
 5799SOL     OW29032   1.519   3.012   6.040 -0.2948 -0.1527  0.6977
 5799SOL    HW129033   1.564   3.087   6.001 -1.4657  0.6747  0.9340
 5799SOL    HW229034   1.576   2.940   6.014  0.3659  0.4592  0.4710
 5800SOL     OW29035   1.977   3.277   8.627  0.0499  0.8901 -0.8160
 5800SOL    HW129036   2.054   3.300   8.679 -0.7275  0.4536  0.5193
 5800SOL    HW229037   1.910   3.284   8.696  0.5595 -2.8327  0.0809
 5801SOL     OW29038   1.362   3.176   3.564  0.2535 -0.0320  0.4319
 5801SOL    HW129039   1.364   3.105   3.499 -1.8780 -0.7067  1.1117
 5801SOL    HW229040   1.339   3.257   3.519  1.7626  0.7839  1.1359
 5802SOL     OW29041   0.296   0.579  12.466 -0.1141 -0.0746 -0.9867
 5802SOL    HW129042   0.302   0.595  12.560  0.8759  1.4300 -1.3147
 5802SOL    HW229043   0.285   0.485  12.451 -2.1025  0.1259 -0.6938
 5803SOL     OW29044   1.503   4.536   9.033  0.4512 -0.4910  0.7829
 5803SOL    HW129045   1.468   4.548   8.945  2.0419  0.9937  0.3447
 5803SOL    HW229046   1.426   4.562   9.083  1.0760  1.5627  0.7062
 5804SOL     OW29047   0.735   1.358  17.605  0.5922 -0.6374 -0.0244
 5804SOL    HW129048   0.677   1.434  17.605  1.6560  0.1638 -0.7821
 5804SOL    HW229049   0.692   1.300  17.542  0.2152 -1.9116  1.3962
 5805SOL     OW29050   3.966   4.608  11.571 -0.1810  0.0312  0.1736
 5805SOL    HW129051   3.889   4.552  11.573 -0.8425  0.9512  0.7366
 5805SOL    HW229052   4.013   4.578  11.649 -3.0267  1.6936  2.5575
 5806SOL     OW29053   0.789   0.333   7.245  0.4094  0.2355  0.4455
 5806SOL    HW129054   0.858   0.320   7.310 -0.2353 -0.5829  0.9623
 5806SOL    HW229055   0.830   0.283   7.174  1.0661  4.2723 -1.9913
 5807SOL     OW29056   2.347   2.919   5.400  0.5561 -0.1719 -0.2020
 5807SOL    HW129057   2.310   2.984   5.339 -1.7511 -1.5282 -0.2736
 5807SOL    HW229058   2.285   2.923   5.473 -0.4407  0.8487 -1.0750
 5808SOL     OW29059   2.539   4.560   4.923  0.1860  0.2263 -0.3656
 5808SOL    HW129060   2.464   4.505   4.903  1.2881 -1.5948  0.5292
 5808SOL    HW229061   2.545   4.609   4.841  1.0198 -0.2948 -0.6141
 5809SOL     OW29062   2.278   4.567   1.357  0.1943  0.3228 -0.1801
 5809SOL    HW129063   2.242   4.633   1.297 -1.0925 -0.2896 -0.0840
 5809SOL    HW229064   2.200   4.541   1.406  0.3906 -0.1916 -0.1490
 5810SOL     OW29065   2.777   2.848   8.901 -0.1114  0.0597 -0.3764
 5810SOL    HW129066   2.786   2.812   8.813 -1.5078  0.4379 -0.6717
 5810SOL    HW229067   2.768   2.775   8.962 -0.4772  0.0616 -0.4286
 5811SOL     OW29068   2.163   2.315  14.152  0.6218  0.3490 -0.1564
 5811SOL    HW129069   2.116   2.397  14.139 -0.4838  0.1992  2.8078
 5811SOL    HW229070   2.105   2.244  14.123  1.3938  0.4256 -1.8714
 5812SOL     OW29071   0.850   1.169   6.234  0.4924  0.0266 -0.1210
 5812SOL    HW129072   0.837   1.116   6.156 -1.2489  1.3485 -0.7096
 5812SOL    HW229073   0.935   1.210   6.220 -0.9242  2.2056 -2.2848
 5813SOL     OW29074   4.177   1.171   4.664 -0.0125  0.2262  0.6960
 5813SOL    HW129075   4.198   1.226   4.739 -0.6014 -1.5241  2.1449
 5813SOL    HW229076   4.084   1.177   4.684 -0.0658 -0.7441  0.7528
 5814SOL     OW29077   1.820   1.604   4.444 -0.1361 -0.1032  0.1281
 5814SOL    HW129078   1.899   1.550   4.434 -0.6299 -0.7186 -0.5244
 5814SOL    HW229079   1.766   1.535   4.483  0.0858 -0.3996 -0.0837
 5815SOL     OW29080   4.353   1.763   7.659 -0.3019 -0.5033 -0.5106
 5815SOL    HW129081   4.325   1.766   7.750 -1.8528  0.2060 -1.0121
 5815SOL    HW229082   4.283   1.703   7.631 -0.7377  0.2269 -0.9884
 5816SOL     OW29083   1.267   2.876  10.904 -0.2962  0.3168 -0.3465
 5816SOL    HW129084   1.307   2.824  10.835  0.5595  1.7486 -0.9416
 5816SOL    HW229085   1.338   2.934  10.931 -2.3837  3.0032 -0.5579
 5817SOL     OW29086   0.144   3.272  11.610 -0.1993 -0.0065 -0.0897
 5817SOL    HW129087   0.214   3.242  11.553  0.0235  1.2784 -0.4984
 5817SOL    HW229088   0.112   3.347  11.561 -0.9168  1.1660  2.1564
 5818SOL     OW29089   0.366   4.264  16.460  0.4525 -0.2266 -0.0303
 5818SOL    HW129090   0.461   4.275  16.447  0.3536 -1.5271 -1.8121
 5818SOL    HW229091   0.317   4.249  16.379 -1.2545  1.9302  0.6328
 5819SOL     OW29092   3.772   2.686  15.269  0.1623  0.5151 -0.4488
 5819SOL    HW129093   3.859   2.725  15.260  0.1122  0.3859 -1.5749
 5819SOL    HW229094   3.729   2.715  15.188  0.1773  0.0402 -0.6244
 5820SOL     OW29095   0.603   1.805   4.898 -0.3957 -0.2843 -0.0946
 5820SOL    HW129096   0.656   1.726   4.892 -1.2510 -0.8134 -0.6120
 5820SOL    HW229097   0.615   1.819   4.992  2.0064 -0.3776 -0.3954
 5821SOL     OW29098   1.886   1.456   1.675 -0.1085  0.3338  0.1122
 5821SOL    HW129099   1.966   1.473   1.626 -0.1584 -0.7396 -0.3449
 5821SOL    HW229100   1.917   1.502   1.753  0.8595 -2.5389  1.4270
 5822SOL     OW29101   3.591   0.869   4.734 -0.1325 -0.0964 -0.0387
 5822SOL    HW129102   3.527   0.912   4.677  0.0225 -0.8819 -0.8006
 5822SOL    HW229103   3.546   0.840   4.812  0.1949 -0.8830 -0.1428
 5823SOL     OW29104   4.380   1.627   2.176 -0.3824  0.2307  1.0640
 5823SOL    HW129105   4.326   1.654   2.102  0.3507  0.3637  0.5840
 5823SOL    HW229106   4.336   1.667   2.251 -1.1601  3.3523 -1.0416
 5824SOL     OW29107   0.195   4.577   6.523  0.4952 -0.3974 -0.0266
 5824SOL    HW129108   0.276   4.606   6.566  1.4780 -1.5842 -1.0605
 5824SOL    HW229109   0.199   4.483   6.541  1.1753 -0.1883  0.9212
 5825SOL     OW29110   1.302   3.825   6.907 -0.7584 -0.4417  0.1602
 5825SOL    HW129111   1.391   3.858   6.920 -1.1833  0.3026  1.0962
 5825SOL    HW229112   1.270   3.912   6.886 -2.7834 -1.2717 -0.2054
 5826SOL     OW29113   1.944   0.256   5.967  0.2785  0.4051 -0.0417
 5826SOL    HW129114   1.951   0.215   6.053  0.3205 -0.0981 -0.2842
 5826SOL    HW229115   1.940   0.347   5.994 -1.5291  0.3891 -0.2893
 5827SOL     OW29116   0.148   1.410   9.318  0.1569 -0.1395  0.2656
 5827SOL    HW129117   0.171   1.372   9.233 -1.3679  1.3747 -0.8224
 5827SOL    HW229118   0.238   1.439   9.336 -0.4343  2.4329 -0.8776
 5828SOL     OW29119   0.553   3.058  12.630  0.1461 -0.1620  0.4605
 5828SOL    HW129120   0.603   3.131  12.594 -1.9641  2.0372  2.0583
 5828SOL    HW229121   0.470   3.103  12.649 -0.0246  0.0882 -0.8937
 5829SOL     OW29122   3.839   1.342   5.241  0.3895  0.2728 -0.2859
 5829SOL    HW129123   3.932   1.318   5.233  0.2529  0.2304 -1.6449
 5829SOL    HW229124   3.847   1.435   5.223 -0.3539  0.4873  0.4745
 5830SOL     OW29125   3.816   4.162  13.409 -0.2460  0.4411 -0.0032
 5830SOL    HW129126   3.780   4.135  13.493 -0.0229 -0.4821 -0.1999
 5830SOL    HW229127   3.811   4.258  13.412  0.5514  0.5881 -2.5834
 5831SOL     OW29128   4.040   2.803   9.581 -1.2466  0.3128  0.1741
 5831SOL    HW129129   3.979   2.730   9.596  0.2768 -0.9126  0.3424
 5831SOL    HW229130   4.046   2.847   9.666  0.6692  0.8553 -0.2485
 5832SOL     OW29131   3.549   1.760   7.178  0.4168 -0.4300  1.1734
 5832SOL    HW129132   3.615   1.692   7.192  2.8254  1.0852 -2.8051
 5832SOL    HW229133   3.599   1.833   7.215  0.6283  0.8611 -1.6940
 5833SOL     OW29134   3.981   0.611  11.287  0.2008 -0.3145 -0.1639
 5833SOL    HW129135   4.027   0.546  11.234  0.0254 -0.9034  0.4000
 5833SOL    HW229136   3.953   0.661  11.211 -1.5859 -2.8196 -1.1342
 5834SOL     OW29137   2.010   0.839  11.435  0.0430  0.3157  0.4944
 5834SOL    HW129138   2.088   0.836  11.491 -1.0682 -0.8900  1.9741
 5834SOL    HW229139   1.945   0.829  11.505  1.5692 -0.8406  1.7746
 5835SOL     OW29140   3.252   1.323   7.063 -0.2649 -0.3821  0.7936
 5835SOL    HW129141   3.178   1.377   7.091 -0.6921 -0.0973 -0.9251
 5835SOL    HW229142   3.233   1.313   6.970 -1.3900 -1.8577  1.1857
 5836SOL     OW29143   2.338   2.633   9.738 -0.0991 -0.4095  0.4218
 5836SOL    HW129144   2.304   2.564   9.795 -0.8132  0.3524  0.8936
 5836SOL    HW229145   2.424   2.643   9.780  0.0321  0.4314 -0.0488
 5837SOL     OW29146   1.730   4.628   7.890  0.1562 -0.3435 -0.6101
 5837SOL    HW129147   1.709   4.592   7.976 -2.9758  1.1463 -0.7699
 5837SOL    HW229148   1.643   4.636   7.853 -0.0419  0.1466 -0.0417
 5838SOL     OW29149   0.530   2.821   3.584 -0.2891  0.4267  0.0418
 5838SOL    HW129150   0.508   2.791   3.496 -1.0611  1.6509 -0.1803
 5838SOL    HW229151   0.507   2.912   3.571 -2.4112  0.0829  1.3790
 5839SOL     OW29152   1.204   3.509   5.149 -0.0361 -0.1070 -0.1055
 5839SOL    HW129153   1.259   3.484   5.075  1.5763  1.4655  0.5437
 5839SOL    HW229154   1.122   3.470   5.120  0.4162  0.8618 -2.6905
 5840SOL     OW29155   2.463   1.393  12.418 -0.7740 -0.4284 -0.1610
 5840SOL    HW129156   2.460   1.404  12.513 -0.1140 -0.0096 -0.1853
 5840SOL    HW229157   2.480   1.299  12.411 -0.4323 -0.3812  0.0403
 5841SOL     OW29158   2.391   4.675  13.157  0.2214  0.5091 -0.3638
 5841SOL    HW129159   2.363   0.019  13.129  1.0970  0.6045 -0.9531
 5841SOL    HW229160   2.304   4.635  13.162  0.8890 -0.8822 -0.0333
 5842SOL     OW29161   1.738   0.733   0.174  0.0970  0.1953 -0.3106
 5842SOL    HW129162   1.739   0.652   0.122  2.6458  1.1048 -1.6624
 5842SOL    HW229163   1.810   0.708   0.232 -1.7456  2.1693  2.8384
 5843SOL     OW29164   3.866   4.426   3.009 -0.3911  0.5093 -0.7193
 5843SOL    HW129165   3.939   4.487   3.022 -0.6488  0.6404  0.1318
 5843SOL    HW229166   3.813   4.421   3.088 -1.5478  1.2799 -1.4414
 5844SOL     OW29167   0.223   0.517  15.586 -0.2739  0.0284  0.2189
 5844SOL    HW129168   0.226   0.449  15.518 -1.8137  1.3568 -1.1506
 5844SOL    HW229169   0.162   0.478  15.648  2.6129 -0.0597  3.0360
 5845SOL     OW29170   3.770   0.664   1.139 -0.2245 -0.1816  0.3352
 5845SOL    HW129171   3.861   0.647   1.161  0.1742 -0.6714 -1.6870
 5845SOL    HW229172   3.734   0.592   1.192  0.5413 -1.8703 -1.4116
 5846SOL     OW29173   2.547   1.393   4.323  0.2144  0.1559  0.1671
 5846SOL    HW129174   2.481   1.378   4.391 -2.9274 -0.7527 -3.0709
 5846SOL    HW229175   2.525   1.339   4.247 -4.1451 -0.4279  1.8655
 5847SOL     OW29176   1.058   2.737   9.385 -0.5054  0.4516  0.3890
 5847SOL    HW129177   1.034   2.816   9.337 -2.1376 -0.3113 -0.0763
 5847SOL    HW229178   1.145   2.762   9.414 -0.5319  1.9760 -0.8513
 5848SOL     OW29179   2.711   3.103   5.803 -0.0062 -0.0862 -0.4231
 5848SOL    HW129180   2.704   3.111   5.898 -0.1222 -0.4416 -0.4028
 5848SOL    HW229181   2.626   3.062   5.785  0.0533 -1.0664  1.5786
 5849SOL     OW29182   3.733   0.613  10.523 -0.5835  0.0809 -0.6027
 5849SOL    HW129183   3.762   0.704  10.522 -0.9494  0.1702 -2.3929
 5849SOL    HW229184   3.816   0.565  10.520 -0.5128  0.1994 -0.5403
 5850SOL     OW29185   1.441   2.839  10.499 -0.0175  0.0989  0.2450
 5850SOL    HW129186   1.357   2.811  10.536 -1.5217  2.5274 -1.3531
 5850SOL    HW229187   1.502   2.861  10.570  2.2482  0.6324 -1.8539
 5851SOL     OW29188   2.973   3.049   8.934 -0.8853 -0.3215 -0.1465
 5851SOL    HW129189   2.920   3.119   8.897  0.0832 -0.1239 -1.1617
 5851SOL    HW229190   2.901   2.987   8.948 -1.3454  0.1131 -0.6089
 5852SOL     OW29191   3.571   3.100   5.547 -0.7330 -0.7932  0.1763
 5852SOL    HW129192   3.522   3.021   5.567 -0.2198 -0.5941  2.2533
 5852SOL    HW229193   3.637   3.062   5.490  0.1385  0.2917  0.4546
 5853SOL     OW29194   1.815   0.154   5.515 -0.2142  0.3203  0.5199
 5853SOL    HW129195   1.740   0.100   5.489 -0.7355  0.7926  1.0430
 5853SOL    HW229196   1.873   0.089   5.554  1.1290  0.7057 -0.8409
 5854SOL     OW29197   1.578   4.087  13.007  0.4727 -0.2603  0.0344
 5854SOL    HW129198   1.656   4.126  13.048  2.1178 -2.5009 -0.9684
 5854SOL    HW229199   1.569   4.014  13.068  0.9269  0.3913  0.9009
 5855SOL     OW29200   3.990   1.455   2.590 -0.5814 -0.1724 -0.2496
 5855SOL    HW129201   4.013   1.414   2.673  2.4218  1.1486 -0.4238
 5855SOL    HW229202   3.897   1.471   2.606 -0.1923  0.6366  1.2385
 5856SOL     OW29203   0.407   3.720   3.974  0.0490  0.2167  0.6894
 5856SOL    HW129204   0.345   3.654   4.004 -0.1818  0.3431  0.4889
 5856SOL    HW229205   0.359   3.795   4.010  2.3637  1.9110  0.3061
 5857SOL     OW29206   4.567   2.660   5.696 -0.1408  0.2218  0.0190
 5857SOL    HW129207   4.588   2.670   5.789  1.4398 -1.3757 -0.1578
 5857SOL    HW229208   4.652   2.630   5.665  1.9806  3.9130  2.2831
 5858SOL     OW29209   3.141   0.933  14.805  0.0254  0.0600  0.1126
 5858SOL    HW129210   3.219   0.930  14.749  0.9068  0.5847  1.2930
 5858SOL    HW229211   3.179   0.986  14.875 -0.9900 -0.5414  1.1171
 5859SOL     OW29212   0.571   0.377   7.582  0.4795  0.5977 -0.0001
 5859SOL    HW129213   0.664   0.359   7.573  0.5094  0.7577 -0.0089
 5859SOL    HW229214   0.567   0.399   7.675  0.3376  0.0805  0.1188
 5860SOL     OW29215   0.890   2.057  11.366  0.0827 -0.3868 -0.3791
 5860SOL    HW129216   0.877   2.113  11.289  0.1419 -1.5878 -1.2628
 5860SOL    HW229217   0.901   2.123  11.434  1.3824 -1.3710  0.3697
 5861SOL     OW29218   1.746   3.324  12.691 -0.7442  0.1255  0.2307
 5861SOL    HW129219   1.688   3.303  12.618  2.1367 -0.8761 -1.7736
 5861SOL    HW229220   1.718   3.413  12.710  0.9540  0.4595  1.0941
 5862SOL     OW29221   1.262   4.716   5.327 -0.5493 -0.3684  0.7441
 5862SOL    HW129222   1.196   4.648   5.319  0.4471 -0.9797 -2.1200
 5862SOL    HW229223   1.227   0.026   5.398 -0.3028  1.4188 -0.4856
 5863SOL     OW29224   3.076   0.828   4.254  0.7297  0.5516  0.1189
 5863SOL    HW129225   3.120   0.765   4.197  1.0470  1.3807 -0.5413
 5863SOL    HW229226   2.985   0.801   4.246  0.8806  0.2245 -0.4812
 5864SOL     OW29227   3.299   2.589   8.019 -0.1155 -0.3785  0.2320
 5864SOL    HW129228   3.342   2.587   7.934  0.8646 -1.8083  0.7466
 5864SOL    HW229229   3.353   2.656   8.061 -0.9295  0.0525  0.5904
 5865SOL     OW29230   2.533   0.414   7.882  0.7126 -0.0057 -0.4402
 5865SOL    HW129231   2.559   0.463   7.961  0.3549  2.5483 -1.9006
 5865SOL    HW229232   2.453   0.458   7.853 -0.6348 -2.1510  0.0720
 5866SOL     OW29233   4.086   2.566   1.929  0.1527 -0.3555  0.2029
 5866SOL    HW129234   4.117   2.479   1.905 -2.2313 -1.2730  0.3967
 5866SOL    HW229235   3.991   2.572   1.915  0.4341 -3.2208 -2.8633
 5867SOL     OW29236   3.484   0.848   2.678  0.0079  0.5702  0.0330
 5867SOL    HW129237   3.511   0.756   2.679  0.4947  0.6737 -2.1758
 5867SOL    HW229238   3.564   0.894   2.651  0.1981 -0.5076 -1.2057
 5868SOL     OW29239   1.664   2.006  11.526 -0.0766  0.2210  0.6429
 5868SOL    HW129240   1.714   1.937  11.483 -1.1059  1.4202 -2.4754
 5868SOL    HW229241   1.587   2.006  11.470  0.5411  2.6911 -0.1885
 5869SOL     OW29242   2.289   2.773   3.922  0.4180 -0.1888 -0.0343
 5869SOL    HW129243   2.295   2.730   3.837 -1.7119 -0.6982  0.0730
 5869SOL    HW229244   2.378   2.806   3.935  1.5066 -3.1833  0.0054
 5870SOL     OW29245   4.293   2.186  17.512 -0.7807  0.3017 -0.0447
 5870SOL    HW129246   4.239   2.234  17.449 -3.5469 -1.4352  1.0064
 5870SOL    HW229247   4.318   2.261  17.566 -1.1363 -1.0500  2.0066
 5871SOL     OW29248   3.822   1.279   2.938  0.0086  0.8760  0.3143
 5871SOL    HW129249   3.752   1.237   2.887  0.1822 -1.4536  1.9946
 5871SOL    HW229250   3.896   1.231   2.902 -1.2476 -0.1006 -0.9758
 5872SOL     OW29251   3.165   2.910   0.386 -0.3430  0.3905  0.1838
 5872SOL    HW129252   3.124   2.824   0.382  0.5548  0.0392 -1.4675
 5872SOL    HW229253   3.245   2.909   0.333 -0.8056  0.3515 -0.5239
 5873SOL     OW29254   2.457   4.195   7.142 -0.4708 -0.0172  0.1109
 5873SOL    HW129255   2.428   4.112   7.104 -1.0119  0.2105  0.0285
 5873SOL    HW229256   2.397   4.192   7.218  0.3115  0.9435  0.7676
 5874SOL     OW29257   3.432   2.036   4.709 -0.7298  0.2498 -0.0328
 5874SOL    HW129258   3.477   2.115   4.681  1.2321 -0.6209  0.6533
 5874SOL    HW229259   3.402   2.056   4.798  0.8393 -2.7281  1.1592
 5875SOL     OW29260   1.133   2.007  10.461 -0.5942  0.4814 -0.3498
 5875SOL    HW129261   1.218   1.963  10.459 -0.4041  0.8193  0.4113
 5875SOL    HW229262   1.125   2.022  10.555  2.1964  2.0398 -0.3584
 5876SOL     OW29263   4.637   2.077   9.421  0.1052 -0.9581  0.1432
 5876SOL    HW129264   4.648   2.009   9.354  0.1418 -1.5870  0.7852
 5876SOL    HW229265   4.543   2.072   9.439  0.0467  0.2284  0.1676
 5877SOL     OW29266   1.116   4.382   3.711 -0.3852 -0.4145 -0.3249
 5877SOL    HW129267   1.149   4.324   3.642  1.6157  1.4066 -0.8806
 5877SOL    HW229268   1.173   4.458   3.702 -0.6442 -0.3702 -1.5476
 5878SOL     OW29269   2.984   2.789   4.414  0.2902  0.3312 -0.3354
 5878SOL    HW129270   2.924   2.852   4.453  0.9838 -1.1721  3.1828
 5878SOL    HW229271   3.019   2.850   4.350  1.4305 -0.5370 -0.5461
 5879SOL     OW29272   3.261   3.050   5.414 -0.5069  0.3548 -0.6767
 5879SOL    HW129273   3.192   2.993   5.381  1.2071 -1.4304 -1.1589
 5879SOL    HW229274   3.322   2.992   5.460  0.7096  2.8914  0.8834
 5880SOL     OW29275   2.326   1.705  14.310 -0.1343  0.3045  0.0901
 5880SOL    HW129276   2.386   1.637  14.280  1.0030  1.0334  0.7069
 5880SOL    HW229277   2.245   1.662  14.282 -0.2697  0.0810  0.8364
 5881SOL     OW29278   3.885   0.375   9.753  0.1171  0.4779  0.4945
 5881SOL    HW129279   3.971   0.394   9.716 -0.3101 -0.3824 -0.9556
 5881SOL    HW229280   3.833   0.402   9.678  0.6521  0.7124  0.2043
 5882SOL     OW29281   3.742   3.427   0.443 -0.2225 -0.0303  0.5128
 5882SOL    HW129282   3.783   3.467   0.366  1.2662 -1.9717  0.2953
 5882SOL    HW229283   3.670   3.383   0.397 -0.2853 -0.6411  1.1955
 5883SOL     OW29284   4.124   0.833   2.550 -0.4553 -0.4883 -0.5400
 5883SOL    HW129285   4.105   0.927   2.543  0.7268 -0.0800  1.7890
 5883SOL    HW229286   4.045   0.805   2.595 -2.0919  2.6544 -1.4023
 5884SOL     OW29287   1.337   2.742   2.163 -0.3956  0.2569  0.1561
 5884SOL    HW129288   1.417   2.780   2.127 -0.8188  0.9297 -0.0736
 5884SOL    HW229289   1.330   2.666   2.105  1.5991 -0.2634  0.5826
 5885SOL     OW29290   4.238   1.493  16.179 -0.6894  0.1145 -0.1154
 5885SOL    HW129291   4.229   1.573  16.231 -0.1019  1.3921 -1.9908
 5885SOL    HW229292   4.158   1.494  16.126 -2.5388 -0.8022  2.6375
 5886SOL     OW29293   0.707   4.449   7.939 -0.0146 -0.4990 -0.4476
 5886SOL    HW129294   0.781   4.403   7.900  0.1556 -0.9474  0.4019
 5886SOL    HW229295   0.661   4.380   7.987  0.2173  0.0347  0.5551
 5887SOL     OW29296   2.090   4.623   9.318  0.4409 -0.2008 -0.3791
 5887SOL    HW129297   2.133   4.547   9.280  0.7398 -1.0490  1.6515
 5887SOL    HW229298   2.168   4.673   9.342  0.9587 -1.3035  0.2473
 5888SOL     OW29299   3.874   3.783   6.981 -0.1864  0.0756  0.0591
 5888SOL    HW129300   3.911   3.737   7.057  0.7048 -0.8195 -0.9180
 5888SOL    HW229301   3.882   3.721   6.908 -2.8335 -0.3957  0.1663
 5889SOL     OW29302   3.205   3.870   6.850  0.0903 -0.3171  0.0535
 5889SOL    HW129303   3.143   3.867   6.778 -0.3697 -2.5677  0.5272
 5889SOL    HW229304   3.213   3.779   6.879  0.2571 -0.4366 -0.3724
 5890SOL     OW29305   0.140   3.240   3.942 -0.7909  0.3230  0.2039
 5890SOL    HW129306   0.130   3.192   4.024 -1.4953 -0.3860 -0.2961
 5890SOL    HW229307   0.063   3.217   3.890 -0.8412 -0.1165  0.4686
 5891SOL     OW29308   1.127   1.248   6.200 -0.2225 -0.2962 -0.4967
 5891SOL    HW129309   1.185   1.322   6.218 -2.5338  1.5481 -0.7911
 5891SOL    HW229310   1.182   1.195   6.142 -0.6038 -1.3843  0.1313
 5892SOL     OW29311   2.314   1.703   3.231  0.4874  0.5516 -0.2493
 5892SOL    HW129312   2.339   1.770   3.167  0.1466 -1.1418 -2.1242
 5892SOL    HW229313   2.364   1.624   3.212  0.5982  0.8270 -1.0657
 5893SOL     OW29314   4.156   1.220   7.106 -0.2963 -0.2885 -0.4494
 5893SOL    HW129315   4.246   1.192   7.121 -0.4573 -0.3631  0.3955
 5893SOL    HW229316   4.172   1.308   7.072 -1.3378  0.5759  1.2571
 5894SOL     OW29317   1.436   0.961   8.030  0.7103 -0.2949  0.0659
 5894SOL    HW129318   1.401   0.939   7.943  0.1699  0.8195 -0.0071
 5894SOL    HW229319   1.527   0.943   8.008  0.4943 -1.5586  0.2358
 5895SOL     OW29320   1.308   0.387   5.234  0.2889  0.3686  0.2104
 5895SOL    HW129321   1.401   0.408   5.233  0.7441 -1.5786  2.3956
 5895SOL    HW229322   1.313   0.297   5.201 -0.3351  0.7547 -0.9494
 5896SOL     OW29323   3.447   4.393   2.127  0.3549 -0.0957 -0.9560
 5896SOL    HW129324   3.522   4.376   2.184 -0.3028 -0.0328 -0.0712
 5896SOL    HW229325   3.469   4.467   2.071 -0.6861  0.1997 -0.9779
 5897SOL     OW29326   2.782   3.163  12.404 -0.5645  0.2532 -0.1343
 5897SOL    HW129327   2.815   3.151  12.315 -0.6074 -2.1016  0.1597
 5897SOL    HW229328   2.716   3.229  12.388 -0.2123  0.6250 -0.0485
 5898SOL     OW29329   0.823   4.538  13.956  0.0597 -0.4171 -0.4207
 5898SOL    HW129330   0.758   4.544  14.025  1.3462 -0.7857  0.8357
 5898SOL    HW229331   0.792   4.462  13.906 -0.5841 -1.1899  1.1724
 5899SOL     OW29332   1.170   2.506   8.014  0.2686 -0.2289  0.0844
 5899SOL    HW129333   1.161   2.431   8.073 -1.8864 -0.8022 -0.9404
 5899SOL    HW229334   1.260   2.533   8.029  0.1951  1.1601 -1.9984
 5900SOL     OW29335   4.039   2.365  10.525 -0.1468 -0.2559  0.7071
 5900SOL    HW129336   4.019   2.318  10.444  0.3791  0.5731  0.1002
 5900SOL    HW229337   3.984   2.318  10.587 -1.4943  2.2290  1.4023
 5901SOL     OW29338   0.721   2.401  13.909 -0.0861 -0.6234  0.5441
 5901SOL    HW129339   0.678   2.428  13.990  0.9305  0.2057  0.8144
 5901SOL    HW229340   0.672   2.325  13.879 -0.7408 -0.3028  0.8208
 5902SOL     OW29341   1.296   2.541   3.866 -0.2841  0.5495 -0.3262
 5902SOL    HW129342   1.326   2.561   3.955  0.9781  3.5320 -1.3923
 5902SOL    HW229343   1.341   2.457   3.856 -1.6313 -0.4315  2.0114
 5903SOL     OW29344   0.989   1.240   6.530 -0.4774 -0.7943  0.3327
 5903SOL    HW129345   1.004   1.222   6.437  1.7675  2.6321  0.0245
 5903SOL    HW229346   1.039   1.170   6.572  0.7064 -2.0924 -3.2020
 5904SOL     OW29347   3.922   4.083   1.937 -0.1033 -0.1720 -0.1648
 5904SOL    HW129348   3.853   4.057   1.998  0.6686  0.6550  1.0647
 5904SOL    HW229349   3.960   3.996   1.925  0.6520  0.1269  0.0485
 5905SOL     OW29350   1.359   2.635   3.025  0.4980 -0.3427  0.2416
 5905SOL    HW129351   1.438   2.634   3.080  0.3747 -2.4403  0.3512
 5905SOL    HW229352   1.303   2.571   3.068  1.3613 -1.8374 -0.8623
 5906SOL     OW29353   3.052   4.392   2.542  0.2683 -0.3667  0.5657
 5906SOL    HW129354   3.123   4.378   2.480  1.1733 -0.6920  1.6800
 5906SOL    HW229355   3.089   4.384   2.630  1.7898 -2.1013 -0.2242
 5907SOL     OW29356   2.032   4.253   4.614 -0.0628 -0.3374  0.0497
 5907SOL    HW129357   2.002   4.263   4.523 -2.7731 -0.9475  0.9014
 5907SOL    HW229358   2.095   4.326   4.616 -1.2509  0.6758  0.4199
 5908SOL     OW29359   4.201   4.608  12.504  0.0813 -0.8185  0.1030
 5908SOL    HW129360   4.116   4.632  12.466  0.2994 -0.4053 -0.1332
 5908SOL    HW229361   4.176   4.594  12.595 -1.8433  2.0110  0.0379
 5909SOL     OW29362   1.954   2.407   0.594  0.1143 -0.3179  0.5050
 5909SOL    HW129363   1.939   2.331   0.538  0.0739  0.8909 -1.1276
 5909SOL    HW229364   2.048   2.422   0.579 -0.1445 -0.3033 -1.1397
 5910SOL     OW29365   3.620   2.955   7.277 -0.8796  0.0891  0.7344
 5910SOL    HW129366   3.650   2.934   7.366 -0.7671 -0.2293  0.6230
 5910SOL    HW229367   3.552   2.892   7.255 -0.6022  0.3599 -0.8893
 5911SOL     OW29368   3.598   1.482   7.083 -0.3649  0.0030 -0.0370
 5911SOL    HW129369   3.571   1.406   7.031  0.8419 -1.0881  0.9307
 5911SOL    HW229370   3.692   1.467   7.079 -0.2946  0.7120 -1.0644
 5912SOL     OW29371   2.208   1.133  13.344  0.0996 -0.2918  1.0629
 5912SOL    HW129372   2.134   1.083  13.311  3.5381 -0.2745 -6.6711
 5912SOL    HW229373   2.160   1.212  13.367  1.3987  1.1561 -1.2101
 5913SOL     OW29374   1.074   2.366   7.592  0.1718 -0.6208 -0.3981
 5913SOL    HW129375   1.151   2.356   7.537  0.6482 -1.2115  0.3933
 5913SOL    HW229376   1.104   2.318   7.669  0.4888  0.2504  0.0198
 5914SOL     OW29377   4.083   2.595   6.191  0.3718  0.6407 -0.2778
 5914SOL    HW129378   4.026   2.669   6.172 -0.9281 -0.7243 -1.7115
 5914SOL    HW229379   4.033   2.526   6.148 -1.7728  0.4863  2.4572
 5915SOL     OW29380   3.438   2.936   6.097 -0.0426 -0.2053 -0.3045
 5915SOL    HW129381   3.488   2.958   6.176  0.6185  2.0049 -1.3411
 5915SOL    HW229382   3.351   2.973   6.114  0.5712  1.2744 -0.4058
 5916SOL     OW29383   0.203   4.069   5.816  0.1491 -0.9866 -0.7277
 5916SOL    HW129384   0.164   4.150   5.782 -2.3784 -1.7315  0.3952
 5916SOL    HW229385   0.153   4.013   5.757 -2.7615 -0.9561  1.7070
 5917SOL     OW29386   0.142   2.565  10.190 -0.0172 -0.1915  0.1047
 5917SOL    HW129387   0.113   2.634  10.130 -0.4610  1.9644  2.7818
 5917SOL    HW229388   0.231   2.548  10.159  0.0612 -1.2021  0.9057
 5918SOL     OW29389   3.522   3.390   7.198 -0.5753 -0.0117 -0.3339
 5918SOL    HW129390   3.433   3.403   7.164 -0.4756 -0.0632 -0.6173
 5918SOL    HW229391   3.524   3.450   7.272  0.2804 -1.5632  0.9135
 5919SOL     OW29392   2.520   3.748   7.082 -0.7245  0.0738  0.4413
 5919SOL    HW129393   2.471   3.732   7.163 -1.0340 -0.3992  0.1595
 5919SOL    HW229394   2.477   3.826   7.046 -0.6382  0.3973  1.0345
 5920SOL     OW29395   3.940   3.115   3.639 -0.1907  0.6543 -0.1935
 5920SOL    HW129396   4.027   3.140   3.669 -0.1518  0.7253 -0.3611
 5920SOL    HW229397   3.968   3.045   3.579  0.5900 -0.6138  1.6713
 5921SOL     OW29398   1.669   2.175   3.704  0.3182  0.2851 -0.4184
 5921SOL    HW129399   1.595   2.156   3.646  3.5182 -1.0795 -3.9843
 5921SOL    HW229400   1.731   2.216   3.645 -1.3701  1.0003 -1.7033
 5922SOL     OW29401   0.512   3.037   7.233 -0.0734  0.0566  0.0068
 5922SOL    HW129402   0.481   2.956   7.192  1.7073 -0.4543 -0.3114
 5922SOL    HW229403   0.604   3.041   7.207 -0.2234 -1.4679 -0.7384
 5923SOL     OW29404   0.751   0.875   1.352 -0.0187  0.8930 -0.0598
 5923SOL    HW129405   0.717   0.932   1.420 -1.2166  0.5679 -0.3929
 5923SOL    HW229406   0.668   0.831   1.337 -0.4233  1.3344  0.9419
 5924SOL     OW29407   2.183   3.018   1.900  0.1537 -0.1973 -0.1765
 5924SOL    HW129408   2.107   3.002   1.844  1.1240 -0.7402 -1.3487
 5924SOL    HW229409   2.137   3.025   1.983  1.3562 -2.1471  0.6650
 5925SOL     OW29410   4.044   1.941  14.046  0.3969 -0.1163  0.0901
 5925SOL    HW129411   4.021   1.871  13.984 -1.1498  0.3417  0.1486
 5925SOL    HW229412   4.050   1.888  14.125 -0.5957 -1.0249 -0.4417
 5926SOL     OW29413   1.766   1.720  16.721 -0.0891 -0.7365  0.3608
 5926SOL    HW129414   1.755   1.716  16.816 -0.8881  1.8902  0.3851
 5926SOL    HW229415   1.718   1.800  16.700 -2.5645 -2.3688 -0.2014
 5927SOL     OW29416   3.256   3.972  11.638 -0.0865 -0.0366 -0.3088
 5927SOL    HW129417   3.178   3.930  11.603 -1.0682  2.4953 -1.1839
 5927SOL    HW229418   3.283   4.016  11.557  0.3739  1.6509  0.7493
 5928SOL     OW29419   2.817   4.046   5.413 -0.4097  0.5112 -0.3337
 5928SOL    HW129420   2.820   3.967   5.467  0.4351  0.6329 -0.1929
 5928SOL    HW229421   2.912   4.050   5.398 -0.4340  2.0027 -0.0986
 5929SOL     OW29422   2.389   0.232   2.095  0.4572  0.1126  0.4319
 5929SOL    HW129423   2.368   0.256   2.004 -1.1443  1.6566  1.2060
 5929SOL    HW229424   2.454   0.163   2.082  0.1966  0.0738 -0.6698
 5930SOL     OW29425   4.629   3.546   7.982 -0.0079  0.0282  0.6523
 5930SOL    HW129426   4.684   3.556   8.060  0.0695  0.7841  0.5032
 5930SOL    HW229427   4.555   3.504   8.025 -0.3148  1.3786  1.4516
 5931SOL     OW29428   3.661   0.344   5.288  0.4435  0.1318 -0.2937
 5931SOL    HW129429   3.609   0.415   5.249  0.8614 -0.0493 -1.1860
 5931SOL    HW229430   3.696   0.391   5.364 -3.0293 -0.9063  1.9371
 5932SOL     OW29431   3.024   3.587   4.656  0.1767  0.0841  0.0292
 5932SOL    HW129432   3.090   3.565   4.590  1.1633  3.0557  0.0622
 5932SOL    HW229433   3.020   3.682   4.651 -0.6256 -0.0080 -1.1070
 5933SOL     OW29434   2.945   0.786   6.377  0.8257  0.4542  0.3359
 5933SOL    HW129435   2.872   0.735   6.342  1.9298 -0.7704 -0.1489
 5933SOL    HW229436   2.957   0.749   6.465  0.5857 -2.0547 -0.6968
 5934SOL     OW29437   1.806   2.725   9.220 -0.0711 -0.6262 -0.4042
 5934SOL    HW129438   1.897   2.744   9.244  0.6052 -1.1403 -2.6503
 5934SOL    HW229439   1.817   2.699   9.129  0.4334  1.2242 -0.8739
 5935SOL     OW29440   3.219   3.658   9.355  0.5760 -1.1526 -0.3231
 5935SOL    HW129441   3.200   3.676   9.447  0.3700 -2.2847 -0.1463
 5935SOL    HW229442   3.307   3.696   9.343 -0.6752  1.6988 -0.5378
 5936SOL     OW29443   2.553   0.119   2.674  0.3147 -0.0719 -0.1780
 5936SOL    HW129444   2.613   0.055   2.633 -0.9076 -1.4000  0.1188
 5936SOL    HW229445   2.618   0.169   2.723  0.6397 -1.9706  1.3123
 5937SOL     OW29446   2.426   3.091  12.963  0.0981  0.3471 -0.4374
 5937SOL    HW129447   2.374   3.128  12.891  0.0976 -3.1162 -2.2076
 5937SOL    HW229448   2.457   3.172  13.003  0.1572 -0.9300  2.0881
 5938SOL     OW29449   3.075   0.670  17.423 -0.2844  0.1505 -0.4686
 5938SOL    HW129450   3.079   0.742  17.360 -0.2347  1.0950  0.6069
 5938SOL    HW229451   2.981   0.652  17.432 -0.2268  0.1921  0.2110
 5939SOL     OW29452   2.653   0.944   8.499 -0.7013 -0.2476 -0.4286
 5939SOL    HW129453   2.724   1.000   8.531  0.4623 -1.8068 -0.3217
 5939SOL    HW229454   2.659   0.874   8.564  1.0078  1.1263  0.8945
 5940SOL     OW29455   1.710   4.571  16.733  0.1597 -0.0420 -0.0997
 5940SOL    HW129456   1.681   4.490  16.691 -1.6112  0.1179  0.8282
 5940SOL    HW229457   1.789   4.582  16.679  0.2507  1.6288  0.3744
 5941SOL     OW29458   3.406   3.716   4.368 -0.5040  0.0437  0.1908
 5941SOL    HW129459   3.387   3.809   4.378 -1.1338 -0.1208  0.5368
 5941SOL    HW229460   3.344   3.687   4.302 -0.1366  0.2472 -0.2435
 5942SOL     OW29461   0.072   2.801  10.310 -0.9896 -0.9027 -0.0223
 5942SOL    HW129462   0.017   2.815  10.387  1.3558 -1.8190  1.8193
 5942SOL    HW229463   0.088   2.707  10.313  0.1786 -0.7224 -0.7552
 5943SOL     OW29464   4.326   0.628  13.204  0.0863 -0.5532  0.3199
 5943SOL    HW129465   4.294   0.576  13.130  2.6941 -3.2042  1.0946
 5943SOL    HW229466   4.263   0.701  13.207 -0.5842 -1.0586 -1.3112
 5944SOL     OW29467   4.083   2.805   3.231 -0.2364 -0.4750 -0.5352
 5944SOL    HW129468   4.145   2.738   3.201 -0.1286  0.1823 -1.7561
 5944SOL    HW229469   4.098   2.871   3.163 -0.8086  1.3331  1.1031
 5945SOL     OW29470   3.432   0.955  12.665  0.2212 -0.0670 -0.5101
 5945SOL    HW129471   3.381   1.006  12.728  0.1439 -0.3333 -0.3605
 5945SOL    HW229472   3.361   0.924  12.608 -2.4627  2.1944  1.5817
 5946SOL     OW29473   3.662   4.528   0.966 -0.3541  0.5206  0.1205
 5946SOL    HW129474   3.664   4.582   1.046  1.8116 -0.6662  0.8437
 5946SOL    HW229475   3.591   4.574   0.921  0.2637  1.1104 -0.2414
 5947SOL     OW29476   1.278   3.128   1.435 -0.2968 -0.1584  0.1960
 5947SOL    HW129477   1.313   3.051   1.390  0.7216 -0.4593  1.4917
 5947SOL    HW229478   1.237   3.083   1.509 -0.8233 -1.1426 -0.7046
 5948SOL     OW29479   3.352   2.233   0.030  0.6007  0.1181 -0.6099
 5948SOL    HW129480   3.336   2.168  17.730  1.9540  0.8124 -1.5639
 5948SOL    HW229481   3.264   2.262   0.055 -0.1002 -1.3169 -1.3520
 5949SOL     OW29482   2.191   1.274   7.949  0.4593 -0.1369  0.1998
 5949SOL    HW129483   2.196   1.358   7.903 -1.7954  0.7613  1.5657
 5949SOL    HW229484   2.282   1.245   7.947  0.5543  0.1755 -0.0185
 5950SOL     OW29485   1.167   2.461  15.579  0.2659 -0.0255  0.1234
 5950SOL    HW129486   1.211   2.384  15.613 -0.4431  0.4978  2.2327
 5950SOL    HW229487   1.237   2.526  15.588 -0.2072  0.4688  0.2954
 5951SOL     OW29488   4.084   4.541   6.602 -0.0340 -1.2820 -0.0920
 5951SOL    HW129489   4.172   4.555   6.638 -0.5998  0.5143  0.6062
 5951SOL    HW229490   4.034   4.501   6.672 -1.0746  2.1025  1.1096
 5952SOL     OW29491   3.045   3.499  17.464  0.1050 -0.6989  0.3010
 5952SOL    HW129492   3.018   3.439  17.533 -0.2383  0.8372  1.5153
 5952SOL    HW229493   3.018   3.448  17.388  3.2765 -1.7552 -0.1444
 5953SOL     OW29494   1.924   3.359  13.613 -0.1516  0.2625  0.2891
 5953SOL    HW129495   1.915   3.277  13.563  0.3935  0.8889 -0.8317
 5953SOL    HW229496   1.902   3.328  13.701 -2.6624  0.4948 -0.2798
 5954SOL     OW29497   3.308   3.891  16.555  0.5449  0.6811 -0.1342
 5954SOL    HW129498   3.383   3.843  16.589  0.2692  0.0308 -0.4482
 5954SOL    HW229499   3.311   3.877  16.461  1.2593 -2.6778  0.3948
 5955SOL     OW29500   1.343   4.278   0.296 -0.4524 -0.2082 -0.8434
 5955SOL    HW129501   1.384   4.355   0.258 -3.3476  2.1502  0.8568
 5955SOL    HW229502   1.342   4.283   0.392  2.0559  0.0625 -0.8287
 5956SOL     OW29503   4.684   0.965   8.002  0.1352  0.0207  0.0326
 5956SOL    HW129504   4.737   0.909   7.945  0.9954  0.5573  0.3112
 5956SOL    HW229505   4.620   1.010   7.946  2.0054  1.6646 -0.7733
 5957SOL     OW29506   2.813   3.622   5.843  0.0390 -0.5536 -0.2673
 5957SOL    HW129507   2.822   3.682   5.916 -3.8432 -1.3519  0.8618
 5957SOL    HW229508   2.819   3.676   5.764 -1.4262  1.1589  0.7840
 5958SOL     OW29509   3.178   2.601   8.516 -0.6708  0.5118  0.3256
 5958SOL    HW129510   3.239   2.641   8.453  1.5316 -3.8480 -0.2894
 5958SOL    HW229511   3.240   2.546   8.563 -1.3364  1.1537  1.9542
 5959SOL     OW29512   2.626   1.853   8.132  0.5291  0.5154 -0.0268
 5959SOL    HW129513   2.629   1.759   8.154 -1.7192  1.2706  3.4325
 5959SOL    HW229514   2.704   1.881   8.180  0.7396  1.3468 -0.8373
 5960SOL     OW29515   4.674   2.815   2.155 -0.0948 -0.4502 -0.4942
 5960SOL    HW129516   0.014   2.777   2.182  0.1940 -1.3895 -2.6963
 5960SOL    HW229517   4.619   2.740   2.179  1.5809 -1.5505 -0.1549
 5961SOL     OW29518   2.074   2.952  12.629 -0.1179  0.3141  0.3479
 5961SOL    HW129519   2.118   2.923  12.549  2.0540 -1.9521  2.3311
 5961SOL    HW229520   1.999   2.982  12.578 -0.4107  1.1300  1.2669
 5962SOL     OW29521   3.965   3.256   5.084  0.5065  0.2308  0.4489
 5962SOL    HW129522   3.925   3.338   5.112 -1.1862 -0.1614 -0.8342
 5962SOL    HW229523   3.922   3.200   5.150 -0.8356  2.0689  1.1508
 5963SOL     OW29524   1.679   3.790   4.867 -0.0266 -0.1603 -0.1927
 5963SOL    HW129525   1.598   3.752   4.900  1.6892 -3.3169  0.3593
 5963SOL    HW229526   1.680   3.884   4.886 -1.7475 -0.4704  1.4033
 5964SOL     OW29527   2.870   4.191  17.251 -0.8278  0.1713 -0.2593
 5964SOL    HW129528   2.876   4.248  17.174  2.6512 -2.4190 -1.8641
 5964SOL    HW229529   2.778   4.207  17.273 -1.1443 -1.8661 -0.1436
 5965SOL     OW29530   3.272   4.585   8.448 -0.0597 -0.0903 -0.2075
 5965SOL    HW129531   3.210   4.638   8.398  0.2117  0.2270 -0.2081
 5965SOL    HW229532   3.328   4.652   8.486 -0.6683  0.6965 -0.6990
 5966SOL     OW29533   0.948   3.699  13.107  0.2226  0.3113 -0.3551
 5966SOL    HW129534   0.888   3.625  13.111  0.5024  0.3475  3.7797
 5966SOL    HW229535   1.014   3.657  13.051 -1.6972 -0.1783 -2.2479
 5967SOL     OW29536   4.177   1.319  13.203  0.5249  0.5197  0.0915
 5967SOL    HW129537   4.243   1.388  13.204  0.3789  0.6595  0.0460
 5967SOL    HW229538   4.210   1.274  13.125  0.8077  1.4953 -0.3485
 5968SOL     OW29539   1.417   1.999   7.412 -0.2740 -0.3103 -0.3333
 5968SOL    HW129540   1.472   2.070   7.379 -0.0698 -1.6745 -2.9036
 5968SOL    HW229541   1.461   1.931   7.362  2.4876 -0.4569  2.3251
 5969SOL     OW29542   0.304   3.631   8.989 -0.2143  0.6218 -0.3516
 5969SOL    HW129543   0.376   3.688   8.962 -0.6811  1.1023 -0.5842
 5969SOL    HW229544   0.248   3.686   9.045  0.8515  1.5456 -0.2028
 5970SOL     OW29545   1.367   1.476   6.660  0.4079 -0.0107 -0.2024
 5970SOL    HW129546   1.425   1.467   6.736 -1.6146  0.2343  1.3751
 5970SOL    HW229547   1.336   1.565   6.676 -0.5659 -0.3363 -0.2550
 5971SOL     OW29548   3.002   2.911  10.089 -0.7400 -0.1194 -0.8138
 5971SOL    HW129549   2.971   2.989  10.136 -1.4304 -1.6284  1.2533
 5971SOL    HW229550   2.930   2.886  10.032 -1.3218 -2.5286  0.9516
 5972SOL     OW29551   2.154   3.729   4.335 -0.2723 -0.3079  0.9370
 5972SOL    HW129552   2.108   3.806   4.304  1.1502 -0.4362 -1.4494
 5972SOL    HW229553   2.138   3.666   4.265  3.2067 -1.4889  1.1991
 5973SOL     OW29554   3.645   1.971  12.920  0.8420 -0.2860  0.2714
 5973SOL    HW129555   3.622   2.008  12.835 -0.7952 -0.1718  0.7726
 5973SOL    HW229556   3.694   1.893  12.893  0.9514 -0.3651  0.6901
 5974SOL     OW29557   1.527   1.849   7.868  0.0509 -0.4632  0.1307
 5974SOL    HW129558   1.446   1.815   7.830 -1.7251  0.2778  3.1876
 5974SOL    HW229559   1.556   1.787   7.935  0.1970  0.6758  1.1218
 5975SOL     OW29560   3.918   2.078  15.540 -0.4343 -0.0535 -0.2193
 5975SOL    HW129561   3.970   2.137  15.594  1.4933 -2.0472  0.1107
 5975SOL    HW229562   3.842   2.068  15.598 -1.8472 -1.3353 -2.2802
 5976SOL     OW29563   0.123   3.780   3.486 -0.1439  0.4006  0.3638
 5976SOL    HW129564   0.125   3.737   3.400  0.3893 -0.3193  0.7446
 5976SOL    HW229565   0.191   3.729   3.529 -1.6821 -1.8788  0.0517
 5977SOL     OW29566   2.093   1.238  12.597  0.7529 -0.1395 -0.0489
 5977SOL    HW129567   2.130   1.173  12.656 -1.6143 -0.5208  0.9976
 5977SOL    HW229568   2.015   1.270  12.643  1.4818  2.1383 -0.3497
 5978SOL     OW29569   1.398   4.319   2.714  0.6187  0.1225  0.3435
 5978SOL    HW129570   1.458   4.286   2.781 -0.2781 -0.3645  0.9136
 5978SOL    HW229571   1.407   4.413   2.728 -2.3669  0.3693  0.5300
 5979SOL     OW29572   3.978   0.254  10.994 -0.0837  0.3950  0.4903
 5979SOL    HW129573   3.950   0.166  10.970  2.9460 -0.5699  0.4359
 5979SOL    HW229574   3.907   0.277  11.053  0.4104 -1.7002  1.9076
 5980SOL     OW29575   1.365   4.579   2.811 -0.3886  0.7180 -0.1420
 5980SOL    HW129576   1.285   4.601   2.765 -1.4398  0.7121  1.6852
 5980SOL    HW229577   1.334   4.588   2.901  0.0854  1.1851 -0.0271
 5981SOL     OW29578   2.534   1.555  16.201 -0.3061  0.5424  0.4316
 5981SOL    HW129579   2.490   1.573  16.284  0.0714  0.3226  0.6813
 5981SOL    HW229580   2.474   1.609  16.149  0.1355  0.5896 -0.0358
 5982SOL     OW29581   1.800   3.256   4.604  0.0303 -0.5946  0.3127
 5982SOL    HW129582   1.881   3.214   4.576 -0.4015 -2.2940  1.5998
 5982SOL    HW229583   1.729   3.192   4.598  1.2938 -1.9166 -0.3037
 5983SOL     OW29584   3.042   3.417   1.693  0.0268  0.3743  0.2326
 5983SOL    HW129585   3.020   3.330   1.660 -1.2272  0.7175  0.1517
 5983SOL    HW229586   2.982   3.482   1.657  1.3010  2.0532  1.1614
 5984SOL     OW29587   3.079   3.672  16.456 -0.1591 -0.6780  0.2592
 5984SOL    HW129588   3.077   3.742  16.521  2.2728 -1.9614  1.6735
 5984SOL    HW229589   3.170   3.680  16.430 -0.4211  0.8483 -0.2420
 5985SOL     OW29590   1.251   4.593   1.996  0.1032 -0.6236 -0.5783
 5985SOL    HW129591   1.238   4.664   2.059  0.4760 -0.3023 -0.8621
 5985SOL    HW229592   1.332   4.627   1.958  0.5744 -0.0733  0.9360
 5986SOL     OW29593   1.501   2.678   6.423 -0.4788  0.0580 -0.0060
 5986SOL    HW129594   1.514   2.719   6.508 -2.0299 -2.9824  1.6777
 5986SOL    HW229595   1.478   2.588   6.444  0.1070  0.6677  3.2502
 5987SOL     OW29596   3.582   2.992  11.869  0.1587  0.4471 -0.2382
 5987SOL    HW129597   3.520   3.007  11.940 -2.1190 -0.0735 -2.0781
 5987SOL    HW229598   3.592   2.896  11.867  0.4102  0.4677  0.2276
 5988SOL     OW29599   0.713   4.177   5.509  0.2749 -0.6514  0.0514
 5988SOL    HW129600   0.802   4.210   5.513  0.4659 -1.0841 -0.5536
 5988SOL    HW229601   0.657   4.245   5.471  0.3318  0.5731  2.1464
 5989SOL     OW29602   1.440   4.500   6.794 -0.1058  0.2512 -0.1843
 5989SOL    HW129603   1.479   4.587   6.799  0.4710  0.0764 -1.6646
 5989SOL    HW229604   1.391   4.508   6.713 -1.4744 -0.6464  0.5669
 5990SOL     OW29605   2.588   4.292   6.395  0.3360  0.0994 -1.1171
 5990SOL    HW129606   2.549   4.209   6.368 -0.1381  0.3131 -1.0837
 5990SOL    HW229607   2.603   4.333   6.310  2.3853 -0.0832 -0.8620
 5991SOL     OW29608   2.455   2.648  13.081  0.2867  0.2046  0.1607
 5991SOL    HW129609   2.512   2.719  13.053  2.2427 -0.7663  1.6649
 5991SOL    HW229610   2.405   2.630  13.001  0.3815 -1.4473  0.4681
 5992SOL     OW29611   3.329   3.092   4.469  0.7992 -0.2313  0.0745
 5992SOL    HW129612   3.417   3.101   4.433  2.1056 -0.9535  3.0411
 5992SOL    HW229613   3.343   3.025   4.537 -0.4333 -2.1781 -1.5774
 5993SOL     OW29614   0.327   3.944   2.196 -0.1578 -0.4478  0.1434
 5993SOL    HW129615   0.302   4.003   2.124  2.1658 -0.5739 -0.7513
 5993SOL    HW229616   0.243   3.944   2.242 -0.3446  1.9080 -0.2016
 5994SOL     OW29617   2.800   2.246   8.937 -0.1927 -0.0079 -0.0171
 5994SOL    HW129618   2.883   2.215   8.903 -0.7548 -0.0685 -1.3360
 5994SOL    HW229619   2.835   2.268   9.024 -2.0258  1.2349  0.4188
 5995SOL     OW29620   4.389   0.116   4.868 -0.3822 -0.2390  0.4219
 5995SOL    HW129621   4.353   0.104   4.780 -1.6157  0.1113  0.8836
 5995SOL    HW229622   4.435   0.032   4.871  0.2266  0.0600 -0.5767
 5996SOL     OW29623   4.072   0.332   3.455  0.4707 -0.0977 -0.4489
 5996SOL    HW129624   4.106   0.393   3.520 -0.7145 -1.6177  1.6140
 5996SOL    HW229625   4.085   0.247   3.496 -0.6238  0.8187  1.8078
 5997SOL     OW29626   1.468   1.935  12.831 -0.4051  0.0186  0.3640
 5997SOL    HW129627   1.393   1.988  12.805  0.0925  1.4208  1.8129
 5997SOL    HW229628   1.455   1.850  12.788  0.2979 -0.5190  1.2073
 5998SOL     OW29629   0.105   3.500   6.974  0.3914 -0.1308 -0.4418
 5998SOL    HW129630   0.028   3.485   7.029  0.8366 -2.6414 -0.4869
 5998SOL    HW229631   0.176   3.510   7.038 -1.3947  0.6607  1.4137
 5999SOL     OW29632   1.708   3.739   4.560  0.0882  0.3824  0.2364
 5999SOL    HW129633   1.798   3.728   4.529 -0.4275 -2.2246 -0.3438
 5999SOL    HW229634   1.714   3.743   4.656  0.0266  3.3403  0.1156
 6000SOL     OW29635   3.597   4.541  11.015 -0.3170  0.6415  0.3777
 6000SOL    HW129636   3.593   4.567  11.107  0.4083 -0.6516  0.7700
 6000SOL    HW229637   3.691   4.536  10.995 -0.8622 -2.3244 -1.3799
 6001SOL     OW29638   2.881   0.880  14.701 -0.2488 -0.2954  0.4067
 6001SOL    HW129639   2.968   0.901  14.734 -1.5759  0.2737  3.5178
 6001SOL    HW229640   2.905   0.822  14.629 -0.4218 -0.7269  0.6981
 6002SOL     OW29641   4.016   3.843   1.879 -0.2307 -0.2649 -0.5192
 6002SOL    HW129642   4.085   3.795   1.833 -3.3888 -4.0134 -1.2903
 6002SOL    HW229643   3.988   3.791   1.955  0.0100 -0.6069 -0.6625
 6003SOL     OW29644   4.597   2.016   4.635 -0.3098  0.2700  0.6154
 6003SOL    HW129645   4.637   2.081   4.578  1.5902 -2.2261 -0.8774
 6003SOL    HW229646   4.588   2.067   4.716  2.8739 -0.2672  1.3182
 6004SOL     OW29647   3.595   3.307   3.679 -0.5820  0.5934 -0.3299
 6004SOL    HW129648   3.662   3.373   3.659  0.3222 -0.6137 -1.2901
 6004SOL    HW229649   3.654   3.255   3.734 -0.6927  0.3305 -0.4613
 6005SOL     OW29650   3.606   3.511  16.433  0.2018  0.2027  0.1029
 6005SOL    HW129651   3.641   3.599  16.417 -1.0018  1.0029  1.8753
 6005SOL    HW229652   3.518   3.532  16.464 -0.3299  0.2416 -1.4522
 6006SOL     OW29653   0.764   1.459   2.737  0.0745  0.3591 -0.2342
 6006SOL    HW129654   0.832   1.425   2.678 -1.1769  0.5120 -1.7534
 6006SOL    HW229655   0.822   1.480   2.811 -0.2140 -0.1415  0.1305
 6007SOL     OW29656   3.421   2.564   9.920 -0.3040  0.2890 -0.0580
 6007SOL    HW129657   3.412   2.605  10.006 -1.6043  1.1939 -0.6076
 6007SOL    HW229658   3.488   2.618   9.878 -0.0428  0.1109  0.1345
 6008SOL     OW29659   2.052   2.545   6.160 -0.1357  0.3436 -0.3146
 6008SOL    HW129660   1.999   2.624   6.149 -0.1830  0.2642 -0.6406
 6008SOL    HW229661   2.136   2.579   6.191  1.1043 -2.2728 -0.7993
 6009SOL     OW29662   1.253   2.409   7.115  0.1870 -0.2180 -0.0937
 6009SOL    HW129663   1.166   2.372   7.103 -0.5668  1.6787 -0.5558
 6009SOL    HW229664   1.222   2.496   7.141 -0.1333 -0.1736 -0.6343
 6010SOL     OW29665   4.438   2.772  10.423  0.0487 -0.1775  0.0671
 6010SOL    HW129666   4.369   2.834  10.401  1.1726  0.1694 -2.4474
 6010SOL    HW229667   4.378   2.697  10.428 -0.6246  0.4032  0.6451
 6011SOL     OW29668   0.991   2.082   7.960 -0.1324 -0.4416  0.4550
 6011SOL    HW129669   1.053   2.125   7.901 -0.3696  0.5502  0.9248
 6011SOL    HW229670   0.909   2.124   7.935 -0.9354 -1.0073  2.1466
 6012SOL     OW29671   3.840   0.788   4.636  0.3535 -0.2735  0.0988
 6012SOL    HW129672   3.747   0.791   4.659  0.0486  0.5041 -1.2310
 6012SOL    HW229673   3.880   0.865   4.675  2.3567 -1.2908  0.0571
 6013SOL     OW29674   3.047   2.911  10.744 -0.3442 -0.6353 -1.0734
 6013SOL    HW129675   3.034   2.986  10.801  0.2777 -0.8747 -0.6149
 6013SOL    HW229676   3.039   2.847  10.815  0.2868  1.2786  0.7111
 6014SOL     OW29677   3.682   1.172   6.394 -0.9267 -0.2754 -0.5750
 6014SOL    HW129678   3.678   1.233   6.468 -2.8359  0.3607 -1.2137
 6014SOL    HW229679   3.595   1.132   6.396 -1.4474  0.9341  1.4289
 6015SOL     OW29680   2.794   3.829  12.516  0.0451  0.2278 -0.0790
 6015SOL    HW129681   2.843   3.893  12.465 -1.5667  0.0132 -1.8741
 6015SOL    HW229682   2.863   3.788  12.568  0.0712 -0.3491 -0.5787
 6016SOL     OW29683   0.259   4.554  16.297  0.4423 -0.2785  0.0754
 6016SOL    HW129684   0.191   4.488  16.288 -0.4255  0.6573 -0.2715
 6016SOL    HW229685   0.258   4.574  16.390 -3.2784 -3.4731  0.6916
 6017SOL     OW29686   2.059   2.717   3.538  0.1510  0.5869  0.2264
 6017SOL    HW129687   1.973   2.686   3.564 -0.6745  0.7407 -2.3461
 6017SOL    HW229688   2.067   2.665   3.458  0.3626  0.9043  0.0454
 6018SOL     OW29689   1.087   4.212   8.335 -0.1001  0.2944  0.1067
 6018SOL    HW129690   1.164   4.267   8.326 -0.3131  0.7621  1.2546
 6018SOL    HW229691   1.086   4.178   8.245 -0.5129  0.1522  0.1638
 6019SOL     OW29692   0.847   0.456   6.280 -0.0921 -0.0543 -0.0251
 6019SOL    HW129693   0.833   0.483   6.371 -0.3913  0.0379 -0.0975
 6019SOL    HW229694   0.752   0.452   6.268 -0.0458  0.9521 -0.7319
 6020SOL     OW29695   1.603   1.191   7.600  0.6748 -0.0491 -0.2936
 6020SOL    HW129696   1.684   1.148   7.626 -0.3788 -0.4368  2.4021
 6020SOL    HW229697   1.627   1.282   7.582  0.2841 -0.1280 -1.1923
 6021SOL     OW29698   3.134   1.160  10.755 -0.6887 -0.0930 -0.0089
 6021SOL    HW129699   3.130   1.221  10.830 -0.7013  0.0441 -0.1215
 6021SOL    HW229700   3.041   1.164  10.733 -1.0273 -2.1527  1.0667
 6022SOL     OW29701   3.208   0.387   7.139 -0.2630 -0.0484 -0.0414
 6022SOL    HW129702   3.251   0.305   7.165  0.9221  1.1975  1.9711
 6022SOL    HW229703   3.118   0.354   7.131 -0.3506  0.2726 -0.3566
 6023SOL     OW29704   0.793   4.342   7.021  0.3880  0.4352 -0.8481
 6023SOL    HW129705   0.784   4.274   6.954  0.2005 -1.1843  0.8044
 6023SOL    HW229706   0.709   4.326   7.066  0.7621  0.1736 -0.2381
 6024SOL     OW29707   3.123   1.776   8.100 -0.1793  0.3207  0.4687
 6024SOL    HW129708   3.045   1.729   8.070  0.1152  0.7606 -0.9732
 6024SOL    HW229709   3.136   1.740   8.187 -1.0862  0.6054  0.7253
 6025SOL     OW29710   0.459   2.429   3.904  0.5092  0.7139  0.5592
 6025SOL    HW129711   0.496   2.349   3.865  0.5102 -0.4393  2.9486
 6025SOL    HW229712   0.457   2.476   3.820 -1.1555  2.5934  1.6430
 6026SOL     OW29713   3.035   2.649  17.717 -0.2558 -0.0550  0.4971
 6026SOL    HW129714   3.080   2.718  17.766  1.3256  1.8168 -3.5550
 6026SOL    HW229715   3.066   2.568  17.758 -1.7581 -0.3893  0.9571
 6027SOL     OW29716   1.631   3.750  11.662 -0.2106 -0.0348 -0.3410
 6027SOL    HW129717   1.568   3.776  11.730  0.9386 -0.0855  0.7414
 6027SOL    HW229718   1.609   3.804  11.586  0.3771  0.9191  0.1587
 6028SOL     OW29719   4.653   0.873   2.207 -0.2885 -0.1736  0.5527
 6028SOL    HW129720   4.735   0.867   2.157  0.0543 -0.1056  1.1152
 6028SOL    HW229721   4.587   0.830   2.153 -0.8846 -1.0786  2.0135
 6029SOL     OW29722   2.965   1.509   2.570 -0.0775 -0.3752 -0.5203
 6029SOL    HW129723   2.930   1.447   2.507 -0.1297  0.6690 -1.5260
 6029SOL    HW229724   2.972   1.586   2.514  0.3159 -0.4432 -0.5624
 6030SOL     OW29725   1.263   4.725   4.261  0.0586  0.4015  0.0426
 6030SOL    HW129726   1.219   4.643   4.240  1.3252 -0.0542 -0.8495
 6030SOL    HW229727   1.188   0.025   4.302 -0.8937  0.5703 -1.8681
 6031SOL     OW29728   4.564   2.167   8.706 -0.7581 -0.4691  0.7270
 6031SOL    HW129729   4.540   2.256   8.732 -0.4336 -0.4481  0.9539
 6031SOL    HW229730   4.610   2.132   8.782  0.0271 -0.1232  0.4108
 6032SOL     OW29731   4.251   1.116  17.094 -0.2876  0.1703  0.1861
 6032SOL    HW129732   4.278   1.140  17.005 -0.2244 -0.4559  0.0327
 6032SOL    HW229733   4.203   1.194  17.120 -0.9149 -0.3554  0.5850
 6033SOL     OW29734   2.050   3.981   8.720 -0.3507  0.1990  0.3445
 6033SOL    HW129735   1.966   3.944   8.695  0.0971 -0.4583 -0.2192
 6033SOL    HW229736   2.027   4.072   8.701  1.1320  0.3442 -0.7694
 6034SOL     OW29737   1.049   0.349   9.098  0.1622  0.0175  0.0328
 6034SOL    HW129738   1.021   0.359   9.007 -0.0723 -1.1298 -0.0151
 6034SOL    HW229739   1.044   0.439   9.132  0.9168 -0.5437  1.6641
 6035SOL     OW29740   3.121   0.498   9.696  0.5672 -0.2611 -0.0574
 6035SOL    HW129741   3.117   0.405   9.717  0.5303 -0.3027 -0.2442
 6035SOL    HW229742   3.030   0.491   9.666  0.8171  0.4910 -0.9984
 6036SOL     OW29743   2.574   2.220   6.892 -0.2608 -0.3447  0.0214
 6036SOL    HW129744   2.632   2.151   6.861  1.9575  1.5464 -0.0233
 6036SOL    HW229745   2.498   2.208   6.835  0.4932  0.2160 -1.1060
 6037SOL     OW29746   0.842   1.408  10.573  0.3491  0.3213  0.0481
 6037SOL    HW129747   0.756   1.442  10.549  0.1440  0.5414  1.0974
 6037SOL    HW229748   0.876   1.489  10.612 -1.7126  1.0020  0.4448
 6038SOL     OW29749   3.277   1.936   2.279 -0.1644  0.6499  0.1696
 6038SOL    HW129750   3.269   1.893   2.194  1.5940  1.2987 -0.3346
 6038SOL    HW229751   3.216   2.009   2.287 -1.3098 -0.1223 -1.6039
 6039SOL     OW29752   2.724   1.651   8.632 -0.1263 -0.1605  0.2390
 6039SOL    HW129753   2.805   1.680   8.591 -0.5723 -0.1295 -0.6085
 6039SOL    HW229754   2.746   1.559   8.647 -1.4809 -0.5562 -0.2132
 6040SOL     OW29755   0.426   3.855  12.255 -0.1662  0.2571  0.7794
 6040SOL    HW129756   0.517   3.827  12.240 -0.3161  0.6797 -0.9346
 6040SOL    HW229757   0.387   3.801  12.323  0.6372 -1.3925 -0.0644
 6041SOL     OW29758   3.007   2.513   6.310  0.3636  0.0330  0.1720
 6041SOL    HW129759   3.028   2.491   6.219 -0.2816 -0.4687  0.1447
 6041SOL    HW229760   3.050   2.439   6.352 -0.8900 -0.8089 -0.0331
 6042SOL     OW29761   3.736   2.142   0.781 -0.3140  0.6189 -0.0064
 6042SOL    HW129762   3.712   2.216   0.836  1.8921  1.2551  0.0849
 6042SOL    HW229763   3.789   2.184   0.714 -0.2301 -0.3005 -0.5153
 6043SOL     OW29764   2.310   2.037   3.660 -0.0811 -0.2204 -0.1522
 6043SOL    HW129765   2.379   2.021   3.725  0.5280  1.5650 -0.3562
 6043SOL    HW229766   2.259   2.108   3.700 -1.0393  0.8927 -3.4167
 6044SOL     OW29767   4.639   1.761  16.697 -0.4892 -0.6568 -0.4779
 6044SOL    HW129768   4.663   1.679  16.654 -0.9726 -0.6801 -0.6995
 6044SOL    HW229769   4.632   1.812  16.617 -1.1890  0.7635  0.4850
 6045SOL     OW29770   2.653   4.147   2.408  0.4977  0.1840  0.0445
 6045SOL    HW129771   2.730   4.092   2.395  0.1550 -0.2618 -0.1204
 6045SOL    HW229772   2.687   4.233   2.431 -2.5296  1.3106  0.3147
 6046SOL     OW29773   2.109   3.874   9.425  0.2008 -0.7060  0.4029
 6046SOL    HW129774   2.116   3.940   9.494  1.1785  0.9680 -1.3112
 6046SOL    HW229775   2.027   3.828   9.445 -1.2717  1.1483 -1.5219
 6047SOL     OW29776   0.414   3.807   1.369  0.2386  0.5294 -0.3658
 6047SOL    HW129777   0.383   3.798   1.278 -0.6979 -2.0854  0.1979
 6047SOL    HW229778   0.507   3.828   1.363  0.3456  0.1122 -0.2045
 6048SOL     OW29779   2.746   3.793   1.436 -0.6816  0.2558  0.0547
 6048SOL    HW129780   2.695   3.726   1.391  1.1715 -0.2821 -1.2851
 6048SOL    HW229781   2.820   3.803   1.375 -1.1362 -1.7279 -0.8167
 6049SOL     OW29782   4.204   1.183   8.530 -0.1267 -0.2075 -0.4174
 6049SOL    HW129783   4.143   1.247   8.566  0.8380  1.3305 -1.5229
 6049SOL    HW229784   4.150   1.104   8.528 -0.1308 -0.2109 -0.2460
 6050SOL     OW29785   3.732   0.213  13.560 -0.4164  0.2993 -0.7682
 6050SOL    HW129786   3.777   0.140  13.517 -0.9880  0.8898 -2.3951
 6050SOL    HW229787   3.644   0.180  13.544 -0.6651  0.5512  0.1103
 6051SOL     OW29788   0.587   1.580   0.468  0.2522 -0.1987  0.2009
 6051SOL    HW129789   0.648   1.506   0.470  2.5250  1.6268 -0.7955
 6051SOL    HW229790   0.505   1.541   0.439 -0.5337  0.9126  0.9514
 6052SOL     OW29791   4.256   2.957  15.978 -0.0038  0.7125  0.2131
 6052SOL    HW129792   4.292   2.950  15.890  0.3653  1.5671  0.2960
 6052SOL    HW229793   4.246   3.050  15.997  1.0755  1.2110 -1.6665
 6053SOL     OW29794   0.182   3.303   9.343  0.1850  0.0336 -0.4676
 6053SOL    HW129795   0.273   3.317   9.369 -0.5551  0.7092  1.7841
 6053SOL    HW229796   0.151   3.230   9.398  0.7312  0.7689  0.8084
 6054SOL     OW29797   4.337   4.475   3.997 -0.2435  0.0483  0.0346
 6054SOL    HW129798   4.391   4.405   4.036  0.2696  0.4535  0.0603
 6054SOL    HW229799   4.259   4.466   4.051 -1.1894 -0.3551 -1.4241
 6055SOL     OW29800   0.946   0.167   6.405  0.1195  0.0453 -0.1994
 6055SOL    HW129801   0.990   0.243   6.443  0.0600 -0.6040  1.1652
 6055SOL    HW229802   1.022   0.124   6.366  0.3266  1.0722 -0.9212
 6056SOL     OW29803   3.230   4.121   4.485  0.1204  0.8215 -0.1005
 6056SOL    HW129804   3.248   4.070   4.406  1.4114 -1.1790  1.5101
 6056SOL    HW229805   3.144   4.148   4.452  0.3936  1.8099 -0.0188
 6057SOL     OW29806   4.219   0.139   5.985 -0.3165  0.6234 -0.5029
 6057SOL    HW129807   4.295   0.196   5.999 -0.0738  0.6447 -1.8872
 6057SOL    HW229808   4.182   0.167   5.902 -1.6536 -1.0331 -0.4653
 6058SOL     OW29809   4.197   1.701   6.786 -0.4698  0.0979  0.3832
 6058SOL    HW129810   4.237   1.733   6.705  1.2381 -2.2906  0.2869
 6058SOL    HW229811   4.104   1.695   6.761 -0.5143  0.1215  0.5430
 6059SOL     OW29812   4.197   2.339   4.109  0.1904  0.0088 -0.3885
 6059SOL    HW129813   4.229   2.335   4.019  1.9966  1.3568  0.1869
 6059SOL    HW229814   4.283   2.335   4.151  1.2426  0.3688 -2.5030
 6060SOL     OW29815   3.904   4.382   2.644 -0.7328  0.0219 -1.1567
 6060SOL    HW129816   3.971   4.314   2.646  1.1984  1.9531 -0.4874
 6060SOL    HW229817   3.960   4.457   2.666 -0.9511  0.6127 -2.6006
 6061SOL     OW29818   2.566   4.496   2.710 -0.5322 -0.2541  0.5907
 6061SOL    HW129819   2.478   4.462   2.730 -0.5052 -0.0961  0.9831
 6061SOL    HW229820   2.552   4.549   2.632 -2.1065 -0.1853  0.9134
 6062SOL     OW29821   0.669   2.042  14.857 -0.3249 -0.6316 -0.8937
 6062SOL    HW129822   0.756   2.082  14.865  0.0249 -0.7296 -4.5487
 6062SOL    HW229823   0.612   2.116  14.878  2.6414  0.7150  2.6153
 6063SOL     OW29824   1.570   3.647   4.032 -0.4221  0.1284 -0.3307
 6063SOL    HW129825   1.557   3.649   4.127 -1.5587  2.0894 -0.5408
 6063SOL    HW229826   1.482   3.652   3.997 -0.3257 -0.4510 -0.6631
 6064SOL     OW29827   2.547   2.917   7.008  0.0153 -0.2488 -0.3672
 6064SOL    HW129828   2.513   2.851   6.947  0.5820  0.6181 -1.6094
 6064SOL    HW229829   2.565   2.860   7.084 -1.2526  0.2890  0.3259
 6065SOL     OW29830   2.326   3.889  15.450 -0.1250  0.2991 -0.0894
 6065SOL    HW129831   2.282   3.912  15.368 -1.1246  3.2064  1.2666
 6065SOL    HW229832   2.255   3.844  15.496 -1.0775 -1.7135 -3.5415
 6066SOL     OW29833   4.600   0.459   5.198 -0.0124 -0.3499  0.5538
 6066SOL    HW129834   4.544   0.469   5.120 -0.3255 -0.5445  0.7541
 6066SOL    HW229835   4.535   0.498   5.257  0.4717  1.8659 -0.3487
 6067SOL     OW29836   3.511   3.665   3.480  0.2932 -0.0565  0.5058
 6067SOL    HW129837   3.577   3.631   3.541  0.3533  0.0828  0.5183
 6067SOL    HW229838   3.553   3.743   3.444 -0.0839 -0.3450 -0.5434
 6068SOL     OW29839   0.751   3.375   4.589  0.3196 -0.5056  0.2453
 6068SOL    HW129840   0.802   3.431   4.648  2.4377  0.3672 -2.3977
 6068SOL    HW229841   0.818   3.360   4.521  0.5082 -0.4914  0.4273
 6069SOL     OW29842   4.675   3.005  16.124  0.0408 -0.2718 -0.2400
 6069SOL    HW129843   0.009   3.038  16.170 -1.4597  2.3920  0.3960
 6069SOL    HW229844   4.694   3.045  16.039  0.0454 -0.8022 -0.4882
 6070SOL     OW29845   3.193   1.411   4.890 -0.3368 -0.4629  0.5351
 6070SOL    HW129846   3.204   1.328   4.937 -1.8801 -0.7993  0.3184
 6070SOL    HW229847   3.113   1.452   4.921 -0.2951  0.7759 -1.0009
 6071SOL     OW29848   3.081   0.701   8.130  0.0974 -0.2958 -0.1424
 6071SOL    HW129849   3.127   0.784   8.147 -1.8390  0.4384  1.4989
 6071SOL    HW229850   3.136   0.669   8.059  0.6311  1.7237 -0.6480
 6072SOL     OW29851   1.357   4.322   2.019 -0.0734 -0.4606 -0.9717
 6072SOL    HW129852   1.341   4.414   2.041  1.6045 -0.8750  1.9720
 6072SOL    HW229853   1.284   4.285   2.067  1.0458 -1.0281  0.2916
 6073SOL     OW29854   2.886   3.368  17.270  0.2539 -0.1423 -0.0043
 6073SOL    HW129855   2.831   3.442  17.244  0.2209 -0.2435 -0.2218
 6073SOL    HW229856   2.893   3.328  17.183 -1.1824 -0.3776 -0.0140
 6074SOL     OW29857   4.532   1.100   7.843 -0.9719  0.4069 -0.0597
 6074SOL    HW129858   4.499   1.055   7.765 -1.1780  0.5466 -0.0522
 6074SOL    HW229859   4.461   1.155   7.875 -0.6858 -0.5449  2.1618
 6075SOL     OW29860   3.840   2.078  11.676 -0.6432 -0.3250  0.4346
 6075SOL    HW129861   3.884   2.016  11.734  1.3640  0.8574  0.1575
 6075SOL    HW229862   3.873   2.048  11.591  0.9082  1.2230  0.4955
 6076SOL     OW29863   1.646   3.172   8.448  0.5990  0.0746 -0.4378
 6076SOL    HW129864   1.565   3.121   8.456  0.4053  0.7135  1.7008
 6076SOL    HW229865   1.614   3.254   8.485  1.2032 -0.5156  1.3982
 6077SOL     OW29866   3.661   2.295   8.121  0.5646 -0.0668 -0.6954
 6077SOL    HW129867   3.726   2.269   8.056  0.8021 -2.1821  0.4050
 6077SOL    HW229868   3.576   2.276   8.081 -0.2108 -2.2484  1.9717
 6078SOL     OW29869   2.918   3.250  11.628 -0.1487  0.0010  1.0048
 6078SOL    HW129870   2.881   3.311  11.564  1.2443  0.6043  0.7737
 6078SOL    HW229871   3.008   3.240  11.598 -0.2263 -0.6876  1.0034
 6079SOL     OW29872   1.901   2.567  11.715 -0.0590  0.2484  0.5438
 6079SOL    HW129873   1.901   2.471  11.714  2.3571  0.2604 -1.5144
 6079SOL    HW229874   1.818   2.580  11.761 -0.4346  0.9952 -0.3454
 6080SOL     OW29875   3.382   4.566   6.687  0.2344  0.3321  0.1671
 6080SOL    HW129876   3.340   4.576   6.601  0.0861 -0.7239  0.1231
 6080SOL    HW229877   3.438   4.643   6.677 -0.3561  1.0736  2.5232
 6081SOL     OW29878   2.864   3.473   9.121 -0.2173 -0.4361 -0.2996
 6081SOL    HW129879   2.801   3.509   9.058 -2.4529  1.8860  3.2281
 6081SOL    HW229880   2.820   3.417   9.186 -0.7933  0.6933  0.2961
 6082SOL     OW29881   2.373   3.391   2.614 -0.1459  0.1794 -0.0523
 6082SOL    HW129882   2.434   3.443   2.667  1.4723 -1.6021 -0.1916
 6082SOL    HW229883   2.293   3.430   2.650 -0.2830  0.0836 -0.2544
 6083SOL     OW29884   4.457   1.251   6.693  0.1442 -0.2697  0.5046
 6083SOL    HW129885   4.451   1.173   6.638  2.3111  0.1490 -0.3089
 6083SOL    HW229886   4.460   1.206   6.777 -1.0632  2.4972  2.0171
 6084SOL     OW29887   0.450   0.088   2.108  0.1275  0.2799  0.3012
 6084SOL    HW129888   0.506   0.147   2.159  1.3163 -0.2985 -0.3329
 6084SOL    HW229889   0.460   0.115   2.017  1.5125 -0.3044  0.2789
 6085SOL     OW29890   2.950   1.448   2.105 -0.3736  0.1350  0.5499
 6085SOL    HW129891   2.906   1.531   2.084  0.1303  0.3619  0.3730
 6085SOL    HW229892   2.974   1.421   2.016  1.2839 -0.7514  1.2729
 6086SOL     OW29893   2.177   1.387   9.411  0.2062 -0.5617 -0.2129
 6086SOL    HW129894   2.108   1.335   9.370  0.4490 -0.4127 -0.8124
 6086SOL    HW229895   2.160   1.365   9.503 -0.7521 -1.2070 -0.5455
 6087SOL     OW29896   0.030   1.572  12.677 -0.6095  0.0169  0.2567
 6087SOL    HW129897   0.053   1.534  12.592  1.1377  0.4178  0.5570
 6087SOL    HW229898   0.090   1.646  12.683 -0.2641 -0.3019  0.8417
 6088SOL     OW29899   4.097   2.735   5.697  0.2870 -0.3514  0.3444
 6088SOL    HW129900   4.042   2.813   5.690  2.2410  0.8246 -1.9949
 6088SOL    HW229901   4.174   2.747   5.642  0.8781  0.4363  1.3566
 6089SOL     OW29902   3.338   3.634   3.829  0.2460  0.3149 -0.0068
 6089SOL    HW129903   3.300   3.668   3.748 -2.1295 -0.6718  0.6858
 6089SOL    HW229904   3.336   3.541   3.809  0.7661  0.5502 -1.0930
 6090SOL     OW29905   1.213   3.848  12.012 -0.3654  0.0431 -0.3620
 6090SOL    HW129906   1.196   3.812  12.099 -2.2281  2.9164  0.4694
 6090SOL    HW229907   1.233   3.937  12.043  3.0308 -1.3040  1.2836
 6091SOL     OW29908   4.350   1.971   9.337 -0.0810  0.3898  0.7116
 6091SOL    HW129909   4.293   2.005   9.406 -3.0650 -0.2868 -1.3931
 6091SOL    HW229910   4.395   1.902   9.386  0.8322 -0.7745 -1.7583
 6092SOL     OW29911   0.040   3.917   5.622 -0.9234 -0.2423 -0.0674
 6092SOL    HW129912   4.737   3.942   5.542 -1.3459  1.0975  0.6003
 6092SOL    HW229913   4.715   3.925   5.688 -1.4107  0.1208 -0.6145
 6093SOL     OW29914   1.899   4.675   6.453 -0.1971 -0.0959 -0.0918
 6093SOL    HW129915   1.980   4.635   6.485 -0.4279  1.7579  2.7609
 6093SOL    HW229916   1.833   4.606   6.467  2.1823 -2.2764  0.3584
 6094SOL     OW29917   0.008   3.050   6.259  0.1614 -0.3125  0.0170
 6094SOL    HW129918   4.737   3.123   6.319  0.5796  0.0007 -0.2657
 6094SOL    HW229919   0.062   3.085   6.189  0.2871  0.4263  0.4896
 6095SOL     OW29920   1.825   4.043  13.316 -0.4055  0.1641  0.0207
 6095SOL    HW129921   1.841   4.125  13.269 -2.0361  1.1080  1.1134
 6095SOL    HW229922   1.907   3.995  13.302 -0.7556 -0.6475  0.8142
 6096SOL     OW29923   2.570   1.711  17.361 -0.0039  0.2539  0.2233
 6096SOL    HW129924   2.586   1.655  17.285 -0.3157  0.2468  0.1617
 6096SOL    HW229925   2.649   1.765  17.361 -1.0517  1.7933 -2.6350
 6097SOL     OW29926   4.090   0.806  13.256 -0.0794 -0.1116 -0.5527
 6097SOL    HW129927   4.139   0.849  13.326 -1.7465  0.7252  0.1008
 6097SOL    HW229928   4.029   0.871  13.222 -1.5351 -0.4312  1.4110
 6098SOL     OW29929   3.519   3.749  16.637  0.2081  0.3244  0.1459
 6098SOL    HW129930   3.599   3.794  16.666  0.0749  1.2049 -0.8770
 6098SOL    HW229931   3.549   3.663  16.667  0.1563 -0.5778 -2.4257
 6099SOL     OW29932   2.495   4.177   0.965 -0.4220 -0.7837 -0.7257
 6099SOL    HW129933   2.544   4.226   0.899 -1.5283 -1.2223 -1.8715
 6099SOL    HW229934   2.561   4.112   0.989 -1.0640 -1.0156  0.3967
 6100SOL     OW29935   2.962   2.732   1.971 -0.2197 -0.0598 -0.5173
 6100SOL    HW129936   2.912   2.813   1.960 -0.3315  0.0007  0.4371
 6100SOL    HW229937   2.946   2.711   2.063 -1.0632  1.0917 -0.3996
 6101SOL     OW29938   2.150   4.575   7.149  0.5203  0.2637 -0.1949
 6101SOL    HW129939   2.208   4.572   7.073  1.3556 -0.4293  0.4702
 6101SOL    HW229940   2.067   4.543   7.113  0.9651 -0.0944 -0.9171
 6102SOL     OW29941   3.196   2.492   4.263  0.0391 -0.6097  0.0294
 6102SOL    HW129942   3.248   2.567   4.235  0.1717 -1.1716 -1.2347
 6102SOL    HW229943   3.152   2.468   4.182  1.3714 -2.9833 -0.0055
 6103SOL     OW29944   4.238   2.429   2.706 -0.3050 -0.4259 -0.7137
 6103SOL    HW129945   4.324   2.389   2.694 -0.7791 -0.9987 -2.2769
 6103SOL    HW229946   4.194   2.408   2.623  0.0980  0.0384 -1.0490
 6104SOL     OW29947   4.593   0.835   8.244 -0.0860  0.3876 -0.5516
 6104SOL    HW129948   4.568   0.767   8.182 -1.0632  1.6018 -1.4829
 6104SOL    HW229949   4.623   0.902   8.182  1.8459 -1.1616 -1.2990
 6105SOL     OW29950   3.073   1.179   5.804  0.6361 -0.4906  0.2367
 6105SOL    HW129951   3.077   1.262   5.852  2.0197 -0.5830  0.2865
 6105SOL    HW229952   3.061   1.112   5.872  1.4457 -0.3834  0.4916
 6106SOL     OW29953   1.213   0.246   1.392  0.2568  0.7837  0.3570
 6106SOL    HW129954   1.159   0.177   1.431  0.9302  1.9428  3.2665
 6106SOL    HW229955   1.149   0.310   1.362 -0.2676  0.7266  1.3818
 6107SOL     OW29956   3.375   3.020  12.039 -0.7874 -0.1128 -0.1859
 6107SOL    HW129957   3.378   3.080  12.114  1.2127 -2.8486  1.9575
 6107SOL    HW229958   3.279   3.014  12.035 -0.9820  2.6476  0.1841
 6108SOL     OW29959   0.397   1.589   0.880 -0.3033 -0.4457 -0.6784
 6108SOL    HW129960   0.439   1.543   0.952  0.2600  2.8996  1.1208
 6108SOL    HW229961   0.308   1.602   0.913  0.2325 -1.1841  1.0464
 6109SOL     OW29962   0.251   2.650   4.023  0.8649 -0.3599 -0.0098
 6109SOL    HW129963   0.338   2.659   3.986  1.2704 -0.7037  0.8508
 6109SOL    HW229964   0.251   2.665   4.118  0.2574 -0.0831 -0.0513
 6110SOL     OW29965   4.679   0.545   0.619 -0.5434 -0.1058 -0.0834
 6110SOL    HW129966   4.718   0.599   0.689  0.4645 -0.1264 -0.6320
 6110SOL    HW229967   4.665   0.610   0.550 -2.3611  1.7118  1.9702
 6111SOL     OW29968   2.920   2.449   2.044  0.2067 -0.3097 -0.0426
 6111SOL    HW129969   2.854   2.511   2.072  0.2761 -0.6260  0.8260
 6111SOL    HW229970   3.003   2.478   2.082 -1.2842  3.6716  0.1552
 6112SOL     OW29971   3.018   2.351   0.003  0.3417  0.2876 -0.4835
 6112SOL    HW129972   2.930   2.357   0.040  0.9294  3.2503  0.4116
 6112SOL    HW229973   3.059   2.311   0.081 -0.7454 -0.9420 -0.5341
 6113SOL     OW29974   3.562   4.665   0.284  0.1576 -0.4974 -0.1227
 6113SOL    HW129975   3.489   4.700   0.336  0.3396  0.5669 -0.5884
 6113SOL    HW229976   3.612   0.003   0.271 -0.6052 -0.0301 -0.1410
 6114SOL     OW29977   1.018   0.619  10.597  0.3536 -0.1424 -0.5775
 6114SOL    HW129978   0.958   0.690  10.618 -0.3654 -0.6492 -0.9136
 6114SOL    HW229979   1.106   0.647  10.625  0.4034 -1.1621  0.2854
 6115SOL     OW29980   2.375   4.064   2.376 -0.2223  0.0575 -0.1416
 6115SOL    HW129981   2.394   3.976   2.407 -0.3629  0.7891  1.9758
 6115SOL    HW229982   2.461   4.105   2.387 -1.5968  2.9532 -0.0452
 6116SOL     OW29983   2.613   3.811  17.377  0.2021 -0.1485 -0.2102
 6116SOL    HW129984   2.617   3.906  17.388 -0.6887 -0.0346 -0.9030
 6116SOL    HW229985   2.574   3.783  17.460 -0.5144  0.7139 -0.2531
 6117SOL     OW29986   3.724   3.380   5.992  0.9085  0.0773 -0.9686
 6117SOL    HW129987   3.771   3.324   5.931  1.2237 -0.2749 -0.4079
 6117SOL    HW229988   3.655   3.424   5.941 -1.8070  2.0863  4.3896
 6118SOL     OW29989   0.631   0.643  14.954 -0.3431  0.2585 -0.6174
 6118SOL    HW129990   0.638   0.606  14.866 -0.3224 -0.6005 -0.2626
 6118SOL    HW229991   0.582   0.576  15.003  0.7492 -0.2408 -0.1993
 6119SOL     OW29992   4.345   1.874   4.047 -0.0237 -0.0128  0.4793
 6119SOL    HW129993   4.434   1.863   4.081 -0.2383  2.6069  1.8559
 6119SOL    HW229994   4.354   1.943   3.981 -2.7794  0.7681  0.9465
 6120SOL     OW29995   4.634   1.267   8.955 -1.3134  1.1715 -0.4289
 6120SOL    HW129996   4.692   1.200   8.920 -2.4659 -0.8803  1.5711
 6120SOL    HW229997   4.552   1.237   8.915 -0.6218 -0.4679 -0.6126
 6121SOL     OW29998   4.382   1.010   3.337  0.3611  0.0994  0.0210
 6121SOL    HW129999   4.410   1.057   3.258 -0.0582 -0.3535 -0.3964
 6121SOL    HW230000   4.327   1.077   3.378  0.3607  0.0786  0.0536
 6122SOL     OW30001   2.310   2.202   7.488  0.1211 -0.5399  0.0177
 6122SOL    HW130002   2.215   2.198   7.490  0.0242  0.8625 -1.3490
 6122SOL    HW230003   2.324   2.241   7.574  0.1070 -1.0323  0.2398
 6123SOL     OW30004   3.120   3.529   8.248 -0.4752 -0.9667 -0.6311
 6123SOL    HW130005   3.105   3.455   8.308  2.8550 -0.7494  0.4706
 6123SOL    HW230006   3.141   3.599   8.309 -0.1190 -1.0313 -0.6816
 6124SOL     OW30007   1.286   0.162  17.446 -0.0546 -0.0852 -0.1839
 6124SOL    HW130008   1.371   0.205  17.452 -1.0535  1.7898  0.4633
 6124SOL    HW230009   1.267   0.160  17.352  2.4987 -1.1753 -0.6766
 6125SOL     OW30010   1.057   4.555   2.307  0.1498 -0.2306 -0.0736
 6125SOL    HW130011   0.974   4.593   2.335  0.3317  0.6102 -0.6581
 6125SOL    HW230012   1.054   4.583   2.215 -0.9451 -1.1175 -0.3020
 6126SOL     OW30013   1.684   3.660  17.691 -0.1060  0.5388 -0.1857
 6126SOL    HW130014   1.770   3.621  17.675  0.1859  0.0119  2.6013
 6126SOL    HW230015   1.683   3.637   0.014  1.3659  2.4082  0.3017
 6127SOL     OW30016   1.632   3.415   2.943 -0.5531  0.2429  0.2554
 6127SOL    HW130017   1.704   3.360   2.974  0.7293  1.3930 -0.6499
 6127SOL    HW230018   1.683   3.496   2.950 -0.8599  0.5857 -1.4854
 6128SOL     OW30019   0.003   2.116   2.308 -0.1156  0.6628 -0.5852
 6128SOL    HW130020   4.690   2.046   2.274 -0.1828  1.0845 -1.3383
 6128SOL    HW230021   0.090   2.078   2.296  0.0518  0.6179  0.7790
 6129SOL     OW30022   4.157   3.193   8.702  0.4480  0.5479  0.2161
 6129SOL    HW130023   4.233   3.243   8.730 -0.2686  1.1616  1.0736
 6129SOL    HW230024   4.135   3.157   8.788 -0.3263  0.1184 -0.1700
 6130SOL     OW30025   3.401   2.445   5.999  0.3891 -0.2312  0.5013
 6130SOL    HW130026   3.422   2.412   5.912 -0.9971  0.8461 -0.2322
 6130SOL    HW230027   3.467   2.514   6.002 -0.9149  1.0804 -2.0299
 6131SOL     OW30028   4.459   0.951  15.307 -0.1587  0.5669  0.2759
 6131SOL    HW130029   4.447   0.857  15.319  0.2298  0.2533 -1.8953
 6131SOL    HW230030   4.399   0.991  15.371 -1.2291 -2.8506  1.4578
 6132SOL     OW30031   2.591   2.274   4.155  0.3724 -0.3004 -0.6007
 6132SOL    HW130032   2.668   2.315   4.115  1.0528 -1.6326 -0.6479
 6132SOL    HW230033   2.596   2.312   4.242  0.6202 -0.6195 -0.4767
 6133SOL     OW30034   2.781   2.506   8.136 -0.1239  0.2881 -0.0495
 6133SOL    HW130035   2.836   2.517   8.213  0.6154  1.0760 -0.6913
 6133SOL    HW230036   2.745   2.418   8.148  0.5131 -0.2766 -2.2275
 6134SOL     OW30037   4.566   0.285   2.341 -0.0902  0.1399 -0.1546
 6134SOL    HW130038   4.593   0.338   2.416 -0.4271  1.2861 -0.8625
 6134SOL    HW230039   4.471   0.289   2.344 -0.1666 -1.8046  0.3675
 6135SOL     OW30040   0.500   2.860  17.318 -0.2998  0.0709 -0.5562
 6135SOL    HW130041   0.444   2.859  17.240  0.5570 -1.7752 -1.1521
 6135SOL    HW230042   0.439   2.912  17.370  3.0038  1.9822  1.3773
 6136SOL     OW30043   3.955   3.307  11.191 -0.6341  0.4607  0.1206
 6136SOL    HW130044   4.005   3.385  11.167 -0.3649  0.2666  0.0511
 6136SOL    HW230045   3.890   3.297  11.121 -0.4319 -0.2193  0.0315
 6137SOL     OW30046   4.542   3.998   7.248 -0.4206 -0.1932 -0.4338
 6137SOL    HW130047   4.599   3.940   7.197  1.4518  0.8941  0.4390
 6137SOL    HW230048   4.558   4.075   7.193 -0.9717  0.4562  0.3277
 6138SOL     OW30049   4.188   3.853  15.067  0.5039  0.0033 -0.5434
 6138SOL    HW130050   4.123   3.891  15.008  0.0280 -1.0100 -0.6814
 6138SOL    HW230051   4.237   3.931  15.095 -1.0754  1.4453 -1.8490
 6139SOL     OW30052   3.298   1.561   4.070 -0.6281  0.2482 -0.5095
 6139SOL    HW130053   3.228   1.572   4.135 -0.6014 -2.0459 -0.0988
 6139SOL    HW230054   3.360   1.520   4.130 -0.6671 -1.5413 -1.7018
 6140SOL     OW30055   1.333   0.933   8.451 -0.2289 -0.3619  0.8004
 6140SOL    HW130056   1.362   0.958   8.539 -0.8715 -0.4979  1.0523
 6140SOL    HW230057   1.306   1.016   8.413 -2.7470 -1.6046 -0.1171
 6141SOL     OW30058   0.875   4.594  10.980  0.4727 -0.4881 -0.5853
 6141SOL    HW130059   0.884   4.500  10.964 -1.6269 -1.1320  1.9925
 6141SOL    HW230060   0.961   4.609  11.020  0.6434  0.6963 -1.4270
 6142SOL     OW30061   1.560   1.560   8.885 -0.7773  0.1201  0.2108
 6142SOL    HW130062   1.565   1.628   8.818  1.0405 -0.4487 -0.2401
 6142SOL    HW230063   1.651   1.564   8.915 -0.4698  1.0673 -0.8310
 6143SOL     OW30064   1.641   3.948   1.776 -0.3521 -0.0945  0.1544
 6143SOL    HW130065   1.716   3.890   1.777 -0.3114 -0.0438 -0.2143
 6143SOL    HW230066   1.695   4.027   1.783 -0.0916 -0.0659 -2.5186
 6144SOL     OW30067   0.315   3.826   4.244  0.1369 -0.1198  0.1750
 6144SOL    HW130068   0.336   3.820   4.337  0.0888  0.7092  0.2378
 6144SOL    HW230069   0.220   3.838   4.246 -0.0061 -1.0577 -0.8173
 6145SOL     OW30070   3.289   2.956  10.029  0.5643 -0.5641  0.1174
 6145SOL    HW130071   3.303   2.879  10.083  0.4717 -1.8272 -1.6879
 6145SOL    HW230072   3.194   2.955  10.021  0.6341  3.0429 -1.2761
 6146SOL     OW30073   2.422   3.875   8.156  0.5959  0.4288  0.0901
 6146SOL    HW130074   2.388   3.932   8.087  0.7556 -0.2516 -0.5546
 6146SOL    HW230075   2.469   3.938   8.211  1.9658  0.1965 -0.8059
 6147SOL     OW30076   4.375   0.444   9.744  0.3496 -0.6192 -0.6167
 6147SOL    HW130077   4.365   0.539   9.753 -0.2462 -0.7578  0.1445
 6147SOL    HW230078   4.448   0.447   9.682 -0.2479  1.2019 -1.2313
 6148SOL     OW30079   0.541   1.273   1.167  0.2991 -0.0772  0.5675
 6148SOL    HW130080   0.482   1.246   1.238 -0.5678 -3.6509 -1.5221
 6148SOL    HW230081   0.539   1.368   1.178  2.3411 -0.0269  0.5275
 6149SOL     OW30082   3.969   1.899  12.256 -0.4679  0.9004 -0.3905
 6149SOL    HW130083   3.992   1.962  12.324 -0.4595  1.1080 -0.5815
 6149SOL    HW230084   3.893   1.947  12.224 -1.4739 -0.8638 -0.6194
 6150SOL     OW30085   4.375   3.687   5.142  0.0362  0.1853  0.6351
 6150SOL    HW130086   4.429   3.701   5.219  1.5460 -0.8186 -0.2334
 6150SOL    HW230087   4.298   3.640   5.175  1.3260 -2.9926 -0.8737
 6151SOL     OW30088   0.326   1.253   4.605  0.6330  0.0300  0.0486
 6151SOL    HW130089   0.375   1.324   4.563  0.7554  0.6306  1.1896
 6151SOL    HW230090   0.343   1.181   4.544 -0.4173  0.7012 -1.0183
 6152SOL     OW30091   0.400   1.680  12.260 -0.1364 -0.3707 -0.3005
 6152SOL    HW130092   0.388   1.617  12.331 -3.5272 -0.7171 -1.1607
 6152SOL    HW230093   0.417   1.763  12.305  2.3684 -0.8232 -0.4214
 6153SOL     OW30094   1.593   3.920  13.235 -0.1590 -0.8154  0.0445
 6153SOL    HW130095   1.523   3.946  13.294  1.1608  2.3185  0.2543
 6153SOL    HW230096   1.670   3.925  13.293  0.1955  2.5210 -0.7333
 6154SOL     OW30097   1.137   1.601   7.582 -0.5448  0.2010  0.1873
 6154SOL    HW130098   1.119   1.515   7.619 -0.4067  0.1749  0.1932
 6154SOL    HW230099   1.051   1.616   7.542 -0.3776 -2.0737 -1.0173
 6155SOL     OW30100   0.912   3.794   9.297 -0.5132 -0.2925 -0.1203
 6155SOL    HW130101   0.874   3.792   9.209 -0.3052 -2.4234 -0.1606
 6155SOL    HW230102   0.909   3.703   9.325  1.1589 -0.1651  0.4391
 6156SOL     OW30103   1.816   0.997   4.731 -1.1373  0.0840 -0.3095
 6156SOL    HW130104   1.780   0.992   4.643 -0.4554 -0.1307 -0.5801
 6156SOL    HW230105   1.742   1.040   4.774 -1.2179  0.9367 -1.2985
 6157SOL     OW30106   2.829   3.424   7.747 -0.5447  0.3783 -0.0748
 6157SOL    HW130107   2.865   3.351   7.798 -0.5407 -0.8957 -1.8820
 6157SOL    HW230108   2.890   3.490   7.778  0.1880 -1.1728  1.8357
 6158SOL     OW30109   3.646   0.140   7.371 -1.2582 -0.5724 -0.3015
 6158SOL    HW130110   3.579   0.182   7.318 -0.2003 -2.7860 -3.4248
 6158SOL    HW230111   3.683   0.214   7.419 -1.0880 -0.0259 -1.2665
 6159SOL     OW30112   2.188   0.698   4.207 -0.1625  0.0760  0.3950
 6159SOL    HW130113   2.172   0.763   4.276  0.8111  1.1736 -0.4112
 6159SOL    HW230114   2.102   0.666   4.179 -0.7558  3.8155 -1.9363
 6160SOL     OW30115   1.419   0.239   6.753 -0.4557  0.2788 -0.5729
 6160SOL    HW130116   1.349   0.305   6.748  0.0736  0.8066 -1.0766
 6160SOL    HW230117   1.469   0.275   6.679  0.4420  1.1963  0.4813
 6161SOL     OW30118   2.697   2.520   9.564 -0.0184  0.1960 -0.0264
 6161SOL    HW130119   2.638   2.562   9.501 -1.9022 -2.6509 -0.1509
 6161SOL    HW230120   2.703   2.434   9.522 -3.9114 -0.4723  0.8121
 6162SOL     OW30121   4.558   2.228  11.556 -0.8835 -0.4823  0.2285
 6162SOL    HW130122   4.617   2.153  11.550  2.9794  2.6167 -0.5881
 6162SOL    HW230123   4.486   2.194  11.503 -0.1875 -1.9330  0.2041
 6163SOL     OW30124   4.463   3.318   2.114  0.2377 -0.8154  0.3796
 6163SOL    HW130125   4.448   3.403   2.074  0.1044 -0.4520  1.2038
 6163SOL    HW230126   4.431   3.261   2.044 -0.3455  0.0334 -0.0466
 6164SOL     OW30127   4.645   3.170   6.695 -0.0623  0.0858  0.4203
 6164SOL    HW130128   4.557   3.147   6.726  0.6080 -2.5849  0.3343
 6164SOL    HW230129   4.643   3.261   6.724  0.0804  0.1664  0.1747
 6165SOL     OW30130   3.610   0.602   3.800 -0.5065  0.6657 -0.2284
 6165SOL    HW130131   3.654   0.565   3.723 -0.0993 -1.4199  1.0174
 6165SOL    HW230132   3.657   0.558   3.871  1.3371  0.4709 -1.5441
 6166SOL     OW30133   2.060   1.117   3.764 -0.0969 -0.5780  0.0182
 6166SOL    HW130134   2.078   1.201   3.807  0.7498 -1.1093  0.7105
 6166SOL    HW230135   2.028   1.139   3.677 -1.5504 -2.6689  0.0363
 6167SOL     OW30136   4.546   3.089   5.393 -0.3729 -0.1552 -0.5752
 6167SOL    HW130137   4.548   3.109   5.486 -3.5251 -1.3552 -0.2545
 6167SOL    HW230138   4.624   3.036   5.376  0.4857  0.9794 -0.2331
 6168SOL     OW30139   1.847   4.242   4.833  0.0595 -0.0726  0.6603
 6168SOL    HW130140   1.912   4.277   4.773 -0.1319 -1.4325 -0.3246
 6168SOL    HW230141   1.775   4.288   4.790 -1.1171 -1.2822  1.3118
 6169SOL     OW30142   2.967   0.616   9.337 -0.2450  0.2819  0.4703
 6169SOL    HW130143   2.943   0.703   9.306  1.9044  0.8278  0.4013
 6169SOL    HW230144   3.054   0.615   9.297 -0.5748  3.5921 -0.2903
 6170SOL     OW30145   4.284   4.419   4.893  0.1088 -0.0394  0.5901
 6170SOL    HW130146   4.230   4.358   4.843  1.2881 -0.8929  0.3486
 6170SOL    HW230147   4.221   4.459   4.952  1.8028  0.2233  2.2023
 6171SOL     OW30148   4.140   0.138   1.855  0.2424  0.8756 -0.4445
 6171SOL    HW130149   4.147   0.069   1.788  0.6007 -0.6226  1.1162
 6171SOL    HW230150   4.126   0.085   1.934 -1.4275 -0.2631 -1.5109
 6172SOL     OW30151   1.041   1.069   8.680 -0.3740  0.0563  0.3383
 6172SOL    HW130152   1.005   1.145   8.635  1.4957 -0.5203 -2.1395
 6172SOL    HW230153   1.133   1.095   8.685 -0.3139  0.0454 -0.7255
 6173SOL     OW30154   3.188   4.218   0.451  0.2881  0.4194  0.1055
 6173SOL    HW130155   3.115   4.242   0.394  0.0359 -2.7602 -0.9033
 6173SOL    HW230156   3.259   4.243   0.392  0.2603  1.4993  0.5206
 6174SOL     OW30157   3.688   0.508   0.212  0.0687  0.3647  0.4159
 6174SOL    HW130158   3.681   0.495   0.117  1.2873 -1.2575  0.5584
 6174SOL    HW230159   3.639   0.435   0.249 -0.1813 -1.3948 -3.3719
 6175SOL     OW30160   2.815   1.460   3.080 -0.4004 -0.0861  0.4730
 6175SOL    HW130161   2.855   1.485   2.997 -0.9145 -1.3584 -0.1534
 6175SOL    HW230162   2.787   1.371   3.060 -0.0957  0.0155 -0.4389
 6176SOL     OW30163   3.461   3.107   8.789  0.0392 -0.4980 -0.8583
 6176SOL    HW130164   3.551   3.134   8.774 -0.5024  1.7762 -0.0205
 6176SOL    HW230165   3.447   3.028   8.736 -2.0721 -1.0050  0.4407
 6177SOL     OW30166   0.857   4.337  10.903  0.3715  0.1347 -0.1058
 6177SOL    HW130167   0.936   4.284  10.902  0.4705  0.2358  2.7453
 6177SOL    HW230168   0.847   4.328  10.809  0.4551  0.8899 -0.1895
 6178SOL     OW30169   4.472   0.458   8.305  0.2541  0.1230  0.1275
 6178SOL    HW130170   4.537   0.418   8.362 -0.4235  2.7636  2.8083
 6178SOL    HW230171   4.513   0.429   8.224  0.5932 -0.1659  0.4047
 6179SOL     OW30172   0.935   2.561  13.985  0.3156 -0.0077 -0.3878
 6179SOL    HW130173   0.854   2.526  13.947  2.0017 -3.5435 -0.6496
 6179SOL    HW230174   0.910   2.594  14.072  0.3659 -2.9726  0.7481
 6180SOL     OW30175   3.824   4.590  15.606 -0.1294 -0.1196  0.4494
 6180SOL    HW130176   3.786   4.664  15.655  0.0225 -0.4978  1.1419
 6180SOL    HW230177   3.879   4.641  15.547  1.6166 -2.7984 -0.2173
 6181SOL     OW30178   2.608   3.815   2.216 -0.4317 -0.1315 -0.1648
 6181SOL    HW130179   2.621   3.722   2.235  1.2430  0.4281  1.4437
 6181SOL    HW230180   2.619   3.846   2.306 -1.8422 -1.7658  0.5770
 6182SOL     OW30181   4.530   1.677   8.742  0.0177  0.0140 -0.3437
 6182SOL    HW130182   4.577   1.751   8.703  2.2591 -0.7753  0.8228
 6182SOL    HW230183   4.529   1.713   8.830 -1.3462 -0.7767 -0.0323
 6183SOL     OW30184   2.719   2.774   8.640 -0.0207  0.1919  0.3192
 6183SOL    HW130185   2.661   2.792   8.566  0.2387 -0.1265  0.0444
 6183SOL    HW230186   2.802   2.772   8.593  0.1096  1.8328  0.4823
 6184SOL     OW30187   3.307   3.693   0.034 -0.1571  0.0293  0.0549
 6184SOL    HW130188   3.336   3.756   0.100 -2.3462 -1.6395  2.6220
 6184SOL    HW230189   3.301   3.762  17.737 -1.0125 -0.5191 -0.4452
 6185SOL     OW30190   1.865   2.393  13.180 -0.1762 -0.2806  0.4534
 6185SOL    HW130191   1.921   2.339  13.124 -0.7399 -0.7902  0.3885
 6185SOL    HW230192   1.886   2.478  13.141  1.4378 -0.3551  1.1664
 6186SOL     OW30193   1.960   3.001   6.669  0.6503 -0.2479 -0.1249
 6186SOL    HW130194   2.018   3.004   6.745  0.8520  2.5237 -0.4147
 6186SOL    HW230195   1.949   3.093   6.645  2.1971 -0.0202  0.0716
 6187SOL     OW30196   1.440   3.432   4.685 -0.3842 -0.2119  0.1628
 6187SOL    HW130197   1.396   3.515   4.668  0.8143  0.5248  0.6902
 6187SOL    HW230198   1.365   3.375   4.670 -0.3389 -0.1245 -0.4096
 6188SOL     OW30199   1.776   1.633   7.822 -0.2324 -0.1203  0.5861
 6188SOL    HW130200   1.843   1.582   7.867  1.1009  0.2486 -0.9529
 6188SOL    HW230201   1.832   1.677   7.758  0.6115 -1.6985  0.2141
 6189SOL     OW30202   1.777   2.955   7.163 -0.5007  0.3050  0.1334
 6189SOL    HW130203   1.748   2.877   7.210  0.0671 -0.4711 -0.8010
 6189SOL    HW230204   1.841   2.970   7.233 -1.3613  0.8867  0.8000
 6190SOL     OW30205   2.945   0.074   1.965  0.2747 -0.1294  0.1731
 6190SOL    HW130206   3.020   0.031   2.006  1.2682  1.8124  0.4061
 6190SOL    HW230207   2.991   0.109   1.888 -1.0606  2.0886  0.3618
 6191SOL     OW30208   2.274   4.019   6.115  0.2089 -0.0676 -0.5536
 6191SOL    HW130209   2.366   4.018   6.142  0.3890  1.5148 -1.0895
 6191SOL    HW230210   2.248   4.099   6.160  0.0684 -1.4572  1.8453
 6192SOL     OW30211   1.403   1.348  15.785 -0.0489 -0.0433 -0.4063
 6192SOL    HW130212   1.350   1.404  15.841  0.5459 -0.9902  1.1176
 6192SOL    HW230213   1.356   1.265  15.790  1.6294 -0.9300  1.1812
 6193SOL     OW30214   2.498   4.201   9.958 -0.1238  0.3100 -0.0757
 6193SOL    HW130215   2.451   4.179   9.877  0.4922  0.2988 -0.4371
 6193SOL    HW230216   2.472   4.289   9.984 -1.6634 -0.4558  0.9803
 6194SOL     OW30217   2.483   4.390   3.357  0.5785 -0.1854 -0.0162
 6194SOL    HW130218   2.469   4.340   3.438 -0.3794  0.5005  0.2420
 6194SOL    HW230219   2.540   4.463   3.381 -0.1388  0.0053  1.1204
 6195SOL     OW30220   0.046   0.573   7.461 -0.0783  0.1806 -0.1523
 6195SOL    HW130221   0.099   0.645   7.427  0.2246 -0.5619 -1.2579
 6195SOL    HW230222   0.059   0.503   7.396  2.1248 -1.0396  1.6081
 6196SOL     OW30223   0.439   1.261   0.459  0.1050 -0.0639  0.4327
 6196SOL    HW130224   0.387   1.340   0.448 -0.9971 -1.1605 -2.5650
 6196SOL    HW230225   0.376   1.189   0.445 -1.9672  1.3932  2.3718
 6197SOL     OW30226   0.386   4.198   3.801  0.0191  0.0284 -0.2091
 6197SOL    HW130227   0.451   4.250   3.848  0.2307  0.5144 -1.0271
 6197SOL    HW230228   0.431   4.134   3.746  1.0370  0.0629  0.5842
 6198SOL     OW30229   0.458   4.686   6.405  0.7390 -0.2515  0.1451
 6198SOL    HW130230   0.399   4.650   6.339  3.7596 -0.0310 -2.6725
 6198SOL    HW230231   0.494   4.608   6.447  2.7306  0.8014  0.3700
 6199SOL     OW30232   3.443   0.577  17.645 -0.2756  0.0259 -0.4706
 6199SOL    HW130233   3.400   0.662  17.637  1.7463  1.1435  0.4652
 6199SOL    HW230234   3.534   0.605  17.653  0.0793 -0.9455 -1.0742
 6200SOL     OW30235   2.883   1.166   6.833  0.1409 -0.2507 -0.2569
 6200SOL    HW130236   2.824   1.101   6.794  0.1451 -2.0366  2.6981
 6200SOL    HW230237   2.947   1.115   6.883 -0.4882  1.2336  2.0520
 6201SOL     OW30238   1.395   3.858   2.829 -0.2065  0.4359  0.1243
 6201SOL    HW130239   1.463   3.835   2.767 -2.3230 -0.5759 -1.8296
 6201SOL    HW230240   1.324   3.843   2.766 -0.8264  1.3428  0.5998
 6202SOL     OW30241   3.006   1.331   5.108 -0.1045  0.1774  0.1932
 6202SOL    HW130242   3.077   1.271   5.130 -0.4763  0.1489  1.2946
 6202SOL    HW230243   3.042   1.415   5.135  0.8622 -0.1153 -0.1955
 6203SOL     OW30244   4.329   0.247   4.004 -0.6971  0.5283 -0.6557
 6203SOL    HW130245   4.401   0.187   4.024  0.8821  3.0833  1.3816
 6203SOL    HW230246   4.375   0.323   3.968  1.9399 -1.2118 -0.9583
 6204SOL     OW30247   2.239   1.259   8.659 -0.3086  0.8207  0.3288
 6204SOL    HW130248   2.288   1.177   8.660 -0.4871  0.7268  1.5946
 6204SOL    HW230249   2.297   1.325   8.697  1.3591 -0.2314 -0.4198
 6205SOL     OW30250   2.297   1.282   9.850  0.7384  0.1147  0.4435
 6205SOL    HW130251   2.307   1.222   9.924 -2.6408 -0.5243  0.3626
 6205SOL    HW230252   2.372   1.267   9.792 -0.9700 -1.6684 -1.3089
 6206SOL     OW30253   2.906   1.048   8.205 -0.1925  0.3383 -0.5371
 6206SOL    HW130254   2.936   0.961   8.180 -1.1077 -0.4435  1.0968
 6206SOL    HW230255   2.900   1.085   8.117 -0.7860  1.0956 -0.1809
 6207SOL     OW30256   1.956   4.457  17.186  0.0261 -0.4305  0.2670
 6207SOL    HW130257   1.923   4.368  17.182  0.9342 -0.8041  1.1209
 6207SOL    HW230258   1.900   4.487  17.115  0.4254  0.5298  0.3566
 6208SOL     OW30259   0.927   1.780   4.991  0.2273  0.3733  0.7998
 6208SOL    HW130260   0.985   1.715   5.032 -2.7730 -1.6426  1.8766
 6208SOL    HW230261   0.864   1.715   4.957  0.9936  1.1762 -2.1824
 6209SOL     OW30262   1.715   4.680   1.742  0.0038  0.1414  0.5269
 6209SOL    HW130263   1.798   4.703   1.783  0.2735 -0.5552  0.3678
 6209SOL    HW230264   1.678   0.014   1.698  2.2138  0.6203 -0.4863
 6210SOL     OW30265   1.584   1.139   4.262  0.5958  0.4029 -0.1931
 6210SOL    HW130266   1.568   1.068   4.199 -1.1922  0.0036  0.7090
 6210SOL    HW230267   1.583   1.211   4.199 -2.1249 -0.8742 -1.6045
 6211SOL     OW30268   4.683   3.589   4.693 -0.2972  0.5293 -0.4705
 6211SOL    HW130269   4.591   3.576   4.716  0.1325 -0.6633  0.5932
 6211SOL    HW230270   4.725   3.597   4.778 -0.3582 -0.6674 -0.3243
 6212SOL     OW30271   2.030   3.258   8.350 -0.0611  0.0276 -0.4266
 6212SOL    HW130272   2.021   3.338   8.298 -1.8366  0.7919  1.0686
 6212SOL    HW230273   1.973   3.272   8.426  1.8389 -0.2218  1.0745
 6213SOL     OW30274   2.037   0.662   6.786 -0.2744 -0.5741 -0.2860
 6213SOL    HW130275   2.049   0.573   6.820 -0.2271 -0.2377  0.5814
 6213SOL    HW230276   2.047   0.719   6.862 -2.1786 -1.3270  0.5436
 6214SOL     OW30277   0.725   3.233   6.049 -0.1605  0.4808 -0.1433
 6214SOL    HW130278   0.763   3.227   5.962  0.0195 -0.9030  0.0293
 6214SOL    HW230279   0.753   3.157   6.099  0.2708  0.9304  0.2970
 6215SOL     OW30280   1.015   2.877   2.102  0.1044 -0.4083  0.2166
 6215SOL    HW130281   1.053   2.937   2.038 -2.4292  1.2140  0.2448
 6215SOL    HW230282   1.070   2.885   2.180  0.3627  1.3229 -0.1375
 6216SOL     OW30283   3.007   3.377   1.945 -0.3670  0.2334  0.0703
 6216SOL    HW130284   3.008   3.404   1.854  0.6783 -1.3867 -0.3962
 6216SOL    HW230285   3.071   3.437   1.984 -1.5471  1.1200  0.6473
 6217SOL     OW30286   2.326   1.983  14.284  0.0006  0.0506 -0.1625
 6217SOL    HW130287   2.349   1.890  14.293  0.2032  0.0820 -0.3422
 6217SOL    HW230288   2.306   1.992  14.190 -1.7957  0.3585  0.2538
 6218SOL     OW30289   4.666   0.257  12.689  0.5548  0.1839 -0.6653
 6218SOL    HW130290   4.647   0.269  12.596 -1.6157 -2.2904 -0.5459
 6218SOL    HW230291   4.663   0.347  12.724 -1.3168 -0.7371  1.5681
 6219SOL     OW30292   4.664   2.386   2.351  0.3511 -0.0316  0.0496
 6219SOL    HW130293   0.010   2.421   2.360  0.0232 -0.0396  3.3225
 6219SOL    HW230294   4.682   2.296   2.324  1.5086  1.1245 -3.1072
 6220SOL     OW30295   2.324   0.289  12.369 -0.0273  0.2035  0.5505
 6220SOL    HW130296   2.256   0.322  12.310  0.6978 -0.6057 -0.7309
 6220SOL    HW230297   2.372   0.372  12.373 -0.8908  0.7790 -0.9341
 6221SOL     OW30298   1.391   1.148   3.255 -0.3175  0.2942 -0.0478
 6221SOL    HW130299   1.397   1.234   3.213 -0.0959 -0.0919 -0.8130
 6221SOL    HW230300   1.479   1.142   3.290 -1.0411  2.6062  2.1943
 6222SOL     OW30301   2.370   0.482   1.344  0.3338  0.5692 -0.3864
 6222SOL    HW130302   2.326   0.404   1.378  3.6721 -0.6927  1.1373
 6222SOL    HW230303   2.432   0.449   1.279  0.6360  1.0154 -0.3254
 6223SOL     OW30304   1.956   0.449   9.263 -0.4702  0.4689  0.5646
 6223SOL    HW130305   1.924   0.436   9.352 -1.1862 -0.8388  0.1199
 6223SOL    HW230306   1.871   0.460   9.220  0.4705 -0.6651 -1.5612
 6224SOL     OW30307   3.147   0.831   5.086 -0.8673  0.0711 -0.2282
 6224SOL    HW130308   3.106   0.860   5.168  1.2854  4.1705 -0.6313
 6224SOL    HW230309   3.159   0.737   5.099  1.8824  0.3498 -0.7840
 6225SOL     OW30310   1.604   2.372  13.095  0.5292 -0.0088  0.3903
 6225SOL    HW130311   1.544   2.375  13.170 -2.0129 -1.0782 -1.6267
 6225SOL    HW230312   1.691   2.383  13.135  0.7599 -1.5762  0.3119
 6226SOL     OW30313   3.585   4.230   4.531 -0.5593  0.3496 -0.1807
 6226SOL    HW130314   3.660   4.245   4.589  0.1402  2.1097 -1.4996
 6226SOL    HW230315   3.597   4.138   4.511  1.2131  0.2126  1.5670
 6227SOL     OW30316   1.180   3.060   8.405  0.4174  0.6900  0.1953
 6227SOL    HW130317   1.135   3.019   8.331 -0.4336  1.7204  0.1356
 6227SOL    HW230318   1.112   3.123   8.432 -0.7112 -1.1639  1.7002
 6228SOL     OW30319   1.436   3.653  12.230 -0.2248 -0.6285 -0.5187
 6228SOL    HW130320   1.405   3.584  12.289  0.0829  0.9769  1.4877
 6228SOL    HW230321   1.527   3.623  12.238 -0.2586 -0.3309  0.8707
 6229SOL     OW30322   4.307   2.813   2.160 -0.5918 -0.3711 -0.1767
 6229SOL    HW130323   4.308   2.871   2.236  0.8644  1.7374 -1.7926
 6229SOL    HW230324   4.216   2.784   2.169  0.9140 -4.5170  1.6885
 6230SOL     OW30325   0.753   4.511   1.637  0.1813  0.3545  0.1737
 6230SOL    HW130326   0.787   4.442   1.580 -0.0221 -0.8739  1.5211
 6230SOL    HW230327   0.787   4.594   1.604  1.7411  0.1136  1.1718
 6231SOL     OW30328   1.081   4.034   4.168  0.0412  0.7694  0.0507
 6231SOL    HW130329   1.086   4.094   4.094 -2.1002  0.0150 -0.7229
 6231SOL    HW230330   1.055   3.947   4.136  2.2953 -0.3699  1.2923
 6232SOL     OW30331   1.792   0.908   5.130 -0.0602  0.0860 -0.2955
 6232SOL    HW130332   1.864   0.858   5.168 -1.8870 -1.1800  1.4980
 6232SOL    HW230333   1.738   0.916   5.208  0.4919 -0.2482  0.1266
 6233SOL     OW30334   1.353   0.796   3.544 -0.3046  0.2707  0.6082
 6233SOL    HW130335   1.268   0.809   3.502  1.7967  1.5503 -3.2350
 6233SOL    HW230336   1.411   0.788   3.469 -0.3916 -0.2386  0.5958
 6234SOL     OW30337   4.437   1.275  16.494  0.1147 -0.5761 -1.0359
 6234SOL    HW130338   4.406   1.197  16.539  0.0841  0.7285  1.2173
 6234SOL    HW230339   4.437   1.244  16.403  2.3974 -3.4183 -0.0545
 6235SOL     OW30340   0.463   1.868   6.160  0.0970  0.5191  0.4170
 6235SOL    HW130341   0.387   1.842   6.211 -0.9301 -0.9697 -1.8722
 6235SOL    HW230342   0.441   1.827   6.077  0.0564 -0.6274  1.0023
 6236SOL     OW30343   2.022   0.906  12.308 -0.2842  0.8213  0.3937
 6236SOL    HW130344   1.960   0.851  12.259  0.3842 -1.8278  2.5273
 6236SOL    HW230345   2.084   0.839  12.335  0.0773  0.4912 -1.2718
 6237SOL     OW30346   2.597   3.293  14.644  0.0600  0.9593  0.0609
 6237SOL    HW130347   2.592   3.200  14.622 -1.5137  1.7475 -2.8988
 6237SOL    HW230348   2.510   3.320  14.614 -0.8677  0.1163  1.9830
 6238SOL     OW30349   3.674   3.863  16.229 -0.3203 -0.2376  0.0505
 6238SOL    HW130350   3.580   3.878  16.241 -0.0818  0.3456  1.1588
 6238SOL    HW230351   3.695   3.951  16.199  0.7090 -0.5432 -0.1029
 6239SOL     OW30352   2.109   4.331   3.535  0.5376 -0.2097  0.2165
 6239SOL    HW130353   2.033   4.295   3.491  1.7095 -1.9441 -0.3973
 6239SOL    HW230354   2.125   4.397   3.467  0.7901  0.6280  1.0892
 6240SOL     OW30355   3.254   0.046  15.944  0.2779  0.1266  0.7422
 6240SOL    HW130356   3.260   4.705  15.899  0.4687  0.4984  0.0558
 6240SOL    HW230357   3.167   0.073  15.915  0.3919 -0.6172 -0.3015
 6241SOL     OW30358   3.505   0.622  12.574 -0.5288  0.1474 -0.3537
 6241SOL    HW130359   3.512   0.554  12.641 -0.1684 -0.8079 -1.3526
 6241SOL    HW230360   3.515   0.574  12.491 -1.8705 -1.1194  0.2226
 6242SOL     OW30361   1.659   0.204  10.129  0.0807  0.3549 -0.0385
 6242SOL    HW130362   1.699   0.211  10.215  1.4123 -0.7178 -0.5804
 6242SOL    HW230363   1.728   0.243  10.076  0.0102 -0.4206 -0.6956
 6243SOL     OW30364   3.896   2.129   6.188 -0.4579  0.6096  0.7555
 6243SOL    HW130365   3.879   2.121   6.094  0.8276 -1.9685  0.7453
 6243SOL    HW230366   3.839   2.069   6.236 -0.8500  1.0239  0.8056
 6244SOL     OW30367   1.017   0.697  12.057 -0.5094  0.6901  0.6400
 6244SOL    HW130368   1.055   0.778  12.092  0.3248  0.7041 -0.2846
 6244SOL    HW230369   1.095   0.650  12.029 -1.5086 -1.0100  0.7330
 6245SOL     OW30370   2.880   0.681   8.931 -0.1928 -0.4458 -0.1787
 6245SOL    HW130371   2.835   0.664   9.013  1.5481  3.1481  1.5468
 6245SOL    HW230372   2.848   0.602   8.887 -0.4922 -0.7863  0.6648
 6246SOL     OW30373   3.310   1.869   4.127  0.4565 -0.9259 -0.8159
 6246SOL    HW130374   3.303   1.801   4.060  0.3029  1.2716 -3.0234
 6246SOL    HW230375   3.251   1.839   4.196  0.5877  0.7208 -0.0063
 6247SOL     OW30376   0.528   2.362   7.040  0.9216 -0.1740 -0.2711
 6247SOL    HW130377   0.491   2.438   6.995  1.3904  0.8939  1.1523
 6247SOL    HW230378   0.576   2.390   7.118 -0.7753  0.0627  0.6783
 6248SOL     OW30379   2.864   3.389  11.186  0.2622 -0.2488  0.1230
 6248SOL    HW130380   2.786   3.421  11.141 -0.5858 -2.7206 -0.1310
 6248SOL    HW230381   2.828   3.357  11.269 -1.0315  0.9838  0.0405
 6249SOL     OW30382   3.255   0.962   4.895  0.1952 -0.1912 -0.6875
 6249SOL    HW130383   3.238   0.945   4.987  0.1485 -0.2885 -0.7141
 6249SOL    HW230384   3.272   0.876   4.856  1.0895 -0.9050  1.2909
 6250SOL     OW30385   0.547   1.572   6.069  0.2753  0.0128 -0.0366
 6250SOL    HW130386   0.507   1.570   6.156  0.4429 -1.2541  0.0093
 6250SOL    HW230387   0.641   1.577   6.087  0.4275 -1.1507 -0.5075
 6251SOL     OW30388   2.608   2.276   1.709 -0.0941 -0.1095  0.2755
 6251SOL    HW130389   2.609   2.370   1.725  1.7148  0.0007 -0.4516
 6251SOL    HW230390   2.583   2.250   1.798  1.1533  0.7304  0.8700
 6252SOL     OW30391   2.109   3.951   8.999  0.5395  0.2768 -0.0333
 6252SOL    HW130392   2.023   3.934   9.036  0.4465  0.1036 -0.3324
 6252SOL    HW230393   2.090   3.952   8.905 -1.9978 -2.0069  0.4565
 6253SOL     OW30394   0.751   4.164   6.816 -0.2514 -0.0807  0.0785
 6253SOL    HW130395   0.715   4.126   6.736 -2.5658  0.4370  0.8883
 6253SOL    HW230396   0.842   4.135   6.809 -0.0526  0.2495  1.3727
 6254SOL     OW30397   4.286   2.547  10.477 -0.2101 -0.1244 -0.1623
 6254SOL    HW130398   4.206   2.497  10.490  0.0801 -0.4380  0.4236
 6254SOL    HW230399   4.323   2.480  10.419 -0.5828  0.2411 -0.8208
 6255SOL     OW30400   4.417   1.389   6.977  0.4354 -0.1643 -0.2541
 6255SOL    HW130401   4.399   1.482   6.990 -0.4006 -0.0973 -1.8883
 6255SOL    HW230402   4.476   1.378   7.052 -0.7987 -0.3569  0.6807
 6256SOL     OW30403   0.648   0.897   5.986 -0.1288  0.4003  0.8355
 6256SOL    HW130404   0.654   0.833   5.916  0.8138  1.6217 -0.2060
 6256SOL    HW230405   0.589   0.962   5.947  2.1541  0.6727 -2.0882
 6257SOL     OW30406   3.089   0.452   8.287  0.4881  0.0433 -0.2389
 6257SOL    HW130407   3.063   0.511   8.216  2.3814  2.5362  1.1139
 6257SOL    HW230408   3.156   0.406   8.237  0.3632  0.1346 -0.4903
 6258SOL     OW30409   4.405   4.564   6.329  0.7983 -0.3139 -0.3050
 6258SOL    HW130410   4.487   4.527   6.363  1.7454  0.7999 -1.3809
 6258SOL    HW230411   4.394   4.627   6.400  0.3020  1.1354 -1.6698
 6259SOL     OW30412   3.322   4.732   2.548  1.0225  0.0541 -0.4748
 6259SOL    HW130413   3.231   4.738   2.521  0.9411 -1.2294 -0.5038
 6259SOL    HW230414   3.312   4.676   2.625 -0.8342 -0.6989 -1.2781
 6260SOL     OW30415   2.420   4.012   0.128  0.0148  0.6214 -0.3518
 6260SOL    HW130416   2.506   4.001   0.087  0.8609  1.0514  1.3049
 6260SOL    HW230417   2.388   3.939   0.075  2.2059 -0.9967  0.5378
 6261SOL     OW30418   3.528   0.686   9.201 -0.4313  0.3780  0.0313
 6261SOL    HW130419   3.539   0.658   9.110  1.2819 -2.9878  1.2803
 6261SOL    HW230420   3.593   0.756   9.210 -0.7493  0.7089 -0.2599
 6262SOL     OW30421   4.050   1.040  13.610 -0.1553  0.0494  0.5749
 6262SOL    HW130422   4.120   0.978  13.588  0.7770  0.6674  1.8068
 6262SOL    HW230423   4.030   1.073  13.522  0.0272 -0.2712  0.4113
 6263SOL     OW30424   2.047   4.584  17.613 -0.3437  0.0309  0.2901
 6263SOL    HW130425   2.010   4.520  17.554 -3.3206 -0.2251  2.4047
 6263SOL    HW230426   2.086   4.524  17.676 -0.0419  0.3216  0.3827
 6264SOL     OW30427   3.356   1.814  10.793  0.9376 -0.3786  0.0708
 6264SOL    HW130428   3.318   1.729  10.818  2.3908 -1.4486 -1.3671
 6264SOL    HW230429   3.320   1.821  10.704  1.6927  2.6126  0.0235
 6265SOL     OW30430   2.547   1.652   3.481  0.1713  0.0622 -0.2990
 6265SOL    HW130431   2.459   1.690   3.486 -0.3747 -1.3400  0.4946
 6265SOL    HW230432   2.543   1.607   3.565 -2.9892 -0.6354 -0.8303
 6266SOL     OW30433   0.496   1.536   1.620 -0.3641  0.2021 -0.5082
 6266SOL    HW130434   0.485   1.510   1.711  0.4914  1.1527 -0.1326
 6266SOL    HW230435   0.496   1.631   1.617  1.0865  0.2308  0.6061
 6267SOL     OW30436   1.259   2.214   2.026  0.1382 -0.0648 -0.1587
 6267SOL    HW130437   1.224   2.250   2.107 -0.5590 -2.7272  0.7165
 6267SOL    HW230438   1.175   2.206   1.981 -0.4269  0.4528  0.8183
 6268SOL     OW30439   1.082   2.354   6.632  0.3411  0.4399  0.2628
 6268SOL    HW130440   1.069   2.262   6.654  1.6867  0.1076 -0.3200
 6268SOL    HW230441   1.133   2.379   6.709 -0.4799 -1.2498  1.3311
 6269SOL     OW30442   3.254   1.260   5.403  0.2053  0.3348  0.1008
 6269SOL    HW130443   3.334   1.228   5.443 -1.1884  0.2530  2.8384
 6269SOL    HW230444   3.194   1.191   5.432 -1.6684  1.7328 -0.4332
 6270SOL     OW30445   4.463   4.603   4.815  0.1496  0.0733 -0.0068
 6270SOL    HW130446   4.536   4.543   4.802 -1.2060 -1.0377 -2.4725
 6270SOL    HW230447   4.391   4.540   4.805  0.3923 -0.1169 -0.5260
 6271SOL     OW30448   4.158   3.820  12.800  0.0638  0.0488  0.6003
 6271SOL    HW130449   4.072   3.827  12.843 -1.5775 -1.3283 -2.4282
 6271SOL    HW230450   4.146   3.751  12.734 -1.0992  0.7320  0.1018
 6272SOL     OW30451   0.285   2.598   4.752  0.3247 -0.1251 -0.3297
 6272SOL    HW130452   0.339   2.649   4.692 -2.1012 -0.0128 -2.4184
 6272SOL    HW230453   0.201   2.643   4.742  1.0191  1.1965 -0.2002
 6273SOL     OW30454   4.560   3.747   5.371 -0.1562  0.6360 -0.1972
 6273SOL    HW130455   4.550   3.837   5.403 -1.1804  0.6928 -0.6555
 6273SOL    HW230456   4.551   3.698   5.452 -0.0368  1.8410  0.5572
 6274SOL     OW30457   3.807   2.631  17.631  0.1322  0.4099 -0.0149
 6274SOL    HW130458   3.845   2.639  17.718  1.5762  1.3142 -0.7310
 6274SOL    HW230459   3.719   2.601  17.651  0.0213  0.2485 -0.7344
 6275SOL     OW30460   1.686   2.013   4.006  0.6121 -0.3684  0.2277
 6275SOL    HW130461   1.723   2.059   3.931  0.3740 -2.0999 -0.9361
 6275SOL    HW230462   1.751   1.954   4.043  0.6040 -0.2364  0.4522
 6276SOL     OW30463   0.518   2.533  10.425 -0.0950 -0.1948 -0.2902
 6276SOL    HW130464   0.486   2.570  10.342 -1.3469 -1.1418 -0.2253
 6276SOL    HW230465   0.444   2.480  10.456 -0.3229  0.2238 -0.1134
 6277SOL     OW30466   1.833   0.317   2.083  0.2377 -0.4181 -0.0324
 6277SOL    HW130467   1.796   0.259   2.150 -1.2095  1.4810  0.8116
 6277SOL    HW230468   1.919   0.276   2.081  0.3781 -0.2211  1.5133
 6278SOL     OW30469   0.008   4.624   3.554  0.6448 -0.1887 -0.0707
 6278SOL    HW130470   0.027   4.715   3.533 -0.7807  0.0126 -0.4834
 6278SOL    HW230471   0.022   4.630   3.648  1.8759 -1.7612 -0.1557
 6279SOL     OW30472   2.175   4.662   6.524  0.6107  0.0147  0.5535
 6279SOL    HW130473   2.238   4.684   6.592  0.9180  2.2762 -0.4643
 6279SOL    HW230474   2.224   4.621   6.452 -0.5154 -0.2276 -0.0677
 6280SOL     OW30475   0.127   3.729  11.939  0.3329  0.6211  0.2377
 6280SOL    HW130476   0.095   3.749  12.027  0.1486 -0.1769  0.3514
 6280SOL    HW230477   0.099   3.804  11.887 -1.3097  0.9532  1.5944
 6281SOL     OW30478   1.312   1.975  17.360 -0.2827  0.1253 -0.4230
 6281SOL    HW130479   1.220   1.982  17.384 -0.3226 -0.6170 -0.3696
 6281SOL    HW230480   1.349   2.058  17.392  0.2660 -0.0036 -0.7109
 6282SOL     OW30481   0.699   0.182  13.839 -0.1634 -0.2415  0.5178
 6282SOL    HW130482   0.678   0.179  13.746 -3.4923 -0.2483  1.2717
 6282SOL    HW230483   0.767   0.115  13.841  0.9435  0.8731  0.7342
 6283SOL     OW30484   2.734   2.636  15.316 -0.2000 -0.2284 -0.0541
 6283SOL    HW130485   2.785   2.555  15.314  1.2563  0.6390  1.1989
 6283SOL    HW230486   2.651   2.594  15.336  0.6822 -1.5229  0.9127
 6284SOL     OW30487   2.170   3.633  16.106 -0.2969 -0.4571 -0.5041
 6284SOL    HW130488   2.191   3.570  16.175 -0.3517  0.8504  0.7053
 6284SOL    HW230489   2.216   3.608  16.026  1.8099 -0.2325  0.6318
 6285SOL     OW30490   3.253   0.083   6.289 -0.1980 -0.0695  0.0362
 6285SOL    HW130491   3.168   0.068   6.331 -0.3758  1.8155  0.3398
 6285SOL    HW230492   3.239   0.113   6.199  0.5782 -2.8129 -0.9995
 6286SOL     OW30493   0.582   1.186   9.259 -0.2526 -0.1083 -0.0144
 6286SOL    HW130494   0.545   1.132   9.188  0.6654 -0.7962  0.0305
 6286SOL    HW230495   0.566   1.136   9.339 -1.8884  0.4508  0.0199
 6287SOL     OW30496   2.533   3.130  16.867 -0.2416  0.0473 -0.0386
 6287SOL    HW130497   2.462   3.193  16.851 -0.5685 -0.2029  0.3977
 6287SOL    HW230498   2.475   3.064  16.905 -0.9788  0.4276 -0.4936
 6288SOL     OW30499   0.113   1.187   8.072 -0.4453 -0.2082  0.0479
 6288SOL    HW130500   0.071   1.258   8.024  0.8255  0.3468 -0.2426
 6288SOL    HW230501   0.068   1.107   8.044 -0.7482 -0.1407  0.3355
 6289SOL     OW30502   4.642   2.211  14.807 -0.3117 -0.6778  0.4202
 6289SOL    HW130503   4.574   2.278  14.801 -0.7734 -1.2609 -0.8217
 6289SOL    HW230504   4.669   2.224  14.898 -0.0598  0.3943  0.2020
 6290SOL     OW30505   0.104   3.885   8.305  0.0462 -0.7395 -0.2830
 6290SOL    HW130506   0.014   3.890   8.338 -1.3025 -0.9198 -3.9128
 6290SOL    HW230507   0.148   3.919   8.383  2.4783 -2.5530 -0.8706
 6291SOL     OW30508   2.237   2.610   1.807  0.4535 -0.3978 -0.2132
 6291SOL    HW130509   2.241   2.699   1.770  0.2580 -0.0938  0.4896
 6291SOL    HW230510   2.293   2.571   1.741  1.3888 -1.9480  1.4899
 6292SOL     OW30511   1.180   1.243   7.455  0.1255  0.0876  0.0972
 6292SOL    HW130512   1.147   1.297   7.383 -0.0348 -1.4998 -1.0429
 6292SOL    HW230513   1.133   1.271   7.533 -0.3862  0.1588 -0.2391
 6293SOL     OW30514   2.960   0.710  14.513  0.2295 -0.3761 -0.2083
 6293SOL    HW130515   2.893   0.644  14.525  0.3424 -0.2948  0.8247
 6293SOL    HW230516   3.016   0.676  14.443  0.0925 -0.9007 -0.0608
 6294SOL     OW30517   4.304   2.162   9.138  0.5841  0.4854  0.2305
 6294SOL    HW130518   4.352   2.241   9.159  0.9012  0.1088  0.9169
 6294SOL    HW230519   4.362   2.108   9.191 -1.4046 -0.1364  1.8080
 6295SOL     OW30520   2.674   2.904   3.203 -0.8893  0.2430 -0.2542
 6295SOL    HW130521   2.612   2.910   3.276 -0.5810  0.5819 -0.0225
 6295SOL    HW230522   2.708   2.815   3.208  0.1094  0.5773 -1.2014
 6296SOL     OW30523   0.425   0.800   7.987 -0.0111 -0.6594 -0.0335
 6296SOL    HW130524   0.383   0.803   7.901  0.1489 -0.7319 -0.1136
 6296SOL    HW230525   0.412   0.887   8.025 -3.0441 -3.0535  4.3870
 6297SOL     OW30526   4.528   0.219   6.723  0.2684  0.5872 -0.2834
 6297SOL    HW130527   4.555   0.292   6.780 -0.2405  0.6697 -0.1499
 6297SOL    HW230528   4.505   0.149   6.784  1.4029 -0.3822 -0.9655
 6298SOL     OW30529   2.421   2.849  15.759  0.3758 -0.2575 -0.3471
 6298SOL    HW130530   2.343   2.849  15.814  0.4687 -0.0935 -0.2180
 6298SOL    HW230531   2.444   2.941  15.758  1.8568 -0.6474 -2.5305
 6299SOL     OW30532   0.196   0.193   0.368  0.3091 -0.4719  0.7372
 6299SOL    HW130533   0.139   0.161   0.437 -1.0125  1.6242  0.6354
 6299SOL    HW230534   0.258   0.120   0.369  1.3655  0.4551  2.8714
 6300SOL     OW30535   2.702   0.863   3.154 -0.2121  0.0243 -0.5640
 6300SOL    HW130536   2.636   0.808   3.196 -0.5345  1.1196  0.3586
 6300SOL    HW230537   2.765   0.799   3.120  1.4371  0.9369  0.7420
 6301SOL     OW30538   2.468   1.334   7.279  0.0437  0.0970  0.0068
 6301SOL    HW130539   2.525   1.409   7.296  0.7519 -0.2865 -0.6534
 6301SOL    HW230540   2.419   1.339   7.361 -1.9489 -3.5483 -0.9759
 6302SOL     OW30541   2.779   4.670  16.204 -0.2644 -0.3822  0.0333
 6302SOL    HW130542   2.695   4.691  16.162  0.0126  2.0942  0.7141
 6302SOL    HW230543   2.815   0.015  16.214  1.2201 -0.8364 -1.3537
 6303SOL     OW30544   3.760   4.212   7.931 -0.2166  0.2629  0.0744
 6303SOL    HW130545   3.780   4.156   7.856  0.9977  2.1391 -0.9772
 6303SOL    HW230546   3.667   4.209   7.953 -0.7108  0.8539 -1.9600
 6304SOL     OW30547   2.807   0.497  14.582  0.2505  0.6928  0.5714
 6304SOL    HW130548   2.775   0.408  14.596 -0.2773  0.6968 -0.5486
 6304SOL    HW230549   2.867   0.504  14.656  1.6015 -0.3665 -0.4381
 6305SOL     OW30550   0.441   3.977   8.092 -0.0584 -0.2298 -0.4183
 6305SOL    HW130551   0.417   3.890   8.125  2.5938  0.0739  2.2799
 6305SOL    HW230552   0.353   4.013   8.083 -0.1454 -0.3159  0.1134
 6306SOL     OW30553   3.694   0.348   4.644  0.0434 -0.3301 -0.4368
 6306SOL    HW130554   3.600   0.332   4.637  0.0948 -0.1399 -1.4959
 6306SOL    HW230555   3.734   0.261   4.642  0.2192 -0.2574 -0.1854
 6307SOL     OW30556   3.118   0.389   2.923 -0.3100  0.2594 -0.0560
 6307SOL    HW130557   3.180   0.393   2.996 -0.0961  0.3660 -0.2462
 6307SOL    HW230558   3.172   0.416   2.849 -0.1371  0.8434  0.2893
 6308SOL     OW30559   4.479   3.378  12.287  0.2602 -0.0183  0.0822
 6308SOL    HW130560   4.517   3.307  12.339 -1.2466 -2.6249 -2.3305
 6308SOL    HW230561   4.388   3.360  12.310  0.4454  0.2326  1.0265
 6309SOL     OW30562   1.244   1.141   4.641  0.1643 -0.4776  0.0444
 6309SOL    HW130563   1.201   1.125   4.725  1.6553 -0.5988  0.7713
 6309SOL    HW230564   1.225   1.234   4.631  0.9885 -0.1573  1.4317
 6310SOL     OW30565   1.523   0.112   3.900  0.0851  0.0607 -1.1255
 6310SOL    HW130566   1.613   0.124   3.929 -0.5409  2.8684 -0.3256
 6310SOL    HW230567   1.481   0.193   3.930 -1.2933 -0.4648 -1.6342
 6311SOL     OW30568   0.465   2.295   3.572  0.0704 -0.1206  0.3221
 6311SOL    HW130569   0.429   2.384   3.564  0.4269  0.0391  0.5460
 6311SOL    HW230570   0.405   2.245   3.516 -1.7349  0.8810  1.3726
 6312SOL     OW30571   0.176   4.424   2.223 -0.6051  0.3473 -0.2641
 6312SOL    HW130572   0.203   4.364   2.293  1.9476  1.9686  0.1250
 6312SOL    HW230573   0.241   4.494   2.229 -0.8849  0.5599  0.3043
 6313SOL     OW30574   2.266   2.568  17.016 -0.0659 -0.2001 -0.0357
 6313SOL    HW130575   2.204   2.562  17.088 -2.3878  1.6087 -1.8956
 6313SOL    HW230576   2.308   2.483  17.006 -0.0901 -0.1753 -0.3541
 6314SOL     OW30577   3.874   0.275   6.087 -0.1833 -0.1039  0.0401
 6314SOL    HW130578   3.958   0.309   6.057  0.0812  0.3375  1.2547
 6314SOL    HW230579   3.892   0.239   6.174 -2.1498 -0.0419  0.4876
 6315SOL     OW30580   3.181   2.857   4.027 -0.1270 -0.8835 -0.4587
 6315SOL    HW130581   3.232   2.838   4.105  0.6649  0.7013 -0.5837
 6315SOL    HW230582   3.093   2.859   4.064 -0.0485 -2.0479 -0.2183
 6316SOL     OW30583   4.636   2.094   2.762  0.1280  0.1930  0.6329
 6316SOL    HW130584   4.591   2.010   2.749  0.8701 -0.2504  0.9462
 6316SOL    HW230585   4.612   2.133   2.678  0.5841  0.1894  0.5013
 6317SOL     OW30586   2.320   2.413   4.354  0.3277 -0.1157 -0.1114
 6317SOL    HW130587   2.411   2.386   4.367  0.0192 -0.9060  0.3958
 6317SOL    HW230588   2.325   2.500   4.314 -1.1312  0.5430  1.1318
 6318SOL     OW30589   4.253   1.151   6.061 -0.4050 -0.0882  0.0463
 6318SOL    HW130590   4.289   1.216   6.001 -0.3256  0.0018  0.1905
 6318SOL    HW230591   4.328   1.092   6.071 -0.2793 -0.3183 -2.1398
 6319SOL     OW30592   4.710   0.510   2.486 -0.4785  0.0115  0.0212
 6319SOL    HW130593   4.668   0.594   2.504 -0.7681  0.0437 -0.7927
 6319SOL    HW230594   0.052   0.547   2.465 -0.5107  0.9572  1.5602
 6320SOL     OW30595   1.133   3.003   9.066 -0.4865  0.4151 -0.8051
 6320SOL    HW130596   1.130   3.034   9.157 -0.1685  0.0351 -0.6613
 6320SOL    HW230597   1.221   2.965   9.071 -0.4152  0.5461 -1.1089
 6321SOL     OW30598   4.103   0.227  13.984 -0.2059  0.2352  0.6724
 6321SOL    HW130599   4.165   0.208  13.914 -1.0356  0.6565 -0.1731
 6321SOL    HW230600   4.032   0.170  13.954 -0.7421  1.4513 -0.3833
 6322SOL     OW30601   2.650   1.604   3.733  0.0745 -0.4276  0.3432
 6322SOL    HW130602   2.691   1.690   3.730  1.0243 -0.8874 -0.0961
 6322SOL    HW230603   2.667   1.568   3.820  0.7937 -1.8105 -0.3679
 6323SOL     OW30604   2.980   2.781   8.614 -0.0381 -0.0112  0.5272
 6323SOL    HW130605   2.999   2.831   8.535 -1.3161  0.5208  0.5479
 6323SOL    HW230606   3.042   2.709   8.605  0.7010  0.6201  0.6002
 6324SOL     OW30607   0.206   0.364   6.818 -0.2336 -0.8053  0.0568
 6324SOL    HW130608   0.274   0.396   6.878 -0.2760  0.6782 -0.6974
 6324SOL    HW230609   0.168   0.447   6.791 -2.1182 -1.4656  0.7034
 6325SOL     OW30610   0.585   1.095  10.021 -0.2864 -0.3306 -0.1432
 6325SOL    HW130611   0.546   1.151  10.089  0.6769 -1.4258  1.3233
 6325SOL    HW230612   0.656   1.055  10.071  0.4168  0.4501 -0.5282
 6326SOL     OW30613   0.138   3.858  15.075 -0.4610  0.3764  0.0522
 6326SOL    HW130614   0.144   3.889  14.985 -0.4187  1.3608  0.3982
 6326SOL    HW230615   0.170   3.769  15.058  0.8842  0.7664  0.5282
 6327SOL     OW30616   1.431   2.389   8.613 -0.1386 -0.1493 -0.1352
 6327SOL    HW130617   1.489   2.440   8.670  1.2415  0.3699 -2.0441
 6327SOL    HW230618   1.488   2.313   8.612  0.4488  0.2731  0.5488
 6328SOL     OW30619   2.260   2.768  16.833  0.3127 -0.0153 -0.4709
 6328SOL    HW130620   2.250   2.710  16.909 -2.0746 -0.5559 -1.1841
 6328SOL    HW230621   2.197   2.835  16.856 -0.4536 -1.3437  1.2899
 6329SOL     OW30622   2.624   2.434   8.476 -0.2713 -0.0607  0.0679
 6329SOL    HW130623   2.565   2.378   8.527 -0.1914  0.0198  0.2502
 6329SOL    HW230624   2.714   2.423   8.509  0.2228  0.2296 -1.1759
 6330SOL     OW30625   3.571   4.516   4.607  0.2385 -0.0899 -0.1222
 6330SOL    HW130626   3.531   4.597   4.576  1.1869  0.0712 -0.9302
 6330SOL    HW230627   3.506   4.449   4.586  0.9786 -0.2008 -2.1089
 6331SOL     OW30628   2.167   4.511   3.734  0.7367 -0.3265 -0.1227
 6331SOL    HW130629   2.207   4.564   3.666  0.3665 -0.4316 -0.4203
 6331SOL    HW230630   2.137   4.444   3.673  2.4942 -1.4921  0.2875
 6332SOL     OW30631   0.215   4.576  16.573 -0.0138  0.8148  0.3737
 6332SOL    HW130632   0.136   4.625  16.593 -0.1728  1.5394 -2.0841
 6332SOL    HW230633   0.212   4.494  16.623  2.0167  0.4191 -0.1282
 6333SOL     OW30634   2.863   1.236   8.980  0.5510 -0.3189  0.2102
 6333SOL    HW130635   2.931   1.188   9.028 -0.0709 -1.8372 -0.4345
 6333SOL    HW230636   2.846   1.189   8.898  0.7672  0.4186 -0.2641
 6334SOL     OW30637   2.307   3.317  13.864 -0.3762  0.0431 -0.2519
 6334SOL    HW130638   2.245   3.266  13.812 -0.3192 -0.0444 -0.2326
 6334SOL    HW230639   2.389   3.278  13.835 -0.5343 -1.1365  0.9316
 6335SOL     OW30640   3.559   4.148  17.543  0.2558  0.0190 -0.0420
 6335SOL    HW130641   3.653   4.148  17.526  0.1306 -2.1001 -0.7598
 6335SOL    HW230642   3.540   4.181  17.631  0.4080 -1.2973  0.4874
 6336SOL     OW30643   2.849   2.773   9.658 -0.1191  0.1398 -0.2287
 6336SOL    HW130644   2.934   2.815   9.643 -0.6295  1.1540 -0.2877
 6336SOL    HW230645   2.869   2.682   9.634 -1.8599  0.0341 -1.3386
 6337SOL     OW30646   1.099   4.690   0.995 -0.2589  0.3550 -0.3967
 6337SOL    HW130647   1.106   4.654   1.084  0.5260 -2.9846 -1.8173
 6337SOL    HW230648   1.150   0.027   1.005  2.1783 -1.1488 -0.8652
 6338SOL     OW30649   0.167   3.462   6.705 -0.5787 -0.4812 -0.7789
 6338SOL    HW130650   0.097   3.524   6.684  0.2857  1.1050  0.9746
 6338SOL    HW230651   0.156   3.471   6.800  0.5299 -2.0798 -0.5118
 6339SOL     OW30652   0.813   3.800  12.522 -0.0222  0.3728 -1.0106
 6339SOL    HW130653   0.754   3.860  12.567  1.3519 -0.4722  1.8717
 6339SOL    HW230654   0.834   3.856  12.446  0.5803  0.5920 -0.6859
 6340SOL     OW30655   4.431   3.179   4.961 -0.2360 -0.5546  0.0943
 6340SOL    HW130656   4.352   3.227   4.985  0.4224 -0.0920  1.3250
 6340SOL    HW230657   4.494   3.242   4.995 -1.0869 -0.4103  1.4227
 6341SOL     OW30658   2.963   0.905   9.225  0.5161  0.1169 -0.7061
 6341SOL    HW130659   2.889   0.966   9.231  0.9631  0.6914 -1.1147
 6341SOL    HW230660   2.975   0.909   9.131  1.3395 -1.1698 -0.6561
 6342SOL     OW30661   0.100   0.873   3.301  0.7701  0.1026  0.8547
 6342SOL    HW130662   0.167   0.881   3.233 -0.6486 -0.0703 -0.5682
 6342SOL    HW230663   0.102   0.958   3.343 -0.5835  0.9968 -0.8600
 6343SOL     OW30664   0.219   1.530   2.254 -0.2290 -0.0169 -0.1216
 6343SOL    HW130665   0.150   1.500   2.313 -1.8065 -1.1847 -2.5925
 6343SOL    HW230666   0.299   1.488   2.284  0.6527  0.3397 -1.9790
 6344SOL     OW30667   2.113   0.822   8.931  0.1621  0.2618  0.1042
 6344SOL    HW130668   2.059   0.749   8.900  0.3118  0.6525 -1.0752
 6344SOL    HW230669   2.188   0.776   8.967 -0.5422  0.4939  1.8699
 6345SOL     OW30670   0.122   3.955   1.858  0.2815  0.3202  1.0011
 6345SOL    HW130671   0.080   3.917   1.935 -0.0984  2.1024  1.6849
 6345SOL    HW230672   0.143   4.042   1.894  2.7066  0.7693 -1.4997
 6346SOL     OW30673   4.623   4.420   3.411 -0.1758 -0.4114  0.4122
 6346SOL    HW130674   4.665   4.474   3.478  1.5927 -1.1160 -0.1154
 6346SOL    HW230675   4.648   4.468   3.332 -0.1111 -1.5242 -0.2521
 6347SOL     OW30676   0.248   2.123   2.001 -0.2816 -0.6600 -0.1811
 6347SOL    HW130677   0.250   2.199   1.942  0.7397  0.0768  0.7951
 6347SOL    HW230678   0.340   2.098   1.999  0.3122  1.5041  0.3019
 6348SOL     OW30679   2.179   3.520   2.741  0.6055 -0.2779 -0.3034
 6348SOL    HW130680   2.084   3.531   2.738  0.6751  0.1652 -0.9883
 6348SOL    HW230681   2.200   3.572   2.818  1.3748  1.4946 -1.7064
 6349SOL     OW30682   2.390   0.544  15.555  0.7224 -0.3131  0.0335
 6349SOL    HW130683   2.302   0.580  15.543  0.0012 -1.6745  1.2714
 6349SOL    HW230684   2.454   0.574  15.490  0.7873 -0.6216 -0.0455
 6350SOL     OW30685   3.913   1.720   6.838 -0.5107  0.1307 -0.0643
 6350SOL    HW130686   3.874   1.793   6.886  1.7765  0.2464  1.6134
 6350SOL    HW230687   3.839   1.662   6.818  1.1478 -1.2643 -2.2274
 6351SOL     OW30688   3.575   4.582   6.438  0.6695  0.3163 -0.0226
 6351SOL    HW130689   3.559   4.671   6.407 -0.3914  0.0717 -0.1662
 6351SOL    HW230690   3.486   4.548   6.431  0.9289 -0.3406 -0.1197
 6352SOL     OW30691   1.505   2.304  11.687  0.4596  0.4402 -0.5837
 6352SOL    HW130692   1.596   2.280  11.705 -0.0449 -0.1897  1.1823
 6352SOL    HW230693   1.508   2.302  11.591 -1.9755 -1.9798 -0.6152
 6353SOL     OW30694   0.135   3.665   5.961 -0.0789  0.0655 -0.2343
 6353SOL    HW130695   0.092   3.645   5.877  1.5420  0.0521 -1.0566
 6353SOL    HW230696   0.057   3.703   6.002  0.9264  2.2868 -0.3569
 6354SOL     OW30697   3.359   2.680   9.500 -0.8367  0.2806  0.5324
 6354SOL    HW130698   3.292   2.614   9.483 -0.8625  0.6922 -0.9244
 6354SOL    HW230699   3.311   2.729   9.567 -0.9501 -1.7049  1.9114
 6355SOL     OW30700   3.876   2.533   3.904 -0.1124  0.0648 -0.2673
 6355SOL    HW130701   3.863   2.461   3.842 -0.9718  1.2521 -1.4618
 6355SOL    HW230702   3.967   2.561   3.895  0.2959 -1.0924  0.2778
 6356SOL     OW30703   1.386   0.175   7.787  0.3551 -0.2600  0.1594
 6356SOL    HW130704   1.298   0.188   7.823 -0.7877 -0.8723 -2.4330
 6356SOL    HW230705   1.446   0.170   7.862  1.8329 -2.6361 -1.2045
 6357SOL     OW30706   3.710   0.142   9.018  0.0151 -0.0200 -0.7371
 6357SOL    HW130707   3.686   0.226   9.058  1.8243  0.5253 -0.7983
 6357SOL    HW230708   3.654   0.090   9.075 -0.7969  0.4771 -1.0900
 6358SOL     OW30709   0.435   1.447   3.187 -0.1608  0.2047 -0.9337
 6358SOL    HW130710   0.433   1.496   3.106  2.4798  3.4285  0.9719
 6358SOL    HW230711   0.505   1.495   3.231 -1.1390  0.3584  0.4497
 6359SOL     OW30712   1.404   4.070   4.362  0.1807 -0.1679 -0.2659
 6359SOL    HW130713   1.404   4.123   4.282 -0.8356 -0.8582 -0.7289
 6359SOL    HW230714   1.498   4.069   4.378 -0.3579  0.4232  3.0265
 6360SOL     OW30715   2.154   2.136   7.020 -0.4620  0.1561  0.4262
 6360SOL    HW130716   2.210   2.186   7.079 -1.0283  4.5896 -2.8231
 6360SOL    HW230717   2.211   2.113   6.946 -0.9076 -0.5683  0.3032
 6361SOL     OW30718   3.446   1.675   5.587 -0.5160  0.2734  0.1495
 6361SOL    HW130719   3.369   1.617   5.582  0.0502 -0.6597  1.9504
 6361SOL    HW230720   3.505   1.611   5.627  1.3838  1.7420 -0.2944
 6362SOL     OW30721   2.434   1.604   6.959  0.3120  0.2212 -0.5147
 6362SOL    HW130722   2.489   1.579   6.885  1.0807 -2.0939  0.8388
 6362SOL    HW230723   2.440   1.534   7.024 -1.0306 -0.6002 -1.2828
 6363SOL     OW30724   4.233   0.233  11.288 -0.5444  0.6894  0.0293
 6363SOL    HW130725   4.234   0.188  11.203 -2.6060  2.5728 -0.9908
 6363SOL    HW230726   4.168   0.177  11.330  0.5035 -0.5116  0.0791
 6364SOL     OW30727   0.591   2.291  15.453 -0.5727 -0.5170 -0.4502
 6364SOL    HW130728   0.524   2.338  15.503 -0.7499  1.3261 -2.4294
 6364SOL    HW230729   0.662   2.314  15.513 -1.1885 -1.9042  0.8163
 6365SOL     OW30730   0.215   3.827  15.338 -0.3071  0.3386  0.1174
 6365SOL    HW130731   0.134   3.795  15.378  0.8871 -1.7912  0.8103
 6365SOL    HW230732   0.178   3.867  15.259  2.2797 -0.7946 -1.6586
 6366SOL     OW30733   2.842   3.147   7.895 -0.5574  0.1005 -0.3193
 6366SOL    HW130734   2.934   3.127   7.879 -0.0841 -1.0103  3.9889
 6366SOL    HW230735   2.846   3.170   7.987 -1.8156 -1.3594  0.0947
 6367SOL     OW30736   2.835   1.663  16.150 -0.5511 -0.0902  0.5222
 6367SOL    HW130737   2.833   1.689  16.242 -0.6955  0.2640  0.4182
 6367SOL    HW230738   2.916   1.703  16.117 -0.1384 -0.2652  1.3260
 6368SOL     OW30739   2.283   3.883   1.725  0.1116 -0.8405 -0.2121
 6368SOL    HW130740   2.297   3.791   1.748  0.8222 -0.0175  2.6808
 6368SOL    HW230741   2.285   3.932   1.808  1.3069  0.2019 -0.8622
 6369SOL     OW30742   2.538   3.953  11.583  0.0088  0.2875  0.3277
 6369SOL    HW130743   2.603   3.940  11.653 -0.4988 -0.2307  0.7010
 6369SOL    HW230744   2.460   3.974  11.634  0.3628  0.6084  0.7432
 6370SOL     OW30745   0.011   0.488   3.115 -0.2221  0.2855  0.0030
 6370SOL    HW130746   4.677   0.522   3.069 -0.9676 -0.4501  0.7159
 6370SOL    HW230747   4.712   0.469   3.198  0.2234  0.8306  0.3552
 6371SOL     OW30748   4.549   3.633   2.750  0.1193  0.2562 -0.1762
 6371SOL    HW130749   4.585   3.572   2.686 -0.3994  0.7258 -0.9238
 6371SOL    HW230750   4.458   3.607   2.733  0.4023  1.0998 -3.0679
 6372SOL     OW30751   0.030   1.565   8.341  0.7013  0.0357  1.0109
 6372SOL    HW130752   4.688   1.538   8.376  0.1765  1.8637  1.1681
 6372SOL    HW230753   0.062   1.618   8.414 -0.7488  0.7092  1.1624
 6373SOL     OW30754   4.310   0.955   9.535 -0.3008  0.1998  0.0227
 6373SOL    HW130755   4.257   0.901   9.476 -2.8501  1.2037  1.4064
 6373SOL    HW230756   4.392   0.910   9.516 -0.2621  0.4438 -0.4037
 6374SOL     OW30757   0.702   0.744   5.757 -0.8899  0.3477 -0.0135
 6374SOL    HW130758   0.781   0.702   5.792 -0.5890  0.8173 -0.1194
 6374SOL    HW230759   0.656   0.683   5.700 -0.1486  0.4953 -0.7737
 6375SOL     OW30760   3.038   2.285   6.757  0.3095  0.1632 -0.0714
 6375SOL    HW130761   3.122   2.326   6.777  0.3310 -0.2019  0.5662
 6375SOL    HW230762   3.051   2.192   6.772 -2.3060 -0.4096 -1.2710
 6376SOL     OW30763   3.837   0.473   3.410  0.0951 -0.3048 -0.0963
 6376SOL    HW130764   3.861   0.547   3.466 -1.9881  0.7976 -0.6822
 6376SOL    HW230765   3.907   0.411   3.433  0.6416 -0.1279 -1.2552
 6377SOL     OW30766   1.074   0.469   7.121  0.7035 -1.2183 -0.1812
 6377SOL    HW130767   1.071   0.441   7.213  0.4558  1.6017  0.6636
 6377SOL    HW230768   1.166   0.464   7.096  0.8469 -0.1938  0.1246
 6378SOL     OW30769   1.434   1.829  13.157 -0.2248  0.3871  0.5728
 6378SOL    HW130770   1.360   1.841  13.098  0.7349  1.6711 -0.3665
 6378SOL    HW230771   1.477   1.754  13.114  0.1003  0.5365  0.6331
 6379SOL     OW30772   2.499   0.830   2.192 -0.2068 -0.7704  0.2658
 6379SOL    HW130773   2.496   0.926   2.189  1.5310 -0.7743 -1.5365
 6379SOL    HW230774   2.545   0.815   2.274  1.0002 -0.8880 -0.4298
 6380SOL     OW30775   2.070   2.375  16.013 -0.1989 -0.4433  0.1829
 6380SOL    HW130776   2.077   2.322  15.933  1.3463  1.9671 -1.2940
 6380SOL    HW230777   1.979   2.364  16.040  0.1544  0.3933  1.6854
 6381SOL     OW30778   2.783   2.949   6.763  0.0733  0.0289 -0.1386
 6381SOL    HW130779   2.711   2.886   6.759  1.5833 -1.6403 -1.0208
 6381SOL    HW230780   2.841   2.914   6.695 -0.4632 -0.2923 -0.4373
 6382SOL     OW30781   2.523   4.220   2.064 -0.3036  0.3479  0.0741
 6382SOL    HW130782   2.595   4.158   2.075  0.1691  1.0371  0.8622
 6382SOL    HW230783   2.578   4.297   2.076 -1.1119  0.8274  0.7035
 6383SOL     OW30784   0.690   2.174   3.427 -0.0130 -0.2882  0.5667
 6383SOL    HW130785   0.607   2.151   3.469 -0.4166 -0.0742 -0.1163
 6383SOL    HW230786   0.655   2.153   3.341  1.0107  1.2044 -0.2101
 6384SOL     OW30787   1.665   1.128   4.902  0.4162 -0.1157  0.2136
 6384SOL    HW130788   1.612   1.124   4.982  0.1225 -2.2834 -0.0891
 6384SOL    HW230789   1.752   1.129   4.943 -0.3514 -0.4976  1.8557
 6385SOL     OW30790   2.370   2.020   6.406  0.4160 -0.1147 -0.4474
 6385SOL    HW130791   2.449   1.967   6.414 -0.4289 -1.3535 -0.1579
 6385SOL    HW230792   2.394   2.088   6.343 -0.7827  1.8258  1.1959
 6386SOL     OW30793   0.229   4.324  16.701 -0.2349 -0.1378 -0.4022
 6386SOL    HW130794   0.195   4.235  16.707 -1.9824  0.2826 -3.8267
 6386SOL    HW230795   0.270   4.322  16.614  1.1595  1.2007  0.2147
 6387SOL     OW30796   3.635   2.815   1.728 -0.2712  0.2056  0.3923
 6387SOL    HW130797   3.627   2.719   1.727  0.8514  0.1070  1.2800
 6387SOL    HW230798   3.586   2.837   1.807 -1.3516 -0.8381  0.0294
 6388SOL     OW30799   3.179   4.705   2.065 -0.4669 -0.0772 -0.8291
 6388SOL    HW130800   3.255   4.714   2.122 -1.1982  0.7726  0.0207
 6388SOL    HW230801   3.219   4.679   1.982  3.6207  1.0945  0.7863
 6389SOL     OW30802   1.142   4.498  14.013  1.1907  0.1370 -0.1205
 6389SOL    HW130803   1.156   4.575  13.958  1.4808  1.2014  1.4512
 6389SOL    HW230804   1.046   4.502  14.017  1.2857  1.7699  0.6153
 6390SOL     OW30805   1.030   4.436   4.863  0.6663 -0.2040  0.0035
 6390SOL    HW130806   1.049   4.387   4.783 -0.9910  0.1262 -0.5951
 6390SOL    HW230807   0.979   4.511   4.834 -1.8998 -0.3540  4.1117
 6391SOL     OW30808   2.446   1.240   8.112 -0.2948 -0.5919  0.2783
 6391SOL    HW130809   2.370   1.235   8.171  0.8825 -3.7574  1.5455
 6391SOL    HW230810   2.513   1.205   8.170  0.8484  2.9810  1.1137
 6392SOL     OW30811   0.965   3.009  10.774 -0.3461 -0.5262 -0.4914
 6392SOL    HW130812   0.872   2.988  10.787 -0.3588  0.8227  1.6097
 6392SOL    HW230813   0.983   2.943  10.706 -2.6022 -2.3773  0.7067
 6393SOL     OW30814   4.636   1.150   4.968 -0.1892 -0.4094 -0.3762
 6393SOL    HW130815   4.713   1.115   4.923  0.4184  0.9414 -0.4141
 6393SOL    HW230816   4.611   1.231   4.922 -1.0868 -0.1319  0.5971
 6394SOL     OW30817   4.222   3.347   3.645 -0.0001 -0.2585  0.1399
 6394SOL    HW130818   4.216   3.379   3.555  0.7224  2.0854  0.9410
 6394SOL    HW230819   4.314   3.323   3.634 -0.4076 -1.3510 -0.9151
 6395SOL     OW30820   1.716   1.336   0.507 -0.7447  0.0176  0.2260
 6395SOL    HW130821   1.672   1.368   0.428  0.7917  0.2222 -0.5583
 6395SOL    HW230822   1.762   1.260   0.472 -1.7436  0.3966 -1.8963
 6396SOL     OW30823   1.816   4.256   7.292 -0.0333  0.1156 -0.3123
 6396SOL    HW130824   1.726   4.287   7.295 -0.6572 -1.8833  1.4969
 6396SOL    HW230825   1.812   4.181   7.351  2.6794 -0.7583 -1.2519
 6397SOL     OW30826   2.606   1.236  10.453  0.0052  0.2555  0.6527
 6397SOL    HW130827   2.609   1.247  10.548  3.1653  2.6016  0.2991
 6397SOL    HW230828   2.515   1.212  10.435  0.2887  1.0680 -1.9130
 6398SOL     OW30829   3.371   3.749   3.113 -0.1743 -0.6349  0.1599
 6398SOL    HW130830   3.337   3.691   3.045  0.3670  1.5361 -1.9308
 6398SOL    HW230831   3.392   3.825   3.060  1.3274 -1.9191 -1.1159
 6399SOL     OW30832   2.953   1.819   9.381 -0.1465  0.1553 -0.4318
 6399SOL    HW130833   2.963   1.731   9.418 -1.9003 -1.0384 -2.7501
 6399SOL    HW230834   3.044   1.848   9.384  0.2118 -1.1280  1.0093
 6400SOL     OW30835   4.088   3.100  15.592  0.5875  0.0996  0.0129
 6400SOL    HW130836   4.001   3.061  15.579  0.6528 -0.7685  2.1025
 6400SOL    HW230837   4.078   3.137  15.680  0.9953  1.0628 -0.3422
 6401SOL     OW30838   2.730   0.034   5.742  0.6671 -0.7515 -0.2514
 6401SOL    HW130839   2.664   4.707   5.749  0.7281 -1.0772 -3.0696
 6401SOL    HW230840   2.678   0.110   5.770  1.1812 -0.4288 -0.1841
 6402SOL     OW30841   2.962   2.112   5.745  0.0629 -0.1371  0.3489
 6402SOL    HW130842   3.058   2.111   5.748 -0.0082  1.2198  2.8683
 6402SOL    HW230843   2.942   2.167   5.669  1.7734  0.8034  0.5898
 6403SOL     OW30844   0.896   1.640   3.951 -0.1551  0.8571  0.3105
 6403SOL    HW130845   0.908   1.734   3.937  0.9603  0.9284  1.7482
 6403SOL    HW230846   0.860   1.644   4.040 -0.5920 -1.2316  0.2181
 6404SOL     OW30847   3.879   0.578   6.530 -0.2840 -0.1923  0.1644
 6404SOL    HW130848   3.871   0.615   6.442 -0.6109  0.3188  0.4099
 6404SOL    HW230849   3.973   0.571   6.548  0.0247  2.3331 -0.3805
 6405SOL     OW30850   1.615   0.177   5.237  0.2183  0.2472 -0.1566
 6405SOL    HW130851   1.628   0.264   5.275  0.0749  0.5405 -0.7688
 6405SOL    HW230852   1.681   0.176   5.167  1.6379 -1.4240  1.2092
 6406SOL     OW30853   1.945   0.833   5.382  0.2461  0.6921  0.1518
 6406SOL    HW130854   1.859   0.874   5.394  0.2426  0.6051  0.4190
 6406SOL    HW230855   1.983   0.877   5.458 -1.3587  0.1378  1.2947
 6407SOL     OW30856   1.475   2.777   8.535 -0.0117  0.5693  0.8852
 6407SOL    HW130857   1.551   2.728   8.504  1.3308  1.6106  2.5502
 6407SOL    HW230858   1.409   2.744   8.475 -0.9793  0.9491  1.7381
 6408SOL     OW30859   2.454   3.338   8.425  1.0186 -0.1058  0.1003
 6408SOL    HW130860   2.494   3.310   8.507  1.1388  1.0228  0.4315
 6408SOL    HW230861   2.475   3.269   8.363 -0.7871 -2.1626  1.7674
 6409SOL     OW30862   4.352   1.533   8.608  0.3194  0.4340  0.3846
 6409SOL    HW130863   4.401   1.573   8.680  0.3886  0.6798  0.1990
 6409SOL    HW230864   4.278   1.590   8.588  1.9165  2.0944 -0.7976
 6410SOL     OW30865   2.467   4.372   6.895  0.0674 -0.1246  0.0054
 6410SOL    HW130866   2.412   4.293   6.897  1.8368 -1.4439 -2.7085
 6410SOL    HW230867   2.518   4.353   6.816 -0.2535  0.0698 -0.2499
 6411SOL     OW30868   2.108   2.544   2.795  0.1310 -0.2122  0.7809
 6411SOL    HW130869   2.172   2.489   2.842 -2.5515 -2.4930  1.7563
 6411SOL    HW230870   2.163   2.544   2.717  0.0594  0.0865  0.7330
 6412SOL     OW30871   1.214   0.042  14.511 -0.1886  0.3193 -0.4381
 6412SOL    HW130872   1.288   4.735  14.545 -2.7292 -1.2985  2.7675
 6412SOL    HW230873   1.221   0.121  14.564  0.8963 -0.4613  0.5821
 6413SOL     OW30874   2.710   1.033  16.653 -0.3145 -0.5376  0.2966
 6413SOL    HW130875   2.656   1.051  16.577  1.0128 -0.6588 -0.6723
 6413SOL    HW230876   2.792   1.025  16.603 -1.1831  0.2755 -1.2445
 6414SOL     OW30877   1.231   0.324   4.468  0.4231  0.8799 -0.0262
 6414SOL    HW130878   1.325   0.340   4.475  1.3355 -4.3904 -0.4132
 6414SOL    HW230879   1.223   0.359   4.379 -3.3086  0.9018  0.2996
 6415SOL     OW30880   1.218   1.540   2.089  0.3013  0.0284 -0.1676
 6415SOL    HW130881   1.239   1.458   2.046 -0.1784  0.3510 -1.0145
 6415SOL    HW230882   1.298   1.558   2.139 -0.1639 -1.0623  0.9583
 6416SOL     OW30883   0.462   1.455  14.076  0.3625  0.5944 -0.3081
 6416SOL    HW130884   0.505   1.492  14.153  1.1102 -0.1638 -0.3558
 6416SOL    HW230885   0.384   1.418  14.116  0.3813 -2.1096 -2.7382
 6417SOL     OW30886   4.422   1.236   8.754 -0.4526  0.0475 -0.1691
 6417SOL    HW130887   4.353   1.248   8.689  0.1071 -0.7487 -0.8999
 6417SOL    HW230888   4.428   1.143   8.774 -0.5780  0.1001  0.1297
 6418SOL     OW30889   3.227   2.207   5.716 -0.0510 -0.1830 -0.0464
 6418SOL    HW130890   3.274   2.159   5.648 -0.9581  0.6719 -1.2709
 6418SOL    HW230891   3.199   2.275   5.655  0.2139 -0.9247 -0.9885
 6419SOL     OW30892   2.446   2.477   5.633 -0.0543 -0.0102  1.2677
 6419SOL    HW130893   2.463   2.474   5.538  0.8778 -1.6431  1.4944
 6419SOL    HW230894   2.357   2.447   5.649 -1.0436  2.2613  0.1297
 6420SOL     OW30895   3.817   0.872   6.083  0.0799 -0.9028  0.3568
 6420SOL    HW130896   3.846   0.846   5.996  1.9198 -0.1519  0.7644
 6420SOL    HW230897   3.850   0.961   6.083 -0.5981 -0.6584 -0.7651
 6421SOL     OW30898   1.996   2.482   4.585  0.3171  0.1011  0.1667
 6421SOL    HW130899   2.019   2.567   4.622  1.2710 -0.1237  0.0886
 6421SOL    HW230900   1.924   2.499   4.525  0.5698  2.0629  0.4396
 6422SOL     OW30901   1.454   0.945   9.628  0.1364 -0.2774  0.0326
 6422SOL    HW130902   1.363   0.947   9.658  0.4944  2.4319  0.9358
 6422SOL    HW230903   1.499   0.927   9.711 -0.9674 -0.3669  0.6130
 6423SOL     OW30904   3.444   4.305   0.391 -0.1396 -0.1851  0.2622
 6423SOL    HW130905   3.527   4.258   0.398 -0.9643 -1.6758 -0.0421
 6423SOL    HW230906   3.455   4.352   0.308  0.4544  0.1284  0.5187
 6424SOL     OW30907   0.480   3.482   2.703  0.4049 -0.0292  0.3368
 6424SOL    HW130908   0.455   3.503   2.613  1.5793  0.9972  0.2611
 6424SOL    HW230909   0.512   3.567   2.732 -0.7745 -0.0856  1.7773
 6425SOL     OW30910   2.064   0.031   1.368 -0.2840  0.3704  0.4692
 6425SOL    HW130911   2.000   4.739   1.307 -0.5026  0.3774  0.6960
 6425SOL    HW230912   2.023   0.013   1.453 -1.0864 -0.1242 -0.0360
 6426SOL     OW30913   4.317   2.398   3.870 -0.1831 -0.0707 -0.5736
 6426SOL    HW130914   4.361   2.483   3.873 -0.5234  0.0890 -0.0554
 6426SOL    HW230915   4.382   2.346   3.822  1.8308  2.2117 -0.2826
 6427SOL     OW30916   1.180   2.726   7.631  0.0622 -0.0331 -0.2018
 6427SOL    HW130917   1.197   2.633   7.617 -1.8504  0.0698 -3.0182
 6427SOL    HW230918   1.085   2.725   7.628  0.1806 -2.4503 -2.6161
 6428SOL     OW30919   1.523   2.038   6.461  0.4019 -0.8426  0.6239
 6428SOL    HW130920   1.450   1.979   6.445 -0.5836  0.3652  0.6270
 6428SOL    HW230921   1.483   2.122   6.436  0.5078 -0.8071  0.5741
 6429SOL     OW30922   0.752   4.675   2.883  0.1451 -0.8030  0.4584
 6429SOL    HW130923   0.690   4.604   2.898 -2.1329  1.0732 -0.1569
 6429SOL    HW230924   0.778   4.648   2.795 -0.8192 -3.5917  1.0505
 6430SOL     OW30925   0.366   1.560   6.297 -0.5978 -0.1428 -0.3912
 6430SOL    HW130926   0.344   1.468   6.314 -1.1171  0.0082 -0.2168
 6430SOL    HW230927   0.285   1.599   6.330 -0.6551  0.6040 -1.4335
 6431SOL     OW30928   2.573   1.970   0.260  0.3297 -0.8296  0.1675
 6431SOL    HW130929   2.557   1.897   0.200 -0.8621 -0.9471  0.6284
 6431SOL    HW230930   2.531   2.043   0.216  0.6523 -0.8731 -0.2077
 6432SOL     OW30931   2.250   4.162   7.646 -0.0216 -0.4044  0.1808
 6432SOL    HW130932   2.154   4.162   7.651  0.1218  0.7486  3.0870
 6432SOL    HW230933   2.271   4.236   7.703 -2.5732 -0.7909  1.6593
 6433SOL     OW30934   3.258   3.294  14.224 -0.0299 -0.2088 -0.5551
 6433SOL    HW130935   3.286   3.382  14.246  0.0100 -0.8695  2.0931
 6433SOL    HW230936   3.311   3.243  14.286 -1.2546 -0.8939 -0.0429
 6434SOL     OW30937   1.432   0.360   8.851  0.1573  0.2819 -0.2877
 6434SOL    HW130938   1.457   0.282   8.902 -1.1803 -0.6032 -0.9890
 6434SOL    HW230939   1.400   0.419   8.919  0.2792 -1.0126  0.8949
 6435SOL     OW30940   2.074   3.544  17.409  0.6076  0.0294 -0.2040
 6435SOL    HW130941   2.053   3.611  17.345 -2.2858 -0.2394  0.4511
 6435SOL    HW230942   2.045   3.470  17.357  0.1881 -0.9537  1.4215
 6436SOL     OW30943   0.092   4.287   9.239 -0.1296  0.3765  0.1315
 6436SOL    HW130944   0.054   4.226   9.303  0.0481  1.1790  1.0081
 6436SOL    HW230945   0.015   4.306   9.187 -1.0024  1.9421  2.0269
 6437SOL     OW30946   3.513   0.208   7.133 -0.5307 -0.0372 -0.6695
 6437SOL    HW130947   3.587   0.152   7.109  0.2988  1.2319 -1.0831
 6437SOL    HW230948   3.485   0.249   7.051 -0.2844  3.1567  0.8300
 6438SOL     OW30949   2.357   2.098  12.361 -0.7534 -0.1869 -0.1461
 6438SOL    HW130950   2.392   2.051  12.285  1.9953 -1.4704  1.8789
 6438SOL    HW230951   2.441   2.132  12.392 -0.3916  1.9133 -3.5081
 6439SOL     OW30952   1.732   1.858   6.537  0.3589  0.0464 -0.4521
 6439SOL    HW130953   1.662   1.917   6.564 -0.0043 -1.2797  1.5071
 6439SOL    HW230954   1.700   1.768   6.539  1.5598 -0.3999 -1.3314
 6440SOL     OW30955   0.642   1.303   1.574  0.3280 -0.1342  0.4798
 6440SOL    HW130956   0.589   1.381   1.590  1.5324  0.7881  0.0078
 6440SOL    HW230957   0.714   1.346   1.526  1.0959  0.8328  2.5092
 6441SOL     OW30958   3.089   2.689  11.711 -0.1369  0.0784 -0.5850
 6441SOL    HW130959   3.156   2.756  11.699  0.2794 -0.2596 -0.1580
 6441SOL    HW230960   3.015   2.721  11.659  0.5637 -0.3362 -1.8387
 6442SOL     OW30961   0.700   3.752   6.483  0.2759  0.2845  0.5168
 6442SOL    HW130962   0.784   3.711   6.460  1.1482  0.8042  2.7510
 6442SOL    HW230963   0.640   3.694   6.437  0.8571  0.9507 -1.0619
 6443SOL     OW30964   1.242   0.410  15.812  0.1022 -0.2771 -0.1427
 6443SOL    HW130965   1.177   0.359  15.859 -0.0376  0.0919  0.0686
 6443SOL    HW230966   1.319   0.354  15.807  1.4534  1.6026 -0.8320
 6444SOL     OW30967   1.948   3.889   5.422 -0.3047  0.1620 -0.5945
 6444SOL    HW130968   1.922   3.883   5.514 -5.0882  1.5982 -1.8519
 6444SOL    HW230969   2.029   3.939   5.432  0.4356 -0.6689 -2.5245
 6445SOL     OW30970   2.838   2.046   9.308  0.2556 -1.0991  0.2658
 6445SOL    HW130971   2.894   1.974   9.336  0.6049 -0.4969  1.1377
 6445SOL    HW230972   2.776   2.006   9.247  0.3986  0.4518 -0.9007
 6446SOL     OW30973   0.253   3.912  14.838 -0.0237 -0.0672  0.3493
 6446SOL    HW130974   0.223   3.894  14.748  0.2632  0.1030  0.2223
 6446SOL    HW230975   0.276   4.004  14.844 -1.4777  0.1622  2.2871
 6447SOL     OW30976   2.633   4.537   7.845 -0.2143 -0.1025 -0.1713
 6447SOL    HW130977   2.637   4.621   7.800  0.7085 -0.3611 -0.5609
 6447SOL    HW230978   2.551   4.500   7.813 -1.6693  1.5401  1.6767
 6448SOL     OW30979   1.231   3.409   8.776 -0.1037  0.0292 -0.2024
 6448SOL    HW130980   1.190   3.439   8.695 -0.8100  1.6988  0.7561
 6448SOL    HW230981   1.225   3.314   8.766  0.5228 -0.2693  2.2838
 6449SOL     OW30982   0.963   2.308   9.327  0.0029  0.0554  0.7749
 6449SOL    HW130983   1.041   2.260   9.356 -0.8963 -0.2686  2.6275
 6449SOL    HW230984   0.997   2.385   9.282 -1.4031  1.0183  1.3861
 6450SOL     OW30985   2.061   3.030   7.680  0.0291 -0.6072 -0.2095
 6450SOL    HW130986   2.146   3.050   7.720  0.4427 -0.1053 -1.3395
 6450SOL    HW230987   1.999   3.056   7.748 -0.0722 -1.9926  0.2345
 6451SOL     OW30988   0.133   2.186   5.699  0.0098  0.2674  0.0611
 6451SOL    HW130989   0.174   2.266   5.666 -2.4636  0.6036 -2.1499
 6451SOL    HW230990   0.100   2.208   5.786 -1.1306 -1.7848  0.1463
 6452SOL     OW30991   1.250   2.958   7.908 -0.3538 -0.1649 -0.3293
 6452SOL    HW130992   1.330   2.905   7.916  0.2091  0.6195 -0.7822
 6452SOL    HW230993   1.262   2.985   7.817  1.4837 -0.0898 -0.0692
 6453SOL     OW30994   0.231   2.518   3.210  0.3407  0.0105 -0.2055
 6453SOL    HW130995   0.297   2.495   3.275 -0.4032  1.3352  1.0089
 6453SOL    HW230996   0.202   2.429   3.190 -2.4170  0.6442  1.0702
 6454SOL     OW30997   1.136   0.193   7.876  0.9960 -0.3154 -0.4236
 6454SOL    HW130998   1.085   0.164   7.952  0.2354  2.3211  0.0436
 6454SOL    HW230999   1.163   0.280   7.902  1.1861 -0.7992  1.0015
 6455SOL     OW31000   2.116   3.558  13.676 -0.2339  0.0913 -0.9518
 6455SOL    HW131001   2.201   3.515  13.672  0.0264  0.5671 -0.5344
 6455SOL    HW231002   2.062   3.489  13.637  0.6901 -0.3171 -1.5185
 6456SOL     OW31003   4.114   0.583   8.202 -0.1463  0.5724  0.1090
 6456SOL    HW131004   4.134   0.539   8.119  0.1702 -1.9207  1.5471
 6456SOL    HW231005   4.019   0.586   8.188 -0.1513  0.4631  0.1200
 6457SOL     OW31006   3.813   1.866   3.006  0.6779  0.0505  0.4691
 6457SOL    HW131007   3.777   1.788   2.964  0.0200  1.2518 -1.2039
 6457SOL    HW231008   3.741   1.872   3.069 -1.2750 -0.1502 -1.7381
 6458SOL     OW31009   1.257   1.523   6.241 -0.3732  0.2868  0.1839
 6458SOL    HW131010   1.282   1.571   6.161  0.3959  2.0896  1.5049
 6458SOL    HW231011   1.186   1.579   6.272 -1.0285  0.3672 -1.4469
 6459SOL     OW31012   4.427   3.776  10.677 -0.2156  0.4080  0.2994
 6459SOL    HW131013   4.335   3.792  10.656  0.3158  0.2804 -2.0559
 6459SOL    HW231014   4.435   3.846  10.742  0.1976  1.2300 -0.6263
 6460SOL     OW31015   1.290   0.176   9.523  0.0187  0.1952  0.5134
 6460SOL    HW131016   1.234   0.244   9.560  0.0328  0.2434  0.4471
 6460SOL    HW231017   1.331   0.131   9.597  0.7444  2.2849  1.3646
 6461SOL     OW31018   0.538   2.070   0.339  0.0251  0.1242  0.9774
 6461SOL    HW131019   0.445   2.054   0.326  0.3327 -2.7326  2.3587
 6461SOL    HW231020   0.566   1.985   0.371  0.6146 -1.1460 -2.9583
 6462SOL     OW31021   1.422   4.482   1.362  0.9267 -0.6990  0.2358
 6462SOL    HW131022   1.463   4.396   1.363  0.2484 -1.0198  0.5817
 6462SOL    HW231023   1.443   4.503   1.453 -1.3952  0.0992  0.5877
 6463SOL     OW31024   3.406   3.710  12.352 -0.3981  0.4023  0.2040
 6463SOL    HW131025   3.395   3.633  12.296  1.1743 -1.3200  2.2786
 6463SOL    HW231026   3.318   3.742  12.370 -0.6225 -0.9998  1.5537
 6464SOL     OW31027   2.261   1.152   5.980 -0.1681  0.0530 -0.2740
 6464SOL    HW131028   2.329   1.211   5.946  2.7782 -0.9521  3.8575
 6464SOL    HW231029   2.197   1.210   6.022 -0.0442 -0.7614  1.0298
 6465SOL     OW31030   1.831   0.854   0.592  0.2882  0.3246 -0.4135
 6465SOL    HW131031   1.785   0.807   0.523 -0.1277  2.2349 -1.4530
 6465SOL    HW231032   1.884   0.782   0.625 -0.1075  1.2713  2.3350
 6466SOL     OW31033   1.617   0.456   1.320  0.2612 -0.2316 -0.2448
 6466SOL    HW131034   1.712   0.472   1.321 -0.3454  3.3615  0.1969
 6466SOL    HW231035   1.593   0.539   1.361 -0.0105 -0.8800  0.8913
 6467SOL     OW31036   2.708   0.103   1.790 -0.1451 -0.4382  0.3225
 6467SOL    HW131037   2.643   0.067   1.850 -0.6179 -0.2698 -0.0973
 6467SOL    HW231038   2.788   0.101   1.843  0.0185  2.2005  0.1470
 6468SOL     OW31039   0.014   3.124   7.717 -0.4499 -0.1340  0.2102
 6468SOL    HW131040   0.094   3.174   7.699  0.8643 -2.5553 -0.7013
 6468SOL    HW231041   4.704   3.191   7.759  0.7177  1.2293 -0.4711
 6469SOL     OW31042   3.356   3.289  11.606 -0.0546  1.1235  0.1235
 6469SOL    HW131043   3.442   3.278  11.565 -0.9763  1.0556 -1.7679
 6469SOL    HW231044   3.382   3.338  11.684 -0.0410  1.9249 -0.3958
 6470SOL     OW31045   1.202   2.725   9.729 -0.6721 -0.3053  0.6238
 6470SOL    HW131046   1.168   2.657   9.788 -0.4020 -1.4364 -0.5054
 6470SOL    HW231047   1.274   2.762   9.779  1.0248 -1.8810 -0.6616
 6471SOL     OW31048   1.755   1.253   1.516  0.1570 -0.4396  0.0099
 6471SOL    HW131049   1.847   1.231   1.497 -0.5894 -3.0547 -0.5974
 6471SOL    HW231050   1.774   1.326   1.575 -0.3934  1.9082 -2.7039
 6472SOL     OW31051   4.731   4.004  15.967 -0.2597  0.0404  0.2048
 6472SOL    HW131052   0.053   3.993  15.898  0.3161 -0.4182  0.8210
 6472SOL    HW231053   4.701   4.091  15.939  1.1733  1.3159  2.5995
 6473SOL     OW31054   2.705   0.607  16.256 -0.4667 -0.1486  0.7614
 6473SOL    HW131055   2.723   0.515  16.234  4.0440  0.2378  2.7301
 6473SOL    HW231056   2.644   0.626  16.185  0.5402 -2.2114 -0.6835
 6474SOL     OW31057   2.361   0.954   8.183  0.1406  0.2138 -0.1631
 6474SOL    HW131058   2.398   0.866   8.192 -0.5285  0.0483  1.0902
 6474SOL    HW231059   2.426   1.001   8.236 -0.8391  0.8064  0.5181
 6475SOL     OW31060   1.816   4.333  17.727  0.2382 -0.6467 -0.1011
 6475SOL    HW131061   1.812   4.378  17.643  1.3903  1.5227  1.0105
 6475SOL    HW231062   1.881   4.264  17.716  0.8694 -0.2430  1.1154
 6476SOL     OW31063   0.672   1.943   4.272  0.0609  0.2601 -0.1271
 6476SOL    HW131064   0.579   1.920   4.270 -0.0770  0.9965 -2.2889
 6476SOL    HW231065   0.703   1.899   4.193  1.0137  1.0939 -0.2201
 6477SOL     OW31066   0.746   4.091  16.185  0.5484 -0.1148 -0.0071
 6477SOL    HW131067   0.793   4.126  16.109 -2.3486  1.1450 -1.2102
 6477SOL    HW231068   0.671   4.151  16.185  0.7785  0.1811 -0.8095
 6478SOL     OW31069   2.188   0.448   4.436  0.1594  0.2825 -0.4699
 6478SOL    HW131070   2.263   0.506   4.429  0.6706 -0.6884 -3.0073
 6478SOL    HW231071   2.178   0.421   4.345  0.0996  0.5344 -0.5392
 6479SOL     OW31072   1.320   0.640   1.334 -0.3094  0.1972 -0.2282
 6479SOL    HW131073   1.335   0.568   1.396 -0.7538  1.7642  1.7080
 6479SOL    HW231074   1.353   0.716   1.381  0.2013 -0.2023  0.0707
 6480SOL     OW31075   0.343   0.612   7.216  0.8538  0.2340  0.0296
 6480SOL    HW131076   0.408   0.565   7.268 -0.6681 -2.2755 -0.3273
 6480SOL    HW231077   0.377   0.592   7.129 -4.1441  0.7720 -2.0380
 6481SOL     OW31078   1.850   1.868   8.600  0.6182 -0.4979  0.1828
 6481SOL    HW131079   1.858   1.892   8.508 -0.9450  2.5225  0.8489
 6481SOL    HW231080   1.915   1.927   8.638  2.5959 -1.2484 -2.0528
 6482SOL     OW31081   0.200   2.510   7.874  0.0613 -0.0811  0.6748
 6482SOL    HW131082   0.185   2.603   7.890 -0.8990 -0.0145 -0.6119
 6482SOL    HW231083   0.123   2.491   7.820  0.4008  2.8148 -0.8500
 6483SOL     OW31084   0.579   0.390  15.111 -0.2053  0.5095  0.4003
 6483SOL    HW131085   0.504   0.403  15.053  0.4061  0.3848 -0.4217
 6483SOL    HW231086   0.536   0.337  15.178  0.3112  0.4647  0.6959
 6484SOL     OW31087   3.775   4.397   9.547 -0.4372  0.9946 -0.0186
 6484SOL    HW131088   3.843   4.425   9.608  0.4913 -0.0454 -0.5876
 6484SOL    HW231089   3.697   4.402   9.602 -1.3005  3.5400 -1.4448
 6485SOL     OW31090   0.050   2.346   3.606 -0.2321 -0.5088  0.1464
 6485SOL    HW131091   4.699   2.349   3.590  0.0759  0.1347 -1.4997
 6485SOL    HW231092   0.050   2.367   3.700 -0.9036 -1.1157  0.2840
 6486SOL     OW31093   0.623   3.322   4.947 -0.4412 -0.1952 -0.0843
 6486SOL    HW131094   0.630   3.325   5.042  0.4099 -0.7496 -0.1244
 6486SOL    HW231095   0.559   3.250   4.940 -0.4108  0.0792 -3.2100
 6487SOL     OW31096   0.877   0.861   6.327 -0.9033 -0.3268  0.6177
 6487SOL    HW131097   0.957   0.856   6.380 -1.7383 -1.0295  1.8270
 6487SOL    HW231098   0.914   0.873   6.240 -1.1022  0.8741  0.7016
 6488SOL     OW31099   2.839   3.441  14.554 -0.8429 -0.0255  0.2512
 6488SOL    HW131100   2.762   3.393  14.584  0.0942 -1.5567  0.1941
 6488SOL    HW231101   2.887   3.370  14.512 -1.5619 -0.1910 -0.2786
 6489SOL     OW31102   4.038   0.343   7.348 -0.3973 -0.0519 -0.5303
 6489SOL    HW131103   4.087   0.315   7.425  0.1593  0.5662 -0.6622
 6489SOL    HW231104   4.015   0.260   7.306 -0.2450  0.1534 -1.0242
 6490SOL     OW31105   4.090   3.521   6.996 -0.6787 -0.1785  0.1747
 6490SOL    HW131106   4.108   3.433   6.963  0.0317 -0.6522  1.8256
 6490SOL    HW231107   4.043   3.504   7.078 -2.5159  1.6329 -0.5122
 6491SOL     OW31108   3.111   4.688   7.020  0.5296  0.0643  0.0024
 6491SOL    HW131109   3.057   4.645   7.086 -1.8523 -1.0820 -2.6912
 6491SOL    HW231110   3.149   4.618   6.967  2.5821  1.0357  0.2082
 6492SOL     OW31111   0.310   0.444   2.166  0.0837 -0.3935 -0.1047
 6492SOL    HW131112   0.308   0.490   2.082 -0.0032  2.2425  1.3296
 6492SOL    HW231113   0.219   0.453   2.194 -0.3180  1.3389 -2.0063
 6493SOL     OW31114   0.050   3.478   7.269 -0.6575  0.3495 -0.1004
 6493SOL    HW131115   4.731   3.406   7.257 -0.5216  0.3611 -0.8455
 6493SOL    HW231116   0.126   3.429   7.301  0.8961  2.5678 -0.3499
 6494SOL     OW31117   1.301   2.340   1.077 -0.5674 -0.1448  0.7943
 6494SOL    HW131118   1.372   2.344   1.014 -2.2169 -0.6002 -1.1031
 6494SOL    HW231119   1.226   2.345   1.018  0.1189  3.7108  0.2782
 6495SOL     OW31120   2.501   0.058   0.479  0.3814 -0.7147  0.5488
 6495SOL    HW131121   2.554   4.739   0.529  0.1508 -1.5659 -0.2545
 6495SOL    HW231122   2.412   0.028   0.499 -0.1913  0.6739  0.0501
 6496SOL     OW31123   0.309   1.424   2.634 -0.1001 -0.4910 -0.1838
 6496SOL    HW131124   0.307   1.515   2.665  0.7149 -0.3292 -0.6152
 6496SOL    HW231125   0.394   1.389   2.660 -0.8100 -1.5658  0.6807
 6497SOL     OW31126   1.033   2.038   9.707 -0.4935 -0.3107  0.5409
 6497SOL    HW131127   0.966   2.075   9.649 -1.2452 -0.0001  1.6013
 6497SOL    HW231128   1.060   1.960   9.659  0.2877 -1.0173  2.1271
 6498SOL     OW31129   0.282   2.536   5.391 -0.0018  0.1890  0.0112
 6498SOL    HW131130   0.301   2.618   5.436  2.3202  1.0532 -2.5234
 6498SOL    HW231131   0.288   2.474   5.464 -0.8762  1.1669  0.9264
 6499SOL     OW31132   1.004   2.065   8.262 -0.6086  0.1427  0.6070
 6499SOL    HW131133   1.083   2.015   8.282 -0.4436 -0.1986 -0.8947
 6499SOL    HW231134   1.021   2.086   8.170  1.4565 -1.6946  0.5674
 6500SOL     OW31135   0.983   2.753   1.861 -0.0955  0.4699 -0.1509
 6500SOL    HW131136   0.961   2.776   1.951  3.0178  1.8033  0.2636
 6500SOL    HW231137   0.905   2.776   1.811 -0.2839  1.2169  0.4807
 6501SOL     OW31138   1.050   3.481   1.456  0.3758 -0.4567 -0.1329
 6501SOL    HW131139   1.071   3.551   1.518 -0.8331  0.6831 -1.0165
 6501SOL    HW231140   1.138   3.451   1.432  0.8773  0.6394  0.3467
 6502SOL     OW31141   1.137   0.921   1.215  0.8836  0.3599  0.2863
 6502SOL    HW131142   1.195   0.963   1.278  2.3070 -2.0017  0.5388
 6502SOL    HW231143   1.205   0.897   1.153 -2.2547  1.3856 -3.5660
 6503SOL     OW31144   0.189   0.665   2.441 -0.9602 -0.2890 -0.2102
 6503SOL    HW131145   0.239   0.746   2.430 -0.4744 -0.5073  0.4338
 6503SOL    HW231146   0.261   0.603   2.448 -0.6641  0.1460  0.5702
 6504SOL     OW31147   3.415   2.041  14.232 -0.4064 -0.0733 -0.2149
 6504SOL    HW131148   3.454   2.118  14.191 -0.3333  0.3845  0.7121
 6504SOL    HW231149   3.363   1.998  14.164 -0.6206 -1.3447  0.7550
 6505SOL     OW31150   2.344   0.473   7.639  0.5309  0.1210 -0.1381
 6505SOL    HW131151   2.364   0.555   7.684 -0.3974  0.2704  0.0093
 6505SOL    HW231152   2.295   0.504   7.563  1.4244  1.0547 -0.3298
 6506SOL     OW31153   3.547   2.218   3.832  0.6191  0.2224  0.3664
 6506SOL    HW131154   3.463   2.184   3.800 -0.4008  2.3007  0.7704
 6506SOL    HW231155   3.559   2.188   3.922  2.3286 -0.0415  0.0485
 6507SOL     OW31156   4.205   1.371  12.880 -0.7626 -0.4206  0.2555
 6507SOL    HW131157   4.211   1.452  12.930 -0.3904  0.3194 -0.9976
 6507SOL    HW231158   4.160   1.395  12.799  0.1142  0.8786  0.1515
 6508SOL     OW31159   1.117   4.378   9.343 -1.0032  0.5259  0.8989
 6508SOL    HW131160   1.073   4.448   9.296  0.8738  0.4290 -1.0063
 6508SOL    HW231161   1.203   4.416   9.362 -1.3993  2.2468 -0.8393
 6509SOL     OW31162   4.261   2.125   7.851 -0.2736 -0.5239  0.0929
 6509SOL    HW131163   4.289   2.094   7.937 -0.8783  3.3104  1.6733
 6509SOL    HW231164   4.284   2.218   7.860  1.1238 -0.9126  0.4780
 6510SOL     OW31165   0.127   1.655   0.931 -0.4495 -0.0219  0.7941
 6510SOL    HW131166   0.071   1.722   0.891  1.3723  0.8722 -0.2703
 6510SOL    HW231167   0.064   1.627   0.997 -2.0315 -2.5763 -1.8094
 6511SOL     OW31168   3.252   0.681  11.972 -0.7026 -0.3546 -0.0793
 6511SOL    HW131169   3.203   0.609  11.933 -0.7733  0.1481 -0.9036
 6511SOL    HW231170   3.310   0.713  11.903 -1.7141  0.1629 -0.6866
 6512SOL     OW31171   3.259   1.327   3.291  0.2531  0.3866  0.2885
 6512SOL    HW131172   3.178   1.367   3.323 -1.0703 -2.1259  0.0550
 6512SOL    HW231173   3.224   1.270   3.223  1.9954 -1.2365  0.7663
 6513SOL     OW31174   2.689   1.594  16.612  0.3512 -0.3661  0.0755
 6513SOL    HW131175   2.616   1.581  16.551 -0.2047  1.0993  0.4311
 6513SOL    HW231176   2.649   1.661  16.669 -0.4845  1.9194 -3.2020
 6514SOL     OW31177   1.587   4.499  15.963  0.1350 -0.1422 -0.1596
 6514SOL    HW131178   1.557   4.587  15.940  0.1044  0.2457  1.3705
 6514SOL    HW231179   1.615   4.519  16.052  0.4692 -2.0530  0.1606
 6515SOL     OW31180   3.804   0.902  10.260 -0.2317 -0.0362  0.2207
 6515SOL    HW131181   3.860   0.880  10.335  2.1925  2.9666 -0.7113
 6515SOL    HW231182   3.770   0.813  10.257 -2.8406  1.0907 -3.0098
 6516SOL     OW31183   2.813   1.181   5.566  0.0148  0.4055  0.1459
 6516SOL    HW131184   2.756   1.208   5.493  0.3872  0.8800  0.0324
 6516SOL    HW231185   2.778   1.094   5.589 -0.2709  0.2897 -0.7288
 6517SOL     OW31186   0.542   2.317  15.188 -0.1720 -0.0015 -0.6381
 6517SOL    HW131187   0.532   2.297  15.281 -1.7705 -1.3543 -1.0924
 6517SOL    HW231188   0.636   2.309  15.177 -0.0145 -0.0052  0.6522
 6518SOL     OW31189   0.056   0.286   1.900  0.1911  0.3380  0.1411
 6518SOL    HW131190   4.725   0.273   1.959 -0.7658 -1.8514 -1.5847
 6518SOL    HW231191   0.102   0.203   1.910 -1.6911 -0.9216 -1.8664
 6519SOL     OW31192   2.968   4.188   5.081  0.0785  0.4389  0.3902
 6519SOL    HW131193   2.928   4.103   5.100  1.7314 -0.6522 -0.9363
 6519SOL    HW231194   3.048   4.169   5.031 -1.0415 -1.5483 -0.6650
 6520SOL     OW31195   1.906   2.278   6.526  0.6318  0.3661 -0.4668
 6520SOL    HW131196   1.848   2.353   6.533  0.7448  0.5962 -2.1026
 6520SOL    HW231197   1.860   2.211   6.475 -2.1870  1.1849  1.0088
 6521SOL     OW31198   3.812   3.658  17.744  0.3551  0.2147  0.5394
 6521SOL    HW131199   3.804   3.751  17.721 -0.9312  0.0295  0.2113
 6521SOL    HW231200   3.767   3.630  17.664  2.7285  0.1017 -0.7321
 6522SOL     OW31201   1.147   2.916  14.425  0.0719 -0.1799 -0.2644
 6522SOL    HW131202   1.223   2.877  14.382 -1.6070 -1.9871 -1.6141
 6522SOL    HW231203   1.087   2.844  14.403  1.1371 -0.5386 -2.0507
 6523SOL     OW31204   4.292   2.027   2.779  0.2930 -0.1267 -0.8978
 6523SOL    HW131205   4.224   1.992   2.722  2.8777 -1.4754 -3.1261
 6523SOL    HW231206   4.244   2.101   2.817 -0.5984 -1.1630 -0.0075
 6524SOL     OW31207   4.041   0.340   3.940  0.1622 -0.1575  0.5539
 6524SOL    HW131208   4.130   0.304   3.938  0.4493  0.6729 -1.5326
 6524SOL    HW231209   4.048   0.400   4.014  1.9096 -0.3410  0.5489
 6525SOL     OW31210   0.705   2.375   3.106 -0.5111  0.4062  0.1787
 6525SOL    HW131211   0.657   2.371   3.024 -1.4378  0.3697  0.7172
 6525SOL    HW231212   0.647   2.428   3.161  0.3207  0.1418  1.3019
 6526SOL     OW31213   2.925   1.073   6.068 -0.6075  0.0287 -0.0899
 6526SOL    HW131214   3.017   1.073   6.095 -0.4450 -0.0945 -0.6349
 6526SOL    HW231215   2.897   1.161   6.043 -0.8694 -0.4559 -1.5137
 6527SOL     OW31216   2.602   1.986  13.541  0.4470  0.2616  0.1122
 6527SOL    HW131217   2.610   1.902  13.497 -1.1736 -0.9918  2.1847
 6527SOL    HW231218   2.693   1.996  13.568  0.7906 -1.3718 -0.4393
 6528SOL     OW31219   2.409   2.735   2.889  0.4574 -0.4286  0.0361
 6528SOL    HW131220   2.479   2.739   2.824 -0.7500  0.4261 -1.2141
 6528SOL    HW231221   2.341   2.764   2.828  1.1939 -2.3654 -1.7064
 6529SOL     OW31222   3.109   1.433   5.927 -0.0271  0.0802 -0.6731
 6529SOL    HW131223   3.190   1.482   5.923  0.1446 -0.3173 -2.4849
 6529SOL    HW231224   3.041   1.498   5.907  0.4023  0.7128 -0.0606
 6530SOL     OW31225   2.401   0.854   5.160  0.1133 -0.4803 -0.4915
 6530SOL    HW131226   2.382   0.874   5.069  1.0131  1.2013 -0.3088
 6530SOL    HW231227   2.476   0.914   5.157  1.3838 -2.2144 -3.2917
 6531SOL     OW31228   3.233   3.668   6.258  0.1481 -0.2502  0.6731
 6531SOL    HW131229   3.245   3.590   6.203 -1.9435  0.8864 -1.4480
 6531SOL    HW231230   3.239   3.623   6.342 -2.9770  1.9295  2.1061
 6532SOL     OW31231   4.653   1.878   2.190 -0.2697  0.2150 -0.3601
 6532SOL    HW131232   4.644   1.792   2.230  2.3518 -0.4102 -1.1344
 6532SOL    HW231233   4.714   1.854   2.120 -0.8275 -1.9993 -0.0816
 6533SOL     OW31234   3.509   4.522  17.366  0.4482  0.4133 -0.4114
 6533SOL    HW131235   3.592   4.492  17.328  0.6051  1.4556 -0.8896
 6533SOL    HW231236   3.508   4.616  17.349 -1.4371  0.7567  1.6323
 6534SOL     OW31237   1.035   3.143   6.780 -0.6845  0.2864  0.0818
 6534SOL    HW131238   1.085   3.179   6.853  0.7140  0.2960 -0.8837
 6534SOL    HW231239   0.951   3.183   6.802  1.1372  3.2305  1.6042
 6535SOL     OW31240   4.323   2.960   5.295 -0.1215 -0.4323 -0.1734
 6535SOL    HW131241   4.404   3.012   5.295  1.0915 -2.3108  1.3111
 6535SOL    HW231242   4.335   2.915   5.212 -0.3223 -0.2076 -0.3269
 6536SOL     OW31243   4.568   1.234   9.461 -0.3797  0.7840 -0.0243
 6536SOL    HW131244   4.571   1.256   9.368 -0.6271  1.9628  0.2446
 6536SOL    HW231245   4.479   1.263   9.481  0.6779  3.0362  1.4922
 6537SOL     OW31246   4.741   2.091  10.289 -0.1609  0.1181  0.1983
 6537SOL    HW131247   0.011   2.177  10.329  0.0496 -0.1046  0.6059
 6537SOL    HW231248   4.675   2.121  10.226  0.1601  0.6592  0.1151
 6538SOL     OW31249   1.530   2.075  13.147  0.6525  0.4576  0.1635
 6538SOL    HW131250   1.477   2.010  13.101  1.3175 -0.7903  1.1624
 6538SOL    HW231251   1.492   2.082  13.235  0.6646  0.0879  0.1954
 6539SOL     OW31252   2.784   3.027  11.295 -0.2759  0.2466 -0.4166
 6539SOL    HW131253   2.876   3.046  11.314 -0.9579  2.2391  0.9544
 6539SOL    HW231254   2.796   2.956  11.232  1.9010  1.2236 -1.1208
 6540SOL     OW31255   0.910   3.123  14.439  0.4420 -0.2699 -0.6353
 6540SOL    HW131256   0.996   3.081  14.433 -0.1176 -1.4902 -0.1161
 6540SOL    HW231257   0.866   3.079  14.367 -0.6706 -0.4254  0.1486
 6541SOL     OW31258   4.216   2.274   1.596  0.6549 -0.5366 -0.4091
 6541SOL    HW131259   4.150   2.343   1.595  0.4066 -0.7499  1.5530
 6541SOL    HW231260   4.229   2.263   1.690  1.1777  0.9717 -0.2969
 6542SOL     OW31261   0.970   0.542   4.409 -0.3675 -0.0554  0.2050
 6542SOL    HW131262   0.945   0.632   4.388  1.8165  0.6467  0.6533
 6542SOL    HW231263   0.947   0.526   4.501 -1.4213  1.8804  0.2720
 6543SOL     OW31264   2.198   3.350   8.790  0.6741 -0.1113  0.0447
 6543SOL    HW131265   2.207   3.431   8.740 -0.6159  0.0727  0.1101
 6543SOL    HW231266   2.171   3.386   8.875 -0.8488 -1.0958 -0.0120
 6544SOL     OW31267   4.087   0.117   8.860  0.1083 -0.3548 -0.0146
 6544SOL    HW131268   4.049   0.043   8.815 -1.5695 -0.5456  1.7088
 6544SOL    HW231269   4.115   0.184   8.797  0.8983  0.8210  1.5725
 6545SOL     OW31270   1.925   4.663  16.576 -0.4127 -0.5868 -0.1568
 6545SOL    HW131271   2.016   4.638  16.561 -0.0408  1.1634 -0.8018
 6545SOL    HW231272   1.899   4.694  16.489  0.5374  1.1862  0.2029
 6546SOL     OW31273   1.529   1.672  16.975 -0.7582 -0.0406 -0.1292
 6546SOL    HW131274   1.619   1.702  16.981 -0.8478  0.3101 -0.5020
 6546SOL    HW231275   1.492   1.720  17.049 -0.6812 -2.2094  1.3319
 6547SOL     OW31276   0.613   1.411   6.580  0.4219 -0.1362  0.2033
 6547SOL    HW131277   0.631   1.327   6.623  1.5237  0.1321  0.2790
 6547SOL    HW231278   0.600   1.372   6.494  1.3961  1.2557 -0.5845
 6548SOL     OW31279   2.411   2.540   8.068  0.0104 -0.1691  0.3861
 6548SOL    HW131280   2.460   2.551   8.150  0.5309 -1.2508  0.2366
 6548SOL    HW231281   2.323   2.567   8.093  0.1710  2.0267 -1.5519
 6549SOL     OW31282   1.612   0.947  16.740 -0.3226 -0.2922  0.2530
 6549SOL    HW131283   1.638   0.882  16.675  0.7079 -0.5696  0.9396
 6549SOL    HW231284   1.637   1.025  16.691 -1.2758 -1.0381 -1.4238
 6550SOL     OW31285   3.391   0.085  16.164 -0.2055  0.2389 -0.7703
 6550SOL    HW131286   3.354   0.081  16.076  2.3964 -0.6898 -1.8418
 6550SOL    HW231287   3.314   0.081  16.220  2.1518  2.0532  2.6069
 6551SOL     OW31288   0.485   3.439   3.378  0.0190  0.0956 -0.0446
 6551SOL    HW131289   0.412   3.404   3.429 -0.6617  2.8218  0.8852
 6551SOL    HW231290   0.499   3.526   3.416 -0.0376  0.0434  0.0978
 6552SOL     OW31291   1.602   3.916   7.595 -0.3368  0.3407  0.4414
 6552SOL    HW131292   1.629   3.878   7.678 -0.9857  1.3246  1.1052
 6552SOL    HW231293   1.553   3.845   7.554  0.4796  0.2367 -0.3578
 6553SOL     OW31294   0.519   4.017   3.630 -0.0833 -0.5208 -0.3685
 6553SOL    HW131295   0.453   3.959   3.592 -1.5247  0.7557  0.1856
 6553SOL    HW231296   0.574   4.025   3.552  1.4513 -2.3260  0.5251
 6554SOL     OW31297   0.231   2.324   6.967  0.1595 -0.4931  0.1047
 6554SOL    HW131298   0.280   2.380   7.027  0.5851 -1.1983  0.4155
 6554SOL    HW231299   0.219   2.242   7.017 -2.0722 -0.7994 -0.9257
 6555SOL     OW31300   1.258   2.985   6.085 -0.0550  0.3713  0.1260
 6555SOL    HW131301   1.344   3.024   6.069  0.2665 -1.0699 -1.6494
 6555SOL    HW231302   1.280   2.924   6.155 -1.4306 -0.5025 -0.1986
 6556SOL     OW31303   0.542   0.574   4.333 -0.4676 -0.0606  0.2879
 6556SOL    HW131304   0.574   0.484   4.337 -0.6699 -0.0908  1.4153
 6556SOL    HW231305   0.530   0.600   4.425 -2.2018  0.5154 -0.1053
 6557SOL     OW31306   4.292   2.819  15.272 -0.0023  0.1253 -0.0662
 6557SOL    HW131307   4.289   2.867  15.355  0.1442 -0.7520  0.4437
 6557SOL    HW231308   4.323   2.891  15.217 -0.9180  1.4438  1.1454
 6558SOL     OW31309   1.318   4.301   8.036 -0.0686 -0.4482 -0.1825
 6558SOL    HW131310   1.305   4.333   8.125 -0.1153  1.1999 -0.7670
 6558SOL    HW231311   1.407   4.337   8.032 -0.1817 -0.1506 -0.0414
 6559SOL     OW31312   4.029   1.013  16.841 -0.5836 -0.0145 -0.3043
 6559SOL    HW131313   4.035   1.074  16.914 -0.3986  0.9937 -1.1521
 6559SOL    HW231314   4.061   1.061  16.765 -1.0991 -1.3941 -1.3988
 6560SOL     OW31315   1.159   4.344   6.693  0.1927  0.0734  0.2489
 6560SOL    HW131316   1.226   4.290   6.736  0.7038 -1.0813 -1.9710
 6560SOL    HW231317   1.126   4.387   6.772 -1.6800  0.6597 -0.8441
 6561SOL     OW31318   0.142   3.372   1.442  0.0333  0.5652  0.2007
 6561SOL    HW131319   0.162   3.416   1.358 -1.8607 -0.9118 -1.0209
 6561SOL    HW231320   0.057   3.334   1.420 -0.9714  2.7706  0.2295
 6562SOL     OW31321   0.040   2.161   1.365  0.4935 -0.3911  0.1954
 6562SOL    HW131322   0.125   2.202   1.382  1.1874 -1.3854 -0.8606
 6562SOL    HW231323   4.731   2.240   1.377 -1.0286 -1.3314 -0.2042
 6563SOL     OW31324   1.739   3.443   1.721 -0.1733 -0.1996 -0.0069
 6563SOL    HW131325   1.745   3.529   1.678  2.2907  0.1577  1.0395
 6563SOL    HW231326   1.749   3.468   1.813  0.0622 -0.6006  0.0751
 6564SOL     OW31327   0.640   2.427  13.286  0.1278  0.4197 -0.4658
 6564SOL    HW131328   0.551   2.421  13.251  0.1694 -1.3793 -0.2670
 6564SOL    HW231329   0.631   2.388  13.373  1.9272  2.3304  0.5760
 6565SOL     OW31330   4.603   1.607   2.898 -0.0338  0.2898 -0.1136
 6565SOL    HW131331   4.678   1.579   2.846 -1.0966  1.1573 -2.1200
 6565SOL    HW231332   4.571   1.683   2.850 -1.2619  0.6146  1.2192
 6566SOL     OW31333   1.785   3.796   2.625  0.0276 -0.1820  0.3722
 6566SOL    HW131334   1.809   3.886   2.601  1.5449 -0.8870 -0.7553
 6566SOL    HW231335   1.690   3.791   2.636 -0.4320  1.3979 -3.2351
 6567SOL     OW31336   4.033   4.121   8.125  0.4681  0.1198  0.4862
 6567SOL    HW131337   3.994   4.055   8.182  0.3771 -1.0114 -0.8855
 6567SOL    HW231338   4.093   4.060   8.082 -0.7157 -0.9227  0.3063
 6568SOL     OW31339   0.565   0.417   7.851 -0.2450  0.3482  0.2565
 6568SOL    HW131340   0.493   0.476   7.875 -0.6028  0.2832 -0.6595
 6568SOL    HW231341   0.537   0.342   7.903 -1.9160  0.7360 -0.0638
 6569SOL     OW31342   4.267   0.965  12.734 -0.0592  0.1975  0.2021
 6569SOL    HW131343   4.311   0.910  12.799  1.0841  1.5828  0.6023
 6569SOL    HW231344   4.338   0.988  12.673 -0.0054 -0.3253  0.0708
 6570SOL     OW31345   3.807   3.762  16.442 -0.0358  0.4691  0.0382
 6570SOL    HW131346   3.764   3.802  16.366 -1.4542  0.1399  0.6740
 6570SOL    HW231347   3.848   3.691  16.393 -0.5080  0.8640 -0.9352
 6571SOL     OW31348   2.708   1.097   1.283  0.5136 -0.0090 -0.0361
 6571SOL    HW131349   2.712   1.171   1.221 -0.5446  0.1604  0.0990
 6571SOL    HW231350   2.620   1.061   1.272  1.3518 -2.6846  2.0347
 6572SOL     OW31351   4.417   4.719   2.331 -0.2692  0.1801 -0.4169
 6572SOL    HW131352   4.507   0.005   2.346 -0.4761  0.4690  0.2784
 6572SOL    HW231353   4.429   4.624   2.327  3.0677  0.6096 -0.5171
 6573SOL     OW31354   4.235   1.740  14.956  0.7664  0.0142 -0.5104
 6573SOL    HW131355   4.317   1.774  14.919  0.8102 -0.7988 -1.1687
 6573SOL    HW231356   4.243   1.773  15.045 -1.7165 -0.7569  0.0030
 6574SOL     OW31357   2.286   2.268   3.999 -0.1986  0.3565  0.9030
 6574SOL    HW131358   2.353   2.328   4.033  0.5942 -0.7532  1.2990
 6574SOL    HW231359   2.235   2.239   4.074 -2.2915 -2.1035 -1.4954
 6575SOL     OW31360   4.359   4.252   8.169 -0.8219  0.2242 -0.4774
 6575SOL    HW131361   4.364   4.242   8.074  0.8647 -0.0566 -0.3560
 6575SOL    HW231362   4.279   4.305   8.170 -0.6947  0.3860  2.0315
 6576SOL     OW31363   2.903   0.150  16.293  0.0736 -0.0752  0.3371
 6576SOL    HW131364   2.823   0.193  16.326  1.0780  0.6003  1.9191
 6576SOL    HW231365   2.913   0.179  16.202 -1.7518 -1.9411 -0.4517
 6577SOL     OW31366   0.250   4.402   3.147 -0.3384 -0.7485 -0.3948
 6577SOL    HW131367   0.237   4.432   3.237 -1.7351 -0.6991 -0.6100
 6577SOL    HW231368   0.345   4.387   3.144 -0.2377 -0.2929  0.6965
 6578SOL     OW31369   1.059   3.666   7.171  0.3996  0.6057 -0.0590
 6578SOL    HW131370   1.029   3.725   7.102  0.0516 -0.3602 -0.7417
 6578SOL    HW231371   0.979   3.623   7.203  0.9523 -0.3946  0.0075
 6579SOL     OW31372   2.008   2.047   5.128 -0.0637  0.1918  0.5953
 6579SOL    HW131373   1.995   2.130   5.080 -0.8429  0.3592  1.0902
 6579SOL    HW231374   1.920   2.008   5.122 -0.3521  0.7584  1.1055
 6580SOL     OW31375   0.019   4.698   3.828  0.6135 -0.2306 -0.6836
 6580SOL    HW131376   0.055   4.664   3.911  0.7317  0.3438 -0.4992
 6580SOL    HW231377   0.046   0.046   3.833  0.0328 -0.0840 -0.2489
 6581SOL     OW31378   1.831   2.737   2.020 -0.6081  0.5093  0.2300
 6581SOL    HW131379   1.871   2.697   1.943 -1.7611 -0.8716  0.3421
 6581SOL    HW231380   1.904   2.719   2.079 -0.0695 -0.8342 -0.8363
 6582SOL     OW31381   3.307   4.543  17.536 -0.2348 -0.2150 -0.4396
 6582SOL    HW131382   3.239   4.546  17.469 -0.5090  0.7676 -0.1196
 6582SOL    HW231383   3.385   4.534  17.481  0.9530 -0.4244  1.2914
 6583SOL     OW31384   1.484   0.823  12.434 -0.1421  0.1861 -0.1848
 6583SOL    HW131385   1.491   0.867  12.349 -2.7944 -0.1828 -0.6001
 6583SOL    HW231386   1.576   0.801  12.449 -0.5762 -1.1802  0.4557
 6584SOL     OW31387   0.222   1.419   1.371 -0.1340  0.2295  0.3881
 6584SOL    HW131388   0.291   1.363   1.405 -0.1424 -0.5152 -0.8408
 6584SOL    HW231389   0.267   1.476   1.308  1.2669 -0.5020  0.7321
 6585SOL     OW31390   2.268   1.614   6.291  0.0654 -0.7407 -0.4288
 6585SOL    HW131391   2.247   1.707   6.301 -2.3438 -1.5885  2.3214
 6585SOL    HW231392   2.300   1.604   6.381 -0.6957 -0.2620 -0.1065
 6586SOL     OW31393   4.638   1.641  11.824 -0.0367  0.6438  0.3144
 6586SOL    HW131394   4.658   1.633  11.731  0.1156  1.1913  0.3015
 6586SOL    HW231395   4.554   1.687  11.818 -0.9602 -1.0814 -0.0604
 6587SOL     OW31396   4.500   0.689   8.481 -0.2462 -0.1963 -0.6288
 6587SOL    HW131397   4.475   0.599   8.459 -0.3012 -0.4567  0.4751
 6587SOL    HW231398   4.523   0.728   8.397 -0.7206 -2.7183 -1.9247
 6588SOL     OW31399   0.005   1.541  16.601 -0.2532 -0.1045  0.1930
 6588SOL    HW131400   0.004   1.448  16.578 -0.8491 -0.1361  0.3396
 6588SOL    HW231401   0.069   1.570  16.535 -0.7874 -0.4648 -0.4907
 6589SOL     OW31402   4.389   3.263   8.246  0.3765  0.0814 -0.1367
 6589SOL    HW131403   4.478   3.263   8.210  0.8794  0.4177  1.1082
 6589SOL    HW231404   4.398   3.305   8.332  2.9965  0.2983 -0.4971
 6590SOL     OW31405   1.727   0.555   3.824  0.1581 -0.2613  0.1605
 6590SOL    HW131406   1.712   0.511   3.908  0.3582 -0.6071  0.0181
 6590SOL    HW231407   1.685   0.640   3.838 -0.5610 -0.5136 -0.4542
 6591SOL     OW31408   1.534   2.093   8.010  0.0186  0.3112 -0.0481
 6591SOL    HW131409   1.557   2.014   7.960  2.6924  0.2414  1.2899
 6591SOL    HW231410   1.456   2.061   8.056  0.2140  0.2606  0.2472
 6592SOL     OW31411   4.241   0.166  10.852  0.5532  1.1465  0.3844
 6592SOL    HW131412   4.253   0.140  10.943  1.6289  1.4700  0.3372
 6592SOL    HW231413   4.169   0.108  10.829  1.3156  0.2759  0.2076
 6593SOL     OW31414   0.141   1.511   6.161  0.1924  0.1392 -0.0294
 6593SOL    HW131415   0.108   1.600   6.178 -0.8125 -0.7284  2.5218
 6593SOL    HW231416   0.199   1.518   6.085 -1.0884 -1.0967 -1.1414
 6594SOL     OW31417   2.875   1.673   0.697 -0.1112 -0.1455 -0.4348
 6594SOL    HW131418   2.873   1.647   0.789 -1.0712  1.7941  0.0955
 6594SOL    HW231419   2.782   1.680   0.675 -0.5627 -1.7259  0.9814
 6595SOL     OW31420   4.173   0.647   3.048  0.3299 -0.2807  0.4010
 6595SOL    HW131421   4.144   0.738   3.055 -4.6337 -1.6557 -1.5676
 6595SOL    HW231422   4.166   0.624   3.140  0.9510 -0.7662  0.3289
 6596SOL     OW31423   0.648   4.628   5.967 -0.2787  0.0561 -0.0030
 6596SOL    HW131424   0.645   4.551   6.024  0.9358 -0.6560 -0.8901
 6596SOL    HW231425   0.647   4.592   5.878 -1.4566  1.5836 -0.6097
 6597SOL     OW31426   2.373   4.672  17.504  0.0236 -0.3592 -0.2650
 6597SOL    HW131427   2.345   4.680  17.595 -4.2304 -0.4751 -1.5553
 6597SOL    HW231428   2.354   0.016  17.471  1.0994 -0.1923 -0.4384
 6598SOL     OW31429   3.768   0.587  12.897  0.1736 -0.1217  0.2353
 6598SOL    HW131430   3.813   0.527  12.838  0.2248  1.2172 -1.0927
 6598SOL    HW231431   3.768   0.668  12.845 -0.7147 -1.5130 -1.9792
 6599SOL     OW31432   0.792   1.471   5.738  0.5725  0.4723  0.1644
 6599SOL    HW131433   0.794   1.548   5.794  2.5454  1.4850 -1.3328
 6599SOL    HW231434   0.771   1.509   5.653 -2.2912  0.0650  0.6555
 6600SOL     OW31435   3.078   2.997  12.335 -0.1651  0.6568 -0.1236
 6600SOL    HW131436   3.103   2.933  12.402 -0.8621  0.0499 -0.4404
 6600SOL    HW231437   3.147   3.063  12.326  0.6104 -0.1214  0.1414
 6601SOL     OW31438   1.146   4.739   4.809 -0.1119 -0.2055  0.0475
 6601SOL    HW131439   1.061   0.004   4.766  0.0602  0.4260 -0.1625
 6601SOL    HW231440   1.195   4.702   4.735  0.0568 -3.5290  1.7980
 6602SOL     OW31441   0.618   0.883   8.447  0.2329 -0.0657 -0.1604
 6602SOL    HW131442   0.523   0.892   8.459 -0.0673 -0.2705 -2.3609
 6602SOL    HW231443   0.655   0.947   8.506 -0.8820 -0.0759  0.5543
 6603SOL     OW31444   2.242   3.016   3.451 -0.0477  0.0896  0.0834
 6603SOL    HW131445   2.164   2.982   3.496 -0.2108  1.9104  1.2068
 6603SOL    HW231446   2.198   2.996   3.369  1.9091 -0.3795 -0.8213
 6604SOL     OW31447   2.345   4.028   5.771  0.2703 -0.0431  0.0589
 6604SOL    HW131448   2.378   3.966   5.706  0.0581  0.1000 -0.1863
 6604SOL    HW231449   2.422   4.061   5.817  2.1372 -1.0253 -2.3413
 6605SOL     OW31450   2.574   0.280   8.774  0.9608 -0.1821 -0.2847
 6605SOL    HW131451   2.540   0.193   8.795 -0.5945  1.1906  2.8822
 6605SOL    HW231452   2.520   0.299   8.697  1.4480 -0.3505 -0.6670
 6606SOL     OW31453   0.725   1.024   8.659 -0.2972 -0.0170  0.0449
 6606SOL    HW131454   0.707   0.967   8.733 -0.1710  0.6946  0.6166
 6606SOL    HW231455   0.804   1.075   8.680 -0.5173  1.1124 -1.8317
 6607SOL     OW31456   1.435   2.574  11.752  0.0569 -0.2969  0.3548
 6607SOL    HW131457   1.426   2.479  11.739  0.2630  0.0843 -2.6147
 6607SOL    HW231458   1.520   2.574  11.795 -0.4209  0.5707  1.2807
 6608SOL     OW31459   3.914   0.205   1.717 -0.0482  0.2889 -0.1435
 6608SOL    HW131460   3.917   0.110   1.708  0.7256  0.3048 -0.0456
 6608SOL    HW231461   3.986   0.209   1.780 -0.8084  0.1147  0.7351
 6609SOL     OW31462   1.763   0.870   9.908  0.3667 -0.1984  0.0937
 6609SOL    HW131463   1.778   0.920   9.828  1.4331  0.6674  0.8198
 6609SOL    HW231464   1.846   0.823   9.908  1.2032  1.2680  1.6270
 6610SOL     OW31465   2.722   2.081   5.170 -0.0405  0.6383  0.0359
 6610SOL    HW131466   2.782   2.042   5.106  0.3861 -0.5244  1.1357
 6610SOL    HW231467   2.776   2.081   5.250 -1.0122  1.7166  0.6866
 6611SOL     OW31468   0.953   0.772   7.583 -0.3600 -0.0644  0.5656
 6611SOL    HW131469   0.914   0.698   7.628  0.8041 -1.3819 -0.5998
 6611SOL    HW231470   0.955   0.843   7.648 -1.2518 -1.6157  2.2823
 6612SOL     OW31471   2.087   4.028   6.648  0.3381 -0.4420  0.9177
 6612SOL    HW131472   2.029   4.033   6.572 -0.1384  1.5024  1.4084
 6612SOL    HW231473   2.111   3.935   6.643 -1.6385 -0.8671 -0.6501
 6613SOL     OW31474   2.276   1.832  16.866 -0.2034 -0.1604 -0.5647
 6613SOL    HW131475   2.224   1.911  16.848  2.0718  1.6399  0.6462
 6613SOL    HW231476   2.298   1.843  16.959  0.8585  2.2898 -1.1045
 6614SOL     OW31477   0.163   4.147   5.253  0.2344  0.1264 -0.1373
 6614SOL    HW131478   0.190   4.150   5.345  0.0856 -2.4592 -0.0296
 6614SOL    HW231479   0.095   4.215   5.249 -0.2093 -0.4574 -2.7291
 6615SOL     OW31480   0.561   1.203   3.123  0.0509  0.0723 -0.0787
 6615SOL    HW131481   0.521   1.290   3.123 -0.1410 -0.0165  0.4658
 6615SOL    HW231482   0.534   1.160   3.204  0.4278 -0.4174 -0.2159
 6616SOL     OW31483   2.267   2.764   4.727  0.0769 -0.1035  0.1232
 6616SOL    HW131484   2.176   2.759   4.699 -0.3908  1.5890  1.3464
 6616SOL    HW231485   2.292   2.673   4.715  0.9064 -0.1681  2.4296
 6617SOL     OW31486   4.168   0.924   4.359 -0.0098  0.0279 -0.2149
 6617SOL    HW131487   4.226   0.996   4.334 -0.0461  0.2782  0.4302
 6617SOL    HW231488   4.107   0.983   4.403  0.5246  1.1058 -0.9061
 6618SOL     OW31489   3.496   1.633   3.894 -0.3931  0.1104  0.0613
 6618SOL    HW131490   3.407   1.620   3.927 -0.0816 -0.8296  0.5264
 6618SOL    HW231491   3.533   1.547   3.914 -0.4909  0.1746  0.5254
 6619SOL     OW31492   4.022   3.517   2.922  0.3392  0.3159  0.4763
 6619SOL    HW131493   4.090   3.527   2.855  0.3671 -0.6432  0.3608
 6619SOL    HW231494   3.987   3.432   2.898 -1.1346  1.4335 -1.2987
 6620SOL     OW31495   0.656   1.829   0.409 -0.2732 -0.5752  0.2514
 6620SOL    HW131496   0.722   1.793   0.350  0.8796 -1.1558  1.8970
 6620SOL    HW231497   0.622   1.749   0.449 -1.7173  0.6722  1.5067
 6621SOL     OW31498   4.213   1.259   9.381 -0.2148 -0.0571 -0.3052
 6621SOL    HW131499   4.252   1.205   9.312 -3.0357  0.4985 -2.3585
 6621SOL    HW231500   4.135   1.209   9.406  0.3025 -0.6097  0.2258
 6622SOL     OW31501   2.798   1.306   6.476  0.8636  0.1679 -0.5389
 6622SOL    HW131502   2.820   1.230   6.422  0.9773  1.5774 -2.4446
 6622SOL    HW231503   2.819   1.376   6.415 -1.3075  0.3049 -1.1263
 6623SOL     OW31504   3.844   0.843   9.408 -0.4195  0.1695  0.1119
 6623SOL    HW131505   3.774   0.845   9.473 -1.4667  1.7621 -1.0657
 6623SOL    HW231506   3.925   0.828   9.458 -1.9339  0.5863  2.6545
 6624SOL     OW31507   2.817   4.099  17.497  0.2841  0.3555 -0.2689
 6624SOL    HW131508   2.888   4.137  17.446 -1.1920  3.2366 -0.1314
 6624SOL    HW231509   2.781   4.180  17.531 -0.8877 -1.2632  2.3618
 6625SOL     OW31510   1.542   4.446  11.453  0.2118  0.5741  0.6841
 6625SOL    HW131511   1.599   4.522  11.460 -1.4390  1.8580  0.0363
 6625SOL    HW231512   1.462   4.484  11.489  0.4409  1.3074  0.4118
 6626SOL     OW31513   0.616   2.463  17.546  0.2239  0.0233  0.4437
 6626SOL    HW131514   0.558   2.500  17.479  0.1658  0.2232  0.6056
 6626SOL    HW231515   0.675   2.408  17.495 -1.0253 -1.9335  1.1288
 6627SOL     OW31516   1.714   0.317  16.609 -0.3992  0.3329 -0.5918
 6627SOL    HW131517   1.803   0.301  16.576  0.4566 -0.7026  2.2116
 6627SOL    HW231518   1.694   0.410  16.597 -2.8049  0.3823  3.7146
 6628SOL     OW31519   3.169   2.381   8.171 -0.3074  0.4940  0.4173
 6628SOL    HW131520   3.168   2.473   8.145  0.1185  0.8075  1.5020
 6628SOL    HW231521   3.245   2.343   8.128  1.2281  0.5341  3.1110
 6629SOL     OW31522   2.700   2.588   5.729  0.4233 -0.4125  0.0469
 6629SOL    HW131523   2.604   2.579   5.732  0.3423  0.1226 -0.8354
 6629SOL    HW231524   2.722   2.572   5.821 -1.3042 -0.6818  0.4280
 6630SOL     OW31525   0.665   0.781   1.875 -0.2314 -0.2037 -0.0795
 6630SOL    HW131526   0.660   0.743   1.963 -0.5982 -1.1704 -0.5117
 6630SOL    HW231527   0.743   0.732   1.847 -3.1094 -4.0914 -1.3936
 6631SOL     OW31528   4.600   3.130   8.412 -0.0322 -0.1397 -0.2568
 6631SOL    HW131529   4.686   3.124   8.454 -0.8744 -0.2652  1.4625
 6631SOL    HW231530   4.550   3.071   8.469  1.3546 -0.4966  0.5953
 6632SOL     OW31531   1.847   3.011   3.985  0.1908 -0.0191  0.4269
 6632SOL    HW131532   1.878   2.936   4.036  3.3608  0.6290 -0.5312
 6632SOL    HW231533   1.765   3.034   4.027  0.2214 -1.1144  1.0814
 6633SOL     OW31534   2.680   3.644   0.124 -0.2229  0.8483  0.1261
 6633SOL    HW131535   2.597   3.596   0.116 -1.7512  3.0948  2.5641
 6633SOL    HW231536   2.703   3.684   0.040 -0.2953  1.1499  0.2527
 6634SOL     OW31537   2.977   3.648  12.610 -0.0503 -0.2525  0.2458
 6634SOL    HW131538   2.923   3.577  12.577 -0.8830  1.2253 -1.5441
 6634SOL    HW231539   3.002   3.620  12.698 -0.1333 -0.1761  0.2931
 6635SOL     OW31540   0.151   0.167   8.203 -0.1200 -0.1710  0.1600
 6635SOL    HW131541   0.056   0.168   8.193 -0.3750  0.4643  2.9329
 6635SOL    HW231542   0.157   0.261   8.220 -0.3174  0.0674 -1.0873
 6636SOL     OW31543   0.449   2.665   5.088  0.0405  0.2309  0.2361
 6636SOL    HW131544   0.444   2.756   5.117 -2.1129  0.8609 -2.1753
 6636SOL    HW231545   0.474   2.680   4.997  0.7642  0.9093  0.5462
 6637SOL     OW31546   0.973   0.429   6.034 -0.1765 -0.5006  0.0263
 6637SOL    HW131547   1.044   0.376   6.069 -1.1393 -0.8459  1.4415
 6637SOL    HW231548   0.912   0.416   6.106 -2.2532  0.8394 -1.5011
 6638SOL     OW31549   4.664   1.012   5.897  0.1734 -0.3475  0.2807
 6638SOL    HW131550   4.654   0.950   5.824  1.1806  1.2517 -1.1935
 6638SOL    HW231551   0.001   1.055   5.869 -0.5776 -0.0674 -1.4376
 6639SOL     OW31552   0.939   0.177  15.069 -0.2837 -0.4371 -0.3312
 6639SOL    HW131553   0.907   0.263  15.098 -2.0463 -1.0263 -0.5431
 6639SOL    HW231554   0.993   0.202  14.994  0.7113 -0.3468  0.4017
 6640SOL     OW31555   0.714   4.427   3.207  0.2010 -0.0649  0.1857
 6640SOL    HW131556   0.635   4.462   3.249 -0.6032 -2.9447  1.0096
 6640SOL    HW231557   0.674   4.416   3.121 -0.0946  3.4601 -0.1563
 6641SOL     OW31558   4.602   1.169   6.123  0.0190  0.0172 -0.3686
 6641SOL    HW131559   4.570   1.079   6.115 -0.9864  0.3188  0.3083
 6641SOL    HW231560   4.672   1.176   6.058 -1.0667  0.9874 -1.4245
 6642SOL     OW31561   1.346   1.333   9.976  0.1013 -0.0273  0.3562
 6642SOL    HW131562   1.319   1.353   9.887 -3.0340 -1.9328  0.8813
 6642SOL    HW231563   1.270   1.282  10.006 -0.4823  0.3108 -0.5837
 6643SOL     OW31564   1.045   0.668  10.878 -0.3098  0.7270 -0.3818
 6643SOL    HW131565   1.017   0.737  10.817 -1.3473  1.2592  0.7115
 6643SOL    HW231566   1.132   0.646  10.842 -0.2318  0.9788 -0.3481
 6644SOL     OW31567   0.733   0.564   0.430  0.1287 -0.1109  0.4831
 6644SOL    HW131568   0.769   0.526   0.509  1.6271  0.5962  0.1324
 6644SOL    HW231569   0.689   0.487   0.394  1.9669 -0.1201 -1.7736
 6645SOL     OW31570   1.705   1.915   3.724 -0.0467  0.4931  0.2439
 6645SOL    HW131571   1.679   2.007   3.720 -2.2738 -0.1254  0.4616
 6645SOL    HW231572   1.642   1.876   3.663  1.4989 -0.5173 -0.7329
 6646SOL     OW31573   4.455   3.138   4.667 -0.0508  0.1741  0.7422
 6646SOL    HW131574   4.410   3.221   4.648 -0.8973 -0.2805  0.7649
 6646SOL    HW231575   4.472   3.148   4.760  0.0069  0.8806  0.6588
 6647SOL     OW31576   0.974   3.311  15.639  0.3313  0.2837  0.3723
 6647SOL    HW131577   1.051   3.258  15.616 -0.1537 -0.0614 -0.4741
 6647SOL    HW231578   1.008   3.367  15.708  0.4149  0.2400  0.3677
 6648SOL     OW31579   2.284   1.338   6.227 -0.1061 -0.3191 -0.1372
 6648SOL    HW131580   2.278   1.433   6.241  2.5376 -0.5532  2.5252
 6648SOL    HW231581   2.197   1.327   6.189  1.0508 -1.7820 -2.3366
 6649SOL     OW31582   1.657   0.479  12.602  0.0569  0.0470 -0.2088
 6649SOL    HW131583   1.614   0.513  12.681 -1.2774 -1.6880 -0.1644
 6649SOL    HW231584   1.612   0.396  12.585 -1.7747  1.1059 -0.5792
 6650SOL     OW31585   2.248   1.393   5.136 -0.5049  0.0279 -0.1786
 6650SOL    HW131586   2.289   1.315   5.173  2.0958  1.2558 -0.5302
 6650SOL    HW231587   2.159   1.378   5.168 -0.4114  0.2208  0.1697
 6651SOL     OW31588   0.715   0.050   6.285 -0.5626  0.1839 -0.2879
 6651SOL    HW131589   0.640   0.053   6.344 -0.4129  0.2323 -0.0971
 6651SOL    HW231590   0.785   0.077   6.346  1.0355 -1.2679 -1.5042
 6652SOL     OW31591   1.057   1.668   6.350 -0.0856  0.3724  0.1469
 6652SOL    HW131592   0.968   1.649   6.321  0.2026 -1.3444  0.3836
 6652SOL    HW231593   1.060   1.753   6.306  0.5432  0.5529  0.5243
 6653SOL     OW31594   2.939   3.894  17.633  0.4641 -0.0621 -0.4811
 6653SOL    HW131595   2.978   3.944  17.705 -0.1964  0.5730 -0.5672
 6653SOL    HW231596   2.886   3.963  17.593  0.5299  0.3587  0.1735
 6654SOL     OW31597   1.140   4.520  11.960 -0.8083 -0.3994 -0.4524
 6654SOL    HW131598   1.214   4.486  11.911 -1.7253 -1.9306 -0.7964
 6654SOL    HW231599   1.100   4.583  11.900 -0.1948 -0.7445 -1.2241
 6655SOL     OW31600   3.575   2.998  16.246 -0.0090 -0.1127 -0.3719
 6655SOL    HW131601   3.614   3.055  16.180 -0.2330  1.3844  0.7979
 6655SOL    HW231602   3.624   3.022  16.325  0.5346  0.0069 -0.7461
 6656SOL     OW31603   4.489   4.466   5.596  0.2998  0.2386 -0.5260
 6656SOL    HW131604   4.553   4.475   5.666 -2.7994  1.2892  2.1903
 6656SOL    HW231605   4.536   4.410   5.534  0.9891 -0.1045  0.3137
 6657SOL     OW31606   3.008   2.229  17.034 -0.2129 -0.1619  0.1499
 6657SOL    HW131607   3.042   2.290  16.968 -1.4464 -1.4975 -1.7028
 6657SOL    HW231608   2.968   2.286  17.099 -0.1044 -0.4739  0.4958
 6658SOL     OW31609   0.797   2.843   6.088  0.0004 -0.5339  0.1860
 6658SOL    HW131610   0.878   2.871   6.047 -0.8521 -0.4352 -1.4301
 6658SOL    HW231611   0.733   2.870   6.023 -0.1191 -0.9384  0.1321
 6659SOL     OW31612   1.292   0.068   5.877  0.3566 -0.1032 -0.1550
 6659SOL    HW131613   1.275   0.083   5.784  0.1263 -0.2181 -0.1297
 6659SOL    HW231614   1.353   4.737   5.880  0.5969  0.1806  1.9336
 6660SOL     OW31615   3.701   2.429   2.124 -0.1407 -0.3533 -0.0404
 6660SOL    HW131616   3.653   2.476   2.056  3.0209  0.8687 -1.4261
 6660SOL    HW231617   3.762   2.376   2.072  0.7371  1.5487 -0.9271
 6661SOL     OW31618   0.880   2.432  13.603 -0.3911 -0.9408 -0.0280
 6661SOL    HW131619   0.788   2.414  13.584 -0.6940  0.8205 -0.1699
 6661SOL    HW231620   0.880   2.427  13.699  2.7087 -0.8262 -0.0223
 6662SOL     OW31621   0.879   1.846   1.507 -0.1759 -0.0946 -0.2561
 6662SOL    HW131622   0.903   1.937   1.523 -2.2265  0.3634  0.2024
 6662SOL    HW231623   0.959   1.809   1.470  1.1260  0.1320  2.2896
 6663SOL     OW31624   3.419   2.443   3.516 -0.0017  0.7876  0.0072
 6663SOL    HW131625   3.334   2.485   3.516  0.2116  1.2341  1.7209
 6663SOL    HW231626   3.474   2.477   3.445  2.9634  1.9188  2.8292
 6664SOL     OW31627   0.045   1.084   4.161  0.1400  0.2782 -0.7078
 6664SOL    HW131628   0.055   1.121   4.073  0.9061  0.7096 -0.4337
 6664SOL    HW231629   4.715   1.134   4.198  1.3609  2.6943 -1.5185
 6665SOL     OW31630   2.988   1.208   2.808 -0.0571 -0.5337  0.3385
 6665SOL    HW131631   2.948   1.288   2.841  2.7632  0.6602  0.8667
 6665SOL    HW231632   2.920   1.150   2.774 -1.1621  0.5372  0.7241
 6666SOL     OW31633   3.334   3.723   6.558  0.1894  0.3203 -0.2245
 6666SOL    HW131634   3.265   3.784   6.531  1.2474  1.2613 -0.8088
 6666SOL    HW231635   3.266   3.670   6.599  0.9627  0.7600  1.6103
 6667SOL     OW31636   4.397   0.594   3.786 -0.7636 -0.3223 -0.4492
 6667SOL    HW131637   4.454   0.555   3.851  0.8734 -0.7562 -2.1571
 6667SOL    HW231638   4.379   0.681   3.823  1.0751 -1.1917  2.4233
 6668SOL     OW31639   3.817   3.119  16.107 -0.2657  0.1394 -0.0587
 6668SOL    HW131640   3.820   3.201  16.155  0.2219  0.0611  0.0482
 6668SOL    HW231641   3.858   3.054  16.165  2.3799  2.5285  0.7379
 6669SOL     OW31642   0.511   0.490   3.792  0.2386 -0.4419  0.3308
 6669SOL    HW131643   0.506   0.573   3.745 -1.2447 -0.6178  0.1818
 6669SOL    HW231644   0.543   0.508   3.881  0.5411  1.1104 -0.0919
 6670SOL     OW31645   2.512   0.254  14.748 -0.1306 -0.9868  0.3219
 6670SOL    HW131646   2.451   0.309  14.699  1.1128 -0.3006 -0.4526
 6670SOL    HW231647   2.546   0.310  14.817  1.3676 -2.4473  0.7762
 6671SOL     OW31648   3.350   0.641   0.197  0.3419 -0.1352 -0.5787
 6671SOL    HW131649   3.378   0.604   0.114 -2.1710 -3.6358  0.1319
 6671SOL    HW231650   3.289   0.707   0.164  1.5899  1.5605  0.4935
 6672SOL     OW31651   1.656   2.119  16.105 -0.3037  0.6419  0.2195
 6672SOL    HW131652   1.645   2.085  16.194 -0.2710 -0.9655 -0.3911
 6672SOL    HW231653   1.612   2.047  16.059 -0.1458  0.4852  0.3132
 6673SOL     OW31654   0.379   1.209  11.082  0.1364 -0.6777  0.8074
 6673SOL    HW131655   0.341   1.246  11.002 -1.9579 -0.9340  1.6897
 6673SOL    HW231656   0.458   1.181  11.036 -1.0399  0.9796 -2.2843
 6674SOL     OW31657   4.280   2.848   0.422 -0.5124  0.1528 -0.0889
 6674SOL    HW131658   4.211   2.911   0.443 -1.4767 -0.5872 -1.0462
 6674SOL    HW231659   4.351   2.913   0.419  0.4145 -0.8762 -0.3702
 6675SOL     OW31660   3.633   3.417  16.038  0.0907 -0.1303  0.6441
 6675SOL    HW131661   3.601   3.396  15.950 -1.6759  1.3636  0.9394
 6675SOL    HW231662   3.692   3.491  16.026 -2.9278  1.8756 -1.6758
 6676SOL     OW31663   1.161   4.264   5.062 -0.4348 -0.0540 -0.6135
 6676SOL    HW131664   1.197   4.192   5.010 -1.3222 -1.4390  0.6794
 6676SOL    HW231665   1.094   4.308   5.009 -1.1245  0.6471  0.8396
 6677SOL     OW31666   1.308   1.976  16.949 -0.4028 -0.4536 -0.1466
 6677SOL    HW131667   1.377   1.970  16.883  0.0926  0.6854  0.2727
 6677SOL    HW231668   1.352   1.946  17.028 -0.8944  1.2385  0.7554
 6678SOL     OW31669   4.366   2.931  15.743 -0.2367 -0.5406  0.4498
 6678SOL    HW131670   4.382   2.855  15.687 -3.2734 -1.3599  0.7320
 6678SOL    HW231671   4.354   3.000  15.676 -0.0518 -1.5778 -0.6498
 6679SOL     OW31672   3.009   4.061   8.823  0.0383  0.0244  0.1515
 6679SOL    HW131673   2.970   3.974   8.816 -1.6320  0.8133 -0.5304
 6679SOL    HW231674   3.064   4.071   8.745  2.6457 -1.5045  1.8069
 6680SOL     OW31675   3.959   4.692   8.625  0.2318 -0.3223  0.3919
 6680SOL    HW131676   3.991   4.613   8.581 -0.6648 -0.0796 -0.6862
 6680SOL    HW231677   3.885   4.656   8.674 -0.2966 -0.6394 -0.6546
 6681SOL     OW31678   4.352   1.791  14.076 -0.0523 -0.6165 -0.3578
 6681SOL    HW131679   4.324   1.788  14.167 -3.6357 -2.9500 -1.5552
 6681SOL    HW231680   4.396   1.706  14.066 -1.6563 -1.7607  2.5699
 6682SOL     OW31681   4.222   0.915   6.271 -0.3682 -0.2447 -0.5417
 6682SOL    HW131682   4.217   0.969   6.191  0.6749  2.5909  1.2957
 6682SOL    HW231683   4.179   0.969   6.337  1.8692  0.0996  0.6389
 6683SOL     OW31684   1.783   1.435   8.309 -0.2993  0.0101  0.1466
 6683SOL    HW131685   1.830   1.385   8.241  0.6954 -0.8245  1.4421
 6683SOL    HW231686   1.697   1.402   8.281  0.2706  0.7605 -2.5373
 6684SOL     OW31687   2.305   4.535   6.304 -0.3904  0.3290  0.7680
 6684SOL    HW131688   2.344   4.449   6.319 -1.8011 -0.8715 -2.4011
 6684SOL    HW231689   2.317   4.547   6.210  1.4581 -0.5149  0.8892
 6685SOL     OW31690   3.335   1.796  14.919 -0.3526  0.2366 -0.4270
 6685SOL    HW131691   3.253   1.759  14.951 -1.1772  1.6294 -0.9281
 6685SOL    HW231692   3.358   1.828  15.006 -0.2711  0.9611 -0.7164
 6686SOL     OW31693   1.782   2.523   1.608 -0.5232  0.0243 -0.1779
 6686SOL    HW131694   1.686   2.517   1.608 -0.5354  0.2436  0.0262
 6686SOL    HW231695   1.811   2.492   1.522  3.4075 -2.1645  1.9514
 6687SOL     OW31696   1.424   1.968   4.287  0.7073 -0.0554  0.7895
 6687SOL    HW131697   1.334   1.937   4.301  0.0527  1.1875 -0.6856
 6687SOL    HW231698   1.468   1.900   4.237 -0.5355  0.6217 -1.2237
 6688SOL     OW31699   0.427   1.229   1.419  0.1367  0.2559  0.1518
 6688SOL    HW131700   0.506   1.254   1.466  0.3693 -0.6116  0.2179
 6688SOL    HW231701   0.386   1.165   1.478  1.3320 -0.7428 -0.1166
 6689SOL     OW31702   4.374   0.784  12.883 -0.0627 -0.4425  0.3917
 6689SOL    HW131703   4.354   0.691  12.870 -2.5736  0.3757 -1.6110
 6689SOL    HW231704   4.449   0.782  12.942 -1.1510  0.0928  1.7990
 6690SOL     OW31705   0.587   1.255   2.664 -0.1935 -0.4240 -0.0823
 6690SOL    HW131706   0.648   1.326   2.686 -0.8579  1.3242 -3.8325
 6690SOL    HW231707   0.642   1.177   2.673  0.3935 -0.1333 -1.1106
 6691SOL     OW31708   1.386   3.804   3.703 -0.2295  0.2114  0.0962
 6691SOL    HW131709   1.428   3.881   3.741 -0.1469 -0.2243  0.8864
 6691SOL    HW231710   1.455   3.765   3.650 -1.0478 -1.3906  0.1920
 6692SOL     OW31711   3.577   0.634   7.666  0.6672 -0.1556  0.0799
 6692SOL    HW131712   3.506   0.685   7.628  0.2240 -0.0866  0.9967
 6692SOL    HW231713   3.627   0.628   7.585 -1.1638  2.9814 -1.2787
 6693SOL     OW31714   3.694   1.999  16.755  0.1691 -0.1968 -0.8677
 6693SOL    HW131715   3.769   1.941  16.764 -0.0554 -0.8451 -3.1920
 6693SOL    HW231716   3.737   2.084  16.745  0.3473 -0.4041 -1.9281
 6694SOL     OW31717   4.381   2.936   1.480 -0.2157 -0.4936  0.3190
 6694SOL    HW131718   4.309   2.977   1.434 -0.3897 -1.3221 -0.1480
 6694SOL    HW231719   4.353   2.846   1.466  0.9364 -0.5402 -1.6954
 6695SOL     OW31720   3.898   3.168   8.335 -0.0657 -0.0506 -0.2074
 6695SOL    HW131721   3.938   3.216   8.263  0.7165 -1.8682 -0.9995
 6695SOL    HW231722   3.969   3.109   8.359  0.0445 -0.5334 -1.7246
 6696SOL     OW31723   4.469   2.040   1.008 -0.3461 -0.0365  0.9817
 6696SOL    HW131724   4.421   2.019   1.088  0.1656  0.9649  1.5524
 6696SOL    HW231725   4.526   2.108   1.043 -0.7755  1.3391 -0.9932
 6697SOL     OW31726   2.792   4.293   8.734 -0.4890 -0.0463  0.0347
 6697SOL    HW131727   2.770   4.346   8.811  2.8951 -1.0535  1.6672
 6697SOL    HW231728   2.849   4.225   8.768 -1.4575 -0.5955  0.5445
 6698SOL     OW31729   0.559   3.558   4.240  0.0317  0.4114 -1.0957
 6698SOL    HW131730   0.565   3.545   4.334 -0.0331  1.5259 -0.9398
 6698SOL    HW231731   0.464   3.563   4.232 -0.2371  0.0260  2.2453
 6699SOL     OW31732   0.197   2.462   6.497 -0.2140 -0.2863  0.5817
 6699SOL    HW131733   0.177   2.406   6.572  0.5167 -1.3804 -0.0301
 6699SOL    HW231734   0.152   2.544   6.516  1.6079  0.6390  0.9605
 6700SOL     OW31735   0.211   1.613   3.342  0.0748  0.0854  0.3029
 6700SOL    HW131736   0.129   1.659   3.360  0.9610  1.9265 -0.3822
 6700SOL    HW231737   0.259   1.683   3.298 -1.3282  1.7224  1.3708
 6701SOL     OW31738   0.511   0.115   9.002  0.4638  0.8739  0.2010
 6701SOL    HW131739   0.431   0.082   9.043  0.0302 -0.0087 -1.3582
 6701SOL    HW231740   0.474   0.182   8.945  2.5440  1.9855  0.1405
 6702SOL     OW31741   3.633   1.764  12.436  0.7077 -0.6161 -0.2582
 6702SOL    HW131742   3.580   1.843  12.429  1.9897  0.3829  1.1499
 6702SOL    HW231743   3.711   1.798  12.480 -1.0843  1.1768  1.5654
 6703SOL     OW31744   2.977   1.608   3.871 -0.5244  0.5003 -0.7109
 6703SOL    HW131745   3.013   1.654   3.796  0.4786 -1.1762 -1.2773
 6703SOL    HW231746   2.981   1.668   3.946  3.6708 -0.1005 -0.4279
 6704SOL     OW31747   2.353   4.699   7.678  0.4266 -0.1916  0.3278
 6704SOL    HW131748   2.403   4.706   7.759  1.2294 -0.9703 -0.1009
 6704SOL    HW231749   2.379   0.036   7.634 -1.6387  1.0533  1.3548
 6705SOL     OW31750   0.076   0.363   4.621 -0.4786 -0.2074 -0.5807
 6705SOL    HW131751   0.089   0.378   4.714  1.3922  1.3280 -1.0990
 6705SOL    HW231752   0.030   0.442   4.594 -0.0988 -0.1299 -0.9841
 6706SOL     OW31753   3.123   0.213   8.874  0.4642  0.0870 -0.4307
 6706SOL    HW131754   3.124   0.213   8.778 -0.0663  0.6692 -0.4367
 6706SOL    HW231755   3.064   0.141   8.895  1.4983 -0.5779  0.2132
 6707SOL     OW31756   1.954   1.460   7.269 -0.3350  0.0295 -0.0882
 6707SOL    HW131757   1.940   1.376   7.314  1.9388  1.2711  2.9780
 6707SOL    HW231758   1.865   1.489   7.247 -0.3551  0.4244  0.5049
 6708SOL     OW31759   2.724   3.855   8.035 -0.1111  0.0711 -0.2437
 6708SOL    HW131760   2.674   3.880   7.958 -0.8141 -0.3862  0.0609
 6708SOL    HW231761   2.657   3.794   8.068  0.6558 -0.6309  0.0341
 6709SOL     OW31762   0.484   2.449   6.464 -0.1493 -0.2415 -0.1699
 6709SOL    HW131763   0.390   2.436   6.453 -0.3184  0.5689  0.3244
 6709SOL    HW231764   0.498   2.417   6.553  2.1902 -1.5780 -1.0313
 6710SOL     OW31765   2.630   1.741  13.391  0.0317  0.0367  0.0857
 6710SOL    HW131766   2.610   1.716  13.301  1.5477 -2.6573  0.5026
 6710SOL    HW231767   2.608   1.658  13.432 -1.3782 -0.0715 -0.9102
 6711SOL     OW31768   1.036   2.179   2.343  0.3177  0.3872  0.6208
 6711SOL    HW131769   1.084   2.098   2.325 -1.4700 -0.9054  1.6998
 6711SOL    HW231770   0.948   2.142   2.338 -0.7431  3.1728 -1.9121
 6712SOL     OW31771   1.451   1.647  16.056 -0.2464 -0.2299 -0.2006
 6712SOL    HW131772   1.499   1.668  15.976 -2.2657  1.0306 -1.0839
 6712SOL    HW231773   1.366   1.616  16.025  0.4410  0.6534 -2.9639
 6713SOL     OW31774   2.746   1.062   9.263  0.0122  0.2371 -0.1970
 6713SOL    HW131775   2.664   1.017   9.241 -0.3320  0.2517  1.0743
 6713SOL    HW231776   2.719   1.153   9.250 -0.0487  0.3793  0.8932
 6714SOL     OW31777   4.373   1.497   5.830  0.1085  0.4338 -0.2679
 6714SOL    HW131778   4.407   1.471   5.915  2.1860  0.3045 -1.1227
 6714SOL    HW231779   4.367   1.415   5.781  1.7606 -0.9382  1.8752
 6715SOL     OW31780   1.468   0.157   2.896  0.0334 -0.0176 -0.3373
 6715SOL    HW131781   1.516   0.232   2.861  1.1741 -0.7154 -0.2976
 6715SOL    HW231782   1.383   0.199   2.903 -0.0166 -0.0337 -0.9112
 6716SOL     OW31783   1.949   4.219  14.275  0.0274 -0.3677  0.5698
 6716SOL    HW131784   1.938   4.310  14.250 -1.1451 -0.8259 -0.5990
 6716SOL    HW231785   2.042   4.207  14.256 -0.0742  0.4759 -0.4277
 6717SOL     OW31786   1.343   2.095  14.855 -0.5691  0.2466  0.2126
 6717SOL    HW131787   1.313   2.036  14.786 -2.3873 -0.7213  1.8493
 6717SOL    HW231788   1.396   2.036  14.909  1.4017  1.7101 -0.1105
 6718SOL     OW31789   1.589   0.847   2.481  0.2256 -0.1575 -0.6279
 6718SOL    HW131790   1.615   0.756   2.496  1.3896 -0.2368 -3.1683
 6718SOL    HW231791   1.584   0.850   2.386 -2.3117  0.9340 -0.4788
 6719SOL     OW31792   2.006   0.259   1.681  0.1528 -0.2205 -0.0597
 6719SOL    HW131793   1.958   0.264   1.599  1.3524  0.1602 -0.7400
 6719SOL    HW231794   1.965   0.328   1.733 -1.1530 -0.2048 -1.1197
 6720SOL     OW31795   2.131   2.887   0.458  0.0593 -0.1594 -0.4764
 6720SOL    HW131796   2.161   2.963   0.409 -1.8762  0.6720 -0.3628
 6720SOL    HW231797   2.187   2.885   0.536 -0.0023  0.1853 -0.4265
 6721SOL     OW31798   3.967   2.171   5.626 -0.0386 -0.6406  0.1856
 6721SOL    HW131799   4.013   2.125   5.556  0.5366  0.8434 -0.4084
 6721SOL    HW231800   3.955   2.099   5.688 -1.4368 -1.6191 -1.2184
 6722SOL     OW31801   0.042   2.205   4.427  0.1928  0.2225 -0.2581
 6722SOL    HW131802   0.033   2.291   4.468  0.9305  0.9135 -1.5380
 6722SOL    HW231803   0.122   2.173   4.467  0.9811  0.6415 -1.4894
 6723SOL     OW31804   3.492   3.497   3.218  0.0696 -0.0634  0.1846
 6723SOL    HW131805   3.498   3.506   3.313  0.1175 -0.8986  0.2608
 6723SOL    HW231806   3.478   3.590   3.199  0.2200 -0.0893 -0.0511
 6724SOL     OW31807   4.571   0.412   3.922 -0.6226  0.2407  0.2122
 6724SOL    HW131808   4.649   0.374   3.881  0.1121  0.2380  1.6077
 6724SOL    HW231809   4.579   0.366   4.005 -1.8104 -0.4619 -0.0666
 6725SOL     OW31810   0.409   0.663   5.116  0.1584  0.1088 -0.2326
 6725SOL    HW131811   0.398   0.574   5.150  0.5074  1.5676  3.7136
 6725SOL    HW231812   0.323   0.672   5.076 -0.0315  1.0056  0.3681
 6726SOL     OW31813   2.889   3.980   5.965 -0.5698  0.0079  0.3910
 6726SOL    HW131814   2.861   3.894   5.996 -0.2712 -0.1862  0.1210
 6726SOL    HW231815   2.903   4.040   6.038 -1.1611  0.9969 -0.3210
 6727SOL     OW31816   3.421   0.410   8.998 -0.1593  0.2179 -0.2517
 6727SOL    HW131817   3.473   0.459   8.934 -1.8384 -0.7444 -2.3301
 6727SOL    HW231818   3.336   0.411   8.955 -0.0831 -2.0124 -0.4177
 6728SOL     OW31819   2.156   0.869   8.662  0.1446  0.0722 -0.3220
 6728SOL    HW131820   2.200   0.791   8.628  1.0965  1.1206 -1.5541
 6728SOL    HW231821   2.160   0.859   8.757 -1.9812  0.0421 -0.2443
 6729SOL     OW31822   0.111   2.097   5.438 -0.4117  0.6766  0.2286
 6729SOL    HW131823   0.112   2.114   5.533 -0.9583 -1.4064  0.5918
 6729SOL    HW231824   0.025   2.137   5.424 -0.7191 -0.0945 -0.0385
 6730SOL     OW31825   1.076   0.389   1.038  0.4523  0.2929 -0.0990
 6730SOL    HW131826   1.007   0.382   1.104  1.0788 -0.2970  0.4990
 6730SOL    HW231827   1.108   0.477   1.061 -2.3981  1.1004  0.7479
 6731SOL     OW31828   0.476   0.415   3.354 -0.2601 -0.0169  0.3591
 6731SOL    HW131829   0.539   0.363   3.405  2.3056  0.2699 -2.4754
 6731SOL    HW231830   0.534   0.480   3.315  1.0091 -1.4281 -0.1156
 6732SOL     OW31831   4.469   1.546   3.150 -0.0083 -0.1385 -0.3888
 6732SOL    HW131832   4.459   1.609   3.220 -2.9721  0.6132 -1.5019
 6732SOL    HW231833   4.540   1.589   3.102 -1.5576  0.8073 -1.8134
 6733SOL     OW31834   2.747   0.695   5.459 -0.5278  0.1415 -0.2785
 6733SOL    HW131835   2.676   0.681   5.521  1.3210 -1.8586  1.3580
 6733SOL    HW231836   2.732   0.781   5.419 -0.4557 -0.2094 -1.0663
 6734SOL     OW31837   3.989   1.708   6.123 -0.1296  0.2371  0.1187
 6734SOL    HW131838   3.896   1.701   6.101  0.3166  1.9419 -2.2790
 6734SOL    HW231839   4.025   1.664   6.046  2.3774  1.2182  0.7612
 6735SOL     OW31840   0.547   3.663   7.749 -0.3080 -0.6964  0.1542
 6735SOL    HW131841   0.565   3.569   7.753  0.4304 -0.6340 -1.8862
 6735SOL    HW231842   0.631   3.702   7.772 -0.2210 -0.7332 -0.1053
 6736SOL     OW31843   3.909   4.120   9.714 -0.2592  0.1451 -0.3711
 6736SOL    HW131844   3.846   4.169   9.767 -0.1223  0.9133 -0.9185
 6736SOL    HW231845   3.917   4.033   9.754  2.5084  1.1605  1.2788
 6737SOL     OW31846   1.520   4.454   5.111 -0.7441 -0.1216 -0.3773
 6737SOL    HW131847   1.489   4.378   5.063 -3.6885  2.9462 -3.3498
 6737SOL    HW231848   1.488   4.423   5.196  0.7833  1.2380  0.6800
 6738SOL     OW31849   3.410   1.519   8.858 -0.1720  0.7482  0.1422
 6738SOL    HW131850   3.483   1.555   8.808  1.1013 -1.9382  0.0285
 6738SOL    HW231851   3.450   1.502   8.943  1.0446 -0.3408 -0.6565
 6739SOL     OW31852   3.440   4.578   2.382  0.8003  0.1372 -0.1974
 6739SOL    HW131853   3.459   4.630   2.304  1.0601  0.0382 -0.1978
 6739SOL    HW231854   3.387   4.637   2.436 -0.1359 -2.6770  1.9547
 6740SOL     OW31855   2.320   1.895  15.077  0.3540 -0.4724  0.7379
 6740SOL    HW131856   2.373   1.967  15.043 -0.4139 -0.2035  0.0848
 6740SOL    HW231857   2.243   1.944  15.107  1.1162  0.6630  0.8495
 6741SOL     OW31858   2.986   2.857   3.744 -0.2036  0.2595  0.2824
 6741SOL    HW131859   2.995   2.914   3.668 -0.8821 -0.1071 -0.0740
 6741SOL    HW231860   3.075   2.825   3.751 -0.5279 -0.4807  1.0372
 6742SOL     OW31861   1.659   2.086   8.971 -0.5012  0.5596 -0.7195
 6742SOL    HW131862   1.722   2.099   9.041 -1.4510  1.0960  0.0404
 6742SOL    HW231863   1.579   2.098   9.023  0.0991  0.9617  0.1063
 6743SOL     OW31864   1.441   0.915   5.326 -0.8539  0.0649 -0.1789
 6743SOL    HW131865   1.386   0.845   5.361  1.7767 -1.8913  0.0827
 6743SOL    HW231866   1.370   0.962   5.282  1.0239  0.3210 -2.9103
 6744SOL     OW31867   0.517   0.192   6.467 -0.1477 -0.2521 -0.2842
 6744SOL    HW131868   0.473   0.251   6.406  0.1221  0.0392 -0.1981
 6744SOL    HW231869   0.496   0.101   6.444  0.0577 -0.2536 -0.4631
 6745SOL     OW31870   2.971   3.342   4.959  0.5464  0.5743 -0.2935
 6745SOL    HW131871   2.996   3.259   5.000 -2.7264  0.0085  0.5723
 6745SOL    HW231872   2.887   3.360   5.001  0.6600 -0.4748  0.4034
 6746SOL     OW31873   2.811   0.596   0.187 -0.2673 -0.2866  0.5204
 6746SOL    HW131874   2.757   0.589   0.265 -2.5965  1.4799 -0.9182
 6746SOL    HW231875   2.898   0.592   0.227 -0.5734  0.2980  1.2322
 6747SOL     OW31876   2.474   2.185   8.017  0.1884 -0.6487 -0.3581
 6747SOL    HW131877   2.386   2.186   8.055 -0.6086  1.1208 -2.2820
 6747SOL    HW231878   2.535   2.196   8.090 -1.6925 -0.6479  1.2098
 6748SOL     OW31879   3.650   1.043   8.027  0.5975  0.2086  0.0984
 6748SOL    HW131880   3.672   1.002   7.943 -1.8033 -0.4549 -0.2216
 6748SOL    HW231881   3.566   1.084   8.005 -0.8915 -1.4374  2.6832
 6749SOL     OW31882   1.778   0.114   4.278 -0.5043  0.4473 -0.4254
 6749SOL    HW131883   1.687   0.088   4.291 -0.4279  0.4803  0.1686
 6749SOL    HW231884   1.802   0.172   4.350  0.9941 -0.6378 -0.0472
 6750SOL     OW31885   0.622   3.138   2.952 -0.4172 -0.6801 -0.2445
 6750SOL    HW131886   0.706   3.094   2.941 -0.1755 -0.2482 -0.1505
 6750SOL    HW231887   0.613   3.188   2.870 -1.7037 -0.5906 -0.0586
 6751SOL     OW31888   3.085   2.512   9.193  0.1802 -0.1549 -0.2778
 6751SOL    HW131889   3.117   2.534   9.106  2.3566 -1.4223  0.1875
 6751SOL    HW231890   3.031   2.586   9.222 -1.7409 -0.7718 -2.2871
 6752SOL     OW31891   0.210   0.317  12.494 -0.0831 -0.1098  0.1172
 6752SOL    HW131892   0.170   0.281  12.415  1.0331 -1.4369  0.1519
 6752SOL    HW231893   0.194   0.259  12.569 -2.6566  1.8807  1.0747
 6753SOL     OW31894   4.362   1.764   3.317 -1.1102 -0.1822  0.5481
 6753SOL    HW131895   4.310   1.843   3.298  0.8251  0.7138 -0.9792
 6753SOL    HW231896   4.311   1.735   3.393 -1.2843 -0.1306  0.4525
 6754SOL     OW31897   3.209   1.121   1.875  0.4844 -0.2038  0.0868
 6754SOL    HW131898   3.202   1.208   1.836 -2.2303 -1.6485 -2.6350
 6754SOL    HW231899   3.225   1.154   1.964 -1.1068  1.2793 -0.1817
 6755SOL     OW31900   0.593   4.055  14.797 -0.2632 -0.2187 -0.4546
 6755SOL    HW131901   0.544   4.032  14.875  0.6726  1.5802  0.6834
 6755SOL    HW231902   0.646   4.124  14.837 -0.7257 -0.5388  0.6953
 6756SOL     OW31903   0.924   0.069   5.250 -0.2456  0.2279 -0.3627
 6756SOL    HW131904   0.910   0.152   5.296  2.3981  0.2983  0.3572
 6756SOL    HW231905   0.985   0.098   5.182 -0.2845  0.8437 -0.1357
 6757SOL     OW31906   0.767   0.461   8.046 -0.5327  0.5683 -0.0166
 6757SOL    HW131907   0.719   0.514   8.109  0.7250  0.0030  1.4040
 6757SOL    HW231908   0.684   0.434   8.004  0.2021 -3.9885  1.3905
 6758SOL     OW31909   0.383   3.125  17.705 -0.0597  1.1199  0.2008
 6758SOL    HW131910   0.433   3.202  17.677 -1.0187  1.2943 -1.0260
 6758SOL    HW231911   0.402   3.123   0.030 -0.2586 -0.3376  0.2007
 6759SOL     OW31912   2.146   4.556  15.510 -0.4195  0.4510  0.2795
 6759SOL    HW131913   2.170   4.532  15.599 -0.5886  3.5711  1.1480
 6759SOL    HW231914   2.052   4.540  15.512 -0.1328 -1.2360  0.0253
 6760SOL     OW31915   0.459   3.135  16.142  0.1623  0.0890  0.0424
 6760SOL    HW131916   0.525   3.194  16.107 -2.0070  2.1063 -0.6172
 6760SOL    HW231917   0.499   3.104  16.223  0.7120 -0.2154 -0.3444
 6761SOL     OW31918   3.105   4.312   1.154  0.0945 -0.3684  0.1407
 6761SOL    HW131919   3.043   4.240   1.165  1.0654 -1.0832  0.9474
 6761SOL    HW231920   3.077   4.375   1.220  0.6042  1.5430 -1.4711
 6762SOL     OW31921   3.696   4.313   3.234 -0.1085  0.1427 -0.3312
 6762SOL    HW131922   3.719   4.226   3.268  0.7596  0.6647  0.4030
 6762SOL    HW231923   3.729   4.369   3.304 -3.5604  2.0300 -0.1910
 6763SOL     OW31924   2.980   2.107  16.705 -0.3280  0.1392  0.2164
 6763SOL    HW131925   3.056   2.097  16.649 -0.2327 -2.3027  0.7522
 6763SOL    HW231926   2.905   2.097  16.646 -0.2843  0.5603  0.0914
 6764SOL     OW31927   3.182   4.466   6.856  0.3113 -0.3784 -0.1549
 6764SOL    HW131928   3.265   4.497   6.818  0.2283 -0.2355 -0.2193
 6764SOL    HW231929   3.137   4.451   6.773 -0.6677  1.0280  0.1321
 6765SOL     OW31930   3.331   0.978  15.006 -0.4967 -0.0283 -0.2955
 6765SOL    HW131931   3.368   0.890  14.998 -0.5994 -0.2828  2.0709
 6765SOL    HW231932   3.292   0.978  15.093 -0.2634  0.6652 -0.1923
 6766SOL     OW31933   2.263   1.118   2.656 -0.1599  0.3836 -0.4799
 6766SOL    HW131934   2.336   1.062   2.631  0.5338  0.1761  1.9642
 6766SOL    HW231935   2.314   1.196   2.679 -1.8843  0.6727  2.4363
 6767SOL     OW31936   2.750   0.764   3.547 -0.3341  0.4485 -0.1154
 6767SOL    HW131937   2.666   0.788   3.586 -0.1602  0.4056  0.2803
 6767SOL    HW231938   2.721   0.745   3.458  1.4741  1.3270 -0.8992
 6768SOL     OW31939   2.146   0.200   6.342  0.4535  0.4322 -0.0985
 6768SOL    HW131940   2.111   0.137   6.405 -0.9028  0.7888 -0.4966
 6768SOL    HW231941   2.235   0.220   6.371  0.3128 -0.4986  0.9723
 6769SOL     OW31942   4.680   2.574   9.898 -0.4613  0.4270 -0.6231
 6769SOL    HW131943   4.666   2.488   9.861  1.7216 -0.2643  0.1364
 6769SOL    HW231944   0.018   2.591   9.850  0.5783 -0.2482  0.9082
 6770SOL     OW31945   3.293   0.830  13.958  0.0209  0.0347 -0.3983
 6770SOL    HW131946   3.376   0.842  13.911  0.4022 -0.8570  0.0391
 6770SOL    HW231947   3.292   0.914  14.003 -0.1583  0.2965 -0.8993
 6771SOL     OW31948   4.205   3.678   3.855 -0.3962  0.0316 -0.1160
 6771SOL    HW131949   4.218   3.609   3.920  1.0955  0.8444  0.4607
 6771SOL    HW231950   4.297   3.703   3.843 -1.2371  2.7914 -0.8133
 6772SOL     OW31951   2.444   0.664  13.465  0.3062  0.4551  0.2360
 6772SOL    HW131952   2.445   0.656  13.369  0.1928 -0.2958  0.2994
 6772SOL    HW231953   2.527   0.712  13.475  1.4178 -0.5916 -3.8504
 6773SOL     OW31954   4.583   2.800   3.972 -0.2380  0.0403 -0.0698
 6773SOL    HW131955   4.596   2.707   3.989  2.8646  0.6327  0.7693
 6773SOL    HW231956   4.648   2.845   4.025  0.4273  0.7347 -1.4726
 6774SOL     OW31957   1.368   0.663   8.829  0.5180 -0.6288  0.1838
 6774SOL    HW131958   1.455   0.634   8.802  0.9287  1.1379 -0.3840
 6774SOL    HW231959   1.335   0.727   8.766  0.6831 -0.1883  0.5428
 6775SOL     OW31960   2.289   4.404   1.063  0.5226  0.0373  0.1523
 6775SOL    HW131961   2.279   4.499   1.066 -0.0245 -0.0593  1.5829
 6775SOL    HW231962   2.380   4.401   1.093  0.9870 -0.0233 -1.2780
 6776SOL     OW31963   3.713   2.866  10.085 -0.0546 -0.2224  0.3123
 6776SOL    HW131964   3.661   2.856  10.005  0.8103 -2.4394  0.0383
 6776SOL    HW231965   3.704   2.779  10.122 -0.8459 -0.7814 -1.2224
 6777SOL     OW31966   2.632   1.492   5.264  0.9495  0.4413 -0.4280
 6777SOL    HW131967   2.695   1.550   5.221  0.1921  3.4060  2.5025
 6777SOL    HW231968   2.560   1.550   5.288 -0.7871 -1.0746 -1.9833
 6778SOL     OW31969   2.935   1.273  10.478  0.0221  0.0613  0.1092
 6778SOL    HW131970   2.855   1.300  10.434 -0.6384 -1.7345  0.1853
 6778SOL    HW231971   2.978   1.226  10.407 -2.3945 -0.3203 -1.0819
 6779SOL     OW31972   2.813   0.582  17.491 -0.0588  0.1640  0.2504
 6779SOL    HW131973   2.739   0.578  17.431 -1.0676 -1.0658  1.5658
 6779SOL    HW231974   2.783   0.519  17.557 -0.5138  1.2599  1.1005
 6780SOL     OW31975   2.336   4.681   1.050  0.1174  0.1962 -0.8250
 6780SOL    HW131976   2.419   4.674   1.002  0.3508  0.9097 -0.5340
 6780SOL    HW231977   2.354   4.742   1.122  1.1263 -0.1190 -0.8075
 6781SOL     OW31978   1.704   0.157   2.257 -0.6168 -0.1998 -0.4471
 6781SOL    HW131979   1.738   0.152   2.346  0.4781 -2.1498 -0.9657
 6781SOL    HW231980   1.621   0.109   2.267  0.5902 -1.9056  1.3136
 6782SOL     OW31981   0.870   4.628  10.548 -0.1011 -0.3964  0.7724
 6782SOL    HW131982   0.922   4.708  10.541 -0.7075 -0.0073  0.6969
 6782SOL    HW231983   0.941   4.564  10.558  0.4856 -0.0763 -1.3679
 6783SOL     OW31984   2.997   4.358   3.621  0.5375  0.1127 -0.6228
 6783SOL    HW131985   3.004   4.327   3.711  2.0171 -2.7160 -1.7227
 6783SOL    HW231986   3.084   4.333   3.587  0.8461 -0.7163  0.7971
 6784SOL     OW31987   3.095   0.662   3.634 -0.2898  0.1259  0.4400
 6784SOL    HW131988   3.157   0.597   3.600 -1.2991  1.4277 -3.8885
 6784SOL    HW231989   3.114   0.651   3.727  0.5092  1.1965  0.3975
 6785SOL     OW31990   0.768   0.190  11.338 -0.0555  0.0455 -0.1836
 6785SOL    HW131991   0.677   0.176  11.313  0.4127 -1.6401 -0.9890
 6785SOL    HW231992   0.767   0.272  11.387 -0.5209  0.5593 -1.0560
 6786SOL     OW31993   4.710   1.427   2.048 -0.1080 -0.2712 -0.6316
 6786SOL    HW131994   0.020   1.480   1.988 -1.2636  2.7726  1.0672
 6786SOL    HW231995   0.022   1.349   2.047 -0.5688 -0.6072  0.3980
 6787SOL     OW31996   1.653   2.421   4.550 -0.2225  0.7617 -0.0376
 6787SOL    HW131997   1.667   2.407   4.643  0.1674  2.5806  0.1614
 6787SOL    HW231998   1.595   2.346   4.531  0.2419  0.5533 -0.6560
 6788SOL     OW31999   4.145   2.697   8.549  0.0710 -0.4264 -0.3029
 6788SOL    HW132000   4.222   2.640   8.542  2.0651  2.0917  1.2347
 6788SOL    HW232001   4.120   2.696   8.642  0.8176  0.6623 -0.0921
 6789SOL     OW32002   3.032   1.590   3.165 -0.3293 -0.5435  0.5299
 6789SOL    HW132003   2.999   1.679   3.176 -0.7023 -0.6905  0.6082
 6789SOL    HW232004   2.951   1.555   3.128  0.2010  1.5110 -2.5332
 6790SOL     OW32005   1.350   0.520   6.501  0.0292  0.2083  0.2271
 6790SOL    HW132006   1.426   0.465   6.523  0.4878  0.3136 -1.0818
 6790SOL    HW232007   1.304   0.515   6.585 -0.3315  0.9481  0.0739
 6791SOL     OW32008   4.174   4.230   8.945  0.3836 -0.2015  0.7943
 6791SOL    HW132009   4.103   4.295   8.951  0.9977  0.3813  1.7512
 6791SOL    HW232010   4.247   4.290   8.928  3.0173 -3.2380  1.5272
 6792SOL     OW32011   1.582   2.639  17.503 -0.2404  0.1739  0.4393
 6792SOL    HW132012   1.594   2.544  17.505 -0.2057  0.2109  1.9850
 6792SOL    HW232013   1.610   2.680  17.585  0.0720 -0.3755  0.6083
 6793SOL     OW32014   1.124   3.104   3.706  0.2863  0.0779 -0.1179
 6793SOL    HW132015   1.210   3.125   3.667 -0.1993 -0.4812 -1.5122
 6793SOL    HW232016   1.085   3.046   3.640 -0.1852 -1.8256  1.8720
 6794SOL     OW32017   4.431   1.243   8.345 -0.1059  0.1673  0.4388
 6794SOL    HW132018   4.403   1.175   8.283 -1.0652  0.0444  1.0064
 6794SOL    HW232019   4.357   1.226   8.404  0.9909 -0.1126  1.7328
 6795SOL     OW32020   2.752   3.429   6.755  0.2723  0.2713 -0.1454
 6795SOL    HW132021   2.839   3.463   6.734 -0.8419  2.6474 -1.0192
 6795SOL    HW232022   2.705   3.489   6.813  1.6195  0.1816  1.0429
 6796SOL     OW32023   1.495   1.038  12.881  0.0477 -0.4164  0.0481
 6796SOL    HW132024   1.444   0.999  12.809 -0.2215 -0.9063  0.5022
 6796SOL    HW232025   1.434   1.106  12.908 -0.4711 -1.2053  0.8674
 6797SOL     OW32026   1.909   1.181   1.815 -0.0009  0.0395  0.1980
 6797SOL    HW132027   1.957   1.131   1.749 -0.6998 -1.3156  0.7122
 6797SOL    HW232028   1.910   1.269   1.777  1.1339  0.4236  1.1261
 6798SOL     OW32029   4.251   1.860   5.953 -0.4952 -0.1316  0.0332
 6798SOL    HW132030   4.251   1.878   6.047 -0.7273 -1.1917  0.2450
 6798SOL    HW232031   4.273   1.767   5.956  0.6347  0.0956 -1.7874
 6799SOL     OW32032   0.915   2.572   3.101  0.1828  0.2058 -0.4071
 6799SOL    HW132033   0.911   2.580   3.006 -0.3067  0.8045 -0.3436
 6799SOL    HW232034   0.848   2.507   3.121 -0.4903 -0.2513 -4.2216
 6800SOL     OW32035   0.488   0.687  12.307  0.1567  0.0496  0.2494
 6800SOL    HW132036   0.407   0.724  12.273  0.1082 -0.0851  0.2183
 6800SOL    HW232037   0.442   0.636  12.374 -0.9428 -2.7582 -2.6916
 6801SOL     OW32038   3.753   4.340  14.827 -0.0552  0.1037 -0.6842
 6801SOL    HW132039   3.779   4.305  14.912 -2.9471 -0.4704 -0.0665
 6801SOL    HW232040   3.695   4.271  14.796 -1.0891  0.3549  0.7493
 6802SOL     OW32041   3.418   1.482   7.323 -0.1900  0.2335 -0.0626
 6802SOL    HW132042   3.396   1.389   7.334  0.2075  0.1520  0.0499
 6802SOL    HW232043   3.473   1.485   7.245 -1.9148  1.3186 -1.2316
 6803SOL     OW32044   1.906   0.547   0.588 -0.2704 -0.0435  0.1171
 6803SOL    HW132045   1.860   0.467   0.567  0.6438 -0.1133 -1.6380
 6803SOL    HW232046   1.935   0.531   0.678  0.0832  1.3882  0.2711
 6804SOL     OW32047   1.393   1.370   6.419  0.2907  0.0952 -0.2970
 6804SOL    HW132048   1.401   1.409   6.506 -1.8462  1.2067 -0.6066
 6804SOL    HW232049   1.337   1.425   6.365 -2.7713  0.1941  2.9671
 6805SOL     OW32050   4.507   3.215   8.778  0.0716 -0.2763  0.2765
 6805SOL    HW132051   4.481   3.139   8.728 -1.7002  0.8956 -0.5682
 6805SOL    HW232052   4.499   3.182   8.868 -4.0794  0.8914  0.3090
 6806SOL     OW32053   3.288   4.061   2.568  0.5701  0.3664 -0.5444
 6806SOL    HW132054   3.307   4.153   2.553 -1.5332  1.3260  2.6898
 6806SOL    HW232055   3.347   4.016   2.508 -0.7829 -2.0659 -0.0858
 6807SOL     OW32056   0.901   3.743   8.245  1.1465 -0.2417  0.3699
 6807SOL    HW132057   0.899   3.801   8.169 -0.0103 -0.9881 -0.1711
 6807SOL    HW232058   0.814   3.763   8.281  1.4376  0.9515  0.4010
 6808SOL     OW32059   0.222   1.777  11.309 -0.4182  0.2609  0.0328
 6808SOL    HW132060   0.287   1.827  11.358  0.9137  0.0177 -1.4949
 6808SOL    HW232061   0.219   1.819  11.223 -0.9445  1.2284  0.5161
 6809SOL     OW32062   1.081   1.242   9.988 -0.0846 -0.8832 -0.0845
 6809SOL    HW132063   1.059   1.332  10.012 -0.0307 -0.4651 -1.6240
 6809SOL    HW232064   1.044   1.231   9.900  0.0935 -0.5919 -0.1957
 6810SOL     OW32065   4.695   2.835  10.569  0.4524  1.2039  0.5108
 6810SOL    HW132066   4.606   2.818  10.537  0.8272  1.0349 -0.4499
 6810SOL    HW232067   4.694   2.792  10.654  0.7579 -1.0757 -0.6395
 6811SOL     OW32068   1.717   0.238   5.809  0.1952 -0.3155  0.2015
 6811SOL    HW132069   1.802   0.221   5.851  0.2930  1.6893  0.7947
 6811SOL    HW232070   1.666   0.259   5.887 -0.3558  2.3259 -0.8956
 6812SOL     OW32071   0.826   4.145   3.124  0.3799 -0.4071  0.0495
 6812SOL    HW132072   0.785   4.227   3.152 -3.9073 -0.8441 -4.9634
 6812SOL    HW232073   0.763   4.096   3.071 -0.5666 -0.6119  1.3804
 6813SOL     OW32074   4.347   2.016   2.135  0.3230  0.3252 -0.2093
 6813SOL    HW132075   4.394   1.933   2.137 -0.5566 -0.1667 -0.1823
 6813SOL    HW232076   4.306   2.030   2.221  0.7662 -1.1415  0.2386
 6814SOL     OW32077   3.038   2.279  12.050  0.0185  0.4779 -0.3123
 6814SOL    HW132078   3.042   2.364  12.005  0.5876  0.9106  0.5495
 6814SOL    HW232079   3.040   2.216  11.979 -1.1509  0.5746 -0.4342
 6815SOL     OW32080   2.586   0.672   5.684 -0.3818  0.6956 -0.0189
 6815SOL    HW132081   2.619   0.680   5.773  0.2576 -2.5254  0.0394
 6815SOL    HW232082   2.491   0.682   5.689 -0.3681  0.6651  0.3092
 6816SOL     OW32083   4.699   1.474   9.831  0.5550 -0.1137  0.1121
 6816SOL    HW132084   4.605   1.478   9.812  0.7041 -2.8371 -1.1505
 6816SOL    HW232085   0.001   1.457   9.749  0.9393  1.6419 -0.0466
 6817SOL     OW32086   2.048   4.009   2.676  0.3056 -0.0167 -0.1926
 6817SOL    HW132087   1.965   4.033   2.717 -0.7850 -0.8896 -1.8607
 6817SOL    HW232088   2.058   4.067   2.600  0.6451  2.2503  1.5858
 6818SOL     OW32089   0.503   2.268  14.907 -0.1470 -0.2487  0.1335
 6818SOL    HW132090   0.408   2.275  14.896 -0.2152  0.4152  1.1911
 6818SOL    HW232091   0.510   2.290  15.000 -0.4127  0.5342 -0.0377
 6819SOL     OW32092   3.942   0.504  10.279  0.7211 -0.3447  0.9348
 6819SOL    HW132093   3.953   0.507  10.374 -0.2501 -0.0121  1.0337
 6819SOL    HW232094   4.015   0.558  10.249  0.0713 -0.3223 -0.5998
 6820SOL     OW32095   1.175   1.219   5.699 -0.3712 -0.2696  0.2969
 6820SOL    HW132096   1.230   1.179   5.631 -0.7935 -3.2749  1.7021
 6820SOL    HW232097   1.243   1.261   5.751  1.1388 -1.5725 -0.6234
 6821SOL     OW32098   1.229   2.537   9.970  0.2023 -0.3360 -0.3417
 6821SOL    HW132099   1.167   2.465   9.959 -0.6970  0.5161 -0.8022
 6821SOL    HW232100   1.316   2.506   9.995  0.3587 -1.1023 -1.8565
 6822SOL     OW32101   4.154   2.021   5.487 -0.2362 -0.1745 -0.7990
 6822SOL    HW132102   4.199   2.059   5.563  1.3451 -0.9100 -1.3629
 6822SOL    HW232103   4.168   1.931   5.517 -3.3429  0.9629  4.0718
 6823SOL     OW32104   4.458   3.044   0.446 -0.4793  0.1482  0.3126
 6823SOL    HW132105   4.551   3.047   0.469 -0.3874  0.3374 -0.0744
 6823SOL    HW232106   4.430   3.134   0.464  0.3718 -0.0974  2.7804
 6824SOL     OW32107   4.562   4.405  16.708  0.0421  0.4470  0.4417
 6824SOL    HW132108   4.507   4.331  16.733  0.2631 -0.0613 -0.6055
 6824SOL    HW232109   4.510   4.431  16.633 -1.1978  0.4531  1.3011
 6825SOL     OW32110   3.591   2.303   9.242  0.2803  0.1210 -0.1249
 6825SOL    HW132111   3.621   2.387   9.276 -0.8548  1.2900 -2.0293
 6825SOL    HW232112   3.501   2.296   9.276 -0.1026  0.1071 -1.1428
 6826SOL     OW32113   1.790   2.058   6.331 -0.4604 -0.5089 -0.5107
 6826SOL    HW132114   1.826   1.970   6.343 -1.1591 -0.8014 -0.5513
 6826SOL    HW232115   1.708   2.053   6.381  0.7922  0.1477  1.6098
 6827SOL     OW32116   0.486   3.972   9.429  0.2270 -0.1789  0.1502
 6827SOL    HW132117   0.419   4.021   9.380 -0.1183 -0.5517  0.2476
 6827SOL    HW232118   0.438   3.890   9.444 -2.3775  1.4645  0.7476
 6828SOL     OW32119   2.684   0.806   0.391 -0.4161  0.0391  0.2760
 6828SOL    HW132120   2.741   0.831   0.464  0.7594  0.3881 -0.7817
 6828SOL    HW232121   2.655   0.719   0.418 -2.2378  0.4644 -0.3142
 6829SOL     OW32122   4.219   3.907   2.513 -0.1465  0.2541 -0.1206
 6829SOL    HW132123   4.249   3.996   2.493 -1.4653  0.7495  0.0788
 6829SOL    HW232124   4.141   3.903   2.458  1.9367 -2.5463 -2.7810
 6830SOL     OW32125   3.902   3.308   3.943  0.0930  0.1840 -0.3330
 6830SOL    HW132126   3.848   3.255   3.884  0.2628 -1.6618  1.1789
 6830SOL    HW232127   3.988   3.269   3.930 -0.6738 -1.7389  0.4623
 6831SOL     OW32128   1.505   3.476   2.707 -0.1296 -0.4019  0.3696
 6831SOL    HW132129   1.534   3.426   2.784 -0.7221  1.8546  2.0542
 6831SOL    HW232130   1.579   3.460   2.649  0.0689 -1.5649  0.9471
 6832SOL     OW32131   2.462   3.865   8.561 -0.0221 -0.1403 -0.1975
 6832SOL    HW132132   2.405   3.827   8.627 -0.6745 -0.6808 -1.0755
 6832SOL    HW232133   2.490   3.780   8.528  1.1345  1.0670 -2.3406
 6833SOL     OW32134   4.305   2.943  13.176  0.6215  0.1616 -0.0678
 6833SOL    HW132135   4.229   3.000  13.171 -0.1815 -0.8686  0.5974
 6833SOL    HW232136   4.362   2.992  13.236 -0.5080 -1.6991  2.5355
 6834SOL     OW32137   4.447   4.293   2.742 -0.0201 -0.1034 -0.2758
 6834SOL    HW132138   4.539   4.269   2.746 -0.2997 -1.3799 -1.7816
 6834SOL    HW232139   4.446   4.378   2.787 -1.3581 -1.1767  1.7391
 6835SOL     OW32140   2.491   2.939   5.781 -0.2568 -0.5061 -0.2206
 6835SOL    HW132141   2.404   2.972   5.760  0.2669 -0.3576 -2.2258
 6835SOL    HW232142   2.480   2.844   5.786  0.3857 -0.5906 -0.3372
 6836SOL     OW32143   4.143   4.416   7.511  0.1276  0.0120  0.5005
 6836SOL    HW132144   4.227   4.408   7.554 -1.1258  0.5992  3.0364
 6836SOL    HW232145   4.089   4.454   7.580 -0.4686 -0.8246  0.4975
 6837SOL     OW32146   3.769   2.286   9.508 -0.1471  0.4363  0.7249
 6837SOL    HW132147   3.692   2.329   9.471  0.9257  0.5078 -1.4687
 6837SOL    HW232148   3.754   2.285   9.602  1.5545  1.6483  1.0087
 6838SOL     OW32149   3.618   3.966   4.478  0.2468 -0.2165 -0.1404
 6838SOL    HW132150   3.621   3.965   4.382 -0.9886 -0.5881 -0.1655
 6838SOL    HW232151   3.682   3.898   4.501 -0.4915 -1.1906 -1.0053
 6839SOL     OW32152   4.621   2.557   9.134 -0.2543 -0.5706  0.1652
 6839SOL    HW132153   4.641   2.595   9.049 -0.2369 -3.3691 -1.0813
 6839SOL    HW232154   4.660   2.470   9.134  0.4898 -0.2323 -2.8860
 6840SOL     OW32155   1.534   4.726   0.668 -0.0119 -0.9297 -0.0228
 6840SOL    HW132156   1.611   4.722   0.724 -0.6421  0.5028  0.9495
 6840SOL    HW232157   1.568   0.021   0.587 -0.0307  2.0850  1.4019
 6841SOL     OW32158   2.468   3.316   5.880 -0.1224 -0.5867 -0.1980
 6841SOL    HW132159   2.522   3.392   5.901  1.1691 -1.0038 -1.9873
 6841SOL    HW232160   2.439   3.294   5.969  0.1287 -0.4882 -0.0930
 6842SOL     OW32161   1.882   2.188   7.348  0.1820  0.1576  0.2713
 6842SOL    HW132162   1.797   2.222   7.321 -0.2911 -1.0242  0.2889
 6842SOL    HW232163   1.923   2.156   7.268 -1.4766 -0.5772 -0.2797
 6843SOL     OW32164   1.369   3.867   5.486 -0.3976  0.3598  0.4437
 6843SOL    HW132165   1.336   3.786   5.445  2.0753 -1.1888  1.5108
 6843SOL    HW232166   1.443   3.837   5.538 -0.7639 -1.0976  0.1321
 6844SOL     OW32167   0.274   1.858  16.977  0.3958  0.6364 -0.1557
 6844SOL    HW132168   0.309   1.944  16.955  0.9931  0.6522  0.8093
 6844SOL    HW232169   0.252   1.828  16.889  1.5771 -0.5868 -0.0243
 6845SOL     OW32170   3.671   4.271   2.774  0.7226  0.2962  0.1526
 6845SOL    HW132171   3.757   4.306   2.753  0.6904  1.2182  1.6089
 6845SOL    HW232172   3.618   4.331   2.720 -0.3933 -0.2271  0.6740
 6846SOL     OW32173   4.712   4.725   0.322  0.5539 -0.1195 -0.0338
 6846SOL    HW132174   4.728   4.743   0.415  2.0909  1.5517 -0.6197
 6846SOL    HW232175   0.051   4.679   0.304 -0.7749 -1.4564 -2.6894
 6847SOL     OW32176   0.069   3.168   9.134 -0.0739  0.3432 -0.0955
 6847SOL    HW132177   0.110   3.231   9.193  1.2314 -1.4010  0.8528
 6847SOL    HW232178   4.731   3.210   9.105 -0.7294 -0.2359  0.8927
 6848SOL     OW32179   3.386   0.491  11.740  0.8962  0.2070  0.2173
 6848SOL    HW132180   3.335   0.419  11.776  0.8642 -0.3554 -0.9494
 6848SOL    HW232181   3.475   0.466  11.764  1.0019 -0.5309 -0.9519
 6849SOL     OW32182   4.503   2.159   3.874 -0.0533  0.0861 -0.1923
 6849SOL    HW132183   4.595   2.137   3.861 -0.1405 -0.9002  0.8536
 6849SOL    HW232184   4.463   2.132   3.792  1.2128 -0.6675 -0.5578
 6850SOL     OW32185   0.740   1.637  16.182 -0.4115 -0.8849 -0.2127
 6850SOL    HW132186   0.651   1.601  16.183  0.4655 -2.9921  1.5318
 6850SOL    HW232187   0.718   1.727  16.206 -0.6179 -0.9387 -0.1958
 6851SOL     OW32188   3.233   0.118  15.209 -0.1690 -0.4823  0.5066
 6851SOL    HW132189   3.264   0.030  15.187 -0.5855 -0.5096  0.0284
 6851SOL    HW232190   3.141   0.096  15.217 -0.2562 -0.6822 -1.0961
 6852SOL     OW32191   1.488   1.736   7.287 -0.3067  0.2714  0.4416
 6852SOL    HW132192   1.433   1.696   7.354 -0.3533  0.5951  0.5977
 6852SOL    HW232193   1.427   1.729   7.213 -0.2137  1.5160  0.2375
 6853SOL     OW32194   3.132   2.003   3.359  0.2641 -0.1421  0.2689
 6853SOL    HW132195   3.117   2.097   3.350 -1.6425 -0.5562 -0.8914
 6853SOL    HW232196   3.046   1.963   3.369  0.6192 -1.1301 -0.5291
 6854SOL     OW32197   3.181   2.494  10.344 -0.3543  0.7729  0.3552
 6854SOL    HW132198   3.130   2.414  10.337  0.0976  0.6611 -1.5625
 6854SOL    HW232199   3.181   2.521  10.252 -3.5383  0.9368  0.4127
 6855SOL     OW32200   4.571   2.483   5.250  0.6754  0.0557 -0.3555
 6855SOL    HW132201   4.630   2.556   5.231 -1.2779  0.9723 -2.9701
 6855SOL    HW232202   4.499   2.531   5.290  0.6157  0.6707 -1.1970
 6856SOL     OW32203   2.405   4.430  10.938 -0.2057  0.0253  0.0908
 6856SOL    HW132204   2.482   4.421  10.882 -0.0653  1.2391  0.0798
 6856SOL    HW232205   2.446   4.448  11.023  1.0543  3.8658 -1.2906
 6857SOL     OW32206   2.351   3.517   6.925 -0.0736 -0.1954 -0.1792
 6857SOL    HW132207   2.263   3.548   6.947  0.2980  0.9553 -0.2856
 6857SOL    HW232208   2.389   3.572   6.856  0.7259 -0.3642  0.1273
 6858SOL     OW32209   2.447   1.953   5.233  0.0521  0.0396 -0.5265
 6858SOL    HW132210   2.539   1.974   5.215  0.1611 -0.9780 -1.2019
 6858SOL    HW232211   2.429   2.038   5.273  0.5495 -1.8194  3.7071
 6859SOL     OW32212   1.921   0.896   4.347 -0.2632  0.3045 -0.4573
 6859SOL    HW132213   1.982   0.938   4.407  1.0533 -0.9577 -0.9096
 6859SOL    HW232214   1.842   0.930   4.388 -0.2135 -1.5224  1.1264
 6860SOL     OW32215   1.151   3.246   2.527 -0.3320  0.4699  0.5439
 6860SOL    HW132216   1.200   3.245   2.609  0.5994  0.2311 -0.0144
 6860SOL    HW232217   1.065   3.286   2.545 -1.8353 -1.5214 -2.2061
 6861SOL     OW32218   1.912   3.908   6.991  0.3374 -0.1382  0.0295
 6861SOL    HW132219   1.998   3.938   7.020  0.2214  0.4137 -0.2051
 6861SOL    HW232220   1.933   3.815   6.996  0.6536  0.0338  1.9971
 6862SOL     OW32221   2.621   1.790  14.310 -0.4126 -0.5519  0.2474
 6862SOL    HW132222   2.646   1.711  14.262 -2.1115 -1.5186  0.9591
 6862SOL    HW232223   2.581   1.754  14.389  0.9352 -1.1835  0.6406
 6863SOL     OW32224   4.057   2.478   4.312 -0.1711 -0.2853 -0.1642
 6863SOL    HW132225   4.115   2.553   4.326 -0.9422  0.5344 -1.3444
 6863SOL    HW232226   4.098   2.437   4.236 -2.6742 -2.8222 -0.1530
 6864SOL     OW32227   3.955   1.679  12.433  0.2332 -0.2041  0.6987
 6864SOL    HW132228   3.996   1.614  12.375 -0.1505  0.6387 -0.5021
 6864SOL    HW232229   3.973   1.756  12.379 -1.6937 -0.5371 -0.4121
 6865SOL     OW32230   4.728   2.018   7.594  0.3295  0.2785 -0.0128
 6865SOL    HW132231   0.003   1.945   7.653 -0.3003 -0.3590 -0.6195
 6865SOL    HW232232   0.054   2.069   7.636 -0.2871  2.1825 -1.3163
 6866SOL     OW32233   1.953   2.904  12.003 -1.0161  0.4546  0.5095
 6866SOL    HW132234   2.043   2.886  11.976 -1.4046  0.4940 -0.8177
 6866SOL    HW232235   1.924   2.932  11.916  2.4970  0.5618 -0.5996
 6867SOL     OW32236   1.055   0.316   1.723 -0.3092 -0.0081  0.2626
 6867SOL    HW132237   1.087   0.403   1.698 -1.1038  0.6017  1.3586
 6867SOL    HW232238   1.138   0.275   1.744  0.3400  0.9377 -0.4367
 6868SOL     OW32239   2.589   3.534   1.964 -0.6665  0.1330 -0.1526
 6868SOL    HW132240   2.516   3.522   2.025 -2.3388  1.8402 -1.8254
 6868SOL    HW232241   2.643   3.463   1.999 -0.0821  0.9169  0.5568
 6869SOL     OW32242   3.163   3.776  12.454 -0.5371  0.3298  0.1117
 6869SOL    HW132243   3.116   3.859  12.467 -3.1725 -0.7423 -2.4994
 6869SOL    HW232244   3.090   3.724  12.488  2.2208 -1.5091  3.1764
 6870SOL     OW32245   2.817   4.323   5.787  0.0994 -0.3880 -0.2607
 6870SOL    HW132246   2.881   4.388   5.759 -2.7879  1.8763 -1.6219
 6870SOL    HW232247   2.778   4.312   5.701  0.1182 -1.5243 -0.1282
 6871SOL     OW32248   1.266   4.184  14.411 -0.0366  0.3388  0.5564
 6871SOL    HW132249   1.255   4.254  14.474  0.5914 -0.2744  1.3504
 6871SOL    HW232250   1.339   4.215  14.357 -0.0690 -1.3697 -0.4786
 6872SOL     OW32251   3.694   3.701   9.139  0.1869 -0.1604  0.5452
 6872SOL    HW132252   3.731   3.734   9.220 -0.5664  1.2754  0.3001
 6872SOL    HW232253   3.775   3.691   9.089 -0.5358  0.8824 -0.8338
 6873SOL     OW32254   3.090   2.918   0.070 -0.2773  0.2973 -0.0480
 6873SOL    HW132255   3.091   2.944  17.748  3.4249  3.6675  0.9468
 6873SOL    HW232256   3.164   2.972   0.099  0.9738  0.0774 -2.8869
 6874SOL     OW32257   1.827   1.596   5.148  0.2474  0.5961  0.3991
 6874SOL    HW132258   1.808   1.667   5.087 -1.1935 -0.0850  0.0491
 6874SOL    HW232259   1.745   1.549   5.165  1.7009 -1.7328  0.8620
 6875SOL     OW32260   4.427   0.288   6.063  0.1790 -0.7362 -0.1743
 6875SOL    HW132261   4.477   0.220   6.109  0.1555 -1.1207 -0.7171
 6875SOL    HW232262   4.392   0.335   6.138  0.9867 -0.4632  0.0330
 6876SOL     OW32263   3.979   2.375  10.919 -0.4866  0.1974 -0.2626
 6876SOL    HW132264   3.960   2.300  10.976 -1.2410  0.4608 -0.1678
 6876SOL    HW232265   4.073   2.394  10.925 -0.3739 -0.3234 -0.3729
 6877SOL     OW32266   2.853   4.309   7.421  0.0391  0.3185  0.3041
 6877SOL    HW132267   2.770   4.347   7.394  0.8256  0.7375 -1.5916
 6877SOL    HW232268   2.857   4.229   7.368 -1.1831  0.8982 -0.6643
 6878SOL     OW32269   0.382   4.083  15.923  0.1493  0.5993 -0.3053
 6878SOL    HW132270   0.389   4.011  15.986  0.1639  0.6587 -0.2383
 6878SOL    HW232271   0.328   4.053  15.850  1.0220 -1.3007 -0.1672
 6879SOL     OW32272   2.589   2.254   8.682 -0.0664 -0.1943 -0.1603
 6879SOL    HW132273   2.662   2.231   8.740  0.6223  2.8218  0.1265
 6879SOL    HW232274   2.520   2.211   8.732 -0.6066  0.6453 -0.1980
 6880SOL     OW32275   2.770   0.090   6.080 -0.0055 -0.2457  0.2399
 6880SOL    HW132276   2.732   0.116   6.164  0.3049 -0.5399  0.4705
 6880SOL    HW232277   2.846   0.148   6.080 -0.7943  0.8177 -2.5593
 6881SOL     OW32278   0.427   2.048   9.220  0.1775 -0.5226  0.6452
 6881SOL    HW132279   0.365   2.119   9.239  0.6689  0.7662 -2.5549
 6881SOL    HW232280   0.433   2.055   9.125  1.0823 -2.1035  0.5837
 6882SOL     OW32281   4.508   0.365   4.914 -0.6103 -0.4464  0.3065
 6882SOL    HW132282   4.420   0.400   4.927 -0.2714 -0.2200  1.9172
 6882SOL    HW232283   4.501   0.320   4.830 -1.0001  1.0011 -0.4345
 6883SOL     OW32284   0.037   1.466  12.958  0.3531  0.0630  0.0496
 6883SOL    HW132285   0.049   1.489  12.866  3.9797 -0.0207  0.5063
 6883SOL    HW232286   0.118   1.496  13.000  0.4457  0.0453 -0.1132
 6884SOL     OW32287   3.269   3.041   9.472 -0.4771 -0.5914  0.3367
 6884SOL    HW132288   3.359   3.058   9.501 -0.2004 -1.1835 -0.1640
 6884SOL    HW232289   3.251   3.110   9.407 -0.8840 -0.0572  1.0162
 6885SOL     OW32290   1.715   0.339   8.652 -0.3057  0.0992 -0.5196
 6885SOL    HW132291   1.719   0.306   8.741 -0.5807  0.4340 -0.3821
 6885SOL    HW232292   1.629   0.322   8.615 -1.2173  4.0225 -0.1916
 6886SOL     OW32293   1.406   1.003   2.603 -0.3293 -0.4474 -0.6725
 6886SOL    HW132294   1.460   0.946   2.549  2.6322  0.3055  1.4383
 6886SOL    HW232295   1.439   1.090   2.581  2.4660 -1.6819 -1.4224
 6887SOL     OW32296   2.607   1.441  11.909 -0.4341 -0.1564  0.2454
 6887SOL    HW132297   2.597   1.535  11.923 -1.7570  0.2684 -3.6260
 6887SOL    HW232298   2.530   1.411  11.956  0.6886 -1.2106  1.4271
 6888SOL     OW32299   0.684   3.193   9.903 -0.5860  0.2263  0.5645
 6888SOL    HW132300   0.738   3.210   9.981 -1.4679 -1.1457  1.4803
 6888SOL    HW232301   0.701   3.269   9.847 -1.0255 -1.3417 -1.6798
 6889SOL     OW32302   2.268   4.714   8.277 -0.3423  0.0748 -0.1286
 6889SOL    HW132303   2.279   4.655   8.203  0.6044  0.1340 -0.0374
 6889SOL    HW232304   2.216   4.654   8.330  0.0784 -2.0081 -2.0614
 6890SOL     OW32305   3.368   3.500  16.958  0.0325  0.0946 -0.3290
 6890SOL    HW132306   3.317   3.570  16.998 -0.3494 -0.9714  1.0614
 6890SOL    HW232307   3.414   3.452  17.028  1.2602  1.5821 -0.1286
 6891SOL     OW32308   0.894   2.256   4.630  0.5417  0.5863  0.2994
 6891SOL    HW132309   0.810   2.282   4.666  0.7379  0.7873  0.6102
 6891SOL    HW232310   0.864   2.200   4.559 -2.4790 -0.2080  2.2044
 6892SOL     OW32311   1.683   2.491  10.784  0.1881 -0.1938 -0.2537
 6892SOL    HW132312   1.767   2.470  10.743  1.4257  1.0742  1.5925
 6892SOL    HW232313   1.713   2.552  10.852 -0.3200  1.0537 -1.1561
 6893SOL     OW32314   2.222   1.536   6.814 -0.4539 -0.3012 -0.4928
 6893SOL    HW132315   2.179   1.485   6.883  0.0431 -2.1538 -1.5533
 6893SOL    HW232316   2.301   1.559   6.863 -0.4354  0.9133 -1.0748
 6894SOL     OW32317   2.676   2.777   5.537  0.2351  0.0145 -0.4136
 6894SOL    HW132318   2.642   2.840   5.601 -0.9594 -2.1196  1.0318
 6894SOL    HW232319   2.668   2.698   5.590  0.2620  0.6090  0.5010
 6895SOL     OW32320   3.198   2.121  12.235 -0.2922 -0.4845  0.3983
 6895SOL    HW132321   3.145   2.115  12.155  1.1325  0.5978 -0.6062
 6895SOL    HW232322   3.286   2.127  12.199  0.0745 -3.5257  0.7862
 6896SOL     OW32323   0.380   2.263   1.156 -0.1752  0.1899  0.1475
 6896SOL    HW132324   0.400   2.342   1.206  0.3838 -0.8317  1.5494
 6896SOL    HW232325   0.470   2.229   1.162  0.2932  0.9371 -2.3946
 6897SOL     OW32326   3.609   3.339   0.013  0.2018 -0.4725 -0.1768
 6897SOL    HW132327   3.514   3.346   0.012  0.3026  0.7447 -1.6493
 6897SOL    HW232328   3.615   3.280  17.706 -3.2617 -0.2173 -0.6151
 6898SOL     OW32329   3.969   3.393   6.370  0.1797 -0.0587 -0.1741
 6898SOL    HW132330   3.914   3.454   6.419 -0.5755 -0.9407  0.0859
 6898SOL    HW232331   3.923   3.309   6.382 -2.4273  1.2787 -0.7962
 6899SOL     OW32332   1.944   3.587   2.358  0.3675 -0.4193  0.1633
 6899SOL    HW132333   1.880   3.608   2.290  1.3460  1.6470 -0.1135
 6899SOL    HW232334   1.947   3.676   2.394  1.3697  0.1424 -1.3123
 6900SOL     OW32335   3.164   1.285   8.592  0.5369  0.3310 -0.2049
 6900SOL    HW132336   3.187   1.246   8.676  2.0350 -0.3754 -0.9499
 6900SOL    HW232337   3.218   1.227   8.539 -0.8284  1.5279 -2.9034
 6901SOL     OW32338   1.545   3.504  13.764 -0.2853  0.2826  0.3886
 6901SOL    HW132339   1.554   3.411  13.784 -3.2171 -0.0490  0.0408
 6901SOL    HW232340   1.453   3.505  13.790  0.4278  0.5378  2.8834
 6902SOL     OW32341   1.901   3.478  16.836 -0.0303 -0.2518  0.5284
 6902SOL    HW132342   1.851   3.406  16.798 -0.4228 -0.7604  2.0133
 6902SOL    HW232343   1.853   3.554  16.803  0.7008 -0.1349 -0.2724
 6903SOL     OW32344   3.522   3.726  17.504  0.3179  0.0568 -0.4107
 6903SOL    HW132345   3.451   3.665  17.522  2.8521 -1.9677  2.8220
 6903SOL    HW232346   3.491   3.800  17.555 -1.7960 -1.3849  0.3752
 6904SOL     OW32347   3.414   0.135   8.881  0.4544 -0.4134  0.2197
 6904SOL    HW132348   3.461   0.162   8.960  0.6276  0.7983 -0.2994
 6904SOL    HW232349   3.320   0.144   8.899  0.1741  0.3037 -1.5895
 6905SOL     OW32350   3.033   2.069   9.096  0.0583  0.5350  0.0720
 6905SOL    HW132351   2.973   2.092   9.166  0.3862  0.7984  0.2625
 6905SOL    HW232352   3.024   1.973   9.096 -1.2432  0.6606 -2.2385
 6906SOL     OW32353   2.916   1.855   3.115 -0.6278  0.1765 -0.0486
 6906SOL    HW132354   2.839   1.818   3.072 -0.5940 -1.1554  1.0559
 6906SOL    HW232355   2.882   1.931   3.163  0.5318  0.9253 -0.3865
 6907SOL     OW32356   3.121   4.292   5.807  0.2654 -0.0967  0.4821
 6907SOL    HW132357   3.158   4.204   5.806 -0.2649 -0.3200 -0.4842
 6907SOL    HW232358   3.116   4.303   5.712  2.9104  0.5174  0.4349
 6908SOL     OW32359   0.333   1.800   7.929  0.0316 -0.4700 -0.2619
 6908SOL    HW132360   0.324   1.740   8.003  0.3623 -4.1647 -3.2059
 6908SOL    HW232361   0.348   1.887   7.967  2.0304 -1.7456  1.8825
 6909SOL     OW32362   1.840   0.500   2.649 -0.4726  0.2487 -0.1143
 6909SOL    HW132363   1.888   0.426   2.612 -1.0027 -0.1863  0.0641
 6909SOL    HW232364   1.901   0.541   2.710  0.3433 -0.5623 -0.3915
 6910SOL     OW32365   1.818   2.782   7.391 -0.4992 -0.2170 -0.2308
 6910SOL    HW132366   1.901   2.813   7.427  0.5935 -3.9763  0.4025
 6910SOL    HW232367   1.834   2.688   7.400 -2.2870 -0.7730 -2.9487
 6911SOL     OW32368   1.094   2.546   5.449 -0.0127 -0.2184  0.5663
 6911SOL    HW132369   1.000   2.527   5.457 -0.5030  1.5192 -0.9439
 6911SOL    HW232370   1.128   2.458   5.463 -0.0015  0.3328  3.9215
 6912SOL     OW32371   3.511   3.947   2.979  0.1013 -0.8594 -0.9464
 6912SOL    HW132372   3.589   3.977   3.027 -0.2584 -1.3731 -0.0359
 6912SOL    HW232373   3.541   3.939   2.889 -0.9629 -0.2095 -1.3690
 6913SOL     OW32374   1.071   2.123  10.723 -0.0043  0.3469 -0.0369
 6913SOL    HW132375   1.009   2.097  10.791  0.5988  2.1607  1.1947
 6913SOL    HW232376   1.006   2.144  10.655  0.4466  1.1259 -0.2278
 6914SOL     OW32377   0.152   0.057   2.007 -0.0591  0.0447 -0.4162
 6914SOL    HW132378   0.197   4.721   1.977  1.3362  0.4280  0.7092
 6914SOL    HW232379   0.176   0.062   2.100 -0.9891 -1.1242 -0.1025
 6915SOL     OW32380   4.315   4.212   7.906  0.3467  0.3386  0.6626
 6915SOL    HW132381   4.336   4.245   7.819  0.1870  1.4981  1.0629
 6915SOL    HW232382   4.225   4.184   7.887  0.5877 -0.2559  0.4053
 6916SOL     OW32383   1.124   2.318   1.689 -0.6650  0.2384 -0.2084
 6916SOL    HW132384   1.037   2.358   1.697  0.4130  2.2693  1.2562
 6916SOL    HW232385   1.175   2.389   1.649 -0.8602  1.2251  1.3051
 6917SOL     OW32386   2.963   0.876   4.875 -1.1307 -0.0891  0.3034
 6917SOL    HW132387   2.972   0.785   4.849  2.4825  0.2465  0.2572
 6917SOL    HW232388   3.020   0.883   4.952  1.7892  1.4172 -1.9922
 6918SOL     OW32389   1.900   0.017   1.078  0.5898 -0.2029 -0.3690
 6918SOL    HW132390   1.850   0.081   1.129 -0.4091  0.1652 -1.7966
 6918SOL    HW232391   1.878   4.672   1.107 -1.3820  0.4727  0.2143
 6919SOL     OW32392   3.048   4.365  16.419 -0.4183 -0.3980 -0.1164
 6919SOL    HW132393   3.034   4.369  16.324  0.6428  0.3345 -0.2324
 6919SOL    HW232394   3.073   4.275  16.438  2.4193  0.6368  1.0474
 6920SOL     OW32395   0.451   2.967   2.803  0.3019  0.1368 -0.6653
 6920SOL    HW132396   0.543   2.988   2.820  0.3807  0.5532 -1.6085
 6920SOL    HW232397   0.423   2.961   2.894  0.1303 -2.9965 -0.8914
 6921SOL     OW32398   2.556   4.442  14.580  0.0639 -0.4096  0.1561
 6921SOL    HW132399   2.515   4.443  14.667  1.4836 -1.4239  0.8360
 6921SOL    HW232400   2.621   4.372  14.587  0.9449  0.4005  0.1061
 6922SOL     OW32401   1.256   1.210  13.680  0.2503  0.7236 -0.2344
 6922SOL    HW132402   1.350   1.217  13.698  0.4814 -1.0420 -0.6769
 6922SOL    HW232403   1.243   1.281  13.617 -1.8820  0.5777  0.0460
 6923SOL     OW32404   4.503   2.896   9.737  0.2452 -0.0363  0.4422
 6923SOL    HW132405   4.508   2.892   9.832  0.2917  0.0751  0.4445
 6923SOL    HW232406   4.472   2.986   9.734  0.1300  0.0122  3.1775
 6924SOL     OW32407   0.657   2.964  14.419 -0.1173  0.1212 -0.3401
 6924SOL    HW132408   0.599   2.965  14.495 -0.7367  0.8519 -0.8262
 6924SOL    HW232409   0.598   3.004  14.355 -0.9489 -1.9549 -0.8678
 6925SOL     OW32410   0.483   4.513   3.364  0.3383  0.1059 -0.6651
 6925SOL    HW132411   0.393   4.483   3.374  0.9149 -0.6273  2.4418
 6925SOL    HW232412   0.505   4.503   3.457  3.7381 -0.3704 -1.5085
 6926SOL     OW32413   2.778   3.932   9.254 -0.3987  0.3657 -0.0718
 6926SOL    HW132414   2.696   3.900   9.293  0.7150 -1.2303  0.9735
 6926SOL    HW232415   2.844   3.863   9.252 -0.3141  0.4734 -0.9300
 6927SOL     OW32416   0.254   1.096   4.341  0.0929  0.2836  0.2040
 6927SOL    HW132417   0.305   1.094   4.260  2.0904  1.9547  1.4418
 6927SOL    HW232418   0.171   1.116   4.297  1.6026  0.1629 -2.6815
 6928SOL     OW32419   0.559   2.649   3.072  0.0826 -0.1343  0.5552
 6928SOL    HW132420   0.600   2.661   3.158 -2.1193  0.3160  1.5740
 6928SOL    HW232421   0.510   2.732   3.066  1.8630  0.9416  0.8305
 6929SOL     OW32422   4.311   4.007   4.468 -0.0017 -0.0841 -0.3840
 6929SOL    HW132423   4.353   3.955   4.536 -0.8794  0.4828  0.5980
 6929SOL    HW232424   4.348   4.093   4.489  0.3892  0.5470 -3.7280
 6930SOL     OW32425   3.352   0.583   6.904  0.8868 -0.6351 -0.3010
 6930SOL    HW132426   3.430   0.614   6.857  0.5408  1.3726  0.4683
 6930SOL    HW232427   3.339   0.664   6.954  0.8919 -0.5020 -0.5153
 6931SOL     OW32428   3.847   1.456   7.506 -0.3478  0.1589 -0.1048
 6931SOL    HW132429   3.813   1.386   7.563  0.4332 -0.0551  0.0961
 6931SOL    HW232430   3.862   1.407   7.425  0.1989 -1.8688  1.1979
 6932SOL     OW32431   1.188   2.069  12.383 -0.1665 -0.4116  0.0426
 6932SOL    HW132432   1.228   2.142  12.429  0.1727 -0.7759  0.3340
 6932SOL    HW232433   1.257   2.006  12.407  0.4269  0.9547  1.9425
 6933SOL     OW32434   3.253   3.803  10.966  0.5500  0.5075  0.1596
 6933SOL    HW132435   3.239   3.812  11.060  1.1498 -2.6130  0.5624
 6933SOL    HW232436   3.290   3.715  10.956  1.0754  0.5600  1.6765
 6934SOL     OW32437   1.974   3.887   3.681 -0.6079  0.4696  0.3750
 6934SOL    HW132438   2.044   3.952   3.670  0.4557 -0.2895  2.7207
 6934SOL    HW232439   1.913   3.924   3.617  1.0717  4.1623  0.9131
 6935SOL     OW32440   0.140   0.805   8.915  0.0800 -0.3705 -0.5482
 6935SOL    HW132441   0.045   0.796   8.925  0.1491 -0.8074 -0.2960
 6935SOL    HW232442   0.155   0.859   8.993  0.0561  0.8632 -1.3923
 6936SOL     OW32443   4.294   1.056  15.914  0.0536  0.8580 -0.2710
 6936SOL    HW132444   4.270   1.048  15.822  0.9908 -1.9383 -0.2987
 6936SOL    HW232445   4.246   1.135  15.936 -2.1449 -0.8565  1.0925
 6937SOL     OW32446   0.329   2.995  17.464  0.7306  0.2815  0.0869
 6937SOL    HW132447   0.368   3.030  17.543  3.5205  1.0075 -1.6050
 6937SOL    HW232448   0.286   2.922  17.508  2.8761 -1.7918 -1.2401
 6938SOL     OW32449   2.838   1.584   3.484 -0.1976 -0.3656  0.0541
 6938SOL    HW132450   2.751   1.607   3.519  1.2592  2.2471  1.9074
 6938SOL    HW232451   2.887   1.657   3.520 -1.4678 -0.0258  1.0813
 6939SOL     OW32452   4.632   1.528   4.240 -0.4523  0.2630 -0.0429
 6939SOL    HW132453   4.625   1.583   4.319  0.8853 -1.0402  0.9844
 6939SOL    HW232454   4.725   1.504   4.239  0.2546  2.9805 -0.1491
 6940SOL     OW32455   1.439   3.615   6.726  0.3770  0.0994  0.6088
 6940SOL    HW132456   1.376   3.593   6.658 -0.5146  1.2799  1.0481
 6940SOL    HW232457   1.399   3.690   6.770 -1.7160 -0.7414  0.1502
 6941SOL     OW32458   1.403   3.161   6.284  0.0828  0.5272 -0.1288
 6941SOL    HW132459   1.401   3.104   6.362 -0.2608  1.4282  0.5195
 6941SOL    HW232460   1.328   3.218   6.299  1.1152  1.5621  1.0645
 6942SOL     OW32461   2.792   1.470   4.563  0.4815 -0.8311  0.2944
 6942SOL    HW132462   2.869   1.422   4.531  1.0696 -1.8247  3.1859
 6942SOL    HW232463   2.785   1.434   4.652 -1.7917  0.1044  0.4744
 6943SOL     OW32464   0.793   2.361  15.135 -0.0873 -0.5414 -0.3763
 6943SOL    HW132465   0.856   2.408  15.190 -0.8831  0.0015  0.0806
 6943SOL    HW232466   0.818   2.381  15.045 -0.1515  0.7550 -0.1007
 6944SOL     OW32467   4.467   4.687   1.710 -0.0498  0.1592  0.6979
 6944SOL    HW132468   4.545   4.638   1.684 -1.3570 -1.0298 -0.9552
 6944SOL    HW232469   4.490   4.709   1.800 -1.4901  0.9357  0.8810
 6945SOL     OW32470   2.514   3.783   4.978  0.0752  0.4066 -0.0220
 6945SOL    HW132471   2.497   3.877   4.984  0.2798  0.4600 -0.2768
 6945SOL    HW232472   2.556   3.760   5.061 -1.6167 -0.4041  0.6157
 6946SOL     OW32473   1.323   1.293   5.367 -0.2475  0.3534 -0.3339
 6946SOL    HW132474   1.229   1.281   5.354 -0.3119  1.1549 -0.5857
 6946SOL    HW232475   1.334   1.388   5.364 -1.0700  0.4810  0.5209
 6947SOL     OW32476   2.209   1.603   4.348 -0.1089  0.3053  0.4746
 6947SOL    HW132477   2.194   1.678   4.291 -3.7132 -0.8479 -0.0911
 6947SOL    HW232478   2.300   1.606   4.377 -0.4014  0.5267  1.3822
 6948SOL     OW32479   0.424   4.523   8.071  0.2717 -0.0085 -0.2054
 6948SOL    HW132480   0.408   4.548   8.162  0.0192  0.7778 -0.4605
 6948SOL    HW232481   0.365   4.585   8.028  0.1490 -0.0471 -0.0926
 6949SOL     OW32482   0.194   0.595  10.230 -0.2182 -0.0455  0.2705
 6949SOL    HW132483   0.280   0.577  10.268 -0.1305  1.6474  0.8738
 6949SOL    HW232484   0.155   0.508  10.230  1.4500 -0.7920 -0.3970
 6950SOL     OW32485   2.793   2.951  12.776  0.0740  0.5319  0.1334
 6950SOL    HW132486   2.826   2.914  12.694  1.5807 -2.4587  2.0929
 6950SOL    HW232487   2.753   3.032  12.745 -0.4437  0.0481 -0.4779
 6951SOL     OW32488   0.745   2.486  14.296  0.3683  0.3965  0.4670
 6951SOL    HW132489   0.782   2.570  14.323  1.6141 -0.0206  0.0771
 6951SOL    HW232490   0.658   2.507  14.264  0.2159 -1.8094 -0.6097
 6952SOL     OW32491   3.336   0.832   6.973 -0.2920  0.2696  0.1996
 6952SOL    HW132492   3.314   0.895   7.042 -0.3473  1.1760 -0.6386
 6952SOL    HW232493   3.430   0.838   6.987 -0.1043 -0.0545 -0.9533
 6953SOL     OW32494   3.355   1.882   7.721 -0.3832  0.2770 -0.1789
 6953SOL    HW132495   3.262   1.871   7.699 -0.8728  0.8132  1.6377
 6953SOL    HW232496   3.386   1.829   7.648  1.4019 -0.7508  1.3280
 6954SOL     OW32497   3.364   1.469   2.093 -0.2699 -0.3405  0.0255
 6954SOL    HW132498   3.296   1.514   2.043 -1.6889 -2.2462  0.2431
 6954SOL    HW232499   3.411   1.421   2.025 -0.8001 -1.3374  0.3620
 6955SOL     OW32500   2.015   0.304  10.445  0.1016  0.7412 -0.1347
 6955SOL    HW132501   2.047   0.260  10.524 -0.5189  1.0874  0.3104
 6955SOL    HW232502   2.047   0.392  10.468 -1.7633  1.8232 -1.7153
 6956SOL     OW32503   1.799   1.081   1.175 -0.6885 -0.0483  0.1624
 6956SOL    HW132504   1.829   1.008   1.230 -1.1706 -0.1831  0.2431
 6956SOL    HW232505   1.743   1.035   1.113 -0.4660 -1.7022  1.1937
 6957SOL     OW32506   1.296   1.464  12.401  0.2453 -0.3711 -0.4747
 6957SOL    HW132507   1.374   1.439  12.352  0.3321 -2.0662  0.4962
 6957SOL    HW232508   1.335   1.453  12.488  0.6383 -0.4048 -0.6554
 6958SOL     OW32509   2.591   1.733   5.463 -0.0289 -0.2271  0.3171
 6958SOL    HW132510   2.521   1.750   5.399  0.4289 -0.2654 -0.1966
 6958SOL    HW232511   2.669   1.747   5.409 -0.1875 -0.4419  0.0261
 6959SOL     OW32512   4.046   2.666   4.742 -0.6002 -0.2019  0.3683
 6959SOL    HW132513   4.064   2.608   4.815  1.4869  1.0381  0.8504
 6959SOL    HW232514   3.955   2.693   4.748 -0.2538  0.9699  0.5070
 6960SOL     OW32515   4.299   1.152   4.970 -0.4645 -0.6216  0.2381
 6960SOL    HW132516   4.338   1.070   4.941 -0.6757 -0.7414  0.2906
 6960SOL    HW232517   4.343   1.157   5.055  1.5214  2.6635 -0.9635
 6961SOL     OW32518   2.400   4.589   4.334 -0.1039 -0.2193  0.6848
 6961SOL    HW132519   2.438   4.663   4.381 -2.1035  2.6043 -2.1228
 6961SOL    HW232520   2.469   4.526   4.313  0.8839  0.7555  1.0686
 6962SOL     OW32521   2.156   0.392  13.706  0.0542  0.3493  0.6176
 6962SOL    HW132522   2.168   0.402  13.801 -1.0831  0.1663  0.7736
 6962SOL    HW232523   2.209   0.466  13.676  1.0831 -0.6185  0.0443
 6963SOL     OW32524   3.640   3.273   4.360  0.4310  0.0470  0.3461
 6963SOL    HW132525   3.594   3.347   4.321 -0.1538 -0.7288 -0.4402
 6963SOL    HW232526   3.678   3.312   4.439 -2.5085  1.6422  0.9622
 6964SOL     OW32527   3.623   3.934   6.975  0.0593  0.0104  0.2613
 6964SOL    HW132528   3.709   3.896   6.993 -1.2532 -2.5955  0.9758
 6964SOL    HW232529   3.586   3.959   7.059 -1.2290 -1.0282 -0.0025
 6965SOL     OW32530   3.130   0.439   3.889 -0.6091  0.4032  0.9233
 6965SOL    HW132531   3.215   0.460   3.851 -0.3909  1.8674  2.2232
 6965SOL    HW232532   3.124   0.344   3.876 -0.6372  0.2512  1.9866
 6966SOL     OW32533   0.789   4.615   7.009 -1.0708 -0.2012 -0.0908
 6966SOL    HW132534   0.794   4.520   6.996 -0.6671 -0.3858  1.4145
 6966SOL    HW232535   0.759   4.620   7.100 -0.0354  2.3872  0.1058
 6967SOL     OW32536   1.300   2.773   1.127  0.3565 -0.0672  0.2134
 6967SOL    HW132537   1.232   2.729   1.076  0.8708 -0.8348  0.1894
 6967SOL    HW232538   1.321   2.851   1.075  0.4841 -0.9017 -0.9916
 6968SOL     OW32539   2.940   2.055   5.021  0.6917  0.1113  0.1148
 6968SOL    HW132540   2.958   2.148   5.006 -1.1582  0.7365  1.7019
 6968SOL    HW232541   3.029   2.022   5.009  0.4730 -0.8546  1.1487
 6969SOL     OW32542   0.002   1.185   3.909 -0.1363  0.1262  0.0086
 6969SOL    HW132543   0.009   1.160   3.817  1.9650  2.6939 -0.5192
 6969SOL    HW232544   4.651   1.198   3.922 -0.2145  0.9363 -1.3893
 6970SOL     OW32545   3.271   1.418   6.800  0.0414 -0.0643 -0.1438
 6970SOL    HW132546   3.198   1.463   6.844 -0.0634  0.2446 -0.6276
 6970SOL    HW232547   3.341   1.455   6.854 -0.1902 -0.0370  0.1410
 6971SOL     OW32548   0.826   3.947   7.267  0.0526  0.0757  0.2925
 6971SOL    HW132549   0.847   3.910   7.181 -1.3221  2.4971 -1.1241
 6971SOL    HW232550   0.912   3.984   7.285  0.5889 -1.4310  0.7233
 6972SOL     OW32551   0.607   0.302  17.540  0.2197 -0.0549 -0.5181
 6972SOL    HW132552   0.698   0.303  17.567 -0.6842  1.7118  2.4814
 6972SOL    HW232553   0.560   0.287  17.622  1.3538 -1.5732 -0.1550
 6973SOL     OW32554   2.709   4.606   5.342 -0.0694 -0.1850 -0.3879
 6973SOL    HW132555   2.649   4.658   5.287  0.2573  1.3803  0.7415
 6973SOL    HW232556   2.746   4.545   5.279 -1.4679 -1.5893  0.1438
 6974SOL     OW32557   3.279   3.614   6.888 -0.4489 -0.1671 -0.5797
 6974SOL    HW132558   3.272   3.573   6.974  0.9505 -1.5800 -1.1544
 6974SOL    HW232559   3.373   3.634   6.890 -0.0805 -1.9991  0.0334
 6975SOL     OW32560   3.655   2.915   6.959 -0.0443 -0.5547 -0.5200
 6975SOL    HW132561   3.618   3.002   6.944  3.0052  0.4488 -2.2847
 6975SOL    HW232562   3.703   2.919   7.042 -1.1369  3.1022 -0.0756
 6976SOL     OW32563   2.353   1.655  14.948 -0.1036 -0.2737 -0.1393
 6976SOL    HW132564   2.437   1.661  14.904  0.3382  0.4740  0.8070
 6976SOL    HW232565   2.350   1.740  14.991 -1.8834 -0.3241 -0.1328
 6977SOL     OW32566   3.595   3.049   6.575  0.1319 -0.3671 -0.1747
 6977SOL    HW132567   3.632   3.137   6.580 -0.2435 -0.3088  1.4043
 6977SOL    HW232568   3.535   3.066   6.502 -2.2345  0.3462  1.9608
 6978SOL     OW32569   3.208   0.670   4.078 -0.4394  0.6554 -0.2888
 6978SOL    HW132570   3.299   0.654   4.103 -0.6452 -1.0940 -0.6694
 6978SOL    HW232571   3.219   0.641   3.988  0.5409  0.2468 -0.0375
 6979SOL     OW32572   0.306   0.854   4.709  0.2843  0.5987 -0.1583
 6979SOL    HW132573   0.288   0.825   4.620  0.8197 -0.3339  0.0336
 6979SOL    HW232574   0.381   0.911   4.690  0.3082  0.8920  0.8037
 6980SOL     OW32575   1.592   0.424  17.083  0.0168 -1.0795  0.0578
 6980SOL    HW132576   1.553   0.467  17.159  1.1105  0.4633 -0.2450
 6980SOL    HW232577   1.509   0.377  17.073 -0.9340 -0.1314  3.4110
 6981SOL     OW32578   0.042   2.961   7.171  0.2020  0.5709 -0.1601
 6981SOL    HW132579   0.106   2.989   7.237 -0.5993 -1.1254  1.3250
 6981SOL    HW232580   0.089   2.892   7.125 -0.2217  0.7772 -0.8975
 6982SOL     OW32581   3.449   3.888   9.069  0.3224  0.5709  0.0819
 6982SOL    HW132582   3.519   3.825   9.086  1.3232  1.2114 -1.7040
 6982SOL    HW232583   3.433   3.911   9.160  2.3544  1.0364  0.3156
 6983SOL     OW32584   3.831   3.266  14.408 -0.1319 -0.1067 -0.0592
 6983SOL    HW132585   3.789   3.212  14.475 -1.3469  0.8802 -0.0139
 6983SOL    HW232586   3.765   3.336  14.408  0.1014  0.1160  2.2539
 6984SOL     OW32587   3.443   0.253   4.525  0.0251  0.9573 -0.9331
 6984SOL    HW132588   3.362   0.299   4.546 -1.4880 -1.8619 -0.6422
 6984SOL    HW232589   3.500   0.318   4.483  2.9540 -1.1610 -0.2219
 6985SOL     OW32590   4.697   2.245  11.066  0.0175 -0.0970 -0.4987
 6985SOL    HW132591   0.045   2.230  11.089 -0.8719 -2.2404  1.6286
 6985SOL    HW232592   4.646   2.180  11.115 -0.7032 -2.6127 -4.5895
 6986SOL     OW32593   1.504   2.722   2.739 -0.3598  0.1829  0.3785
 6986SOL    HW132594   1.412   2.740   2.761 -0.9106  0.7866 -2.4245
 6986SOL    HW232595   1.507   2.641   2.791 -0.9511 -0.6571 -0.8923
 6987SOL     OW32596   2.142   1.136   6.975  0.0280 -0.3736 -0.1151
 6987SOL    HW132597   2.059   1.149   7.022 -0.3669 -0.7111 -0.7285
 6987SOL    HW232598   2.113   1.149   6.885 -0.9707 -2.2017 -0.0467
 6988SOL     OW32599   2.512   2.374   6.473 -0.0554  0.3993 -0.4620
 6988SOL    HW132600   2.587   2.406   6.423 -1.6243 -0.6621 -3.4902
 6988SOL    HW232601   2.561   2.334   6.545 -2.1298  1.3468  1.4564
 6989SOL     OW32602   0.771   2.142   8.905 -0.7235 -0.3604  0.5965
 6989SOL    HW132603   0.784   2.194   8.826  0.7254 -1.5059  0.0797
 6989SOL    HW232604   0.801   2.057   8.871  0.2014 -0.4169  1.5493
 6990SOL     OW32605   4.099   3.759   3.390 -1.0881  0.0139 -0.1353
 6990SOL    HW132606   4.061   3.707   3.460  0.8261  0.9007  1.5517
 6990SOL    HW232607   4.087   3.706   3.312  2.5512 -0.5899 -0.2717
 6991SOL     OW32608   4.421   0.306   8.069  0.4638  0.0877  0.3550
 6991SOL    HW132609   4.471   0.342   7.996  0.6112 -0.1931  0.3188
 6991SOL    HW232610   4.340   0.356   8.062 -0.1877 -1.2319 -1.2346
 6992SOL     OW32611   3.857   1.024   8.233 -0.5147 -0.2102  0.4536
 6992SOL    HW132612   3.793   1.072   8.181 -1.2776 -2.9995 -1.2071
 6992SOL    HW232613   3.843   1.056   8.322 -1.2653  0.0709  0.2300
 6993SOL     OW32614   3.616   2.862  14.510  0.0568  0.2049  0.0856
 6993SOL    HW132615   3.708   2.886  14.517  0.3251 -1.1465  1.1413
 6993SOL    HW232616   3.574   2.898  14.588 -0.4015  2.6840 -1.3266
 6994SOL     OW32617   1.369   3.976   9.453 -0.2267  0.3356 -0.1820
 6994SOL    HW132618   1.282   3.981   9.412 -0.2497  5.3034  0.4544
 6994SOL    HW232619   1.346   3.965   9.545  1.9505 -1.7876  0.1001
 6995SOL     OW32620   1.408   0.554   4.484 -0.2567  0.6446 -0.0175
 6995SOL    HW132621   1.356   0.598   4.417  1.6475  2.2460 -0.4195
 6995SOL    HW232622   1.366   0.585   4.564  0.2147  0.6945  0.2081
 6996SOL     OW32623   4.073   3.235  15.837  0.7167 -0.2274  0.8195
 6996SOL    HW132624   4.103   3.313  15.791 -0.5854  1.3728  2.6464
 6996SOL    HW232625   4.107   3.262  15.922 -1.0708 -1.2781  1.8757
 6997SOL     OW32626   0.431   2.195   6.799  0.2249  0.2122  0.0525
 6997SOL    HW132627   0.481   2.277   6.793  0.6299  0.0100  0.6516
 6997SOL    HW232628   0.364   2.228   6.858  1.7182  3.3888 -0.0199
 6998SOL     OW32629   4.721   1.313  16.463 -0.4213 -0.0162 -0.4111
 6998SOL    HW132630   4.734   1.296  16.370  1.5667  0.8720 -0.2993
 6998SOL    HW232631   4.626   1.305  16.463 -0.3593 -0.7691  0.2231
 6999SOL     OW32632   1.969   1.269   9.276 -0.0658 -0.4172  0.3552
 6999SOL    HW132633   1.982   1.174   9.280 -1.3224 -0.5451  1.5034
 6999SOL    HW232634   1.907   1.266   9.203 -1.5811 -1.3490  1.6864
 7000SOL     OW32635   2.887   3.329  17.008  0.0489  0.1036  0.1496
 7000SOL    HW132636   2.904   3.401  16.948 -0.1750 -1.2396 -1.5392
 7000SOL    HW232637   2.823   3.277  16.957 -1.0698  0.2286  1.4287
 7001SOL     OW32638   3.577   3.418  14.420  0.7853 -0.5311  0.5274
 7001SOL    HW132639   3.508   3.457  14.475 -0.6575 -0.6912 -1.1719
 7001SOL    HW232640   3.575   3.473  14.342 -2.6979  0.0949  1.0476
 7002SOL     OW32641   2.193   2.442   9.572  0.4047  0.6852  0.0553
 7002SOL    HW132642   2.275   2.412   9.534  0.9507  1.8737  0.2972
 7002SOL    HW232643   2.200   2.536   9.557  0.6275  0.5862 -0.4503
 7003SOL     OW32644   4.183   0.192   5.023  0.6585  0.0354  0.3717
 7003SOL    HW132645   4.147   0.261   4.968 -0.5120 -1.1287 -0.3129
 7003SOL    HW232646   4.265   0.168   4.980  0.2384  0.9027 -0.8918
 7004SOL     OW32647   0.387   2.063   0.669  0.0654  0.2708  0.2725
 7004SOL    HW132648   0.412   1.971   0.679  1.3920  0.5525 -0.5325
 7004SOL    HW232649   0.469   2.109   0.682  0.7671 -0.4209 -1.7940
 7005SOL     OW32650   3.874   4.463   7.968 -0.2901  0.2060 -0.8370
 7005SOL    HW132651   3.819   4.521   8.020  0.5743  0.2860 -0.0042
 7005SOL    HW232652   3.815   4.388   7.977  0.8716 -0.5303  0.7594
 7006SOL     OW32653   2.053   3.081   2.681 -0.3008 -0.8665  0.1513
 7006SOL    HW132654   1.964   3.045   2.671 -0.6030  0.1057 -0.6945
 7006SOL    HW232655   2.062   3.097   2.775 -0.7483  1.4186 -0.1953
 7007SOL     OW32656   1.991   3.945   6.172  0.0635  0.0875  0.3907
 7007SOL    HW132657   2.084   3.928   6.192 -0.2728 -2.1380  0.0888
 7007SOL    HW232658   2.004   4.018   6.112  0.9827 -0.2083  0.2289
 7008SOL     OW32659   3.461   3.538   7.449  0.5254  0.1631  0.4931
 7008SOL    HW132660   3.553   3.561   7.439  0.0253  1.7160 -0.4978
 7008SOL    HW232661   3.424   3.626   7.453 -2.0059 -0.9114  1.1618
 7009SOL     OW32662   3.674   2.188   5.865 -0.1084  0.1309 -0.1547
 7009SOL    HW132663   3.654   2.262   5.808 -2.7844 -0.0813  0.5406
 7009SOL    HW232664   3.761   2.212   5.897 -0.6172 -0.8818  2.0197
 7010SOL     OW32665   1.201   1.602   2.991  0.0845  0.4244 -0.2395
 7010SOL    HW132666   1.287   1.644   2.998  0.4436 -0.1997 -0.9540
 7010SOL    HW232667   1.158   1.666   2.934  1.2633 -1.6503 -3.4246
 7011SOL     OW32668   0.492   0.555   9.571  0.2709  1.2844 -0.5190
 7011SOL    HW132669   0.453   0.540   9.657  1.6196 -0.8078 -0.2657
 7011SOL    HW232670   0.491   0.467   9.533  0.3217  1.4616 -0.9282
 7012SOL     OW32671   3.003   3.628   3.658  0.1309  0.1110  0.6988
 7012SOL    HW132672   2.971   3.692   3.721  2.4024  0.6447  1.3011
 7012SOL    HW232673   3.090   3.661   3.633 -0.9216  0.4855 -2.5598
 7013SOL     OW32674   1.487   2.003   8.792 -0.2915  0.5021 -0.2347
 7013SOL    HW132675   1.563   2.037   8.838 -0.8822 -0.0403  1.1492
 7013SOL    HW232676   1.513   1.911   8.788 -0.6190  0.3825  0.4029
 7014SOL     OW32677   1.761   2.206   5.253  0.0598  0.2315  0.1807
 7014SOL    HW132678   1.770   2.223   5.347  1.2686  2.9239 -0.4282
 7014SOL    HW232679   1.666   2.211   5.246  0.0072  1.4693  1.7730
 7015SOL     OW32680   3.348   1.976   3.167  0.2072  0.3577  0.0702
 7015SOL    HW132681   3.275   1.986   3.228  1.2657  0.8026  1.2588
 7015SOL    HW232682   3.323   1.890   3.135 -2.1438  0.1963  2.3329
 7016SOL     OW32683   2.193   0.203   5.614  0.5333 -0.2529 -0.1568
 7016SOL    HW132684   2.288   0.205   5.615  0.5459 -0.8876 -0.0478
 7016SOL    HW232685   2.168   0.229   5.703  2.1463  0.3637  0.1187
 7017SOL     OW32686   2.652   2.791  12.402  0.0859  0.3616 -0.6343
 7017SOL    HW132687   2.614   2.706  12.377  0.4306  0.0880 -0.2305
 7017SOL    HW232688   2.579   2.838  12.443 -1.4532 -2.7818  0.2720
 7018SOL     OW32689   2.139   2.206   3.781 -0.3306 -0.1124  0.0892
 7018SOL    HW132690   2.099   2.120   3.766 -0.1655 -0.3030  0.7237
 7018SOL    HW232691   2.163   2.194   3.873  2.3869  0.2505 -0.5635
 7019SOL     OW32692   3.737   2.898   2.100  0.2388  0.6083 -0.0532
 7019SOL    HW132693   3.654   2.905   2.054  0.6339 -0.8003 -0.9842
 7019SOL    HW232694   3.717   2.828   2.162  0.2133 -0.8575 -1.6852
 7020SOL     OW32695   1.616   4.665   2.708 -0.0616  0.6108  0.3001
 7020SOL    HW132696   1.549   4.605   2.740 -0.6940  1.1240 -0.0490
 7020SOL    HW232697   1.629   4.724   2.782  1.9472 -0.0569  0.4719
 7021SOL     OW32698   3.328   3.969   8.610  0.3009  0.5711  0.6167
 7021SOL    HW132699   3.341   3.898   8.672  0.5452  0.0165 -0.0803
 7021SOL    HW232700   3.412   3.961   8.566  0.2108  0.5803  0.4453
 7022SOL     OW32701   3.122   3.937  15.536  0.2187  0.1294  0.5045
 7022SOL    HW132702   3.177   4.006  15.573  1.6071 -1.0014  0.5429
 7022SOL    HW232703   3.042   3.982  15.509  0.7900  0.8204 -0.0669
 7023SOL     OW32704   3.470   4.396   5.606 -0.3969  0.2022 -0.6237
 7023SOL    HW132705   3.526   4.407   5.683 -2.5757  1.2313  0.8089
 7023SOL    HW232706   3.429   4.481   5.623 -0.6841 -0.4039  1.7021
 7024SOL     OW32707   3.141   0.387  15.978  0.5015  0.3215 -0.2900
 7024SOL    HW132708   3.151   0.408  15.885 -1.4255  0.4312 -0.4740
 7024SOL    HW232709   3.204   0.444  16.022 -0.0234  0.9349 -0.3307
 7025SOL     OW32710   0.640   0.701  12.082  0.7172 -0.1431  0.0278
 7025SOL    HW132711   0.596   0.686  12.166  1.0347 -0.2235  0.1816
 7025SOL    HW232712   0.654   0.612  12.050 -2.4715 -0.8719  0.6210
 7026SOL     OW32713   0.035   0.418   4.886 -0.2656  0.3087  0.3057
 7026SOL    HW132714   4.736   0.493   4.928 -1.5083 -0.3500  0.2343
 7026SOL    HW232715   4.707   0.359   4.909  1.2260 -1.6393 -0.0764
 7027SOL     OW32716   2.560   2.429   8.990 -0.5915  0.0102  0.1275
 7027SOL    HW132717   2.477   2.448   9.034 -0.5352 -1.0702  0.7099
 7027SOL    HW232718   2.552   2.336   8.970 -1.8892  0.0497  0.4041
 7028SOL     OW32719   0.319   3.255  17.350  0.6956  0.2430 -0.4872
 7028SOL    HW132720   0.411   3.261  17.377  1.1009 -0.3575 -1.7212
 7028SOL    HW232721   0.291   3.170  17.385  1.6586  0.5427  1.0461
 7029SOL     OW32722   3.706   4.417  17.600 -0.0176 -0.5844 -0.3105
 7029SOL    HW132723   3.685   4.390  17.689  0.4416  1.4137  0.4056
 7029SOL    HW232724   3.617   4.407  17.566 -0.1063  0.1727 -0.3071
 7030SOL     OW32725   4.450   2.626   4.830  0.1139 -0.2803  0.2382
 7030SOL    HW132726   4.384   2.693   4.845  0.3785 -0.2624  1.2924
 7030SOL    HW232727   4.403   2.586   4.756  0.4852  0.7016 -0.5156
 7031SOL     OW32728   4.117   3.992   8.817 -0.1770 -0.6272  0.3781
 7031SOL    HW132729   4.125   4.080   8.854 -1.4762  1.3094 -3.8824
 7031SOL    HW232730   4.158   4.008   8.732 -2.6052 -0.6066 -0.8128
 7032SOL     OW32731   1.285   4.388   3.984 -0.3746 -0.3470 -0.0402
 7032SOL    HW132732   1.348   4.407   3.914  1.3788  0.6486  1.8379
 7032SOL    HW232733   1.231   4.323   3.938 -1.2883  0.6463 -0.3903
 7033SOL     OW32734   1.646   3.394   3.899  0.5152 -0.3906  0.1884
 7033SOL    HW132735   1.633   3.355   3.986 -1.6936  2.3961  1.1043
 7033SOL    HW232736   1.712   3.463   3.916  0.3572 -0.7254  2.1995
 7034SOL     OW32737   4.428   0.148  14.744  0.5414  0.2391 -0.0838
 7034SOL    HW132738   4.422   0.088  14.670 -1.3716 -0.8085  0.9168
 7034SOL    HW232739   4.455   0.223  14.692 -1.9293  1.3436  0.2284
 7035SOL     OW32740   2.326   0.651  15.815 -1.0187  0.1046 -0.2232
 7035SOL    HW132741   2.330   0.593  15.738 -0.4865 -0.5169  0.2716
 7035SOL    HW232742   2.297   0.733  15.775  1.7531  1.0074 -0.3314
 7036SOL     OW32743   4.400   3.657  12.907  0.3585 -0.2610  0.6090
 7036SOL    HW132744   4.447   3.700  12.836  1.0149  1.3820  2.0427
 7036SOL    HW232745   4.310   3.690  12.901  0.8119  0.9735  0.6758
 7037SOL     OW32746   1.889   0.560   1.259 -0.2550  0.0442  0.2087
 7037SOL    HW132747   1.971   0.564   1.310  0.3101  2.5903 -0.9279
 7037SOL    HW232748   1.922   0.570   1.170  0.3267 -0.7792  0.3306
 7038SOL     OW32749   2.714   1.769   2.104 -0.0460 -0.3071  0.0909
 7038SOL    HW132750   2.669   1.720   2.172 -3.1308  2.0351 -0.2681
 7038SOL    HW232751   2.651   1.840   2.089  0.2350  0.1804  1.2436
 7039SOL     OW32752   4.627   4.553  10.420  0.3371 -0.3936  0.0062
 7039SOL    HW132753   4.721   4.569  10.408  0.7181 -1.5875  1.3822
 7039SOL    HW232754   4.604   4.618  10.486  0.0616 -1.7636  1.2455
 7040SOL     OW32755   3.137   1.065   6.572 -0.4461  0.3726  0.8410
 7040SOL    HW132756   3.157   1.133   6.508  1.9841 -2.9253 -1.9555
 7040SOL    HW232757   3.042   1.062   6.567 -0.3307 -0.1880 -1.3408
 7041SOL     OW32758   1.663   2.432   4.178 -0.0186 -0.0961 -0.1401
 7041SOL    HW132759   1.629   2.343   4.187 -0.8955  0.2192 -0.3344
 7041SOL    HW232760   1.753   2.424   4.211 -1.3449 -1.0069  3.2533
 7042SOL     OW32761   0.113   3.136   5.412  0.0592 -0.1634 -0.4916
 7042SOL    HW132762   0.084   3.063   5.358 -2.7571  1.1934 -0.7912
 7042SOL    HW232763   0.123   3.103   5.501 -1.9551  0.8476  0.1028
 7043SOL     OW32764   4.042   2.743   2.128 -0.0486  0.1329 -0.1392
 7043SOL    HW132765   3.989   2.795   2.067  0.4375  0.6004 -0.1627
 7043SOL    HW232766   4.057   2.671   2.066 -1.1139  0.3369 -0.6316
 7044SOL     OW32767   1.612   2.506  13.610  0.2305 -0.6962 -0.1754
 7044SOL    HW132768   1.615   2.412  13.594 -0.0153 -0.6175 -0.6711
 7044SOL    HW232769   1.639   2.540  13.525  3.1694 -1.8609  0.2832
 7045SOL     OW32770   1.816   1.782   8.129  0.5364  0.6220  0.3295
 7045SOL    HW132771   1.743   1.721   8.118  0.4426  1.1220 -1.8827
 7045SOL    HW232772   1.857   1.751   8.048 -0.2127 -1.2426  0.6745
 7046SOL     OW32773   1.570   4.495   1.583 -0.2941 -0.1814  0.3286
 7046SOL    HW132774   1.552   4.410   1.623  1.7904 -1.2317 -0.9588
 7046SOL    HW232775   1.637   4.531   1.641 -0.2983  1.8352 -0.9026
 7047SOL     OW32776   2.363   4.362   7.831  0.4318  0.2002 -0.0685
 7047SOL    HW132777   2.319   4.407   7.904  2.1200  0.9989  0.4495
 7047SOL    HW232778   2.431   4.313   7.877  1.4628  0.5226 -1.2664
 7048SOL     OW32779   0.371   0.118   4.078 -0.3056 -0.2745 -0.1163
 7048SOL    HW132780   0.278   0.120   4.058 -0.1154 -0.9137 -1.0477
 7048SOL    HW232781   0.385   0.199   4.128 -0.3264  0.8403 -1.8962
 7049SOL     OW32782   2.956   3.713   9.817 -0.1967 -0.6742 -0.8013
 7049SOL    HW132783   2.895   3.699   9.889 -1.5463 -1.6099 -2.1291
 7049SOL    HW232784   2.898   3.756   9.754  0.5445  0.8709 -0.4375
 7050SOL     OW32785   4.348   2.860   3.816 -0.1470 -0.2575 -0.2791
 7050SOL    HW132786   4.418   2.844   3.879 -1.2889 -0.3581  0.9662
 7050SOL    HW232787   4.277   2.870   3.879  0.2731 -1.0099  0.3158
 7051SOL     OW32788   0.616   0.637   2.099  0.2092  0.0569  0.0814
 7051SOL    HW132789   0.537   0.674   2.139  1.3873  3.1718 -0.5336
 7051SOL    HW232790   0.593   0.547   2.122 -2.5403  0.4593 -1.1101
 7052SOL     OW32791   2.999   3.591   3.069 -0.2359 -0.4308  0.5312
 7052SOL    HW132792   3.079   3.540   3.054  0.4089  0.7718 -0.0968
 7052SOL    HW232793   3.007   3.628   3.157 -0.6718  2.1835 -0.5266
 7053SOL     OW32794   1.757   2.402   9.458  0.0472  0.1177 -0.0082
 7053SOL    HW132795   1.841   2.361   9.479 -0.6663 -1.1748  0.3316
 7053SOL    HW232796   1.777   2.495   9.447 -1.9358  0.6674  0.8352
 7054SOL     OW32797   2.740   3.211   9.567  0.0106 -0.0538  0.7600
 7054SOL    HW132798   2.831   3.184   9.582 -0.4410 -2.2311 -0.3349
 7054SOL    HW232799   2.734   3.287   9.624 -1.5746  0.7166 -0.4573
 7055SOL     OW32800   0.106   0.368   5.214  0.6147 -0.5676 -0.1220
 7055SOL    HW132801   0.106   0.286   5.163 -1.3822 -1.1436  0.7971
 7055SOL    HW232802   0.013   0.379   5.232  0.4823 -2.4762  0.4065
 7056SOL     OW32803   3.931   0.652   4.419 -0.7067 -0.3625  0.0564
 7056SOL    HW132804   3.934   0.729   4.362  2.0824 -0.7391 -0.3355
 7056SOL    HW232805   3.909   0.694   4.502 -0.6181 -0.1697 -0.0190
 7057SOL     OW32806   0.966   1.131  15.810 -0.5450 -0.5157 -0.0633
 7057SOL    HW132807   1.013   1.050  15.790  1.9538  0.6349  1.2182
 7057SOL    HW232808   0.887   1.124  15.755 -1.2851 -0.2136  0.9665
 7058SOL     OW32809   1.951   4.039   1.566  0.1470  0.1320  0.5164
 7058SOL    HW132810   1.988   3.997   1.644  0.0261 -1.4149 -0.2573
 7058SOL    HW232811   1.984   3.978   1.500  1.4178  0.1056  1.1751
 7059SOL     OW32812   0.601   3.723   7.099  0.6048  0.3516  0.2835
 7059SOL    HW132813   0.534   3.747   7.163  0.3640 -3.5914  1.4891
 7059SOL    HW232814   0.606   3.806   7.052  0.8534  1.3641  2.1320
 7060SOL     OW32815   4.548   2.714   1.741 -0.0478  0.5032 -0.4716
 7060SOL    HW132816   4.534   2.768   1.818  1.1568 -0.2692  0.2926
 7060SOL    HW232817   4.460   2.676   1.741  0.3494 -0.4177 -0.3788
 7061SOL     OW32818   3.706   2.858   4.075  0.2325 -1.0670  0.6743
 7061SOL    HW132819   3.721   2.834   3.984  1.2072  2.5307 -0.1102
 7061SOL    HW232820   3.698   2.769   4.110 -0.7242 -0.4143  2.0947
 7062SOL     OW32821   1.870   3.736   9.475  0.2269  0.3862 -0.0397
 7062SOL    HW132822   1.864   3.734   9.570 -0.8124 -1.0518 -0.1336
 7062SOL    HW232823   1.782   3.768   9.454 -0.0963 -1.2749 -1.2525
 7063SOL     OW32824   3.746   0.095  15.710 -0.5493  0.4448  0.2931
 7063SOL    HW132825   3.823   0.143  15.741 -0.4746 -0.0202  0.8128
 7063SOL    HW232826   3.749   0.110  15.616 -0.1564  0.6596  0.3408
 7064SOL     OW32827   0.908   1.218   4.522  0.0053 -0.1179 -0.4837
 7064SOL    HW132828   0.906   1.201   4.428 -1.8652  0.5567 -0.5627
 7064SOL    HW232829   0.897   1.130   4.556 -1.2722 -0.8446 -2.8528
 7065SOL     OW32830   2.276   0.915   7.919 -0.5153  0.1882  0.0953
 7065SOL    HW132831   2.284   0.949   8.008 -0.0527 -1.1652  0.5667
 7065SOL    HW232832   2.334   0.978   7.876  0.7933 -1.2391 -0.2196
 7066SOL     OW32833   4.028   2.405   6.996  0.6126  0.2689  0.3163
 7066SOL    HW132834   4.076   2.415   6.914  1.8996 -1.1185  0.9129
 7066SOL    HW232835   4.051   2.316   7.022 -0.3588 -0.1651 -0.3124
 7067SOL     OW32836   2.393   2.099   5.652  0.0338  0.9347 -0.0764
 7067SOL    HW132837   2.365   2.011   5.676  3.3241  0.0468  0.4877
 7067SOL    HW232838   2.313   2.151   5.651 -2.2386 -2.5523  1.2896
 7068SOL     OW32839   2.264   2.727  10.036  0.4435 -0.2312  0.2603
 7068SOL    HW132840   2.353   2.761  10.031  0.6124 -0.6484  0.4130
 7068SOL    HW232841   2.289   2.636  10.023  0.2638 -0.3462  0.7331
 7069SOL     OW32842   4.662   0.889   3.924 -0.1889  0.1588 -0.1526
 7069SOL    HW132843   4.594   0.900   3.857  0.2597 -3.0583 -1.1549
 7069SOL    HW232844   4.735   0.921   3.872 -1.1126  0.0465 -1.5073
 7070SOL     OW32845   0.535   1.344   5.914 -0.2048  0.4717 -0.4037
 7070SOL    HW132846   0.587   1.371   5.838 -0.9615  0.3953 -0.9533
 7070SOL    HW232847   0.545   1.425   5.963  0.2783  1.2158 -1.7424
 7071SOL     OW32848   0.335   1.853   7.669  0.4944  0.3885 -0.2989
 7071SOL    HW132849   0.332   1.828   7.761  1.1255  0.9829 -0.1181
 7071SOL    HW232850   0.310   1.944   7.687  2.4644  0.9976 -0.6462
 7072SOL     OW32851   4.055   3.134   4.593 -0.6356 -0.0274 -0.1120
 7072SOL    HW132852   3.966   3.105   4.577 -1.0262  0.8200  0.4875
 7072SOL    HW232853   4.069   3.079   4.670 -1.7543 -0.2591 -0.0825
 7073SOL     OW32854   0.392   1.398   8.147  0.6578 -0.4214 -0.5730
 7073SOL    HW132855   0.452   1.338   8.191  0.2897  0.8579  1.6318
 7073SOL    HW232856   0.311   1.350   8.163  0.5436  1.4333  4.3376
 7074SOL     OW32857   2.662   0.135   3.087 -0.4624 -0.0590  0.2498
 7074SOL    HW132858   2.641   0.042   3.090  0.1001 -0.0958  2.5705
 7074SOL    HW232859   2.757   0.141   3.077 -0.4026 -1.2926  0.0106
 7075SOL     OW32860   3.054   4.377   7.791  0.3017 -0.9094  0.0615
 7075SOL    HW132861   2.986   4.350   7.852 -0.6738  1.7950  0.1450
 7075SOL    HW232862   3.110   4.427   7.850  0.5178  2.8070 -3.2819
 7076SOL     OW32863   4.035   1.491  16.005  0.1039 -0.0741  0.1064
 7076SOL    HW132864   3.949   1.507  16.044  0.0600 -1.9857  0.8128
 7076SOL    HW232865   4.049   1.577  15.967 -0.6694  0.9572  2.1289
 7077SOL     OW32866   2.374   3.970   7.000  0.7024 -0.4553  0.2948
 7077SOL    HW132867   2.375   3.996   6.908  1.6767 -1.3862  0.0536
 7077SOL    HW232868   2.282   3.950   7.017  0.5854 -0.7110 -0.6491
 7078SOL     OW32869   4.633   2.667  10.792 -0.2697 -0.5848 -0.1232
 7078SOL    HW132870   4.600   2.730  10.857 -1.2945 -0.1133 -1.1052
 7078SOL    HW232871   4.669   2.602  10.853 -1.7539 -1.1999  0.0776
 7079SOL     OW32872   1.665   2.132  17.541 -0.5491  0.3995 -0.1355
 7079SOL    HW132873   1.701   2.049  17.510 -0.7688 -0.1605  1.1026
 7079SOL    HW232874   1.732   2.144  17.609 -0.9852 -0.9859  0.5410
 7080SOL     OW32875   0.847   3.133  12.018 -0.5882  0.0023  0.3967
 7080SOL    HW132876   0.862   3.187  11.940 -0.0711  0.5117  0.8462
 7080SOL    HW232877   0.752   3.122  12.023 -0.5836 -0.5500 -0.8394
 7081SOL     OW32878   4.531   0.280   5.810 -0.4724  0.5915 -0.6378
 7081SOL    HW132879   4.509   0.274   5.903 -0.8924 -0.4602 -0.8006
 7081SOL    HW232880   4.568   0.191   5.804 -1.6232 -0.0726  2.5933
 7082SOL     OW32881   4.684   3.678   7.393 -0.1920 -0.0640  0.0830
 7082SOL    HW132882   4.720   3.601   7.348 -4.1526 -1.3597 -0.8810
 7082SOL    HW232883   4.689   3.751   7.331  0.5024 -1.2849 -1.3246
 7083SOL     OW32884   0.420   1.072  13.619 -0.4084  0.3480 -0.2691
 7083SOL    HW132885   0.509   1.082  13.586 -0.2920 -0.8099 -0.3094
 7083SOL    HW232886   0.408   1.136  13.690 -2.4993 -1.1448  0.7213
 7084SOL     OW32887   2.584   0.040   2.067 -0.2617 -0.6504  0.2978
 7084SOL    HW132888   2.641   4.712   2.038  1.6327  0.2390  1.8540
 7084SOL    HW232889   2.606   0.046   2.160 -0.0172 -1.7553  0.3127
 7085SOL     OW32890   0.971   0.104   8.067  0.0488 -0.1363  0.2566
 7085SOL    HW132891   0.945   0.144   8.151  0.3143 -0.2446  0.3881
 7085SOL    HW232892   0.882   0.091   8.034 -0.8343 -1.4454  3.1375
 7086SOL     OW32893   2.827   2.908   9.879  0.4540 -0.9827  0.1339
 7086SOL    HW132894   2.841   2.865   9.795  0.6005 -1.1534  0.2425
 7086SOL    HW232895   2.743   2.954   9.874  1.9070  1.6990  0.5074
 7087SOL     OW32896   4.536   2.426   3.170 -0.2389  0.1681 -0.1173
 7087SOL    HW132897   4.563   2.515   3.147 -0.4982  0.1175 -0.6117
 7087SOL    HW232898   4.460   2.405   3.116 -0.3692  1.1024 -0.3002
 7088SOL     OW32899   3.532   2.409   5.758  0.2525  0.3203  0.4251
 7088SOL    HW132900   3.510   2.355   5.681  0.8152  2.9509 -1.5926
 7088SOL    HW232901   3.598   2.460   5.711  0.9906 -0.5000  0.5816
 7089SOL     OW32902   2.458   3.065   8.289 -0.3977  0.4087 -0.3794
 7089SOL    HW132903   2.508   2.990   8.323 -0.1639 -0.5654 -2.8870
 7089SOL    HW232904   2.377   3.064   8.339 -0.3041  0.8874 -0.2181
 7090SOL     OW32905   3.151   2.371   4.706 -0.0626  0.2475  0.1388
 7090SOL    HW132906   3.117   2.421   4.632 -0.3902 -0.1349  0.0288
 7090SOL    HW232907   3.232   2.421   4.715  2.4272 -3.6577 -1.0539
 7091SOL     OW32908   2.412   0.013  16.335  0.5372  0.3493  0.1934
 7091SOL    HW132909   2.398   4.663  16.322 -2.4381  1.2563 -3.1311
 7091SOL    HW232910   2.359   0.051  16.405  0.3995 -0.1302  0.3515
 7092SOL     OW32911   4.609   0.868   8.658 -0.4425 -0.3283 -0.1904
 7092SOL    HW132912   4.600   0.814   8.737 -3.5911  0.4758  0.0349
 7092SOL    HW232913   4.565   0.813   8.593 -2.8744 -0.5071  1.6098
 7093SOL     OW32914   2.108   0.405   7.815 -0.2079 -0.3353 -0.6339
 7093SOL    HW132915   2.062   0.353   7.749  2.6594 -0.4374 -2.5964
 7093SOL    HW232916   2.196   0.395   7.778 -0.5894 -3.6721 -0.6009
 7094SOL     OW32917   3.019   3.044   7.498  0.6457  0.0973 -0.5647
 7094SOL    HW132918   2.966   3.012   7.425 -0.6324  2.0467 -0.4871
 7094SOL    HW232919   3.105   3.041   7.456  0.9871  2.1121  0.0140
 7095SOL     OW32920   1.863   1.199   7.727 -0.1720  0.1513  0.8191
 7095SOL    HW132921   1.891   1.278   7.774  3.1621  0.5029 -1.7893
 7095SOL    HW232922   1.911   1.128   7.771  2.0185  0.5406 -0.9753
 7096SOL     OW32923   3.393   3.517   2.816  0.5796 -0.0399  0.7759
 7096SOL    HW132924   3.342   3.475   2.886 -1.7868  0.2177 -0.8223
 7096SOL    HW232925   3.329   3.518   2.746  0.7468  2.1912  0.6750
 7097SOL     OW32926   0.914   2.611   6.415 -0.0821  0.3746 -0.4009
 7097SOL    HW132927   0.874   2.525   6.406  0.7841  0.0347 -1.0450
 7097SOL    HW232928   0.992   2.604   6.359 -0.3744 -1.5405 -0.5715
 7098SOL     OW32929   4.623   4.320   8.257 -0.4010 -0.0808 -0.0965
 7098SOL    HW132930   4.536   4.289   8.232 -0.2923  0.6115 -1.3280
 7098SOL    HW232931   4.604   4.412   8.276  0.2375  0.4314 -1.9578
 7099SOL     OW32932   2.475   2.084   9.244  0.0188  0.4481  0.3092
 7099SOL    HW132933   2.439   1.996   9.240  2.9688 -0.8247  1.1876
 7099SOL    HW232934   2.566   2.057   9.232 -0.9052 -3.1483  1.4354
 7100SOL     OW32935   0.399   1.489   4.442 -0.1311 -0.0271  0.0363
 7100SOL    HW132936   0.323   1.504   4.499  1.1577  2.3333  1.1494
 7100SOL    HW232937   0.472   1.495   4.504 -0.0571  0.8869 -0.1280
 7101SOL     OW32938   4.430   2.054   4.368  0.3627  0.3935 -0.3860
 7101SOL    HW132939   4.387   1.981   4.412 -1.0078  1.2576 -0.2758
 7101SOL    HW232940   4.523   2.032   4.366  0.4798  0.6443  1.9409
 7102SOL     OW32941   3.416   4.366   0.894 -0.1179 -0.0175 -0.5900
 7102SOL    HW132942   3.453   4.372   0.982  1.0406 -1.3016 -1.0046
 7102SOL    HW232943   3.363   4.287   0.898 -0.1034  0.0603  1.0082
 7103SOL     OW32944   0.458   3.661   1.616 -0.1096  0.4060 -0.0009
 7103SOL    HW132945   0.453   3.571   1.583 -1.1688  0.5507 -0.2608
 7103SOL    HW232946   0.429   3.714   1.542 -0.8479 -0.3980 -0.2842
 7104SOL     OW32947   0.035   2.888   5.297 -0.2689 -0.1955 -0.2375
 7104SOL    HW132948   0.092   2.845   5.360 -1.8833 -2.8460 -0.5738
 7104SOL    HW232949   0.001   2.806   5.259 -1.2483  0.2335 -0.3031
 7105SOL     OW32950   2.205   0.246   5.879  0.4720 -0.2549  0.1711
 7105SOL    HW132951   2.121   0.234   5.923  0.2715  0.0268 -0.1410
 7105SOL    HW232952   2.203   0.341   5.870  1.0844 -0.2951 -0.3702
 7106SOL     OW32953   3.766   0.329  12.534  0.0221 -0.2232 -0.0576
 7106SOL    HW132954   3.709   0.391  12.489 -0.0568 -1.6693 -1.9513
 7106SOL    HW232955   3.790   0.272  12.461 -0.0866  1.4614 -1.4160
 7107SOL     OW32956   4.662   3.598   3.028 -0.7051  0.2834 -0.7861
 7107SOL    HW132957   4.572   3.619   3.002 -0.0343 -0.8423 -3.9965
 7107SOL    HW232958   4.714   3.601   2.948 -2.5229  2.4427 -1.9019
 7108SOL     OW32959   1.759   3.931  12.544 -0.1783  0.1754 -0.5004
 7108SOL    HW132960   1.845   3.961  12.514  0.0547  0.4019  0.3906
 7108SOL    HW232961   1.706   4.011  12.541 -3.6736 -2.1782 -0.7606
 7109SOL     OW32962   0.273   3.578   4.800 -0.2799 -0.7689 -0.1022
 7109SOL    HW132963   0.256   3.616   4.714  2.2758 -0.1475 -0.3456
 7109SOL    HW232964   0.202   3.604   4.858  1.3978  2.1016  0.6899
 7110SOL     OW32965   0.171   0.266  12.877  0.6810 -0.0005 -0.3740
 7110SOL    HW132966   0.183   0.359  12.898 -0.4248  0.5029 -1.9339
 7110SOL    HW232967   0.091   0.268  12.825  0.1633  0.4315  0.4279
 7111SOL     OW32968   1.829   4.138   3.710 -0.1643 -0.3995 -0.3669
 7111SOL    HW132969   1.795   4.088   3.637  0.7903  1.1165 -1.8518
 7111SOL    HW232970   1.894   4.184   3.657 -3.6745  3.5801 -1.2741
 7112SOL     OW32971   0.132   3.356   8.436 -0.1932 -0.5319 -0.6179
 7112SOL    HW132972   0.165   3.280   8.483  1.1313  1.3119  1.4359
 7112SOL    HW232973   0.127   3.315   8.350  3.8043 -2.4639  0.0626
 7113SOL     OW32974   3.183   0.764   3.042 -1.0217 -0.0862  0.0567
 7113SOL    HW132975   3.262   0.715   3.017 -0.5732  0.2807  0.7522
 7113SOL    HW232976   3.193   0.747   3.135 -0.2462  1.9812  0.3384
 7114SOL     OW32977   4.203   0.233   6.332  0.6470 -0.2987  0.2124
 7114SOL    HW132978   4.251   0.151   6.336  0.8770 -0.1126  1.4399
 7114SOL    HW232979   4.260   0.296   6.376  1.4884 -1.2619  0.4841
 7115SOL     OW32980   2.682   0.027  14.112 -0.2741  0.0717  0.2051
 7115SOL    HW132981   2.695   4.706  14.042 -0.5006 -1.0311  1.1787
 7115SOL    HW232982   2.611   0.078  14.071  0.4363  0.5199 -0.4586
 7116SOL     OW32983   2.000   0.276   8.271 -0.3886 -0.1265  0.3102
 7116SOL    HW132984   2.094   0.258   8.279 -0.3513 -1.0116 -1.9493
 7116SOL    HW232985   1.978   0.279   8.364 -0.4887 -1.1429  0.3166
 7117SOL     OW32986   2.906   1.714   1.941 -0.5372  0.3715  0.2819
 7117SOL    HW132987   2.883   1.758   1.859  0.3070 -0.3483 -0.3368
 7117SOL    HW232988   2.828   1.737   1.992 -0.8183 -0.7286  0.3531
 7118SOL     OW32989   0.236   1.673   9.045  0.1386  0.1544 -0.1508
 7118SOL    HW132990   0.219   1.584   9.013 -0.7994  0.8236 -1.5165
 7118SOL    HW232991   0.199   1.723   8.972 -0.6791  2.4127  1.8006
 7119SOL     OW32992   0.123   0.237   2.669 -0.0607 -0.3881 -0.6994
 7119SOL    HW132993   0.189   0.236   2.739 -0.6435  0.9755 -0.1432
 7119SOL    HW232994   0.184   0.221   2.597  0.9369 -1.0893  0.2897
 7120SOL     OW32995   2.640   1.609  15.949 -0.0741  0.2377 -0.0723
 7120SOL    HW132996   2.654   1.618  16.043  1.0311  0.4150 -0.2493
 7120SOL    HW232997   2.728   1.579  15.926  0.3537  0.5296  1.1531
 7121SOL     OW32998   0.963   4.741  12.782  0.0353  0.2672 -0.3875
 7121SOL    HW132999   1.045   4.693  12.769  1.1618  2.5572 -1.7773
 7121SOL    HW233000   0.935   4.704  12.865  0.8995 -0.7171 -0.5435
 7122SOL     OW33001   2.155   1.661   0.858  0.4459 -0.2827 -0.2420
 7122SOL    HW133002   2.145   1.747   0.819 -1.7016 -0.8108 -0.8593
 7122SOL    HW233003   2.063   1.649   0.880  0.8251 -2.0204  0.4389
 7123SOL     OW33004   3.581   2.281  11.710 -0.3387 -0.0655  0.2867
 7123SOL    HW133005   3.501   2.245  11.748  0.1484 -0.7247  0.6803
 7123SOL    HW233006   3.578   2.236  11.625 -0.3970 -1.4995  1.0580
 7124SOL     OW33007   3.567   3.702   2.566 -0.4978 -0.1490  0.5204
 7124SOL    HW133008   3.575   3.682   2.659 -0.0995  1.5572  0.8590
 7124SOL    HW233009   3.507   3.635   2.534 -3.0774  2.3545  0.0887
 7125SOL     OW33010   1.461   2.709  10.758  0.9544  0.1961 -0.2149
 7125SOL    HW133011   1.495   2.622  10.737  0.9862  0.1839 -0.1130
 7125SOL    HW233012   1.540   2.745  10.797  1.1718 -0.0314 -0.4440
 7126SOL     OW33013   3.769   0.017  11.996  0.5676  0.2049  0.1277
 7126SOL    HW133014   3.822   4.699  11.944  0.6209  0.6330 -0.3218
 7126SOL    HW233015   3.693   0.018  11.939  1.1021  0.8260 -0.5752
 7127SOL     OW33016   4.523   1.827   1.775 -0.1936  0.3244  0.0016
 7127SOL    HW133017   4.584   1.787   1.713  1.2390  1.8425  0.4428
 7127SOL    HW233018   4.573   1.872   1.843 -0.8672  0.6741  0.2605
 7128SOL     OW33019   3.509   1.768  16.758 -0.2224 -0.2141  0.0877
 7128SOL    HW133020   3.506   1.729  16.670  1.3701 -2.0976  0.8707
 7128SOL    HW233021   3.597   1.803  16.766 -0.8936  1.6849 -0.9183
 7129SOL     OW33022   2.615   2.850   8.383 -0.1712  0.7954 -0.3445
 7129SOL    HW133023   2.678   2.874   8.315  0.6330  3.0352  1.1582
 7129SOL    HW233024   2.589   2.767   8.344 -1.4630  0.5672  1.0339
 7130SOL     OW33025   3.136   4.222   3.838 -0.0815  0.1630 -0.4233
 7130SOL    HW133026   3.062   4.171   3.872  0.8413 -1.0670 -0.2651
 7130SOL    HW233027   3.208   4.161   3.853  0.9531  1.2249 -1.1467
 7131SOL     OW33028   1.053   3.981   4.598 -0.2554  0.1987  0.2360
 7131SOL    HW133029   1.046   3.885   4.598  0.7997  0.1215  1.8880
 7131SOL    HW233030   0.973   3.995   4.548 -0.8350 -1.0832  0.8252
 7132SOL     OW33031   2.674   0.472   4.916 -0.2404  0.4122  0.5551
 7132SOL    HW133032   2.586   0.477   4.877  0.4768  0.0123 -1.1440
 7132SOL    HW233033   2.662   0.488   5.009 -1.7534  0.2998  0.3932
 7133SOL     OW33034   3.478   2.089   6.853  0.4780 -0.0849 -0.2056
 7133SOL    HW133035   3.570   2.064   6.868 -0.3262 -0.2216  4.5297
 7133SOL    HW233036   3.484   2.131   6.767 -0.5147 -0.2528 -0.3526
 7134SOL     OW33037   1.770   2.005   4.372 -0.0977  0.1149  0.4676
 7134SOL    HW133038   1.710   1.941   4.333  2.4881 -1.5881 -0.7456
 7134SOL    HW233039   1.837   2.016   4.304 -0.5906 -0.1935 -0.0735
 7135SOL     OW33040   4.093   2.147   7.063 -0.7003  0.4325  0.7632
 7135SOL    HW133041   4.017   2.088   7.057 -0.8377  0.6474  0.3629
 7135SOL    HW233042   4.152   2.091   7.014 -0.7131  0.4586  0.7184
 7136SOL     OW33043   1.441   0.630   7.822  0.2438 -0.0010  0.1056
 7136SOL    HW133044   1.526   0.610   7.783  0.5869  1.1843  0.2447
 7136SOL    HW233045   1.475   0.663   7.905  1.6471  0.2167 -0.5542
 7137SOL     OW33046   0.351   2.839   5.806 -0.2111  0.3068  0.5738
 7137SOL    HW133047   0.444   2.824   5.795  0.4727  2.7273  3.0103
 7137SOL    HW233048   0.334   2.818   5.898  0.2818 -0.1726  0.5492
 7138SOL     OW33049   4.337   1.645   6.138 -0.2595  0.6763 -0.1981
 7138SOL    HW133050   4.422   1.644   6.183 -0.3495 -0.1121 -0.0438
 7138SOL    HW233051   4.344   1.555   6.106  1.8064 -0.0305  2.1844
 7139SOL     OW33052   3.989   0.594   2.347 -0.1073 -0.2527 -0.3321
 7139SOL    HW133053   4.066   0.639   2.312  0.1820 -0.5327 -0.0549
 7139SOL    HW233054   4.006   0.516   2.295  2.2542  0.3600 -0.5137
 7140SOL     OW33055   0.192   1.867   1.423 -0.4746 -0.0656 -0.4678
 7140SOL    HW133056   0.221   1.863   1.332 -2.3219 -0.6831 -1.0242
 7140SOL    HW233057   0.164   1.779   1.449 -0.9140  0.1462 -0.2243
 7141SOL     OW33058   3.246   4.155   6.710  0.0014  0.0543 -0.0455
 7141SOL    HW133059   3.314   4.223   6.710  0.5794 -0.5164 -0.8197
 7141SOL    HW233060   3.191   4.164   6.788  2.0607 -2.6623  1.7043
 7142SOL     OW33061   0.708   0.482   3.531 -0.0127 -0.5443 -0.3412
 7142SOL    HW133062   0.693   0.390   3.553 -3.2091  0.7528  2.8762
 7142SOL    HW233063   0.784   0.501   3.585 -0.2082 -1.0409  0.1054
 7143SOL     OW33064   1.942   3.124   5.103 -0.2443  0.1074 -0.2036
 7143SOL    HW133065   1.969   3.124   5.195 -0.9495  0.4508  0.0057
 7143SOL    HW233066   1.856   3.087   5.122  0.1325 -1.2334 -1.0715
 7144SOL     OW33067   0.268   2.775   6.444 -0.9337 -0.1367  0.5948
 7144SOL    HW133068   0.222   2.722   6.379 -0.2418  1.4027 -1.1749
 7144SOL    HW233069   0.284   2.851   6.387 -0.5619 -1.3927 -0.9950
 7145SOL     OW33070   0.940   1.466   1.026 -0.1365 -0.2866  0.5395
 7145SOL    HW133071   0.894   1.412   1.090  0.4496  0.1106  1.2848
 7145SOL    HW233072   0.987   1.402   0.971  0.8821 -1.1901  2.4757
 7146SOL     OW33073   0.024   0.308   0.745 -0.4278 -0.6793 -0.4733
 7146SOL    HW133074   0.109   0.346   0.766 -0.9462  0.1816  0.0736
 7146SOL    HW233075   4.721   0.374   0.692 -1.4180 -0.6673  0.3958
 7147SOL     OW33076   4.563   3.891   7.612 -0.2759 -0.2843  0.3316
 7147SOL    HW133077   4.574   3.796   7.606  1.3051 -0.0799 -0.1176
 7147SOL    HW233078   4.607   3.909   7.529 -0.2276  1.0912  0.6587
 7148SOL     OW33079   3.236   4.596   2.771 -0.9856  0.4870 -0.2680
 7148SOL    HW133080   3.245   4.600   2.867 -0.7613 -1.4816 -0.2092
 7148SOL    HW233081   3.213   4.503   2.766  1.6543 -0.3577  3.2736
 7149SOL     OW33082   3.672   3.831   0.187  0.0083 -0.2283 -0.3781
 7149SOL    HW133083   3.663   3.742   0.153  1.6311 -1.5013  2.5035
 7149SOL    HW233084   3.646   3.827   0.279  3.3407  1.9517  0.6664
 7150SOL     OW33085   3.028   2.207   1.547 -0.0167  0.4121  0.1167
 7150SOL    HW133086   2.965   2.226   1.477  0.1791 -0.8555 -0.4170
 7150SOL    HW233087   3.006   2.282   1.601 -0.3344  0.0127  0.5408
 7151SOL     OW33088   2.638   3.385   4.088  0.2047 -0.2493 -0.0946
 7151SOL    HW133089   2.569   3.328   4.057 -0.1312 -0.2926  0.7222
 7151SOL    HW233090   2.613   3.470   4.051  1.5967 -1.8308 -4.5980
 7152SOL     OW33091   0.685   2.700   3.766 -0.0137 -0.6097 -0.9622
 7152SOL    HW133092   0.626   2.734   3.698 -0.9443 -1.2931 -0.5039
 7152SOL    HW233093   0.624   2.688   3.839 -1.5450  1.7383 -1.8660
 7153SOL     OW33094   1.631   1.459   7.639  0.3829 -0.6172 -0.2319
 7153SOL    HW133095   1.697   1.528   7.647 -0.4333  0.4005 -2.2635
 7153SOL    HW233096   1.560   1.517   7.610  1.1613  0.3143 -0.2635
 7154SOL     OW33097   4.565   1.633  14.335 -0.1452 -0.1676  0.2093
 7154SOL    HW133098   4.479   1.595  14.349  0.7787 -2.3832  0.0310
 7154SOL    HW233099   4.558   1.719  14.376 -0.9204 -1.3111  2.4492
 7155SOL     OW33100   3.996   3.237  13.390  0.2868 -0.2776  0.5475
 7155SOL    HW133101   4.024   3.186  13.467  1.3481 -0.2990  0.1444
 7155SOL    HW233102   3.911   3.274  13.413  0.0890 -0.6027  0.3328
 7156SOL     OW33103   2.084   0.210   0.715 -0.5196  0.7181  0.0161
 7156SOL    HW133104   2.168   0.204   0.670 -0.7315  0.2473 -0.3215
 7156SOL    HW233105   2.096   0.139   0.777 -0.2474 -0.7665 -1.7478
 7157SOL     OW33106   2.277   1.274   1.913  0.1575  0.9233 -0.4379
 7157SOL    HW133107   2.303   1.229   1.833 -1.6003 -0.3464 -0.3080
 7157SOL    HW233108   2.352   1.262   1.971  1.5031 -2.1386 -2.8278
 7158SOL     OW33109   3.327   1.270  11.528 -0.4438  0.0165 -0.3442
 7158SOL    HW133110   3.379   1.321  11.589 -0.6871 -0.1701  0.0269
 7158SOL    HW233111   3.338   1.316  11.445 -0.5434  2.3869  0.9501
 7159SOL     OW33112   2.264   0.715   5.364 -0.2812  0.3984  0.9767
 7159SOL    HW133113   2.268   0.619   5.364  1.0939  0.4561 -1.3763
 7159SOL    HW233114   2.308   0.734   5.281 -1.9591  1.4936  0.3500
 7160SOL     OW33115   1.383   1.256   7.106  0.0313  0.4924 -0.6682
 7160SOL    HW133116   1.321   1.318   7.069 -1.3908  0.2723  1.3152
 7160SOL    HW233117   1.400   1.292   7.193  0.2173 -0.9234 -0.1205
 7161SOL     OW33118   0.978   1.581   9.616 -0.6126 -0.3193 -0.4759
 7161SOL    HW133119   0.946   1.506   9.565 -0.9922  1.2465 -2.5140
 7161SOL    HW233120   0.954   1.657   9.564 -0.0148  2.6702  3.6403
 7162SOL     OW33121   0.307   0.904   2.434 -0.4743  0.0856  0.3124
 7162SOL    HW133122   0.259   0.924   2.514  0.0720 -2.4236  1.2574
 7162SOL    HW233123   0.366   0.980   2.442 -0.3392  0.2095 -1.8904
 7163SOL     OW33124   0.274   3.292   4.784 -0.8719 -0.6073  0.6492
 7163SOL    HW133125   0.180   3.302   4.773 -0.6847 -0.9919 -1.3296
 7163SOL    HW233126   0.302   3.378   4.753 -0.9252 -0.8918 -0.2035
 7164SOL     OW33127   2.158   0.993   6.489 -0.0147 -0.1584 -0.1073
 7164SOL    HW133128   2.247   1.018   6.462  0.3999 -1.6151 -0.0556
 7164SOL    HW233129   2.181   0.968   6.578  0.8938 -2.0349 -0.8711
 7165SOL     OW33130   0.902   1.272   9.729  0.0760 -0.3373 -0.1071
 7165SOL    HW133131   0.935   1.332   9.662  1.3605 -0.2045  0.6334
 7165SOL    HW233132   0.813   1.264   9.696 -0.1199 -2.2313  0.8458
 7166SOL     OW33133   3.554   3.699   1.785 -0.4374 -0.7924 -0.3732
 7166SOL    HW133134   3.629   3.644   1.807 -0.5402 -0.9515 -0.4231
 7166SOL    HW233135   3.521   3.730   1.869 -0.6982 -2.4234  0.1092
 7167SOL     OW33136   2.854   0.964   3.770 -0.2220 -0.4934 -0.0968
 7167SOL    HW133137   2.874   0.919   3.688  1.1114 -0.0337 -0.0146
 7167SOL    HW233138   2.938   1.002   3.797  0.5580 -0.9308 -1.9135
 7168SOL     OW33139   0.885   1.160   3.689  0.2565  0.5537  0.2122
 7168SOL    HW133140   0.965   1.131   3.733 -0.2634  0.9756  1.4399
 7168SOL    HW233141   0.908   1.251   3.666  0.5889  0.2818 -0.5559
 7169SOL     OW33142   3.134   1.641   1.800 -0.0519 -0.3493  0.2221
 7169SOL    HW133143   3.040   1.647   1.820  0.0158 -1.5765  0.8601
 7169SOL    HW233144   3.147   1.731   1.769 -1.2708 -0.0221  0.6401
 7170SOL     OW33145   3.804   0.930   6.433  0.3952 -0.4583 -0.4762
 7170SOL    HW133146   3.757   1.010   6.411  0.6052 -0.1747  0.1023
 7170SOL    HW233147   3.778   0.863   6.369 -2.3105 -1.0509  1.2081
 7171SOL     OW33148   4.419   4.169  17.758 -0.2260 -0.3092 -0.5283
 7171SOL    HW133149   4.471   4.132   0.059 -1.0215  1.6614  1.0925
 7171SOL    HW233150   4.446   4.260  17.768 -1.6733  0.0948 -0.1803
 7172SOL     OW33151   3.617   2.135   8.880 -0.1000 -0.0394  0.6549
 7172SOL    HW133152   3.667   2.092   8.811  0.3950 -1.2048  1.7404
 7172SOL    HW233153   3.666   2.112   8.959  0.1588  1.2601  0.8693
 7173SOL     OW33154   1.872   3.858   9.154  0.3210  0.4276  0.5398
 7173SOL    HW133155   1.867   3.910   9.234 -0.9921 -1.6002  1.7671
 7173SOL    HW233156   1.790   3.884   9.111  1.3554 -0.6634 -2.0541
 7174SOL     OW33157   3.202   2.222   5.989  0.6079 -0.5295 -0.3919
 7174SOL    HW133158   3.226   2.229   5.897 -0.6365 -1.2524 -0.7725
 7174SOL    HW233159   3.174   2.130   5.988  0.0858 -0.3720 -0.2739
 7175SOL     OW33160   4.508   0.676   3.011 -0.0819  0.0320  1.1455
 7175SOL    HW133161   4.552   0.754   3.043  2.1576 -1.0229  0.6682
 7175SOL    HW233162   4.430   0.676   3.067  0.3965  1.0572  1.8111
 7176SOL     OW33163   2.105   1.496   2.270  0.0807 -0.6961 -0.1302
 7176SOL    HW133164   2.176   1.475   2.331  0.8381  0.5413 -0.5751
 7176SOL    HW233165   2.125   1.589   2.261 -1.0840 -0.1396  3.0034
 7177SOL     OW33166   2.990   3.802   2.886  0.7527  0.1338 -0.4228
 7177SOL    HW133167   2.994   3.719   2.932 -0.8775 -0.2654 -1.0072
 7177SOL    HW233168   3.010   3.866   2.955 -0.9075  0.7013 -0.4605
 7178SOL     OW33169   3.612   4.113  14.749 -0.2694 -0.2237  0.1036
 7178SOL    HW133170   3.565   4.100  14.831 -1.9053 -1.4934 -1.0314
 7178SOL    HW233171   3.594   4.030  14.704  1.7896 -0.0529 -1.0224
 7179SOL     OW33172   1.639   2.501   8.775 -0.5818 -0.5545  0.0683
 7179SOL    HW133173   1.690   2.423   8.797 -0.4016 -0.7117 -0.8737
 7179SOL    HW233174   1.709   2.556   8.739  0.0634 -0.4635  1.4708
 7180SOL     OW33175   1.733   2.638  13.379 -0.1620  0.0141 -0.1234
 7180SOL    HW133176   1.707   2.691  13.303 -0.5105 -1.0403 -0.7432
 7180SOL    HW233177   1.801   2.591  13.329  0.5525  1.5693 -0.5989
 7181SOL     OW33178   4.467   0.660   2.258 -0.0322  0.0249 -0.2230
 7181SOL    HW133179   4.400   0.728   2.255 -0.5222 -0.3699  2.3523
 7181SOL    HW233180   4.537   0.694   2.314  1.5729 -0.7197 -1.7723
 7182SOL     OW33181   4.145   3.003   5.946 -0.3653 -0.2982  0.5630
 7182SOL    HW133182   4.156   3.053   5.865  1.5400 -1.4754  0.0925
 7182SOL    HW233183   4.223   2.948   5.938 -0.9638 -0.7425 -2.2993
 7183SOL     OW33184   3.238   4.394   4.304 -0.3603 -0.6175  0.0189
 7183SOL    HW133185   3.176   4.323   4.324  0.4399 -1.0986  0.7959
 7183SOL    HW233186   3.181   4.470   4.314  1.3821  0.9525 -1.8317
 7184SOL     OW33187   1.557   4.220   8.188  0.0955 -0.0928 -0.2859
 7184SOL    HW133188   1.586   4.295   8.240  2.0102 -2.1198  1.6333
 7184SOL    HW233189   1.532   4.168   8.265  0.6470 -2.0289 -1.3941
 7185SOL     OW33190   3.386   2.653   0.417 -0.1697 -0.5585  0.3549
 7185SOL    HW133191   3.434   2.734   0.398 -1.3856 -0.6350 -2.9790
 7185SOL    HW233192   3.346   2.664   0.504 -2.3747  0.7571 -0.8283
 7186SOL     OW33193   3.995   0.383  17.345 -0.0090  0.1338 -0.0878
 7186SOL    HW133194   4.037   0.441  17.280  0.9593 -0.2590  0.1958
 7186SOL    HW233195   4.045   0.410  17.422  0.0388 -0.9354  0.2501
 7187SOL     OW33196   2.361   3.756   1.489 -0.1748  0.3917  0.2705
 7187SOL    HW133197   2.374   3.804   1.571 -0.7257 -1.4313  1.4325
 7187SOL    HW233198   2.324   3.825   1.435  2.9343  0.4871 -1.7182
 7188SOL     OW33199   4.652   4.221   3.074 -0.9226 -0.1949  0.7124
 7188SOL    HW133200   4.590   4.175   3.130  0.9908 -0.6368  2.4882
 7188SOL    HW233201   4.647   4.313   3.101 -0.4778  0.3430 -1.0354
 7189SOL     OW33202   1.271   2.999   1.967  0.0956  0.0973  0.2374
 7189SOL    HW133203   1.245   3.079   1.923  1.1988  1.4160  1.9899
 7189SOL    HW233204   1.284   2.942   1.891  1.6546  0.2073  0.4099
 7190SOL     OW33205   4.007   2.119   8.805  0.4979  0.1860 -0.3874
 7190SOL    HW133206   3.989   2.101   8.897  0.3355  1.7695 -0.0948
 7190SOL    HW233207   3.920   2.096   8.773 -0.1171 -0.7756  2.0444
 7191SOL     OW33208   2.716   2.032  14.412  0.4324 -0.1479 -0.3059
 7191SOL    HW133209   2.703   1.945  14.375  0.3889  0.1427 -0.9874
 7191SOL    HW233210   2.664   2.084  14.350  1.0167  1.3643  0.4823
 7192SOL     OW33211   1.969   3.048   5.687  0.0294  0.0159  0.4214
 7192SOL    HW133212   1.931   2.981   5.744 -0.7346  0.2026  0.1387
 7192SOL    HW233213   2.026   2.993   5.633  2.0855  1.6590  0.9518
 7193SOL     OW33214   3.402   1.718   9.211  0.0812  0.3575 -0.1185
 7193SOL    HW133215   3.442   1.794   9.168  0.0106  0.4933  0.0564
 7193SOL    HW233216   3.326   1.756   9.254  0.0867  0.7590 -0.4652
 7194SOL     OW33217   0.260   4.293   6.535  0.1444  0.5367 -0.4008
 7194SOL    HW133218   0.303   4.307   6.451  0.2450  0.1549 -0.4099
 7194SOL    HW233219   0.309   4.216   6.564 -1.3499 -0.6887 -1.1590
 7195SOL     OW33220   0.768   0.408  11.484 -0.5943 -0.2871 -0.5218
 7195SOL    HW133221   0.852   0.453  11.494 -0.1001 -0.8402 -2.1839
 7195SOL    HW233222   0.721   0.434  11.563 -0.9834 -2.2082 -0.1428
 7196SOL     OW33223   1.601   4.442   0.234  0.7275 -0.0372 -0.1851
 7196SOL    HW133224   1.558   4.455   0.318  2.9890 -0.2281  1.0217
 7196SOL    HW233225   1.609   4.534   0.210  0.1191  0.3393  1.0587
 7197SOL     OW33226   0.501   1.038   5.428  0.2650  0.1017  0.2346
 7197SOL    HW133227   0.573   1.088   5.465 -0.2075 -0.4761  1.9507
 7197SOL    HW233228   0.549   0.962   5.394  1.2794  0.8122  0.0892
 7198SOL     OW33229   3.036   2.829   8.050 -0.3324 -0.0497 -0.9313
 7198SOL    HW133230   2.953   2.832   8.098  0.6619  1.0470  0.6953
 7198SOL    HW233231   3.029   2.748   7.999 -1.0953  0.6641 -1.9729
 7199SOL     OW33232   2.608   2.769   0.415 -0.1988 -0.1294 -0.2548
 7199SOL    HW133233   2.552   2.776   0.492 -1.2765 -1.0672 -0.9597
 7199SOL    HW233234   2.688   2.751   0.464  1.6906  1.7444 -2.6575
 7200SOL     OW33235   0.163   0.879   6.881  0.3012  0.2318 -0.1376
 7200SOL    HW133236   0.226   0.950   6.894 -1.3151  1.4460  1.0831
 7200SOL    HW233237   0.123   0.868   6.968  1.0369  2.0411  0.4291
 7201SOL     OW33238   3.318   0.500   7.537  0.1571  0.8110  0.8299
 7201SOL    HW133239   3.346   0.592   7.530 -2.2056  1.4435 -0.2572
 7201SOL    HW233240   3.256   0.510   7.464 -0.7088 -1.7683  1.2014
 7202SOL     OW33241   1.064   2.237   6.262  0.3593  0.3893  0.3090
 7202SOL    HW133242   1.037   2.267   6.176 -0.7483 -0.0235  0.5091
 7202SOL    HW233243   0.992   2.270   6.315  1.3091  0.8396  1.3283
 7203SOL     OW33244   2.627   0.428  14.936  0.9581  0.2851 -1.0010
 7203SOL    HW133245   2.588   0.514  14.919  0.8150  0.5668  0.7433
 7203SOL    HW233246   2.644   0.431  15.031 -2.0877 -0.7797 -0.4282
 7204SOL     OW33247   1.462   1.378   3.126 -1.1321  0.3333 -0.2269
 7204SOL    HW133248   1.552   1.407   3.114 -0.5484 -0.1924  2.9547
 7204SOL    HW233249   1.447   1.335   3.042 -1.0758  2.5699 -1.3985
 7205SOL     OW33250   3.251   1.068   2.771  0.1097  0.0616 -0.1877
 7205SOL    HW133251   3.347   1.075   2.767  0.0681 -1.2199 -3.3635
 7205SOL    HW233252   3.221   1.152   2.737  2.1732  1.8154  2.2809
 7206SOL     OW33253   0.016   2.477   8.814 -0.1570  0.3044 -0.1460
 7206SOL    HW133254   4.681   2.441   8.771 -0.3907 -1.1611  1.5265
 7206SOL    HW233255   4.735   2.568   8.832 -0.3152  0.6143 -1.9582
 7207SOL     OW33256   3.530   0.046   6.643 -0.1948  0.2978 -0.3664
 7207SOL    HW133257   3.481   0.125   6.665 -0.7485 -0.4865  1.1929
 7207SOL    HW233258   3.611   0.070   6.689  0.1418 -2.2900  0.3896
 7208SOL     OW33259   4.598   0.506   6.840  0.8887  0.0503 -0.1175
 7208SOL    HW133260   4.595   0.555   6.758 -0.1454  2.1465  1.1578
 7208SOL    HW233261   4.574   0.575   6.902 -0.7401  0.9924 -1.7582
 7209SOL     OW33262   3.276   2.945  15.099  0.0210 -0.3645  0.0409
 7209SOL    HW133263   3.302   2.966  15.189  0.0864  0.9510 -0.2884
 7209SOL    HW233264   3.362   2.940  15.058  0.2673 -0.8880  0.6134
 7210SOL     OW33265   3.746   1.921   5.896 -0.2425  0.3325  0.1242
 7210SOL    HW133266   3.734   2.015   5.884  5.1039  1.1605  1.1694
 7210SOL    HW233267   3.842   1.923   5.895 -0.3359  2.3394 -2.4946
 7211SOL     OW33268   1.407   3.017   5.661 -0.3467  0.0770 -0.1063
 7211SOL    HW133269   1.493   3.030   5.701 -0.4046  1.3424 -0.4084
 7211SOL    HW233270   1.406   2.927   5.627 -3.7844  0.0010  0.1582
 7212SOL     OW33271   4.301   3.436   8.749 -0.1155  0.1243  0.7173
 7212SOL    HW133272   4.371   3.422   8.813  0.3026  2.2309  0.7344
 7212SOL    HW233273   4.277   3.527   8.767 -2.4649 -0.0576 -1.4982
 7213SOL     OW33274   4.020   1.493  11.417  0.2889 -1.2075  0.3311
 7213SOL    HW133275   3.973   1.465  11.495  0.2161  2.3487  1.5801
 7213SOL    HW233276   3.988   1.579  11.390  0.8612 -1.4193 -1.0638
 7214SOL     OW33277   2.802   1.336   4.821 -0.5418  0.0153 -0.1010
 7214SOL    HW133278   2.839   1.323   4.909 -1.2195 -0.1205  0.1598
 7214SOL    HW233279   2.823   1.255   4.774  1.4709 -0.5753  1.8228
 7215SOL     OW33280   1.305   0.922   5.885  0.3106 -0.4694  0.2408
 7215SOL    HW133281   1.258   0.866   5.946  1.6908 -0.4515  1.3320
 7215SOL    HW233282   1.396   0.895   5.895  0.5117  0.6310  1.4254
 7216SOL     OW33283   2.978   2.041  12.796 -0.2055 -0.3307  0.0613
 7216SOL    HW133284   2.914   2.005  12.857  0.7544 -1.4062  0.4354
 7216SOL    HW233285   3.008   1.961  12.752 -0.6696 -0.2276 -0.4474
 7217SOL     OW33286   4.211   3.954   2.191  0.0909 -0.4531  0.0092
 7217SOL    HW133287   4.184   4.045   2.204 -2.0128 -0.8288 -1.8430
 7217SOL    HW233288   4.145   3.908   2.244 -1.2221  2.1587  0.6636
 7218SOL     OW33289   4.177   2.057   6.432  0.2425 -0.1223  0.7955
 7218SOL    HW133290   4.183   1.999   6.356  2.0673  1.8532 -0.5727
 7218SOL    HW233291   4.146   2.135   6.386  1.5239  0.0216  0.1668
 7219SOL     OW33292   2.184   2.186   8.414 -0.1733 -0.3080  0.2922
 7219SOL    HW133293   2.139   2.254   8.364 -2.7482 -0.6575  2.1517
 7219SOL    HW233294   2.181   2.115   8.350  0.0869  2.0949 -2.3900
 7220SOL     OW33295   2.544   2.850   3.937  0.8770 -0.1043  0.5346
 7220SOL    HW133296   2.608   2.918   3.915 -2.3946  2.3422 -1.3381
 7220SOL    HW233297   2.607   2.779   3.952  1.5229  0.1847 -0.8938
 7221SOL     OW33298   4.664   0.012   8.594  0.7512 -0.3136 -0.5270
 7221SOL    HW133299   4.684   4.702   8.671 -0.0692  0.7628  0.4386
 7221SOL    HW233300   4.730   0.081   8.603  1.6514 -1.5998  2.8451
 7222SOL     OW33301   0.911   1.654   5.245  0.2199 -0.2369  0.2465
 7222SOL    HW133302   0.847   1.716   5.281  0.6139  1.0439 -1.1948
 7222SOL    HW233303   0.855   1.581   5.219  0.8473 -0.7916  0.4749
 7223SOL     OW33304   4.527   2.058   5.623 -0.4593 -0.2068 -0.0771
 7223SOL    HW133305   4.433   2.046   5.636 -0.4736 -0.4311 -0.3794
 7223SOL    HW233306   4.566   2.062   5.710 -0.7338 -1.8388  0.1263
 7224SOL     OW33307   0.708   3.829   1.384 -0.1226 -0.3909 -0.3841
 7224SOL    HW133308   0.728   3.846   1.292  1.4329 -1.4226 -0.2408
 7224SOL    HW233309   0.698   3.733   1.380  1.9484 -0.5363 -2.0566
 7225SOL     OW33310   3.930   2.788   8.379  0.1385  0.0622  0.1435
 7225SOL    HW133311   3.996   2.811   8.314  3.3455  0.1975  3.4561
 7225SOL    HW233312   3.982   2.748   8.447 -1.9442 -1.4426  0.8527
 7226SOL     OW33313   1.256   2.080  16.231 -0.5225  0.1626 -0.4640
 7226SOL    HW133314   1.259   2.172  16.259  2.5807  0.3831 -1.4716
 7226SOL    HW233315   1.198   2.043  16.298  1.1230 -0.3130  0.7083
 7227SOL     OW33316   0.661   0.191   8.450 -0.1838 -0.0077  0.1710
 7227SOL    HW133317   0.650   0.107   8.405 -0.9172 -0.2118  0.7339
 7227SOL    HW233318   0.628   0.246   8.379  1.3052 -0.5261 -0.9151
 7228SOL     OW33319   0.192   3.122   2.364  0.2764 -0.1956 -0.0488
 7228SOL    HW133320   0.127   3.155   2.301  1.1176 -0.1847 -0.9124
 7228SOL    HW233321   0.250   3.199   2.361  0.7773 -0.5468  0.6479
 7229SOL     OW33322   1.111   2.186   2.929  0.0152  0.1498 -0.2144
 7229SOL    HW133323   1.072   2.179   2.843 -2.7906  1.6024  0.9564
 7229SOL    HW233324   1.031   2.192   2.981  0.8855 -0.0376  1.1511
 7230SOL     OW33325   0.025   3.517  10.849  0.3916  0.2749  0.0430
 7230SOL    HW133326   0.057   3.605  10.873  0.9143  0.2622 -0.6185
 7230SOL    HW233327   0.000   3.527  10.757 -1.0029 -1.1313  0.2769
 7231SOL     OW33328   3.212   4.293   3.435 -0.7157 -0.3693  0.6281
 7231SOL    HW133329   3.303   4.264   3.442 -0.6047 -0.0504  0.4821
 7231SOL    HW233330   3.187   4.242   3.358 -1.9469 -1.0750  1.5052
 7232SOL     OW33331   1.980   0.010   9.119 -0.7596 -0.4540  0.2506
 7232SOL    HW133332   2.012   4.701   9.193  0.6996  1.6259  1.0750
 7232SOL    HW233333   1.985   4.682   9.056  1.2559 -0.3491  0.2970
 7233SOL     OW33334   0.615   3.607   0.578 -1.2097  0.7426  0.5471
 7233SOL    HW133335   0.607   3.668   0.651 -1.2232  2.2028 -0.6673
 7233SOL    HW233336   0.679   3.656   0.526 -0.6694 -1.2071 -0.6372
 7234SOL     OW33337   0.865   2.167   3.053 -0.1711  0.4515  0.4323
 7234SOL    HW133338   0.802   2.141   2.985 -0.1718  0.3166  0.4842
 7234SOL    HW233339   0.821   2.242   3.092 -2.3521 -0.4266 -0.3406
 7235SOL     OW33340   2.674   1.886   3.453 -0.3336 -0.3041  0.1128
 7235SOL    HW133341   2.624   1.952   3.501 -1.6067 -1.1564 -0.0590
 7235SOL    HW233342   2.623   1.806   3.462  1.0858 -1.4867 -2.4322
 7236SOL     OW33343   1.672   3.640   1.952  0.2073 -0.4184  0.2133
 7236SOL    HW133344   1.631   3.684   2.026 -0.0163 -1.1846  0.5403
 7236SOL    HW233345   1.733   3.578   1.993 -0.3768 -0.5571  0.8602
 7237SOL     OW33346   0.484   1.054   9.000  0.0992  0.3367  0.0765
 7237SOL    HW133347   0.407   1.086   8.953 -0.3812 -0.4953  0.3116
 7237SOL    HW233348   0.538   1.130   8.976  0.2396  0.0286 -0.5845
 7238SOL     OW33349   0.953   3.824   3.411  0.2718  0.0223  0.1722
 7238SOL    HW133350   1.009   3.829   3.489  0.7369 -1.3548 -0.0765
 7238SOL    HW233351   0.900   3.747   3.432 -1.0795  0.1065 -2.9794
 7239SOL     OW33352   3.559   4.681   1.827  0.0557  0.2891 -0.1800
 7239SOL    HW133353   3.643   4.666   1.869 -0.2534 -0.2659  0.2478
 7239SOL    HW233354   3.576   0.009   1.766  1.6439  1.0088  1.0932
 7240SOL     OW33355   1.186   0.917   4.469 -0.6835 -0.1484 -0.6877
 7240SOL    HW133356   1.215   0.998   4.509 -0.2165 -0.0444 -1.2336
 7240SOL    HW233357   1.138   0.952   4.394  1.9266  0.7776 -1.9244
 7241SOL     OW33358   3.532   3.918   5.177  0.2182 -0.0464 -0.0232
 7241SOL    HW133359   3.587   3.946   5.104 -0.4439 -1.9236 -1.2520
 7241SOL    HW233360   3.595   3.890   5.242  0.3295 -0.3322 -0.2555
 7242SOL     OW33361   3.042   4.027  11.056 -0.2449 -0.2283  0.3389
 7242SOL    HW133362   3.089   4.008  10.975 -0.6358 -1.9570  0.5216
 7242SOL    HW233363   3.102   4.084  11.104 -1.4328 -1.2465  3.0417
 7243SOL     OW33364   3.022   4.447   3.070 -0.2113  0.4271  0.1171
 7243SOL    HW133365   2.994   4.439   3.161 -1.3901  0.7703 -0.2203
 7243SOL    HW233366   3.104   4.397   3.067 -1.3696 -1.4262 -0.3783
 7244SOL     OW33367   0.447   3.656   2.217  0.0351 -0.2445  0.4444
 7244SOL    HW133368   0.374   3.609   2.177 -0.2311 -0.1061  0.7719
 7244SOL    HW233369   0.489   3.697   2.142  1.7380  1.4653  2.3123
 7245SOL     OW33370   3.185   1.083   6.105  0.1445  0.5518  0.0085
 7245SOL    HW133371   3.192   1.046   6.193  2.3479  0.2444 -0.2918
 7245SOL    HW233372   3.266   1.048   6.067  1.7715  3.6831  0.6168
 7246SOL     OW33373   4.493   0.718   9.475 -0.6338  0.0130  0.3338
 7246SOL    HW133374   4.588   0.716   9.486 -0.4803  1.2789 -0.7821
 7246SOL    HW233375   4.475   0.657   9.403 -0.4435  1.8037 -1.2391
 7247SOL     OW33376   2.629   0.054   9.908 -0.1180 -0.1507  0.2388
 7247SOL    HW133377   2.624   0.136   9.957 -0.8334  0.3831 -0.7172
 7247SOL    HW233378   2.556   0.010   9.951 -0.1939  2.1962  2.4627
 7248SOL     OW33379   1.188   0.463   6.278  0.2157  0.3776 -0.2981
 7248SOL    HW133380   1.097   0.461   6.308  0.7735  0.0222  1.3625
 7248SOL    HW233381   1.231   0.499   6.356 -2.6584  1.0111  1.0465
 7249SOL     OW33382   0.172   3.656   2.551 -0.3282 -0.3496 -0.1365
 7249SOL    HW133383   0.240   3.595   2.524 -0.7509 -0.2014 -1.5910
 7249SOL    HW233384   0.111   3.640   2.478 -2.7671  3.4318  1.0217
 7250SOL     OW33385   3.849   3.581  17.191 -0.1651 -0.3396  0.3395
 7250SOL    HW133386   3.928   3.612  17.234 -1.4416  1.4908  1.3871
 7250SOL    HW233387   3.839   3.655  17.131  0.4587  1.1119  2.0409
 7251SOL     OW33388   3.457   2.650   3.819 -0.0025 -0.2041  0.5096
 7251SOL    HW133389   3.515   2.587   3.776 -1.8830 -1.2801 -0.4364
 7251SOL    HW233390   3.497   2.656   3.906  2.5679  0.7366 -0.7267
 7252SOL     OW33391   0.690   2.444  14.815 -0.0394  0.0394  0.3289
 7252SOL    HW133392   0.632   2.370  14.830 -1.6993  1.3757  0.4396
 7252SOL    HW233393   0.779   2.409  14.807 -0.2023  0.0748 -1.6812
 7253SOL     OW33394   0.170   1.065   6.258 -0.3825 -0.0530  0.1771
 7253SOL    HW133395   0.259   1.058   6.293  0.2972  1.0303 -1.3565
 7253SOL    HW233396   0.191   1.094   6.170  0.7676  0.0714  0.4970
 7254SOL     OW33397   1.518   0.164   5.647 -0.5252 -0.1689  0.2308
 7254SOL    HW133398   1.581   0.190   5.714 -1.1683  0.9362  0.4126
 7254SOL    HW233399   1.540   0.071   5.646  2.2524  0.4959  0.2343
 7255SOL     OW33400   3.490   1.800   6.688 -0.0074 -1.0122 -0.1916
 7255SOL    HW133401   3.554   1.870   6.682 -2.6840  1.5076  0.4369
 7255SOL    HW233402   3.502   1.756   6.605 -0.0036  3.5423 -2.6117
 7256SOL     OW33403   4.738   3.653   8.226  0.0724 -0.6468 -0.3484
 7256SOL    HW133404   0.017   3.746   8.230  2.4575 -1.2008 -0.3632
 7256SOL    HW233405   4.658   3.648   8.277 -0.3738  1.7803 -0.8153
 7257SOL     OW33406   4.336   2.444  13.070 -0.3250 -0.0496 -0.1927
 7257SOL    HW133407   4.360   2.532  13.102  1.0355 -1.1829  1.9194
 7257SOL    HW233408   4.384   2.449  12.988  0.6471  1.1931  0.4430
 7258SOL     OW33409   3.165   4.113   6.984 -0.7147 -0.4663  0.0407
 7258SOL    HW133410   3.171   4.020   6.963 -0.7639 -0.5478  0.3777
 7258SOL    HW233411   3.095   4.124   7.049  0.0747 -0.1654  0.8501
 7259SOL     OW33412   4.588   3.241   7.893  0.3522 -0.3003 -0.4683
 7259SOL    HW133413   4.530   3.315   7.876 -2.3309 -1.4641  3.4825
 7259SOL    HW233414   4.615   3.268   7.981 -0.3213 -1.0502 -0.0333
 7260SOL     OW33415   2.880   3.415  12.461 -0.0732 -0.0803  0.9605
 7260SOL    HW133416   2.850   3.325  12.446  2.3098 -0.5705 -0.8345
 7260SOL    HW233417   2.797   3.439  12.503  0.4607  0.7432  1.5343
 7261SOL     OW33418   1.018   0.840   2.679  0.0589 -0.0481  0.0172
 7261SOL    HW133419   1.020   0.785   2.757 -0.0721 -0.7386 -0.4694
 7261SOL    HW233420   0.996   0.772   2.615 -1.7184  0.1796  0.3774
 7262SOL     OW33421   4.493   0.931  14.417 -0.0297 -0.0104  0.1647
 7262SOL    HW133422   4.473   0.847  14.458 -0.4210  1.3849  2.8563
 7262SOL    HW233423   4.488   0.894  14.329 -0.3284 -0.0905  0.2146
 7263SOL     OW33424   3.679   1.966   6.325  0.1484  0.0686  0.1966
 7263SOL    HW133425   3.624   2.015   6.386  0.4675 -1.7617  1.9292
 7263SOL    HW233426   3.609   1.928   6.273 -1.7023 -0.6137  3.1847
 7264SOL     OW33427   2.594   2.356   4.431 -0.1354 -0.2557  0.0056
 7264SOL    HW133428   2.589   2.261   4.417  0.4659 -0.0890 -1.3534
 7264SOL    HW233429   2.670   2.363   4.489  0.5966  0.5084 -1.0484
 7265SOL     OW33430   1.903   0.304  17.637 -0.1508 -0.0258 -0.8307
 7265SOL    HW133431   1.979   0.258  17.673  1.6880  1.0105 -3.3505
 7265SOL    HW233432   1.946   0.378  17.594 -0.7465  1.3884  1.0350
 7266SOL     OW33433   3.558   0.425   2.224  0.0912  0.1338  0.0067
 7266SOL    HW133434   3.632   0.425   2.285  0.9473 -1.4396 -1.0312
 7266SOL    HW233435   3.586   0.362   2.158  0.5141  2.3418 -1.9283
 7267SOL     OW33436   3.023   0.868   5.379 -0.2505 -0.1614  0.3301
 7267SOL    HW133437   3.038   0.945   5.433 -0.9764 -1.8058  2.8836
 7267SOL    HW233438   2.927   0.867   5.370 -0.4962  1.7627  2.7596
 7268SOL     OW33439   3.327   1.957   8.173 -0.0517  0.4115 -0.1293
 7268SOL    HW133440   3.259   1.893   8.151  0.1988  0.3639 -0.7691
 7268SOL    HW233441   3.264   2.016   8.214  1.1595  0.7724  1.2262
 7269SOL     OW33442   1.311   1.431  14.709 -0.6811  0.4746 -0.0260
 7269SOL    HW133443   1.229   1.451  14.755 -1.0582  2.1063 -1.4119
 7269SOL    HW233444   1.325   1.505  14.649 -0.8210 -0.5747 -1.3411
 7270SOL     OW33445   2.076   0.866  15.899  0.2204  0.1799 -0.3076
 7270SOL    HW133446   2.039   0.881  15.812 -1.5633 -0.8943  0.2743
 7270SOL    HW233447   2.141   0.936  15.903 -0.5523  0.8682  0.2423
 7271SOL     OW33448   1.368   0.328   3.988 -0.0845  0.7673  0.0955
 7271SOL    HW133449   1.315   0.358   3.914  0.9177 -0.0186 -0.9481
 7271SOL    HW233450   1.314   0.346   4.065  1.3076 -0.1184  1.2966
 7272SOL     OW33451   0.889   0.041   0.828  0.5445  0.1788  0.1836
 7272SOL    HW133452   0.947   4.725   0.876  0.7554  1.9236  2.0874
 7272SOL    HW233453   0.948   0.100   0.781 -1.5305  0.7948 -1.6463
 7273SOL     OW33454   2.733   4.619   7.476  0.3835 -0.4678  0.2430
 7273SOL    HW133455   2.676   4.543   7.464  0.0141  0.0188 -1.0587
 7273SOL    HW233456   2.809   4.597   7.422 -1.0678  0.4279 -2.1531
 7274SOL     OW33457   2.852   3.342   3.069  0.7876  0.6308  0.1685
 7274SOL    HW133458   2.883   3.252   3.076  0.3173  0.3844 -0.9406
 7274SOL    HW233459   2.893   3.376   2.990 -1.0019  0.9858 -0.6152
 7275SOL     OW33460   2.703   3.350   0.668  0.0571  0.5642  0.7178
 7275SOL    HW133461   2.750   3.412   0.723  0.1237 -0.4632  1.8244
 7275SOL    HW233462   2.620   3.396   0.655 -0.8872 -1.7735 -1.5486
 7276SOL     OW33463   3.799   1.939  13.319 -0.2172  0.0524 -0.3547
 7276SOL    HW133464   3.871   1.895  13.365  1.7397  1.2276 -2.3017
 7276SOL    HW233465   3.823   1.908  13.232 -1.7753  0.9896 -1.1095
 7277SOL     OW33466   4.654   0.731  14.064  0.4313  0.1179 -0.1831
 7277SOL    HW133467   4.703   0.649  14.058 -1.3984 -0.9122 -0.8984
 7277SOL    HW233468   4.657   0.760  13.972  0.7016  1.0812  0.1330
 7278SOL     OW33469   1.153   1.427   7.231  0.2529 -0.1425 -0.5609
 7278SOL    HW133470   1.220   1.442   7.165  0.3528  2.1181  0.0452
 7278SOL    HW233471   1.123   1.516   7.253  0.6620 -0.3391  0.8168
 7279SOL     OW33472   1.164   1.418  16.384 -0.1130 -0.0801 -0.6396
 7279SOL    HW133473   1.248   1.461  16.402  0.6820 -1.3882 -1.2636
 7279SOL    HW233474   1.113   1.477  16.328 -1.3377 -0.4203  0.1228
 7280SOL     OW33475   0.911   1.940   2.609 -0.2000 -0.2035 -0.0882
 7280SOL    HW133476   0.845   1.885   2.650 -0.0529 -0.1384  0.2394
 7280SOL    HW233477   0.938   1.882   2.538  2.1397 -3.2371  3.2864
 7281SOL     OW33478   3.343   3.575  10.202 -0.3389 -0.6377 -0.0323
 7281SOL    HW133479   3.368   3.661  10.168 -0.9971 -1.2328 -2.0019
 7281SOL    HW233480   3.424   3.527  10.183  0.8965  1.3896  0.0367
 7282SOL     OW33481   3.833   0.978   5.169  0.2609 -0.2460  0.2710
 7282SOL    HW133482   3.772   0.994   5.096  0.1931  0.1975  0.4258
 7282SOL    HW233483   3.918   1.019   5.156  1.1478 -1.0931  3.5469
 7283SOL     OW33484   1.072   1.446   3.573 -0.4708 -0.2573  0.3782
 7283SOL    HW133485   1.152   1.495   3.551  0.0891 -0.3888  2.1134
 7283SOL    HW233486   1.099   1.367   3.527 -1.8661  0.9588 -2.5059
 7284SOL     OW33487   0.310   1.203  13.251  0.1340  0.2439 -0.2518
 7284SOL    HW133488   0.294   1.262  13.178 -0.9626  0.6727  0.3362
 7284SOL    HW233489   0.400   1.178  13.230  0.6260  1.7776  0.0789
 7285SOL     OW33490   4.619   4.607   8.336 -0.6651 -0.5351  0.5612
 7285SOL    HW133491   4.542   4.662   8.350 -0.2347 -0.2452  1.7855
 7285SOL    HW233492   4.665   4.642   8.412  0.0505  1.3040 -0.7263
 7286SOL     OW33493   3.106   0.996   8.468 -0.4461 -0.4475  0.0342
 7286SOL    HW133494   3.193   1.004   8.507  0.0085  2.0819 -1.4962
 7286SOL    HW233495   3.120   1.026   8.378 -3.2015  2.1808  0.4559
 7287SOL     OW33496   0.699   2.187   5.024  0.3039  0.1763 -0.1237
 7287SOL    HW133497   0.619   2.187   5.077 -1.3212  2.2476 -2.5837
 7287SOL    HW233498   0.712   2.281   5.018 -0.7278  0.2259 -1.6743
 7288SOL     OW33499   0.332   1.588   4.944 -0.7952  0.6617  0.1262
 7288SOL    HW133500   0.355   1.634   5.025 -3.3788  1.0221  0.6469
 7288SOL    HW233501   0.359   1.653   4.880 -1.2817 -0.7412 -1.4996
 7289SOL     OW33502   3.539   2.824   6.737 -0.4722 -0.0830  0.2717
 7289SOL    HW133503   3.575   2.868   6.814 -2.7881  0.6571  0.9569
 7289SOL    HW233504   3.545   2.896   6.674  2.2841 -0.4594  0.1135
 7290SOL     OW33505   4.120   0.865   5.836 -0.0460  0.1610  0.3144
 7290SOL    HW133506   4.150   0.807   5.906  0.8022 -0.6355 -0.7108
 7290SOL    HW233507   4.201   0.871   5.785 -1.6972 -0.2070 -2.3747
 7291SOL     OW33508   4.222   2.459   2.209  0.0329  0.4081 -0.3886
 7291SOL    HW133509   4.153   2.499   2.155  0.4479  0.9523 -0.5184
 7291SOL    HW233510   4.286   2.422   2.148  1.2539  1.9681 -0.0523
 7292SOL     OW33511   4.201   0.512   3.618 -0.0543  0.1613 -0.3010
 7292SOL    HW133512   4.145   0.569   3.671 -0.1051 -0.7730  0.6491
 7292SOL    HW233513   4.284   0.532   3.660 -1.0877  4.8023 -0.5127
 7293SOL     OW33514   2.364   0.327   0.983  0.2466  0.3502 -0.2453
 7293SOL    HW133515   2.372   0.267   0.909 -1.9131 -2.0143  1.4185
 7293SOL    HW233516   2.355   0.264   1.055 -2.8295 -1.9844 -2.6671
 7294SOL     OW33517   2.675   2.454   6.964 -0.3549 -0.1822 -0.8998
 7294SOL    HW133518   2.621   2.375   6.966 -0.6762  0.0163 -1.3650
 7294SOL    HW233519   2.702   2.460   6.872  0.1185  0.0226 -0.7446
 7295SOL     OW33520   1.723   2.647   5.169 -0.7194 -0.2952  0.0711
 7295SOL    HW133521   1.651   2.695   5.130  1.4070  2.9970  0.1733
 7295SOL    HW233522   1.768   2.711   5.224 -1.7900  0.6282 -0.1382
 7296SOL     OW33523   0.072   2.435   4.920 -0.5676 -0.3501  0.2763
 7296SOL    HW133524   0.166   2.418   4.919 -0.4358  0.3752  0.4903
 7296SOL    HW233525   0.027   2.356   4.950 -1.0409  0.3567  1.4160
 7297SOL     OW33526   3.138   0.906  16.023 -0.1566  0.3689  0.3741
 7297SOL    HW133527   3.161   0.983  15.971 -3.7668 -0.4875 -2.4881
 7297SOL    HW233528   3.176   0.842  15.963  0.3684  1.4267 -0.4335
 7298SOL     OW33529   2.376   1.292   3.424  0.4905 -0.0459 -0.0292
 7298SOL    HW133530   2.410   1.334   3.503 -1.1927 -2.0334  1.7414
 7298SOL    HW233531   2.457   1.299   3.373  0.5876  2.2957  0.4231
 7299SOL     OW33532   2.226   2.611   2.331 -0.4537 -0.0483 -0.2333
 7299SOL    HW133533   2.264   2.652   2.253 -1.4948 -0.9396 -1.2090
 7299SOL    HW233534   2.195   2.527   2.297  3.0827 -0.5389 -2.1569
 7300SOL     OW33535   3.456   2.524   7.797  0.3096  0.8011  0.2260
 7300SOL    HW133536   3.454   2.444   7.745 -2.8818  1.7442 -1.1156
 7300SOL    HW233537   3.548   2.546   7.784  0.5253 -1.5849 -2.1893
 7301SOL     OW33538   4.267   4.427   5.882  0.0839  0.7531  0.1971
 7301SOL    HW133539   4.219   4.385   5.953 -0.2358  0.6847 -0.0604
 7301SOL    HW233540   4.347   4.458   5.925  0.1343 -0.1564  0.7655
 7302SOL     OW33541   4.144   0.056   4.115 -0.6281 -0.2666  0.2561
 7302SOL    HW133542   4.199   4.722   4.122 -2.1159 -1.2423  1.0854
 7302SOL    HW233543   4.210   0.118   4.083 -1.4378  1.0211  1.0970
 7303SOL     OW33544   4.697   2.799   6.204  0.3373  0.4949  0.0596
 7303SOL    HW133545   4.669   2.757   6.285 -0.5564  0.4881 -0.2566
 7303SOL    HW233546   4.733   2.882   6.235  0.2208  0.4756  0.2465
 7304SOL     OW33547   2.701   0.359  16.141 -0.1615 -0.5153 -0.2983
 7304SOL    HW133548   2.709   0.304  16.064 -1.8823  0.5644 -1.2486
 7304SOL    HW233549   2.666   0.298  16.206  0.3367 -2.5581 -1.9863
 7305SOL     OW33550   3.533   2.285   7.418 -0.5276 -0.7178 -0.7659
 7305SOL    HW133551   3.454   2.324   7.456  0.3492 -0.8873  1.2135
 7305SOL    HW233552   3.583   2.286   7.500 -0.7746  0.5841 -0.6390
 7306SOL     OW33553   1.914   3.268   7.257 -0.2161 -0.0419 -0.3383
 7306SOL    HW133554   1.818   3.271   7.259 -0.1971 -1.7026  1.8342
 7306SOL    HW233555   1.939   3.277   7.165  1.1139 -0.9113 -0.0634
 7307SOL     OW33556   2.186   4.392   9.196 -0.2173 -0.3524 -0.3152
 7307SOL    HW133557   2.155   4.306   9.226 -0.0352 -0.0309  0.8051
 7307SOL    HW233558   2.272   4.357   9.175  0.5772  0.4882  1.5479
 7308SOL     OW33559   0.246   1.022   7.887 -0.2196 -0.1185 -0.0621
 7308SOL    HW133560   0.275   1.061   7.969 -0.3135  0.2229 -0.1905
 7308SOL    HW233561   0.206   1.098   7.844 -0.0683  0.4945  0.8938
 7309SOL     OW33562   1.719   0.520   8.135  0.2201  0.2419 -0.9516
 7309SOL    HW133563   1.686   0.442   8.181 -0.6261  1.7313  0.9737
 7309SOL    HW233564   1.642   0.576   8.142  0.1914  0.3480 -2.1123
 7310SOL     OW33565   1.602   4.428   8.360  0.3041  0.2217 -0.2940
 7310SOL    HW133566   1.620   4.512   8.317  0.9545  1.5161  2.5483
 7310SOL    HW233567   1.577   4.456   8.447  2.9287 -1.7225  1.1035
 7311SOL     OW33568   1.539   1.416   4.533  0.2016  0.7727 -0.6018
 7311SOL    HW133569   1.523   1.441   4.624 -0.1617 -0.1472 -0.4127
 7311SOL    HW233570   1.525   1.323   4.551  3.1277  0.2247 -1.2156
 7312SOL     OW33571   0.141   2.942   1.068 -0.3299 -0.0462 -0.3726
 7312SOL    HW133572   0.190   2.885   1.008  0.1466 -1.2923  1.1933
 7312SOL    HW233573   0.200   2.943   1.143 -0.6884  2.4184 -0.1308
 7313SOL     OW33574   4.008   0.878  11.455 -0.0893 -0.0650  0.1326
 7313SOL    HW133575   4.028   0.806  11.516 -2.7993  0.3991  1.5795
 7313SOL    HW233576   3.922   0.862  11.415  0.0168  0.7392 -0.4144
 7314SOL     OW33577   3.173   2.654   7.374  0.2259 -0.0705 -0.5130
 7314SOL    HW133578   3.235   2.725   7.393  0.3993  0.1497 -1.9184
 7314SOL    HW233579   3.087   2.696   7.379  0.1245 -0.3080 -0.2323
 7315SOL     OW33580   4.031   1.082   2.595 -0.0393  0.1362  0.2247
 7315SOL    HW133581   3.956   1.094   2.653  0.5915  1.7090  0.7338
 7315SOL    HW233582   4.101   1.093   2.660  0.8797  1.1619 -0.9324
 7316SOL     OW33583   1.477   2.050  15.595  0.1119 -0.1574  0.1382
 7316SOL    HW133584   1.493   2.128  15.648 -0.2527 -0.8543  1.2680
 7316SOL    HW233585   1.476   1.986  15.666 -2.6524 -1.8660 -1.4567
 7317SOL     OW33586   3.322   3.344   3.720  0.1520  0.2982  0.3829
 7317SOL    HW133587   3.333   3.285   3.795 -1.5154 -0.6842 -0.1499
 7317SOL    HW233588   3.415   3.351   3.696  0.1403 -0.4257  0.1260
 7318SOL     OW33589   2.110   0.649   2.686  0.2245 -0.1917 -0.0223
 7318SOL    HW133590   2.172   0.643   2.759  0.1974  0.3081  0.0420
 7318SOL    HW233591   2.147   0.585   2.625 -0.7723 -2.3122  1.5972
 7319SOL     OW33592   0.548   1.703   9.256  0.2833 -0.3909  0.2279
 7319SOL    HW133593   0.589   1.763   9.319  0.6069 -0.1554 -0.2121
 7319SOL    HW233594   0.596   1.728   9.177 -0.0726  1.5066  0.6017
 7320SOL     OW33595   2.095   1.651   3.853  0.2498 -1.0152 -0.3612
 7320SOL    HW133596   2.003   1.651   3.879  0.5448 -0.9513  0.6859
 7320SOL    HW233597   2.103   1.744   3.833 -1.2804 -0.4602  1.6573
 7321SOL     OW33598   3.361   3.902  10.033 -0.0077 -0.0981 -0.0006
 7321SOL    HW133599   3.277   3.861  10.013 -1.1527  1.1936  2.1672
 7321SOL    HW233600   3.338   3.979  10.085  1.1684 -1.1785  2.1059
 7322SOL     OW33601   1.914   4.643   0.647  0.0333  0.5486  0.5985
 7322SOL    HW133602   1.879   4.712   0.703  3.2538 -0.1606  3.4530
 7322SOL    HW233603   1.990   4.613   0.697 -0.5023 -1.6102  0.1237
 7323SOL     OW33604   0.255   4.132   2.021 -0.3921  0.0579  0.3574
 7323SOL    HW133605   0.251   4.203   2.085  0.0222 -0.8963  1.4692
 7323SOL    HW233606   0.308   4.165   1.948 -0.2562 -0.1867  0.3449
 7324SOL     OW33607   4.109   3.418   0.407  0.1558  0.0532  0.0107
 7324SOL    HW133608   4.135   3.506   0.432 -0.4071  0.9866 -2.7212
 7324SOL    HW233609   4.023   3.413   0.448 -0.8525 -0.9849 -2.2195
 7325SOL     OW33610   1.828   2.324   3.979  0.4578  0.7996 -0.2890
 7325SOL    HW133611   1.741   2.363   3.982  0.6450  1.3138 -1.7174
 7325SOL    HW233612   1.884   2.386   4.024  2.0369 -1.2539  0.5747
 7326SOL     OW33613   1.750   2.607   5.964  0.4182 -0.5236  0.7639
 7326SOL    HW133614   1.822   2.545   5.966  1.0075  0.0839 -1.1064
 7326SOL    HW233615   1.691   2.551   5.913  0.5591 -0.1641  0.2047
 7327SOL     OW33616   2.662   2.511   7.455  0.2351 -0.2691 -0.4434
 7327SOL    HW133617   2.663   2.598   7.496 -2.5565 -0.9515  1.1051
 7327SOL    HW233618   2.745   2.474   7.483  0.3130  0.0521 -0.2503
 7328SOL     OW33619   0.934   4.552  17.553 -0.6062 -0.3658 -0.1650
 7328SOL    HW133620   0.989   4.473  17.560 -2.0259 -1.3647 -0.2532
 7328SOL    HW233621   0.989   4.617  17.596 -1.7500  0.9720 -0.7599
 7329SOL     OW33622   0.345   2.316  12.347 -0.3638  0.4507  0.4279
 7329SOL    HW133623   0.354   2.363  12.265 -2.0651  0.5101  0.2762
 7329SOL    HW233624   0.305   2.234  12.319  2.2476 -0.7381  0.1781
 7330SOL     OW33625   3.047   2.745  12.133 -0.1083  0.1816  0.2647
 7330SOL    HW133626   3.054   2.686  12.207  0.2580  0.1228  0.1830
 7330SOL    HW233627   3.029   2.830  12.174  0.3261  0.1267  0.5683
 7331SOL     OW33628   1.107   0.320   9.610  0.4348 -0.7930 -0.0104
 7331SOL    HW133629   1.070   0.351   9.693 -0.2845 -0.1286 -0.5712
 7331SOL    HW233630   1.116   0.405   9.567 -0.1221 -1.1040 -0.7384
 7332SOL     OW33631   2.455   1.017   6.873 -0.2892 -0.2383 -0.0545
 7332SOL    HW133632   2.539   0.987   6.908  0.8006  2.8531 -0.0133
 7332SOL    HW233633   2.470   1.106   6.842 -2.2805 -0.4234 -1.5712
 7333SOL     OW33634   1.864   2.593   2.471  0.4278 -0.3333 -0.6360
 7333SOL    HW133635   1.852   2.602   2.566 -1.8145 -0.8088 -0.8839
 7333SOL    HW233636   1.927   2.664   2.455  0.8281 -0.3302  0.8827
 7334SOL     OW33637   0.252   1.748  12.631 -0.3346  0.3298  0.2606
 7334SOL    HW133638   0.325   1.762  12.572 -1.0037  0.2006 -0.5993
 7334SOL    HW233639   0.308   1.752  12.708 -0.2350 -1.1122  0.2637
 7335SOL     OW33640   4.435   0.486   9.325 -0.0096 -0.1759  0.4829
 7335SOL    HW133641   4.353   0.471   9.373  0.2395  2.2323  1.6253
 7335SOL    HW233642   4.484   0.406   9.345  1.8451  0.9129  0.2690
 7336SOL     OW33643   1.026   2.843   8.864  0.5953 -0.0094 -0.7242
 7336SOL    HW133644   1.089   2.825   8.793  0.9080 -0.6778 -0.2747
 7336SOL    HW233645   1.084   2.893   8.921 -2.6953  1.6666  1.1204
 7337SOL     OW33646   4.155   0.655   6.307 -0.1177 -0.8563  0.3681
 7337SOL    HW133647   4.193   0.742   6.301 -0.9868 -0.5000 -0.0356
 7337SOL    HW233648   4.061   0.669   6.293 -0.0107  0.0435  0.5604
 7338SOL     OW33649   1.733   0.236  10.375  0.0509  0.4378 -0.5317
 7338SOL    HW133650   1.772   0.175  10.438  0.7125 -0.0113 -1.3691
 7338SOL    HW233651   1.802   0.300  10.389 -0.3918  1.4723 -3.1455
 7339SOL     OW33652   1.863   0.190   3.145 -0.2940  0.2019 -0.4501
 7339SOL    HW133653   1.799   0.237   3.198  1.7441  1.2100  1.1129
 7339SOL    HW233654   1.941   0.214   3.195 -1.0839  0.4172  0.6800
 7340SOL     OW33655   0.695   1.845   7.919 -0.3509  0.1935  0.0456
 7340SOL    HW133656   0.667   1.853   7.828  0.0502  1.7614  0.0650
 7340SOL    HW233657   0.662   1.758   7.941  0.4702 -0.3149 -0.6985
 7341SOL     OW33658   1.110   0.121   5.052 -0.2363  0.5081 -0.6612
 7341SOL    HW133659   1.118   0.072   4.970 -0.4941 -0.9280  0.1784
 7341SOL    HW233660   1.201   0.116   5.082 -0.5777 -2.6798 -0.1687
 7342SOL     OW33661   3.068   0.237  16.966 -0.1353 -0.0555  0.0940
 7342SOL    HW133662   3.037   0.168  16.908  1.5694 -0.5960 -0.1684
 7342SOL    HW233663   3.137   0.272  16.910  1.0390 -0.2207  1.4249
 7343SOL     OW33664   0.150   3.074   8.535 -0.7687  0.1240 -0.1426
 7343SOL    HW133665   0.223   3.029   8.576 -0.6266  2.2381  1.9174
 7343SOL    HW233666   0.152   3.027   8.452 -0.9106 -0.3170  0.1054
 7344SOL     OW33667   0.063   1.796   4.796 -0.1646  0.5513  0.1578
 7344SOL    HW133668   0.146   1.844   4.805 -0.2496  0.3411  1.9394
 7344SOL    HW233669   0.010   1.840   4.862 -3.0886 -2.1608 -0.3984
 7345SOL     OW33670   0.815   0.512   5.112 -0.4590  0.2435 -0.0128
 7345SOL    HW133671   0.750   0.469   5.056  0.3666  0.0053 -0.7720
 7345SOL    HW233672   0.902   0.489   5.082  0.5333  1.5311  1.8619
 7346SOL     OW33673   3.182   4.450   4.008 -0.5302  0.2695  0.0280
 7346SOL    HW133674   3.165   4.411   4.094 -0.1114 -0.6295 -0.2946
 7346SOL    HW233675   3.161   4.374   3.953 -1.2163  0.6016 -0.1674
 7347SOL     OW33676   3.451   3.335   1.136 -0.1606 -0.1826 -0.8407
 7347SOL    HW133677   3.458   3.340   1.231 -0.6407  0.2427 -0.8253
 7347SOL    HW233678   3.496   3.251   1.125 -0.3330 -0.3285 -0.4374
 7348SOL     OW33679   0.933   0.011  11.484  0.4238  0.1886 -0.1545
 7348SOL    HW133680   1.012   4.731  11.436  3.3603  0.7382  4.4255
 7348SOL    HW233681   0.883   0.064  11.422 -0.1041 -0.0564  0.0633
 7349SOL     OW33682   3.195   2.874   6.581  0.1975  0.7153  0.2604
 7349SOL    HW133683   3.173   2.833   6.497 -1.4931 -0.3621  1.2232
 7349SOL    HW233684   3.141   2.951   6.596  2.5834  2.2677  0.8738
 7350SOL     OW33685   2.748   2.538   5.993 -0.3183 -0.2927 -0.8352
 7350SOL    HW133686   2.779   2.448   6.003  1.9255  0.6469  0.5445
 7350SOL    HW233687   2.658   2.533   6.027  0.4777  2.0584  1.6150
 7351SOL     OW33688   0.703   2.219   2.624  0.3521  0.0781  0.6960
 7351SOL    HW133689   0.781   2.180   2.585 -1.6271 -1.0579 -2.1693
 7351SOL    HW233690   0.697   2.299   2.571  0.3922 -1.0388 -1.0163
 7352SOL     OW33691   1.911   3.254   6.555  0.3577  0.1034 -0.6364
 7352SOL    HW133692   1.845   3.258   6.486 -0.9925 -1.4475  0.5689
 7352SOL    HW233693   1.988   3.262   6.499  1.1941  0.2143  0.5200
 7353SOL     OW33694   0.557   2.991  14.784  0.3346 -0.2443  0.3526
 7353SOL    HW133695   0.550   3.052  14.857  0.6218 -0.5965  0.6748
 7353SOL    HW233696   0.567   2.905  14.824 -1.5701 -1.4314 -1.7297
 7354SOL     OW33697   2.844   3.010   1.951  0.4291  0.4371 -0.2204
 7354SOL    HW133698   2.811   3.082   1.897 -1.4583  1.1845  1.9643
 7354SOL    HW233699   2.763   2.984   1.994  0.5026 -0.4163 -0.5921
 7355SOL     OW33700   1.081   1.998   5.080 -0.4292  0.1468 -0.1831
 7355SOL    HW133701   1.070   2.015   4.987  2.5293  2.9819  0.0139
 7355SOL    HW233702   1.014   1.933   5.103 -0.9735 -0.5562 -3.7158
 7356SOL     OW33703   3.947   3.689   7.637 -0.1061 -0.6119 -0.1465
 7356SOL    HW133704   3.917   3.748   7.568 -0.5383  0.8233  1.2891
 7356SOL    HW233705   3.960   3.749   7.710 -0.6771  0.3227 -0.8210
 7357SOL     OW33706   0.701   3.984   3.430 -0.2438  0.0553 -0.1880
 7357SOL    HW133707   0.663   3.953   3.347  0.1467 -1.8095  0.3329
 7357SOL    HW233708   0.781   3.931   3.431  0.7302  1.4982 -1.7108
 7358SOL     OW33709   0.235   3.502   4.292 -0.1570 -0.2350  0.4714
 7358SOL    HW133710   0.204   3.513   4.203 -1.4909  3.9313  1.4245
 7358SOL    HW233711   0.154   3.519   4.341  0.0678 -2.4901  1.6242
 7359SOL     OW33712   3.477   3.125   3.473 -0.2311 -0.1677  0.1522
 7359SOL    HW133713   3.421   3.116   3.550 -1.1066  1.4889 -0.3007
 7359SOL    HW233714   3.538   3.195   3.498  0.6076 -0.6659 -0.5071
 7360SOL     OW33715   4.026   3.425   2.130 -0.1091  0.2122 -0.7128
 7360SOL    HW133716   4.069   3.353   2.176 -0.8070  0.4188  0.2599
 7360SOL    HW233717   3.981   3.385   2.055  1.1438 -1.7048 -0.4424
 7361SOL     OW33718   3.958   2.706  13.887  0.5267 -0.4863  0.2467
 7361SOL    HW133719   3.922   2.748  13.965  0.8920  0.6649 -0.2097
 7361SOL    HW233720   4.049   2.703  13.916  0.0776 -3.4923  1.3461
 7362SOL     OW33721   2.950   4.716   5.911 -0.4034  0.3462 -0.2862
 7362SOL    HW133722   2.877   4.727   5.971 -1.7215 -0.2325 -1.7959
 7362SOL    HW233723   2.898   4.727   5.831  2.9417  1.4230 -2.3324
 7363SOL     OW33724   2.475   2.165   8.924 -0.2375 -0.1948 -0.2258
 7363SOL    HW133725   2.501   2.102   8.992 -0.9516 -1.2321 -0.9184
 7363SOL    HW233726   2.394   2.193   8.968 -0.8000 -0.6832 -0.9613
 7364SOL     OW33727   0.203   0.451   0.290  0.4284  0.4120  0.3089
 7364SOL    HW133728   0.211   0.359   0.312 -0.5716 -0.1272 -1.5996
 7364SOL    HW233729   0.108   0.450   0.275  0.8270  0.9369 -2.2906
 7365SOL     OW33730   3.235   0.638   9.237 -0.7139  0.4290 -0.8581
 7365SOL    HW133731   3.215   0.556   9.192  0.9824 -0.5478  0.1736
 7365SOL    HW233732   3.330   0.648   9.226 -0.8282 -0.8906 -3.2235
 7366SOL     OW33733   1.008   3.251   8.451  0.1335 -0.4336  0.7223
 7366SOL    HW133734   0.930   3.236   8.504 -1.6975  2.1480 -1.2284
 7366SOL    HW233735   1.045   3.327   8.496  0.2801  1.0843 -1.9836
 7367SOL     OW33736   3.265   4.227  11.157 -0.5489 -0.0198 -0.0196
 7367SOL    HW133737   3.248   4.315  11.192  1.0422 -0.5090  1.9806
 7367SOL    HW233738   3.339   4.244  11.097 -1.3341  1.5966 -0.5484
 7368SOL     OW33739   0.711   4.097  16.627  0.0285  0.2418 -0.7736
 7368SOL    HW133740   0.711   4.152  16.549  0.9795  0.7040 -0.4399
 7368SOL    HW233741   0.735   4.159  16.695 -0.6012  0.4814 -0.7762
 7369SOL     OW33742   1.398   0.589   2.896  0.3500 -0.1165  0.2521
 7369SOL    HW133743   1.447   0.510   2.875 -0.6328 -0.9118  0.9475
 7369SOL    HW233744   1.353   0.606   2.813 -1.6344 -0.3767  1.2779
 7370SOL     OW33745   0.199   0.295   8.920 -0.0276 -0.5348  0.5219
 7370SOL    HW133746   0.165   0.206   8.931 -4.0185  0.8324 -0.7389
 7370SOL    HW233747   0.135   0.349   8.967  0.2552  1.0617 -0.9555
 7371SOL     OW33748   1.298   0.776   4.697 -0.5442  0.1428 -0.7232
 7371SOL    HW133749   1.232   0.805   4.760  1.7462  3.1926  0.2536
 7371SOL    HW233750   1.252   0.795   4.615 -1.3005  3.0791  0.3868
 7372SOL     OW33751   1.536   1.737  15.509 -0.1839 -0.1058 -0.0822
 7372SOL    HW133752   1.631   1.742  15.503 -0.0571  0.2876  2.3969
 7372SOL    HW233753   1.515   1.770  15.421 -0.4090 -2.9470 -1.0782
 7373SOL     OW33754   0.531   3.349   1.956 -0.2503 -0.1659 -0.4389
 7373SOL    HW133755   0.439   3.372   1.969 -0.3813 -0.3579 -1.0222
 7373SOL    HW233756   0.564   3.422   1.902 -0.3672  1.7581  2.0865
 7374SOL     OW33757   4.208   2.275   5.899 -0.3972  0.0995 -0.1189
 7374SOL    HW133758   4.210   2.370   5.883  0.4199  0.5472  2.6808
 7374SOL    HW233759   4.234   2.267   5.990  1.8297  0.9049 -0.6809
 7375SOL     OW33760   3.079   1.429   6.221  0.3285 -0.2440 -1.2054
 7375SOL    HW133761   3.064   1.419   6.127  2.4488  2.3316 -1.8113
 7375SOL    HW233762   3.122   1.513   6.237 -1.5900  0.5261  0.0151
 7376SOL     OW33763   2.222   0.130  17.210  0.1315  0.1337 -0.4942
 7376SOL    HW133764   2.272   0.132  17.291  0.1254 -2.4061 -0.4238
 7376SOL    HW233765   2.255   0.051  17.167 -0.1991  0.5244 -1.4556
 7377SOL     OW33766   3.381   3.608   0.328  0.2660 -0.4436  0.0537
 7377SOL    HW133767   3.414   3.523   0.299  1.4856  0.2308 -0.5102
 7377SOL    HW233768   3.339   3.583   0.410 -1.1276  3.3245  0.4753
 7378SOL     OW33769   4.585   3.243   9.381  0.0734 -0.9241 -0.1539
 7378SOL    HW133770   4.624   3.183   9.444  0.1910 -0.0254  0.6332
 7378SOL    HW233771   4.526   3.193   9.325 -0.0915  0.3719 -1.1288
 7379SOL     OW33772   0.390   0.419   5.217  0.3512 -0.4399 -0.7018
 7379SOL    HW133773   0.420   0.336   5.178  0.3381  0.9445 -3.6366
 7379SOL    HW233774   0.307   0.388   5.253 -0.3268  0.0382 -1.8405
 7380SOL     OW33775   1.286   0.477   6.788 -0.0409 -0.0665  0.5575
 7380SOL    HW133776   1.327   0.562   6.803 -1.9891  0.7957  0.9808
 7380SOL    HW233777   1.265   0.455   6.879  0.8134 -1.6637  0.3691
 7381SOL     OW33778   2.806   4.222   6.523  0.4753  0.4019 -0.0117
 7381SOL    HW133779   2.728   4.259   6.482  1.7775  2.2081 -0.8693
 7381SOL    HW233780   2.837   4.176   6.446  1.6514  1.0029  0.1109
 7382SOL     OW33781   2.010   0.153   3.835 -0.6262  0.3319 -0.2090
 7382SOL    HW133782   1.981   0.183   3.749 -0.5715  0.7111 -0.0971
 7382SOL    HW233783   1.924   0.134   3.874  0.1335 -0.2578  1.2046
 7383SOL     OW33784   3.115   0.703  14.974 -0.1943  0.3627  0.7541
 7383SOL    HW133785   3.211   0.702  14.975 -0.1939 -0.4305  0.1918
 7383SOL    HW233786   3.106   0.791  14.937  0.5389  0.2884  0.3883
 7384SOL     OW33787   0.785   1.571   6.336 -0.8438  0.3167 -0.2293
 7384SOL    HW133788   0.783   1.479   6.363  2.3098  0.3633  0.1427
 7384SOL    HW233789   0.697   1.604   6.351 -1.3251 -0.4711 -1.2908
 7385SOL     OW33790   0.756   2.896  17.219 -0.2279 -0.0045 -0.3982
 7385SOL    HW133791   0.744   2.978  17.172  0.6630 -0.7694 -1.9744
 7385SOL    HW233792   0.671   2.876  17.258  0.8969 -2.0601  0.9930
 7386SOL     OW33793   3.578   0.701   6.815  0.0334  0.3444  0.2268
 7386SOL    HW133794   3.667   0.724   6.841 -0.2816 -0.4737  2.0492
 7386SOL    HW233795   3.585   0.685   6.721 -2.2340 -1.2429  0.3119
 7387SOL     OW33796   2.520   3.835   7.860  0.7533 -0.2128 -0.3272
 7387SOL    HW133797   2.469   3.795   7.931  0.4185 -2.1596 -1.6810
 7387SOL    HW233798   2.453   3.857   7.796  1.3931  1.6265 -0.3530
 7388SOL     OW33799   0.540   1.891   8.194 -0.0064 -0.2790 -1.0192
 7388SOL    HW133800   0.468   1.863   8.137 -0.5712 -1.4349  0.2786
 7388SOL    HW233801   0.620   1.899   8.141  0.1134  0.7181 -0.6789
 7389SOL     OW33802   3.142   3.280   3.497 -0.7662 -0.0796  0.0368
 7389SOL    HW133803   3.233   3.305   3.513 -0.8114  1.7563 -2.5817
 7389SOL    HW233804   3.098   3.297   3.581  2.5260  0.4268  1.6469
 7390SOL     OW33805   1.319   0.108  12.621  0.3316  0.3536  0.1855
 7390SOL    HW133806   1.294   0.045  12.554 -0.0977  1.2510 -0.4868
 7390SOL    HW233807   1.245   0.167  12.605  2.1579  2.7395  0.4594
 7391SOL     OW33808   1.296   2.831   6.295 -0.2260  0.1319 -0.1151
 7391SOL    HW133809   1.355   2.760   6.321  0.0917  0.6873  0.6958
 7391SOL    HW233810   1.326   2.890   6.365  1.5169 -0.7858 -0.0952
 7392SOL     OW33811   0.331   1.432  12.787  0.1927 -0.3093 -0.0012
 7392SOL    HW133812   0.394   1.486  12.740  1.4708 -2.8239 -1.2282
 7392SOL    HW233813   0.277   1.402  12.713  1.1005 -0.9487 -0.4060
 7393SOL     OW33814   2.899   0.313  15.017 -0.3758 -0.2901 -0.0440
 7393SOL    HW133815   2.805   0.330  15.006 -0.5633  0.4325  2.6129
 7393SOL    HW233816   2.896   0.221  15.040 -1.0096 -0.0629  0.7744
 7394SOL     OW33817   2.297   4.456   2.800 -0.5381 -0.4281  0.2011
 7394SOL    HW133818   2.310   4.548   2.821 -3.5466  0.2626 -0.8663
 7394SOL    HW233819   2.204   4.453   2.821 -0.3945 -0.1975  0.8542
 7395SOL     OW33820   2.817   4.560   8.111  0.3976  0.0706  0.3054
 7395SOL    HW133821   2.763   4.532   8.037 -1.6437  0.7015  1.5260
 7395SOL    HW233822   2.769   4.532   8.189 -1.3447  2.4322  0.0939
 7396SOL     OW33823   3.528   4.625   5.182 -0.0841 -0.2726 -0.2211
 7396SOL    HW133824   3.590   4.665   5.122 -0.1445  0.2164  0.0398
 7396SOL    HW233825   3.496   4.700   5.233 -0.6425 -0.0238 -0.9395
 7397SOL     OW33826   1.368   3.552   5.389  0.2647  0.6632 -0.2730
 7397SOL    HW133827   1.393   3.463   5.413 -1.3585  0.4394  0.6449
 7397SOL    HW233828   1.329   3.529   5.305  1.4233  0.1854 -0.6835
 7398SOL     OW33829   0.116   3.659   2.851  0.3138 -0.0272 -0.0485
 7398SOL    HW133830   0.094   3.674   2.759 -4.6383  1.4416  1.3464
 7398SOL    HW233831   0.169   3.736   2.873  1.2751 -0.7398  0.1015
 7399SOL     OW33832   4.345   3.108   9.727  0.0037  0.8328  0.1079
 7399SOL    HW133833   4.326   3.197   9.757 -2.0241 -0.1526  1.7215
 7399SOL    HW233834   4.262   3.066   9.749 -0.5522  1.0144 -1.6077
 7400SOL     OW33835   4.160   4.012   8.544  0.0719  0.6337 -0.1862
 7400SOL    HW133836   4.236   4.052   8.501 -0.2848 -0.6833 -2.0224
 7400SOL    HW233837   4.095   4.074   8.512  1.8304  3.2380  1.2670
 7401SOL     OW33838   2.638   0.557   2.106  0.2860  0.3711 -0.3440
 7401SOL    HW133839   2.609   0.515   2.187 -0.9996  0.5810 -0.6872
 7401SOL    HW233840   2.604   0.642   2.133 -0.6313 -0.2653  0.4741
 7402SOL     OW33841   4.623   3.978   4.933  0.0411 -0.0460 -0.1911
 7402SOL    HW133842   4.608   4.049   4.871  1.3746  1.5151  1.2877
 7402SOL    HW233843   4.609   4.021   5.018 -0.0963  0.1734 -0.3266
 7403SOL     OW33844   3.064   1.153   4.813  0.3307  0.0953 -0.3900
 7403SOL    HW133845   3.124   1.083   4.841  0.8276 -0.0331 -1.7548
 7403SOL    HW233846   3.127   1.198   4.757  1.6481 -1.9119 -0.5474
 7404SOL     OW33847   4.409   1.787  11.760  0.0788  0.3325  0.4226
 7404SOL    HW133848   4.400   1.877  11.790 -0.2658  1.2274 -2.4007
 7404SOL    HW233849   4.420   1.804  11.667 -1.5070 -1.3204 -0.0839
 7405SOL     OW33850   1.339   2.044   2.922 -0.7474  0.3694 -0.4731
 7405SOL    HW133851   1.260   2.098   2.922 -1.4762 -0.7066  1.6642
 7405SOL    HW233852   1.400   2.116   2.929  0.1493 -0.5027  0.6488
 7406SOL     OW33853   2.156   3.541   9.997 -0.0055  0.5375 -0.0264
 7406SOL    HW133854   2.065   3.516   9.979 -0.4435  2.7301 -0.8660
 7406SOL    HW233855   2.150   3.537  10.093  1.5684 -0.8336  0.0163
 7407SOL     OW33856   1.902   3.602   2.786 -0.1355  0.7066  0.3231
 7407SOL    HW133857   1.862   3.641   2.863 -1.8503  0.5951 -0.5049
 7407SOL    HW233858   1.847   3.635   2.715  0.3159 -0.2478 -0.4749
 7408SOL     OW33859   1.394   3.985  13.380  0.0761  1.1383  0.0439
 7408SOL    HW133860   1.312   3.941  13.398 -0.2918  0.9818 -1.9871
 7408SOL    HW233861   1.419   4.004  13.470  1.3455 -0.1993 -0.0250
 7409SOL     OW33862   0.045   2.621   2.679  0.2131 -0.0152  0.1131
 7409SOL    HW133863   4.717   2.598   2.739  0.1382 -0.2686 -0.0744
 7409SOL    HW233864   0.088   2.682   2.738  0.6298 -0.7326  0.5484
 7410SOL     OW33865   2.817   4.568  16.472  0.0327  0.0378  0.2345
 7410SOL    HW133866   2.860   4.485  16.451 -0.2236 -0.2229  0.7273
 7410SOL    HW233867   2.803   4.609  16.387  2.3781  0.6687  0.1324
 7411SOL     OW33868   3.247   0.529   5.417 -0.0115 -0.0857  0.2176
 7411SOL    HW133869   3.326   0.525   5.470 -0.1025 -1.3269  0.2659
 7411SOL    HW233870   3.177   0.546   5.479 -0.2634 -1.5063  0.3413
 7412SOL     OW33871   2.946   4.495   5.565 -0.0215  0.0127  0.2047
 7412SOL    HW133872   2.892   4.548   5.507  0.2740  1.0264  0.8442
 7412SOL    HW233873   3.032   4.525   5.537  0.9727 -1.0721  2.1036
 7413SOL     OW33874   3.965   3.340   6.704 -0.0267 -0.2134 -0.0257
 7413SOL    HW133875   4.019   3.311   6.778  2.1418  2.8731 -0.3498
 7413SOL    HW233876   4.011   3.423   6.689  3.0848 -1.6951  1.2986
 7414SOL     OW33877   1.624   1.932   3.407  0.0092 -0.3641 -0.1041
 7414SOL    HW133878   1.716   1.910   3.420  0.1385  1.6590  2.4334
 7414SOL    HW233879   1.628   2.025   3.385 -1.3798 -0.4596 -0.7364
 7415SOL     OW33880   3.309   4.001  17.309  0.4360 -0.0222  0.0318
 7415SOL    HW133881   3.218   4.021  17.286 -0.3387  0.9840  3.9976
 7415SOL    HW233882   3.319   3.911  17.278  1.7911 -0.7165  2.4646
 7416SOL     OW33883   1.148   3.436   1.801 -0.2055 -0.7799  0.3022
 7416SOL    HW133884   1.089   3.460   1.872 -1.5630  2.3869 -1.8735
 7416SOL    HW233885   1.176   3.519   1.763  0.1717 -1.1920 -0.3147
 7417SOL     OW33886   4.096   2.016   8.374  0.1694  0.2526  0.1356
 7417SOL    HW133887   4.071   2.104   8.401  1.8566 -0.1575  2.9790
 7417SOL    HW233888   4.152   2.001   8.450 -0.2894  3.1767  1.0520
 7418SOL     OW33889   1.805   2.347   0.958  0.2900  0.0195  0.1488
 7418SOL    HW133890   1.740   2.294   1.004  1.3138  0.9125  2.6309
 7418SOL    HW233891   1.812   2.417   1.022 -0.8493  0.7739 -0.5554
 7419SOL     OW33892   2.979   3.427   8.043  0.3291 -0.4510 -0.2589
 7419SOL    HW133893   2.953   3.498   7.984 -1.4328 -0.2195  0.7878
 7419SOL    HW233894   3.032   3.476   8.106 -0.2552  0.0138 -0.1296
 7420SOL     OW33895   1.271   2.938  17.657  0.1104  0.4166  0.0497
 7420SOL    HW133896   1.181   2.932  17.690  0.1302 -0.6721 -0.0638
 7420SOL    HW233897   1.327   2.936  17.735 -0.8154  0.2972  0.7150
 7421SOL     OW33898   0.282   3.413  17.151 -0.0224  0.4531  0.8313
 7421SOL    HW133899   0.281   3.344  17.217  1.2393  0.5834  0.9734
 7421SOL    HW233900   0.352   3.464  17.190  1.3155  1.2193 -2.5939
 7422SOL     OW33901   2.730   4.238   4.386 -0.2578  0.3365 -0.5087
 7422SOL    HW133902   2.705   4.154   4.347  0.2672 -0.2694  0.4666
 7422SOL    HW233903   2.734   4.223   4.480 -0.0528 -1.8421 -0.8551
 7423SOL     OW33904   4.395   1.277  16.235 -0.1668 -0.0243  0.2201
 7423SOL    HW133905   4.326   1.343  16.233  0.4619  0.5753 -1.8912
 7423SOL    HW233906   4.415   1.279  16.141  0.6045  0.6267  0.4023
 7424SOL     OW33907   0.763   1.583   4.897 -0.3616 -0.0528  0.1630
 7424SOL    HW133908   0.742   1.551   4.985 -1.0805  2.4725  0.8942
 7424SOL    HW233909   0.770   1.497   4.855  2.9739  0.5443 -0.5046
 7425SOL     OW33910   0.656   4.392   5.001 -0.1049 -0.4195 -0.2679
 7425SOL    HW133911   0.689   4.474   5.037  1.2069 -0.9469 -0.2774
 7425SOL    HW233912   0.621   4.352   5.081  1.3655 -0.5565  0.3069
 7426SOL     OW33913   1.720   0.374   9.085 -0.0875  0.0518 -0.3895
 7426SOL    HW133914   1.780   0.369   9.011 -1.2188  0.1880 -1.3063
 7426SOL    HW233915   1.678   0.292   9.059  1.3453 -0.4162 -1.2546
 7427SOL     OW33916   1.539   2.011  16.740  0.3026 -0.2681 -0.5736
 7427SOL    HW133917   1.511   2.091  16.695 -3.3302  0.2972  2.6009
 7427SOL    HW233918   1.621   2.039  16.780  0.5594  0.6762 -1.7581
 7428SOL     OW33919   2.191   0.565   3.285 -0.1746  1.0544  0.6873
 7428SOL    HW133920   2.183   0.565   3.380 -1.4661 -2.3005  0.5993
 7428SOL    HW233921   2.098   0.584   3.271 -0.3936 -0.6120 -0.1367
 7429SOL     OW33922   0.243   4.202   2.402 -0.4572  0.9864 -0.7356
 7429SOL    HW133923   0.215   4.260   2.472  2.7541  1.5465  0.0861
 7429SOL    HW233924   0.193   4.122   2.419  0.5980  1.2182  3.3394
 7430SOL     OW33925   1.096   1.550   3.818  0.2131 -0.1713  0.3413
 7430SOL    HW133926   1.072   1.515   3.732 -0.4308  1.8101 -0.2937
 7430SOL    HW233927   1.017   1.571   3.868  1.6131  1.1215  2.0109
 7431SOL     OW33928   0.073   4.688   6.859 -0.3561  0.1552  0.6669
 7431SOL    HW133929   0.032   4.687   6.772  2.3520 -1.9264 -0.5795
 7431SOL    HW233930   0.161   4.714   6.833  0.0775 -0.5090  1.4733
 7432SOL     OW33931   0.495   1.680  11.999 -0.1862 -0.0480 -0.5096
 7432SOL    HW133932   0.508   1.591  11.969  1.0620  0.1595 -0.5739
 7432SOL    HW233933   0.475   1.671  12.093 -1.8591 -1.2239 -0.9698
 7433SOL     OW33934   2.259   0.497   5.850 -0.0431  0.2180  0.8476
 7433SOL    HW133935   2.239   0.573   5.795  0.9445  1.3478  2.0559
 7433SOL    HW233936   2.343   0.521   5.888 -0.1173 -1.4439  2.0247
 7434SOL     OW33937   3.685   1.060   3.773 -0.0164  0.5093 -0.0735
 7434SOL    HW133938   3.715   1.082   3.684  4.4196 -2.5249  0.6502
 7434SOL    HW233939   3.764   1.010   3.796 -0.1964 -0.2704 -1.1676
 7435SOL     OW33940   1.526   4.072   2.987 -0.3527  0.1806 -0.0150
 7435SOL    HW133941   1.493   3.998   2.936  2.4927 -2.3116  1.7659
 7435SOL    HW233942   1.454   4.092   3.046 -0.6766  1.5488 -0.8841
 7436SOL     OW33943   2.760   0.584  15.157 -0.3730  0.5233 -0.3810
 7436SOL    HW133944   2.755   0.620  15.069  1.6502 -0.7094 -0.9862
 7436SOL    HW233945   2.851   0.562  15.177 -0.4294  0.0970 -0.6082
 7437SOL     OW33946   3.460   0.455   8.380  0.5047  0.0491 -0.2976
 7437SOL    HW133947   3.537   0.419   8.337 -0.1787 -2.7657  0.8416
 7437SOL    HW233948   3.392   0.407   8.333  0.1884  0.5488 -0.3445
 7438SOL     OW33949   3.914   2.430   8.641  0.3776  0.4738  0.6715
 7438SOL    HW133950   3.874   2.407   8.725 -1.3467  0.3851 -0.1762
 7438SOL    HW233951   3.915   2.526   8.646 -0.3507  0.4881  0.4881
 7439SOL     OW33952   4.596   1.267   1.399 -0.1119  0.3632  0.3616
 7439SOL    HW133953   4.574   1.351   1.359 -1.4854  0.0181  0.3967
 7439SOL    HW233954   4.597   1.293   1.491 -0.2213  0.5261  0.3169
 7440SOL     OW33955   2.793   2.870  17.168  0.3897 -0.0106  0.2849
 7440SOL    HW133956   2.736   2.947  17.163  1.4689  0.7267 -0.7560
 7440SOL    HW233957   2.771   2.847  17.258 -1.5354  1.2949  0.1516
 7441SOL     OW33958   0.444   3.820   0.051  0.3165  0.3818  0.2727
 7441SOL    HW133959   0.414   3.911   0.062 -1.6971 -0.2518  0.0904
 7441SOL    HW233960   0.385   3.799  17.748  1.5879 -3.1086  0.2706
 7442SOL     OW33961   2.721   0.777  17.154  0.3611 -0.0746 -0.0115
 7442SOL    HW133962   2.641   0.800  17.201  1.4952  1.6848  1.0548
 7442SOL    HW233963   2.683   0.776  17.066 -0.2495 -2.0616  0.2730
 7443SOL     OW33964   2.512   3.561   3.902 -0.0499 -0.1005 -0.5608
 7443SOL    HW133965   2.578   3.620   3.866  1.3972 -0.8408  0.8699
 7443SOL    HW233966   2.436   3.614   3.926  0.6902  0.2253  1.1118
 7444SOL     OW33967   1.598   2.409   3.810  0.2957  0.2359  0.1695
 7444SOL    HW133968   1.518   2.410   3.757 -0.4893 -0.4489  1.3382
 7444SOL    HW233969   1.639   2.324   3.791 -0.5159 -0.4292  1.4299
 7445SOL     OW33970   1.461   4.249   4.936  0.4114 -0.0807 -0.3387
 7445SOL    HW133971   1.537   4.191   4.932  0.4359  0.0334 -1.6544
 7445SOL    HW233972   1.390   4.184   4.939  0.8938 -0.6053 -0.2194
 7446SOL     OW33973   3.830   2.159   3.861 -0.0927 -0.0192  0.5793
 7446SOL    HW133974   3.739   2.189   3.857 -0.3352 -0.7982  0.2757
 7446SOL    HW233975   3.842   2.081   3.807 -3.4397  0.6446 -1.1197
 7447SOL     OW33976   2.442   1.515   9.110 -0.0070 -0.3862  0.3347
 7447SOL    HW133977   2.426   1.575   9.183 -0.3281 -0.3565  0.2368
 7447SOL    HW233978   2.360   1.472   9.088 -1.0098  0.6280  2.1318
 7448SOL     OW33979   4.030   2.113   4.084  0.0357 -0.7179  0.1277
 7448SOL    HW133980   4.066   2.195   4.117  1.0234 -0.1817 -2.2832
 7448SOL    HW233981   3.981   2.145   4.008 -0.1370 -1.1784  0.0465
 7449SOL     OW33982   4.413   0.609   5.365 -0.1122 -0.0997 -0.1848
 7449SOL    HW133983   4.491   0.641   5.410  0.2293 -0.8317 -0.2422
 7449SOL    HW233984   4.357   0.568   5.430 -0.6339 -1.2246 -1.3238
 7450SOL     OW33985   0.108   3.728   4.968 -0.1515 -0.1496  0.0506
 7450SOL    HW133986   0.065   3.706   5.051 -0.4337  3.0170  0.7410
 7450SOL    HW233987   0.126   3.820   4.985  2.8409 -0.8903  0.9001
 7451SOL     OW33988   1.284   3.472   7.509  0.6723 -0.0567  0.0840
 7451SOL    HW133989   1.321   3.420   7.439 -1.3613 -0.4071 -0.7326
 7451SOL    HW233990   1.297   3.416   7.586  2.5736  0.1543 -0.0973
 7452SOL     OW33991   2.514   1.767  16.764  0.3290  0.0783  0.4091
 7452SOL    HW133992   2.542   1.852  16.730  1.5356 -0.2270  0.6634
 7452SOL    HW233993   2.425   1.788  16.794 -0.1811 -2.4308  0.6227
 7453SOL     OW33994   2.708   4.570   1.999  0.7754  0.3211  0.7258
 7453SOL    HW133995   2.749   4.504   1.943  0.8337  0.3944  0.6822
 7453SOL    HW233996   2.718   4.529   2.085  1.4696  3.0012  1.9251
 7454SOL     OW33997   2.848   0.714   6.043  0.0893  0.6785  0.0053
 7454SOL    HW133998   2.846   0.647   6.111  0.8514  1.2427  0.5753
 7454SOL    HW233999   2.941   0.720   6.022  0.4979 -1.3043  1.3442
 7455SOL     OW34000   2.419   0.242   6.134  1.0447 -0.0064  0.1828
 7455SOL    HW134001   2.405   0.264   6.226 -1.2094  0.6698 -0.3182
 7455SOL    HW234002   2.344   0.189   6.108 -0.4956  0.9288  2.6851
 7456SOL     OW34003   4.548   1.341   3.493 -0.4197 -0.0468 -0.0591
 7456SOL    HW134004   4.573   1.431   3.515 -0.0334 -0.5309  1.5339
 7456SOL    HW234005   4.598   1.325   3.413 -1.0351 -1.9961 -0.0576
 7457SOL     OW34006   1.229   0.953  17.145  0.0626 -0.2009  0.4500
 7457SOL    HW134007   1.298   0.887  17.139 -1.1328 -1.3223 -0.7152
 7457SOL    HW234008   1.286   1.028  17.165  1.6714 -1.5371  0.8568
 7458SOL     OW34009   0.494   3.887   5.362 -0.0549 -0.0739  0.2899
 7458SOL    HW134010   0.474   3.854   5.449 -1.2245 -3.4622 -1.2388
 7458SOL    HW234011   0.510   3.803   5.318  0.1692 -0.9265  1.9848
 7459SOL     OW34012   4.734   4.429  14.064  0.0689  0.5740 -0.6967
 7459SOL    HW134013   4.646   4.433  14.029 -0.7034  1.4173  1.3135
 7459SOL    HW234014   0.042   4.389  13.994  0.2710  0.5330 -0.5287
 7460SOL     OW34015   3.076   4.622  17.017  0.7662  0.6270 -0.0746
 7460SOL    HW134016   3.069   4.704  17.066  1.2548 -0.2962  1.5393
 7460SOL    HW234017   3.124   4.650  16.939 -2.2896  0.9910 -1.8543
 7461SOL     OW34018   1.823   2.358   8.573 -0.5490  0.2803 -0.7590
 7461SOL    HW134019   1.807   2.341   8.666  0.8374  1.7464 -0.2381
 7461SOL    HW234020   1.917   2.350   8.588 -0.6629 -0.0815 -0.2578
 7462SOL     OW34021   3.352   0.977   8.937 -0.0642 -0.2208 -0.0751
 7462SOL    HW134022   3.387   0.986   9.025  0.7655  1.5472 -0.5899
 7462SOL    HW234023   3.343   0.882   8.948 -1.4315  0.0789  1.4008
 7463SOL     OW34024   3.993   2.838   9.891 -0.6222 -0.0864  0.2902
 7463SOL    HW134025   3.916   2.783   9.901 -0.6252  0.1230  1.3599
 7463SOL    HW234026   4.047   2.781   9.946  1.4154 -0.8493 -2.4704
 7464SOL     OW34027   2.262   1.626   9.333  0.8638 -0.4123 -0.1075
 7464SOL    HW134028   2.317   1.646   9.409  1.7265 -0.8226 -0.6264
 7464SOL    HW234029   2.237   1.535   9.348  0.2991 -0.0574  1.0789
 7465SOL     OW34030   4.403   3.897   1.896 -0.0355 -0.1344 -0.6506
 7465SOL    HW134031   4.331   3.898   1.959  1.6827 -1.7022  1.3501
 7465SOL    HW234032   4.364   3.893   1.809 -3.0713  0.1478  0.7071
 7466SOL     OW34033   3.253   0.238   5.835 -0.1973 -0.1183  0.4924
 7466SOL    HW134034   3.183   0.205   5.779  0.4740  0.2514 -0.5491
 7466SOL    HW234035   3.322   0.237   5.768 -1.0533  0.0365 -0.3824
 7467SOL     OW34036   0.100   4.311   5.775 -0.3735 -0.3599  0.2391
 7467SOL    HW134037   0.076   4.403   5.787  0.6901 -0.0336 -0.1858
 7467SOL    HW234038   0.108   4.297   5.680  0.1383  0.6740  0.1356
 7468SOL     OW34039   3.450   2.760   4.773 -0.2596 -0.1897 -0.1264
 7468SOL    HW134040   3.491   2.818   4.837 -0.2901 -2.4128  1.8990
 7468SOL    HW234041   3.397   2.828   4.730  0.5946  0.4289 -0.2123
 7469SOL     OW34042   1.745   4.645   9.504  0.3094  0.1288  0.4495
 7469SOL    HW134043   1.680   4.587   9.464  0.0273 -0.0941  1.2327
 7469SOL    HW234044   1.732   4.727   9.457 -0.8360  0.6766  1.7171
 7470SOL     OW34045   1.485   1.456  15.499 -0.1600 -0.8207 -0.2938
 7470SOL    HW134046   1.471   1.430  15.591  0.0497  1.8828  0.4980
 7470SOL    HW234047   1.513   1.547  15.505  0.5987 -1.1056  0.5690
 7471SOL     OW34048   1.083   4.118  11.744  0.1857  0.2189 -0.1219
 7471SOL    HW134049   1.121   4.205  11.735 -0.6522  0.3957 -1.9050
 7471SOL    HW234050   1.047   4.110  11.655  0.8241 -0.5223 -0.3095
 7472SOL     OW34051   0.468   3.983   0.924  0.4349 -0.6407 -0.5099
 7472SOL    HW134052   0.409   4.058   0.927  0.6702 -0.4531 -0.4877
 7472SOL    HW234053   0.545   4.025   0.886 -0.1680  0.0246 -0.9964
 7473SOL     OW34054   2.675   1.909   9.134 -0.0516  0.3955  0.4555
 7473SOL    HW134055   2.696   1.816   9.145  1.9885  0.6142 -1.4034
 7473SOL    HW234056   2.683   1.895   9.039  0.6599 -0.5781  0.6560
 7474SOL     OW34057   2.088   2.969   1.516 -0.6986 -0.1181 -0.2008
 7474SOL    HW134058   2.095   3.059   1.546  0.8418 -0.3381  0.0719
 7474SOL    HW234059   2.018   2.977   1.451  1.2480  1.7678 -2.0340
 7475SOL     OW34060   2.632   0.219   6.626  0.0676 -0.3711 -0.0391
 7475SOL    HW134061   2.599   0.187   6.710  0.6584 -1.7514 -0.3282
 7475SOL    HW234062   2.705   0.269   6.665 -0.9258  1.0292  0.0028
 7476SOL     OW34063   1.439   2.556  14.236 -0.2957  0.1416  0.1754
 7476SOL    HW134064   1.411   2.471  14.270  1.3719 -1.1080 -1.5712
 7476SOL    HW234065   1.379   2.577  14.164  1.8374  0.7294 -1.4376
 7477SOL     OW34066   3.065   4.260  17.436 -0.3911  0.0666  0.4033
 7477SOL    HW134067   3.029   4.263  17.347  2.4209  0.1456 -0.7140
 7477SOL    HW234068   3.131   4.329  17.428  0.4452 -0.7159  0.5810
 7478SOL     OW34069   3.294   1.621  11.998  0.4506  0.4153  0.0183
 7478SOL    HW134070   3.373   1.673  12.011 -0.2001  1.9276 -2.1654
 7478SOL    HW234071   3.325   1.535  11.970 -2.2162 -0.7754  0.6826
 7479SOL     OW34072   0.633   2.804   0.615 -0.3428 -1.0605 -0.5802
 7479SOL    HW134073   0.724   2.776   0.605  0.6043  2.4827 -1.8285
 7479SOL    HW234074   0.626   2.796   0.711 -1.5803 -0.6423 -0.6389
 7480SOL     OW34075   0.785   1.694   5.902  0.0103 -0.2970 -0.8980
 7480SOL    HW134076   0.835   1.752   5.959 -0.7292 -0.3490 -0.2036
 7480SOL    HW234077   0.731   1.750   5.847 -1.3874 -3.3653 -2.6738
 7481SOL     OW34078   2.442   4.360   3.830  0.5498 -0.0206 -0.5643
 7481SOL    HW134079   2.534   4.371   3.809  0.6461  0.8598  0.3209
 7481SOL    HW234080   2.416   4.317   3.749  2.8549 -0.9243 -0.8139
 7482SOL     OW34081   4.004   2.084   4.998 -0.4411 -0.2556  0.0887
 7482SOL    HW134082   4.071   2.149   4.977  0.1943 -1.1113 -0.5659
 7482SOL    HW234083   4.037   2.049   5.081  0.9099 -1.1846 -0.8260
 7483SOL     OW34084   2.680   1.342   0.385  0.1374 -0.5173 -0.2003
 7483SOL    HW134085   2.767   1.355   0.347  0.2887 -1.5330 -0.1966
 7483SOL    HW234086   2.652   1.430   0.411  0.6675  0.1752 -1.9967
 7484SOL     OW34087   1.149   4.483   4.211  0.1913 -0.8677 -0.2687
 7484SOL    HW134088   1.132   4.405   4.264 -2.0638  0.4487  0.9791
 7484SOL    HW234089   1.166   4.442   4.126 -1.2894 -0.4075 -0.7849
 7485SOL     OW34090   1.119   0.905   8.922  0.8016  0.1913  0.5012
 7485SOL    HW134091   1.175   0.970   8.963  0.2260  0.7999  0.3194
 7485SOL    HW234092   1.071   0.959   8.860  0.5227  2.5526  2.7781
 7486SOL     OW34093   2.353   0.012   5.738  0.0347  0.2237  0.5220
 7486SOL    HW134094   2.429   4.700   5.718  0.4330  0.7658  0.5277
 7486SOL    HW234095   2.281   4.709   5.695  0.5243 -1.5406  1.5890
 7487SOL     OW34096   0.350   0.257   6.012 -0.2688  0.2516 -0.8162
 7487SOL    HW134097   0.420   0.281   6.073 -3.0447  0.0321  2.4260
 7487SOL    HW234098   0.399   0.216   5.940 -2.5089 -1.3890 -1.3845
 7488SOL     OW34099   4.199   4.602   1.703  0.4631 -0.5906  0.3149
 7488SOL    HW134100   4.193   4.642   1.616 -0.1574 -2.0341 -0.3177
 7488SOL    HW234101   4.291   4.619   1.723  0.3919 -1.0068  1.0117
 7489SOL     OW34102   3.752   3.987   6.034 -0.0400 -0.3876 -0.2078
 7489SOL    HW134103   3.673   4.022   6.076 -1.1350 -1.5482 -1.2929
 7489SOL    HW234104   3.731   4.005   5.942  1.0048  0.9372 -0.1982
 7490SOL     OW34105   3.665   4.544   4.897  0.4178  0.3837  0.1743
 7490SOL    HW134106   3.756   4.516   4.888  0.3029 -0.6545  2.2739
 7490SOL    HW234107   3.636   4.554   4.806  0.7183  0.4588  0.0866
 7491SOL     OW34108   4.334   2.909  11.726 -0.1035  0.6274  0.1987
 7491SOL    HW134109   4.399   2.925  11.795  0.6280  0.7775 -0.5342
 7491SOL    HW234110   4.376   2.860  11.655  0.6238  0.9188  0.4272
 7492SOL     OW34111   0.514   1.928   8.463 -0.3430  0.5041 -0.0769
 7492SOL    HW134112   0.605   1.956   8.454 -0.2088  0.2160  0.3589
 7492SOL    HW234113   0.498   1.891   8.376  1.2648 -1.2326  0.3712
 7493SOL     OW34114   3.542   1.876   4.241 -0.1407 -0.2722  0.0946
 7493SOL    HW134115   3.514   1.918   4.323  0.5255 -1.0572  0.7224
 7493SOL    HW234116   3.461   1.874   4.189  0.2620 -1.3523 -0.4817
 7494SOL     OW34117   3.371   1.299   4.424 -0.0399  0.3573  0.0008
 7494SOL    HW134118   3.407   1.349   4.498  3.6949 -0.8709 -0.9951
 7494SOL    HW234119   3.442   1.305   4.361  0.2998 -0.1191  0.3344
 7495SOL     OW34120   3.776   2.198   4.894 -0.0517 -0.1769 -0.1107
 7495SOL    HW134121   3.860   2.160   4.922  0.5317 -0.0885 -1.6923
 7495SOL    HW234122   3.792   2.202   4.799  0.3453 -1.5185 -0.1061
 7496SOL     OW34123   0.837   4.119   7.898  0.0471 -0.0827 -0.2346
 7496SOL    HW134124   0.766   4.058   7.919  0.0934  0.3611  1.2094
 7496SOL    HW234125   0.869   4.093   7.812  2.7674  2.8112 -0.0723
 7497SOL     OW34126   2.561   0.086   9.472 -0.1655 -0.2769  0.8826
 7497SOL    HW134127   2.572   0.001   9.515  0.2834 -1.6601 -1.9352
 7497SOL    HW234128   2.638   0.133   9.504  0.8250 -0.0426 -1.8927
 7498SOL     OW34129   0.583   2.881   6.520  0.0564 -0.0101 -0.0244
 7498SOL    HW134130   0.652   2.900   6.456  0.8050  0.5808  0.9520
 7498SOL    HW234131   0.518   2.846   6.459  0.6709 -0.9392 -0.1391
 7499SOL     OW34132   1.638   4.695   1.328 -0.3393 -0.2788  0.7154
 7499SOL    HW134133   1.604   4.607   1.343  1.6301 -1.1718 -0.1267
 7499SOL    HW234134   1.566   4.742   1.371 -0.2673  0.8093 -0.3186
 7500SOL     OW34135   2.071   0.757   1.965  0.3425  0.3663  0.1015
 7500SOL    HW134136   2.099   0.846   1.984  0.8782  0.3202 -0.4647
 7500SOL    HW234137   2.155   0.721   1.936 -0.5414 -1.7367  0.0976
 7501SOL     OW34138   0.267   0.470   1.895 -0.8977 -0.3981 -0.1412
 7501SOL    HW134139   0.230   0.541   1.841 -0.7060  0.1195  0.4109
 7501SOL    HW234140   0.202   0.400   1.893 -3.0485  1.5723 -0.5710
 7502SOL     OW34141   3.392   1.984  12.070  0.4500 -0.6249 -0.0136
 7502SOL    HW134142   3.457   1.950  12.010  2.1642  0.0859  1.4561
 7502SOL    HW234143   3.314   1.943  12.032  1.4472 -1.3815 -1.2234
 7503SOL     OW34144   4.509   1.535  12.766  0.1781 -0.1855  0.2909
 7503SOL    HW134145   4.528   1.442  12.760  2.2807  0.3330 -1.0333
 7503SOL    HW234146   4.578   1.565  12.707 -0.4536 -0.0503 -0.3876
 7504SOL     OW34147   2.092   3.498  11.974  0.3557 -0.1071 -0.1666
 7504SOL    HW134148   2.026   3.553  11.931  1.6549  1.5528 -0.0507
 7504SOL    HW234149   2.128   3.567  12.031 -0.2696  0.0013  0.1050
 7505SOL     OW34150   1.709   0.590   2.425 -0.7640  0.5653 -0.6465
 7505SOL    HW134151   1.754   0.559   2.504 -1.0149 -0.2135 -0.8119
 7505SOL    HW234152   1.785   0.604   2.368 -1.3829  0.8229 -1.4063
 7506SOL     OW34153   4.147   3.853   6.735  0.0790  0.8776 -0.2133
 7506SOL    HW134154   4.230   3.848   6.783 -0.5034 -2.1870  0.5017
 7506SOL    HW234155   4.097   3.910   6.793  0.0135 -0.1362  0.7268
 7507SOL     OW34156   0.206   2.244  13.645  0.5879  0.0637  0.5894
 7507SOL    HW134157   0.297   2.273  13.652  0.5615  0.5135 -0.9807
 7507SOL    HW234158   0.167   2.324  13.609 -1.7250 -0.6548  1.4721
 7508SOL     OW34159   3.234   4.508   7.936  0.0696  1.0280  0.2003
 7508SOL    HW134160   3.273   4.481   8.019 -0.2226  2.5897  0.8530
 7508SOL    HW234161   3.282   4.587   7.912  0.6553  0.0420 -1.8711
 7509SOL     OW34162   1.261   4.353   3.337  0.2325 -0.4389  0.4177
 7509SOL    HW134163   1.207   4.370   3.260  1.6482  1.0310 -0.2480
 7509SOL    HW234164   1.233   4.431   3.384  0.7041  0.6909 -1.2115
 7510SOL     OW34165   0.451   1.344  12.135  0.2619  0.4151  0.4092
 7510SOL    HW134166   0.471   1.369  12.225 -0.9936  0.6502  0.6280
 7510SOL    HW234167   0.517   1.395  12.088 -1.3295  1.9212 -0.2037
 7511SOL     OW34168   4.144   1.083   8.837  0.3549  0.0924 -0.5140
 7511SOL    HW134169   4.134   1.032   8.756  0.4829 -2.1232  0.8516
 7511SOL    HW234170   4.124   1.173   8.811  3.3269  1.0891  0.6808
 7512SOL     OW34171   3.680   4.487   9.984 -0.2788  0.2068 -0.2234
 7512SOL    HW134172   3.730   4.487  10.066  1.1715 -0.3947 -1.1105
 7512SOL    HW234173   3.649   4.577   9.990  0.6217  0.2060  4.6137
 7513SOL     OW34174   3.111   4.266   7.541 -0.9167  0.2384 -0.2829
 7513SOL    HW134175   3.036   4.218   7.507  0.4264 -0.6915 -1.9134
 7513SOL    HW234176   3.084   4.286   7.631 -1.1407  1.1010 -0.5443
 7514SOL     OW34177   3.349   3.910  17.588 -0.0557  0.0170  0.0557
 7514SOL    HW134178   3.319   3.905  17.497  0.9304 -2.2328 -0.1438
 7514SOL    HW234179   3.294   3.978  17.627 -0.3930 -1.6048  2.3768
 7515SOL     OW34180   0.851   2.783   1.189 -0.7100  0.3669 -0.1014
 7515SOL    HW134181   0.841   2.861   1.134  0.4285  1.6913  1.6018
 7515SOL    HW234182   0.918   2.748   1.130 -0.4106 -0.9603  1.0249
 7516SOL     OW34183   3.356   0.073   7.874  0.0286 -0.1092 -0.1662
 7516SOL    HW134184   3.375   0.140   7.940 -0.0515  0.2019 -0.4570
 7516SOL    HW234185   3.334   0.124   7.795  1.7215  1.8024  0.6042
 7517SOL     OW34186   0.384   1.745   7.094  0.3774 -0.8624  0.4156
 7517SOL    HW134187   0.292   1.725   7.114 -0.5915  4.1573  0.9552
 7517SOL    HW234188   0.375   1.770   7.002  1.4050  0.0606  0.5629
 7518SOL     OW34189   2.646   1.752  11.021  0.3671  0.4500  0.2637
 7518SOL    HW134190   2.554   1.743  11.047  0.7407  1.1377  1.8354
 7518SOL    HW234191   2.692   1.735  11.103 -0.9864 -2.5287  0.4185
 7519SOL     OW34192   1.583   1.437   2.459 -0.1245  0.0261  0.0532
 7519SOL    HW134193   1.671   1.406   2.438  1.1264  2.4018  1.9501
 7519SOL    HW234194   1.535   1.354   2.468 -0.7796  0.2261 -1.5630
 7520SOL     OW34195   1.837   4.380   2.577 -0.2554  0.2309 -0.0587
 7520SOL    HW134196   1.832   4.336   2.492 -2.4380  0.2852  0.0221
 7520SOL    HW234197   1.763   4.440   2.566 -0.8282 -0.6900 -1.2085
 7521SOL     OW34198   0.120   0.646   5.146  0.1633 -0.4105  0.1365
 7521SOL    HW134199   0.118   0.551   5.142  0.2177 -0.4567  1.1202
 7521SOL    HW234200   0.054   0.679   5.085 -0.2598  1.8507  1.8003
 7522SOL     OW34201   0.704   0.896   8.076 -0.1317  0.4319 -0.2127
 7522SOL    HW134202   0.750   0.839   8.138  2.1457  2.8882  0.3726
 7522SOL    HW234203   0.643   0.833   8.039 -0.6506  0.6643  0.2473
 7523SOL     OW34204   4.009   3.803   5.242  0.3462  0.0704 -0.1989
 7523SOL    HW134205   4.030   3.824   5.333 -3.5019 -0.0171  0.6860
 7523SOL    HW234206   4.070   3.855   5.189 -0.5382 -0.7224 -1.9700
 7524SOL     OW34207   4.177   1.668   1.174  0.2445 -0.1032 -0.0248
 7524SOL    HW134208   4.089   1.680   1.139  0.5968  0.1448 -0.8272
 7524SOL    HW234209   4.221   1.628   1.099  0.1920 -0.8698  0.3547
 7525SOL     OW34210   1.975   3.929  14.328 -0.0464 -0.2633  0.3019
 7525SOL    HW134211   1.949   4.002  14.273  2.0401  1.2701  1.3308
 7525SOL    HW234212   2.000   3.849  14.281  1.0002 -0.2045  0.7367
 7526SOL     OW34213   2.424   0.198   7.588  0.2756  0.1557 -0.1474
 7526SOL    HW134214   2.412   0.287   7.621 -2.2059 -0.3888  0.3798
 7526SOL    HW234215   2.490   0.218   7.521  0.0037  1.1410 -0.1173
 7527SOL     OW34216   0.596   0.537   7.352 -0.1522 -0.4316  0.0962
 7527SOL    HW134217   0.580   0.509   7.442  1.0512 -0.1985  0.3824
 7527SOL    HW234218   0.658   0.470   7.321  0.4858  0.3409 -0.2928
 7528SOL     OW34219   1.994   2.993   5.987  0.0040  0.4279  0.1983
 7528SOL    HW134220   2.020   3.040   6.066  1.9890 -1.9654  0.9867
 7528SOL    HW234221   1.996   2.907   6.029  0.4756  0.1404 -0.4060
 7529SOL     OW34222   1.055   2.500  15.337  0.2345 -0.2669 -0.4271
 7529SOL    HW134223   1.010   2.581  15.360 -0.2860 -0.6884  0.0325
 7529SOL    HW234224   1.081   2.460  15.420  0.1551 -1.3094 -0.9048
 7530SOL     OW34225   3.795   4.074   9.036  0.1301  0.4424 -0.0736
 7530SOL    HW134226   3.709   4.102   9.065  0.9911  2.6013  0.3719
 7530SOL    HW234227   3.853   4.120   9.097  0.7608 -1.8547  1.0988
 7531SOL     OW34228   2.587   3.547  16.556  0.0247  0.2765 -0.0895
 7531SOL    HW134229   2.582   3.455  16.531 -0.6663  0.7702 -1.8099
 7531SOL    HW234230   2.658   3.550  16.620  1.3358  0.5053 -1.5239
 7532SOL     OW34231   2.011   3.917  16.446 -0.5705 -0.2701  0.5177
 7532SOL    HW134232   2.075   3.847  16.460  1.2523  0.7136 -2.8794
 7532SOL    HW234233   1.999   3.920  16.351  1.4430  1.6728  0.3351
 7533SOL     OW34234   4.595   3.044   6.948  0.4613  0.3964  0.0207
 7533SOL    HW134235   4.665   3.028   7.012  0.1143 -1.3944 -0.0214
 7533SOL    HW234236   4.595   2.960   6.902  1.3044  0.6113 -0.3610
 7534SOL     OW34237   3.208   1.239   0.808 -0.1117 -0.0034  0.3181
 7534SOL    HW134238   3.212   1.308   0.741 -0.6671 -2.2265 -1.9837
 7534SOL    HW234239   3.166   1.284   0.881 -1.7714  0.4654 -0.9110
 7535SOL     OW34240   2.881   2.329   9.168  0.1465  0.0756 -0.3709
 7535SOL    HW134241   2.966   2.372   9.179  0.8646 -1.0043 -1.7574
 7535SOL    HW234242   2.851   2.328   9.259  1.3478  1.0041  0.0310
 7536SOL     OW34243   4.725   3.634   6.560  0.0137 -0.1218  0.5624
 7536SOL    HW134244   4.629   3.628   6.560  0.0902 -1.4496 -1.0653
 7536SOL    HW234245   4.738   3.728   6.573  1.7874 -0.5022  1.5397
 7537SOL     OW34246   3.413   3.707   6.017 -0.1426 -0.2896 -0.5754
 7537SOL    HW134247   3.337   3.696   5.959 -0.3915 -1.0345 -0.1092
 7537SOL    HW234248   3.462   3.625   6.013 -1.6685 -1.2256  0.1198
 7538SOL     OW34249   0.179   4.376   7.169  0.3321  0.4827 -0.4413
 7538SOL    HW134250   0.142   4.288   7.173  0.1626  0.5816  0.2763
 7538SOL    HW234251   0.245   4.361   7.237 -1.3923 -3.5844  0.3385
 7539SOL     OW34252   0.972   4.299   5.576  0.2004  0.0909  0.7903
 7539SOL    HW134253   0.999   4.297   5.667 -1.4826 -0.3692  1.2732
 7539SOL    HW234254   1.017   4.220   5.547 -0.9811 -0.8912  1.6408
 7540SOL     OW34255   3.734   2.573   5.682 -0.4857 -0.0754 -0.5415
 7540SOL    HW134256   3.817   2.547   5.643  0.4622  2.9268 -0.5419
 7540SOL    HW234257   3.755   2.647   5.740 -1.3751 -0.5107  0.3363
 7541SOL     OW34258   2.001   0.813   2.491 -0.3191 -1.0009 -0.3823
 7541SOL    HW134259   2.047   0.742   2.535 -0.7619  0.0673  1.8411
 7541SOL    HW234260   1.970   0.869   2.563  0.8340  0.0683 -0.7054
 7542SOL     OW34261   0.326   3.859   5.593 -0.2423  0.1616  0.0095
 7542SOL    HW134262   0.329   3.767   5.564  2.0971  0.1782  0.1959
 7542SOL    HW234263   0.231   3.870   5.600 -0.5600 -0.6519 -2.8791
 7543SOL     OW34264   1.757   2.887   1.502  0.4959 -0.1241  0.4604
 7543SOL    HW134265   1.707   2.806   1.492 -1.7447  1.3017  0.2989
 7543SOL    HW234266   1.712   2.939   1.436 -0.1442 -2.1821 -0.7381
 7544SOL     OW34267   2.751   2.522  15.007  0.0665 -1.2057  0.0884
 7544SOL    HW134268   2.776   2.493  14.920 -0.9139  0.6852 -0.8224
 7544SOL    HW234269   2.691   2.452  15.031  0.4221 -2.1469 -1.8136
 7545SOL     OW34270   0.205   1.473   7.408 -0.5003  0.3441  0.3969
 7545SOL    HW134271   0.255   1.459   7.327 -0.8252 -0.2072  0.2896
 7545SOL    HW234272   0.193   1.568   7.407 -0.6419  0.3266  1.7984
 7546SOL     OW34273   1.716   0.993   8.384 -0.7043  0.2988 -0.6454
 7546SOL    HW134274   1.771   1.067   8.358 -2.5176  1.1916 -1.9059
 7546SOL    HW234275   1.708   0.940   8.305  3.5815 -0.6431 -0.4344
 7547SOL     OW34276   3.577   3.075   4.173  0.4302 -0.1312  0.3802
 7547SOL    HW134277   3.641   3.103   4.239 -0.5774 -3.0653  2.5914
 7547SOL    HW234278   3.630   3.007   4.133 -1.2816 -1.8210  0.9863
 7548SOL     OW34279   1.945   1.956   6.693 -0.0274 -0.3191  0.5332
 7548SOL    HW134280   1.994   1.874   6.692 -0.7024 -0.7154 -0.1396
 7548SOL    HW234281   1.884   1.942   6.621 -0.2684  0.8802  0.5058
 7549SOL     OW34282   3.729   0.133  16.728 -0.2517 -0.6412  0.0084
 7549SOL    HW134283   3.727   0.137  16.632  4.0357  1.1032 -0.0209
 7549SOL    HW234284   3.691   0.217  16.752  1.3520  0.1336 -0.1175
 7550SOL     OW34285   0.335   1.077   8.492 -0.0620 -0.2624 -0.0215
 7550SOL    HW134286   0.273   1.003   8.489 -0.3138 -0.0629  0.2217
 7550SOL    HW234287   0.296   1.148   8.441  0.4365  0.4918  0.6404
 7551SOL     OW34288   3.410   3.961   5.894  0.5000 -0.8386 -0.3016
 7551SOL    HW134289   3.322   3.998   5.894  1.4057  1.2768 -1.4869
 7551SOL    HW234290   3.387   3.871   5.868 -1.4821 -0.2065 -0.7192
 7552SOL     OW34291   1.170   2.214   7.816 -0.1614  0.4348 -0.0159
 7552SOL    HW134292   1.230   2.266   7.869 -1.3869 -1.5606  3.2562
 7552SOL    HW234293   1.236   2.178   7.756 -0.6480 -0.2167 -0.1588
 7553SOL     OW34294   1.318   4.637  16.659 -0.7419 -0.1799 -0.4671
 7553SOL    HW134295   1.258   4.706  16.631 -1.0459 -0.1484  0.2644
 7553SOL    HW234296   1.359   4.688  16.729  1.3603 -0.8208 -1.2270
 7554SOL     OW34297   4.535   2.312   2.902 -0.2064 -0.2474  0.8122
 7554SOL    HW134298   4.492   2.244   2.955 -0.1396 -1.5677 -0.8484
 7554SOL    HW234299   4.596   2.258   2.853 -1.6566 -2.8899  1.8939
 7555SOL     OW34300   2.427   3.828   5.348 -0.2044  0.0259 -0.2896
 7555SOL    HW134301   2.506   3.848   5.298 -0.3775  0.8825 -0.2165
 7555SOL    HW234302   2.371   3.900   5.321  0.4794 -0.1133 -2.1044
 7556SOL     OW34303   3.971   0.999  14.047  0.1382 -0.1910  0.0156
 7556SOL    HW134304   4.058   1.027  14.076  0.9966 -0.8567 -1.9103
 7556SOL    HW234305   3.923   1.065  14.097 -0.0251  0.6909 -1.3266
 7557SOL     OW34306   3.238   2.385   5.106  0.2035 -0.3867 -0.2704
 7557SOL    HW134307   3.237   2.471   5.064  0.1408 -0.0040  0.5166
 7557SOL    HW234308   3.159   2.343   5.072 -0.6669  0.5910  0.5273
 7558SOL     OW34309   1.191   1.202   8.326 -0.1102  0.5118  0.0453
 7558SOL    HW134310   1.192   1.190   8.231 -0.9300 -1.8592  0.3367
 7558SOL    HW234311   1.255   1.273   8.332 -1.3039  1.6864 -1.1126
 7559SOL     OW34312   4.566   4.233  17.516 -0.8947 -0.0415 -0.5509
 7559SOL    HW134313   4.637   4.168  17.522 -0.1948  0.7993  0.2080
 7559SOL    HW234314   4.495   4.173  17.537 -1.2916 -0.5650 -3.3674
 7560SOL     OW34315   4.405   2.404   9.251  0.0636  0.0436 -0.2762
 7560SOL    HW134316   4.456   2.454   9.187  0.7296 -1.6157 -1.0381
 7560SOL    HW234317   4.335   2.462   9.281 -0.2816 -0.9869  0.8737
 7561SOL     OW34318   2.282   1.644   5.340  0.1346  0.1993  0.1082
 7561SOL    HW134319   2.220   1.581   5.303  0.0616  1.0467 -1.2050
 7561SOL    HW234320   2.336   1.639   5.261  1.7474 -1.0149  1.2997
 7562SOL     OW34321   2.910   0.612   4.774 -0.4356 -0.2812  0.2548
 7562SOL    HW134322   2.958   0.553   4.832  0.2062 -0.5765 -0.5650
 7562SOL    HW234323   2.821   0.582   4.788 -1.5013  1.9131 -1.6305
 7563SOL     OW34324   0.864   1.858  13.824 -0.1943 -0.0435 -0.3294
 7563SOL    HW134325   0.789   1.804  13.799  0.3324 -0.2864 -1.3758
 7563SOL    HW234326   0.817   1.941  13.825  0.1990  0.1592  2.1625
 7564SOL     OW34327   0.192   1.659   6.855 -0.6113 -0.2040  0.3352
 7564SOL    HW134328   0.165   1.744   6.889  2.3777  1.3153 -1.0340
 7564SOL    HW234329   0.117   1.641   6.799 -1.2363  4.3172 -0.2400
 7565SOL     OW34330   0.554   2.783   0.875  0.4560  0.5396 -0.0398
 7565SOL    HW134331   0.508   2.700   0.888  0.1970  0.5039 -1.1677
 7565SOL    HW234332   0.531   2.829   0.956  0.7391  0.7669 -0.0900
 7566SOL     OW34333   2.708   1.001  16.308 -0.2938 -0.3859  0.2304
 7566SOL    HW134334   2.651   1.066  16.348 -0.9611 -0.6898 -0.2169
 7566SOL    HW234335   2.746   1.051  16.235  0.9511 -1.7695 -0.0816
 7567SOL     OW34336   1.128   0.501   8.573  0.1361  0.1266  0.1616
 7567SOL    HW134337   1.120   0.596   8.581  1.4861  0.5046 -2.7735
 7567SOL    HW234338   1.207   0.486   8.520  0.6312 -1.0470  1.2569
 7568SOL     OW34339   1.224   1.640   1.655 -0.3183 -0.0830  1.0048
 7568SOL    HW134340   1.163   1.573   1.625  0.3387  1.3731 -3.5319
 7568SOL    HW234341   1.296   1.584   1.685 -0.8837 -0.9357  0.7367
 7569SOL     OW34342   4.458   1.151  12.640  0.1788  0.4396 -0.1940
 7569SOL    HW134343   4.491   1.092  12.572 -0.8058  1.0184 -1.1634
 7569SOL    HW234344   4.451   1.228  12.583  2.6514  1.4108  0.7773
 7570SOL     OW34345   0.130   1.935   4.506  0.5308  0.1448 -0.2321
 7570SOL    HW134346   0.068   1.922   4.435  0.7285  0.1348 -0.4033
 7570SOL    HW234347   0.078   1.917   4.585 -0.2155 -1.9233 -1.1818
 7571SOL     OW34348   3.129   2.548   3.591  0.2179  0.6348  0.2106
 7571SOL    HW134349   3.156   2.626   3.639  1.2756 -0.8392  1.9860
 7571SOL    HW234350   3.037   2.572   3.588  0.4459  1.4541 -0.3756
 7572SOL     OW34351   3.714   0.353   1.831 -0.6411  0.1219  0.3229
 7572SOL    HW134352   3.786   0.315   1.780 -0.6037  1.7385 -0.8249
 7572SOL    HW234353   3.714   0.441   1.792 -0.0152  0.0181  0.0847
 7573SOL     OW34354   1.315   4.377   8.297  0.0860  0.0272 -0.1587
 7573SOL    HW134355   1.404   4.392   8.328 -0.7961  0.3556  2.2552
 7573SOL    HW234356   1.276   4.462   8.319  1.8416  1.0918 -1.1941
 7574SOL     OW34357   2.844   0.114   7.183  0.2820 -0.4184 -0.4006
 7574SOL    HW134358   2.762   0.066   7.190 -0.1286  0.6947  2.1895
 7574SOL    HW234359   2.911   0.048   7.162  0.1348 -0.3228 -1.1592
 7575SOL     OW34360   2.613   4.400   4.692 -0.1030  0.1979 -0.0485
 7575SOL    HW134361   2.608   4.306   4.706 -0.5679 -0.0758 -2.0582
 7575SOL    HW234362   2.530   4.420   4.648  0.4541  2.7118  0.0613
 7576SOL     OW34363   0.995   3.507  11.364 -0.1219 -0.1656  0.3611
 7576SOL    HW134364   1.062   3.539  11.304 -0.6252  0.5449  0.1750
 7576SOL    HW234365   1.039   3.534  11.445  1.5661 -1.2342 -0.2051
 7577SOL     OW34366   2.599   3.102  12.634  0.7531 -0.2245  0.0935
 7577SOL    HW134367   2.552   3.167  12.686 -0.0783 -1.1741  0.5138
 7577SOL    HW234368   2.630   3.149  12.556  3.4039 -2.8354 -0.4450
 7578SOL     OW34369   1.821   0.791   8.606 -0.0543  0.9866  0.8900
 7578SOL    HW134370   1.843   0.736   8.681  1.2543  1.0178  0.5398
 7578SOL    HW234371   1.885   0.754   8.545 -0.3660  1.9786 -0.0383
 7579SOL     OW34372   3.167   3.714  10.374  0.4344  0.6088  0.5022
 7579SOL    HW134373   3.212   3.682  10.296 -1.7106 -1.1679  0.0192
 7579SOL    HW234374   3.086   3.677  10.341  0.5128 -0.1964  1.2278
 7580SOL     OW34375   4.145   1.189   2.226 -0.3369  0.6059  0.0858
 7580SOL    HW134376   4.053   1.176   2.247 -0.0760 -1.1786  0.0864
 7580SOL    HW234377   4.151   1.264   2.286 -1.2463  0.6823  0.0766
 7581SOL     OW34378   4.259   1.515   0.947  0.2254 -0.4532  0.0825
 7581SOL    HW134379   4.228   1.447   0.887 -2.5713 -0.2685  1.3166
 7581SOL    HW234380   4.352   1.518   0.927 -0.2122 -2.1308 -2.2086
 7582SOL     OW34381   3.268   4.296   5.188  0.0328  0.1864 -0.7196
 7582SOL    HW134382   3.237   4.273   5.101 -1.6276 -0.6607  0.1011
 7582SOL    HW234383   3.238   4.387   5.196  0.7479  0.5630 -2.4273
 7583SOL     OW34384   2.407   1.344   4.549  0.0055  0.0889 -0.4678
 7583SOL    HW134385   2.421   1.367   4.640 -2.4235  1.7813 -0.5340
 7583SOL    HW234386   2.368   1.257   4.560 -1.4119  0.5120 -2.1926
 7584SOL     OW34387   0.442   1.066   2.146  0.1821  0.5414  0.3365
 7584SOL    HW134388   0.419   1.098   2.059  0.9698  1.5630  0.5078
 7584SOL    HW234389   0.369   1.103   2.196  0.8318  1.0644  0.8984
 7585SOL     OW34390   3.910   0.132   2.176  0.3193  0.2947 -0.2781
 7585SOL    HW134391   3.835   0.138   2.235  0.3346 -0.8603 -0.1447
 7585SOL    HW234392   3.940   0.042   2.184 -0.6350 -0.0410 -0.4495
 7586SOL     OW34393   0.037   0.133  10.576 -0.2181  0.1008 -0.5223
 7586SOL    HW134394   0.126   0.145  10.541 -0.5976  1.0883 -1.1440
 7586SOL    HW234395   4.719   0.184  10.523 -0.3151  0.3507 -0.1650
 7587SOL     OW34396   2.139   4.189   2.473  0.6538  0.1242  0.3008
 7587SOL    HW134397   2.147   4.283   2.489  0.4270 -0.0488  1.4618
 7587SOL    HW234398   2.229   4.162   2.452  0.6439 -0.4165  0.9547
 7588SOL     OW34399   3.830   1.659   8.879 -0.1780 -0.4553 -0.0397
 7588SOL    HW134400   3.924   1.652   8.865  0.2252 -1.5496  3.3811
 7588SOL    HW234401   3.822   1.701   8.964 -0.5634 -0.5972 -0.0066
 7589SOL     OW34402   0.310   1.458  17.754 -0.4632 -0.8507  0.2463
 7589SOL    HW134403   0.398   1.422   0.003 -0.4449 -1.7722 -1.6980
 7589SOL    HW234404   0.300   1.430  17.663 -0.6973 -1.1785  0.3738
 7590SOL     OW34405   1.510   0.569   5.108 -0.3592  0.3180 -0.4145
 7590SOL    HW134406   1.471   0.590   5.023 -2.2354 -2.5947 -0.2979
 7590SOL    HW234407   1.586   0.527   5.068  0.9095  0.8894  1.3840
 7591SOL     OW34408   0.566   3.764   8.871 -0.0691 -0.0724 -0.0198
 7591SOL    HW134409   0.536   3.843   8.828  0.7634  0.9023  1.1718
 7591SOL    HW234410   0.583   3.710   8.794 -1.0243 -1.0709  0.4740
 7592SOL     OW34411   2.751   4.677   5.070  0.0719  0.2646 -0.3074
 7592SOL    HW134412   2.790   4.591   5.054 -0.0042  0.0437  0.6721
 7592SOL    HW234413   2.671   4.672   5.018  0.8482  0.3974 -1.5259
 7593SOL     OW34414   3.499   2.421   1.908 -0.0161  0.1946 -0.8753
 7593SOL    HW134415   3.512   2.328   1.890 -0.8849 -0.0199 -0.4363
 7593SOL    HW234416   3.519   2.470   1.827 -1.1117  0.7728 -0.8082
 7594SOL     OW34417   2.823   1.825   1.735 -0.3381 -0.6807  0.0536
 7594SOL    HW134418   2.773   1.823   1.653  0.0639 -0.7349 -0.1872
 7594SOL    HW234419   2.857   1.914   1.733 -0.3069 -0.7022 -0.6692
 7595SOL     OW34420   2.402   4.059   4.930  0.4109 -0.3363 -0.1145
 7595SOL    HW134421   2.432   4.146   4.956  0.2008 -0.6066  1.0206
 7595SOL    HW234422   2.308   4.072   4.920  0.8789  1.6666 -2.0612
 7596SOL     OW34423   3.076   0.170   8.001  0.0378 -0.2238 -0.6480
 7596SOL    HW134424   2.988   0.138   7.980  0.2242 -1.8202  0.9456
 7596SOL    HW234425   3.129   0.098   7.968  0.9866  1.6623 -3.2732
 7597SOL     OW34426   2.840   2.623   3.568  0.2562 -0.3795  0.0978
 7597SOL    HW134427   2.799   2.702   3.533  2.2054  0.5422 -0.0823
 7597SOL    HW234428   2.769   2.562   3.551 -0.6593  0.7402 -0.0868
 7598SOL     OW34429   1.420   4.079  16.584 -0.6108  0.6528  0.1443
 7598SOL    HW134430   1.437   4.103  16.493 -2.6909  0.7832 -0.2162
 7598SOL    HW234431   1.374   4.154  16.623  1.1840  2.2637 -0.8053
 7599SOL     OW34432   1.633   0.153   4.832  0.3182  0.3123  0.4894
 7599SOL    HW134433   1.628   0.232   4.885 -0.2725  0.1007  0.7552
 7599SOL    HW234434   1.563   0.097   4.867 -1.6732  2.1410 -0.5702
 7600SOL     OW34435   3.295   2.667   6.713 -0.1451  0.0808  0.1814
 7600SOL    HW134436   3.377   2.715   6.720 -0.7496  1.4546 -1.8434
 7600SOL    HW234437   3.261   2.717   6.638  1.3463  0.7184 -0.0654
 7601SOL     OW34438   2.197   3.779   6.353 -0.7206  0.4342  0.5242
 7601SOL    HW134439   2.165   3.777   6.443 -0.3321 -1.2173  0.6296
 7601SOL    HW234440   2.283   3.821   6.356 -0.4170 -0.2543  1.2640
 7602SOL     OW34441   1.500   0.613  14.832  0.2006  0.0659 -0.0118
 7602SOL    HW134442   1.466   0.630  14.744  0.6910 -1.7064 -0.5400
 7602SOL    HW234443   1.569   0.679  14.845  0.1522  0.0151  0.5038
 7603SOL     OW34444   2.535   1.984   4.129 -0.3125  0.3080 -0.1304
 7603SOL    HW134445   2.469   1.976   4.198 -1.5081  0.6911 -1.2336
 7603SOL    HW234446   2.543   2.079   4.136  1.8513 -0.0668  2.3101
 7604SOL     OW34447   1.518   4.202   1.400 -0.0573  0.0517  0.0272
 7604SOL    HW134448   1.501   4.111   1.378 -2.9196  0.3563  0.8864
 7604SOL    HW234449   1.597   4.189   1.452  1.2582 -3.8824 -2.9685
 7605SOL     OW34450   3.314   0.511   5.855 -0.8438  0.4090  0.1401
 7605SOL    HW134451   3.402   0.482   5.878  0.4399  2.9925 -1.5494
 7605SOL    HW234452   3.281   0.433   5.811 -0.3168  1.0070 -1.3117
 7606SOL     OW34453   3.352   4.142   7.175  0.6552 -0.2923  0.3006
 7606SOL    HW134454   3.297   4.130   7.097  0.5465  0.0725  0.3187
 7606SOL    HW234455   3.400   4.223   7.152  0.2709 -0.2881 -0.4745
 7607SOL     OW34456   1.175   3.883   1.452  0.3130 -0.0180 -0.3414
 7607SOL    HW134457   1.138   3.966   1.482  0.0523  0.3173 -1.5737
 7607SOL    HW234458   1.260   3.916   1.422 -0.3528  1.4817 -0.5699
 7608SOL     OW34459   3.275   3.415   6.642  0.3840  0.0836 -0.6119
 7608SOL    HW134460   3.269   3.460   6.726 -2.2178  1.0140 -1.2939
 7608SOL    HW234461   3.357   3.368   6.653  0.7990  0.9822  0.1675
 7609SOL     OW34462   3.083   0.080  16.726 -0.3544 -0.4075  0.7155
 7609SOL    HW134463   3.133   0.002  16.750  3.0681  1.2882 -0.8540
 7609SOL    HW234464   3.109   0.105  16.637 -2.7368 -1.4180 -0.2774
 7610SOL     OW34465   3.790   3.064  10.280 -0.2159 -0.4911 -0.3277
 7610SOL    HW134466   3.756   3.011  10.208  2.5879  1.4631 -3.1205
 7610SOL    HW234467   3.873   3.018  10.288 -0.3854 -0.8517 -0.6321
 7611SOL     OW34468   1.472   0.854   9.050  0.2776  0.3924 -0.2192
 7611SOL    HW134469   1.515   0.793   9.109  0.3932  0.1205 -0.5849
 7611SOL    HW234470   1.431   0.797   8.986  0.8468  0.6553 -0.8213
 7612SOL     OW34471   3.199   2.665  13.917 -0.5597 -0.0586  0.1313
 7612SOL    HW134472   3.244   2.611  13.851  0.4354  0.5504  0.3023
 7612SOL    HW234473   3.263   2.736  13.923  1.2046 -1.5818 -0.5788
 7613SOL     OW34474   3.533   2.925   9.063  0.6991 -0.1248 -0.1642
 7613SOL    HW134475   3.496   2.853   9.115 -0.0547  1.0546  0.9185
 7613SOL    HW234476   3.465   2.992   9.068  1.0895  0.2309  0.4061
 7614SOL     OW34477   1.404   1.637   7.541 -0.4555  0.4016 -0.4774
 7614SOL    HW134478   1.396   1.707   7.605 -0.0528  1.2707 -1.3866
 7614SOL    HW234479   1.313   1.606   7.546 -0.4119  0.2583 -0.5626
 7615SOL     OW34480   4.101   2.614   7.421  0.8520  0.8230 -0.4871
 7615SOL    HW134481   4.039   2.687   7.418 -0.2757 -0.0844  0.8783
 7615SOL    HW234482   4.042   2.549   7.458  0.1904  0.5009 -2.0853
 7616SOL     OW34483   4.041   2.192   9.258  0.2966  0.3424  0.0626
 7616SOL    HW134484   4.006   2.111   9.223 -1.7472  0.3917  1.9675
 7616SOL    HW234485   4.108   2.224   9.197  0.4454 -0.1876 -0.0527
 7617SOL     OW34486   3.305   4.348   2.444  0.1116  0.2299  0.0891
 7617SOL    HW134487   3.337   4.327   2.356 -1.9762 -0.2109 -0.5749
 7617SOL    HW234488   3.348   4.433   2.451 -1.1372  0.4197  5.2920
 7618SOL     OW34489   0.962   1.619  10.733  0.4487 -0.2625  0.3817
 7618SOL    HW134490   0.922   1.573  10.807 -4.9713 -0.7728 -2.8211
 7618SOL    HW234491   1.025   1.673  10.780  2.0301 -1.2635 -0.5870
 7619SOL     OW34492   3.029   1.361   4.481  0.3783 -0.4048  0.2560
 7619SOL    HW134493   3.097   1.319   4.429  1.7080  0.2180  1.5052
 7619SOL    HW234494   3.073   1.418   4.544 -0.3630  1.3861 -0.8552
 7620SOL     OW34495   4.494   1.276  10.359 -0.2056 -0.4306  0.4969
 7620SOL    HW134496   4.504   1.236  10.446 -0.0765 -2.2191 -0.3491
 7620SOL    HW234497   4.528   1.202  10.308  0.2879  0.4199 -0.3961
 7621SOL     OW34498   0.817   3.311  16.581  0.1544  0.7259  0.3807
 7621SOL    HW134499   0.881   3.379  16.560  0.1591  0.9017  0.9748
 7621SOL    HW234500   0.846   3.292  16.670  2.0711 -0.7197 -0.5582
 7622SOL     OW34501   4.001   4.270   0.885  0.2903  0.0318  0.3149
 7622SOL    HW134502   4.083   4.271   0.935  0.3697  2.7527  0.1442
 7622SOL    HW234503   4.005   4.177   0.862 -1.2907 -0.0423  0.3431
 7623SOL     OW34504   1.063   3.768   8.004  0.2202 -0.3974 -0.3470
 7623SOL    HW134505   1.143   3.748   8.053  0.5987  0.7425 -0.4850
 7623SOL    HW234506   1.091   3.769   7.912 -0.5462  2.5133 -0.5531
 7624SOL     OW34507   1.164   2.052   9.926 -0.5098 -0.2035 -0.1938
 7624SOL    HW134508   1.108   2.048   9.849  0.8967 -0.4664 -1.1954
 7624SOL    HW234509   1.214   2.132   9.915  2.0754 -2.0269 -1.6034
 7625SOL     OW34510   3.160   1.715  14.352 -0.2864  0.1728  0.3604
 7625SOL    HW134511   3.132   1.801  14.320 -0.0237  1.0705  2.5810
 7625SOL    HW234512   3.239   1.734  14.401 -0.4855  0.0246  0.7401
 7626SOL     OW34513   0.521   2.343   1.825  0.5815 -0.0963  0.2640
 7626SOL    HW134514   0.463   2.399   1.877  2.1672  0.5351  1.3572
 7626SOL    HW234515   0.475   2.267   1.791  0.7071  0.0829 -0.3148
 7627SOL     OW34516   2.020   0.778   0.976 -0.0815 -0.0860  0.5387
 7627SOL    HW134517   1.929   0.754   0.958 -0.4970  0.0800  2.3913
 7627SOL    HW234518   2.059   0.698   1.012  0.4700  0.0798  0.3124
 7628SOL     OW34519   3.910   1.646   8.436 -0.7754  0.3026 -0.2765
 7628SOL    HW134520   3.962   1.567   8.420 -0.1595  0.4846  0.8294
 7628SOL    HW234521   3.940   1.706   8.367  0.1298 -1.8028 -1.7314
 7629SOL     OW34522   2.903   3.177  16.157 -0.2402 -0.0105 -0.2298
 7629SOL    HW134523   2.953   3.227  16.222  1.8233 -1.8536 -0.4342
 7629SOL    HW234524   2.973   3.115  16.137 -0.1923  0.6137 -2.0493
 7630SOL     OW34525   3.465   2.729  15.427 -0.1368  0.0412 -0.8766
 7630SOL    HW134526   3.452   2.640  15.396  0.5718 -0.6501  0.8021
 7630SOL    HW234527   3.377   2.764  15.416 -0.0429 -0.5304 -3.4064
 7631SOL     OW34528   2.572   0.386   3.173 -0.2745 -0.5088 -0.0111
 7631SOL    HW134529   2.639   0.413   3.236  0.2012  0.2457 -0.8357
 7631SOL    HW234530   2.613   0.303   3.146  1.4789 -0.0790  1.3458
 7632SOL     OW34531   1.482   3.742   3.068 -0.3179  0.1554  0.0128
 7632SOL    HW134532   1.453   3.757   2.978  0.2379 -0.0508 -0.1996
 7632SOL    HW234533   1.396   3.753   3.110 -0.0665 -1.3628  0.9606
 7633SOL     OW34534   2.466   0.666   3.168  0.5288 -0.2471 -0.8415
 7633SOL    HW134535   2.502   0.583   3.199  0.1654  0.0312  0.3346
 7633SOL    HW234536   2.381   0.643   3.131 -0.2868  3.0735 -0.9580
 7634SOL     OW34537   4.157   2.238   2.913 -0.9308  0.7597 -0.3642
 7634SOL    HW134538   4.077   2.271   2.954 -0.5615  0.9709  0.1900
 7634SOL    HW234539   4.177   2.312   2.856 -0.9024  1.4201  0.4982
 7635SOL     OW34540   2.766   1.582  14.151 -0.2732 -0.0369  1.1348
 7635SOL    HW134541   2.784   1.603  14.242  0.1976  0.0366  1.0245
 7635SOL    HW234542   2.853   1.552  14.124 -0.2006  1.5347 -0.3390
 7636SOL     OW34543   3.111   2.721   6.920 -0.6194  0.1560  0.0605
 7636SOL    HW134544   3.133   2.628   6.912 -0.9486  0.1077 -0.2812
 7636SOL    HW234545   3.152   2.769   6.848 -1.4039 -0.0970 -0.5557
 7637SOL     OW34546   4.322   1.489   5.147  0.0240 -0.5486  0.2840
 7637SOL    HW134547   4.330   1.546   5.070 -1.8382 -1.5644 -0.6588
 7637SOL    HW234548   4.405   1.442   5.143  1.5397  2.0725  0.5268
 7638SOL     OW34549   1.542   1.937  15.854 -0.0435  0.1386 -0.1190
 7638SOL    HW134550   1.460   1.922  15.902  0.5057 -0.5979  0.5888
 7638SOL    HW234551   1.554   1.847  15.822  2.4315  0.8382 -1.1409
 7639SOL     OW34552   0.329   3.557   8.367  0.0389 -0.3161  0.9313
 7639SOL    HW134553   0.291   3.612   8.299  1.7192 -0.6407 -0.2574
 7639SOL    HW234554   0.264   3.495   8.400 -1.0057  0.2914 -0.0129
 7640SOL     OW34555   4.542   3.360   2.507 -0.0070 -0.2172 -0.3084
 7640SOL    HW134556   4.501   3.300   2.445  0.8194  0.6761 -1.7192
 7640SOL    HW234557   4.500   3.333   2.589  0.5494  0.2936  0.1479
 7641SOL     OW34558   1.471   4.111   3.634 -0.4623 -0.3467  0.3656
 7641SOL    HW134559   1.514   4.197   3.627  3.4499 -2.3413 -0.1963
 7641SOL    HW234560   1.491   4.112   3.728  0.1662  0.3836  0.2304
 7642SOL     OW34561   3.403   2.164   2.971  0.0837  0.4801 -0.4821
 7642SOL    HW134562   3.390   2.121   3.055  0.8307 -2.2784 -1.7891
 7642SOL    HW234563   3.449   2.093   2.925  2.2627  1.7308 -0.2638
 7643SOL     OW34564   4.446   0.368   4.638 -0.3484  0.3671  0.7490
 7643SOL    HW134565   4.367   0.321   4.610 -0.4861  0.8910  0.2627
 7643SOL    HW234566   4.415   0.457   4.621 -0.9706  0.1326  0.6531
 7644SOL     OW34567   1.384   2.319  10.032  0.2763 -0.3558 -0.3853
 7644SOL    HW134568   1.453   2.360  10.084  0.8278 -0.8563 -0.7368
 7644SOL    HW234569   1.366   2.239  10.082 -0.7263 -0.0448 -0.2471
 7645SOL     OW34570   2.671   2.978  14.867  0.1488 -0.7139 -0.4428
 7645SOL    HW134571   2.739   3.037  14.898 -1.3249 -0.1929  1.8152
 7645SOL    HW234572   2.662   2.998  14.774  1.5614  2.3079  0.0664
 7646SOL     OW34573   0.342   2.483  13.300  0.6200  0.0689 -0.3016
 7646SOL    HW134574   0.338   2.559  13.357 -0.2922 -0.1679 -0.0517
 7646SOL    HW234575   0.252   2.478  13.266  0.7557  2.3905 -0.9719
 7647SOL     OW34576   3.848   3.096   3.124 -0.0469 -0.3452  0.0423
 7647SOL    HW134577   3.895   3.071   3.044  0.3920 -0.5535  0.3621
 7647SOL    HW234578   3.915   3.144   3.174  0.4730 -1.1865  0.1599
 7648SOL     OW34579   3.441   0.930   8.331  0.4609  0.6696  0.0174
 7648SOL    HW134580   3.447   0.872   8.407  1.0886  0.5576 -0.1185
 7648SOL    HW234581   3.458   1.016   8.371 -2.3250  0.4811  1.5989
 7649SOL     OW34582   2.506   1.505  14.199 -0.3177 -0.3240 -0.1112
 7649SOL    HW134583   2.596   1.502  14.168  0.2772  0.0230  1.6079
 7649SOL    HW234584   2.498   1.428  14.256  0.8382 -0.2541  0.1379
 7650SOL     OW34585   1.754   0.347   7.208  0.3039 -0.3202  0.5623
 7650SOL    HW134586   1.711   0.433   7.205  0.1743 -0.4487 -1.1339
 7650SOL    HW234587   1.677   0.297   7.180  0.6716 -0.1734 -0.6907
 7651SOL     OW34588   2.400   2.172  15.131 -0.2794 -0.0032  0.5842
 7651SOL    HW134589   2.349   2.210  15.061 -2.5253 -3.1608  0.5075
 7651SOL    HW234590   2.353   2.205  15.208 -1.0168  0.0943  0.0803
 7652SOL     OW34591   4.021   4.193   3.363 -0.2058  0.2995  0.1459
 7652SOL    HW134592   4.099   4.155   3.403 -0.0751  0.7971  0.3735
 7652SOL    HW234593   4.037   4.287   3.358 -1.9587  0.6509  1.0112
 7653SOL     OW34594   2.480   1.739  14.527 -0.3583  0.2579  0.0931
 7653SOL    HW134595   2.420   1.767  14.457  0.9285  1.7176 -0.4243
 7653SOL    HW234596   2.460   1.796  14.601  2.7521  1.6661 -0.1536
 7654SOL     OW34597   1.257   3.777   3.222 -0.8080  0.5129 -0.1135
 7654SOL    HW134598   1.222   3.715   3.285 -0.4329  0.0664 -0.3460
 7654SOL    HW234599   1.279   3.846   3.284  1.9252 -2.4601  2.1853
 7655SOL     OW34600   0.851   2.274  14.472 -0.3897  0.0777 -0.1604
 7655SOL    HW134601   0.825   2.335  14.403  3.3454  1.6809 -0.1193
 7655SOL    HW234602   0.780   2.285  14.535 -1.5470  0.1494 -1.4836
 7656SOL     OW34603   0.873   3.096   7.719  0.0545  0.6368 -0.1516
 7656SOL    HW134604   0.808   3.134   7.661 -2.1961 -1.9780  0.6185
 7656SOL    HW234605   0.957   3.122   7.682  0.6360 -1.0229 -0.0244
 7657SOL     OW34606   3.062   0.427   7.877  0.2484 -0.3124  0.2416
 7657SOL    HW134607   2.984   0.424   7.822  0.7790 -0.1359 -0.5242
 7657SOL    HW234608   3.066   0.336   7.906 -1.4265 -0.7671 -0.9635
 7658SOL     OW34609   0.813   2.169  16.546 -0.1172  0.4137  0.2081
 7658SOL    HW134610   0.802   2.147  16.638 -3.1836  1.6363  0.1448
 7658SOL    HW234611   0.762   2.093  16.516 -1.4942  1.0042  1.0570
 7659SOL     OW34612   4.437   1.612   8.177  0.9398 -0.0632  0.4052
 7659SOL    HW134613   4.471   1.573   8.258 -0.5392 -0.4312  0.8601
 7659SOL    HW234614   4.455   1.705   8.189 -2.9489  0.5502  1.4932
 7660SOL     OW34615   2.404   1.621   2.764  0.1895 -0.6895  0.1764
 7660SOL    HW134616   2.421   1.560   2.836 -1.9197 -1.2244  0.2033
 7660SOL    HW234617   2.322   1.663   2.789 -1.0639 -3.2958  0.4317
 7661SOL     OW34618   3.952   3.603   1.603  0.2373  0.3052 -0.1387
 7661SOL    HW134619   4.024   3.663   1.623  1.6812 -1.6936  0.5930
 7661SOL    HW234620   3.977   3.575   1.515  1.7695  0.7904  0.1342
 7662SOL     OW34621   4.061   4.515   4.013  0.2736  0.2859  0.8409
 7662SOL    HW134622   4.055   4.465   4.094  0.1859 -0.7798  0.1866
 7662SOL    HW234623   3.973   4.496   3.981 -0.3043 -0.4102  2.8533
 7663SOL     OW34624   2.554   3.179   6.943  0.2325 -0.2317 -0.5887
 7663SOL    HW134625   2.543   3.085   6.954  0.4708 -0.4692 -2.3369
 7663SOL    HW234626   2.542   3.203   7.034  0.2640  0.7250 -0.8374
 7664SOL     OW34627   1.217   1.751   3.940 -0.1690 -0.6364 -0.0770
 7664SOL    HW134628   1.162   1.678   3.910 -0.4093 -0.2103 -0.6869
 7664SOL    HW234629   1.154   1.823   3.949  0.5882 -0.1797  1.4797
 7665SOL     OW34630   3.243   0.334   6.102  0.1518  0.4246 -0.3426
 7665SOL    HW134631   3.168   0.377   6.062 -0.2910  2.3476  2.5293
 7665SOL    HW234632   3.282   0.294   6.025  1.2767 -0.9511  0.9336
 7666SOL     OW34633   0.027   1.389   9.571  0.3365  1.0237 -0.4614
 7666SOL    HW134634   4.699   1.329   9.547  1.6977 -0.1805 -1.4654
 7666SOL    HW234635   0.075   1.414   9.493 -0.6435  1.0628 -1.0484
 7667SOL     OW34636   4.044   3.929   4.472 -0.0628  0.2468 -0.2367
 7667SOL    HW134637   4.020   4.022   4.473 -0.8617  0.0213  2.2510
 7667SOL    HW234638   4.137   3.941   4.453 -0.0971  0.3940 -0.3121
 7668SOL     OW34639   1.030   3.254  17.091 -0.2161  0.3965 -0.3809
 7668SOL    HW134640   0.952   3.277  17.141 -1.5699 -0.6879 -2.0362
 7668SOL    HW234641   1.093   3.240  17.163  1.1474 -1.5229 -1.9446
 7669SOL     OW34642   2.100   0.079   7.698 -0.4555  0.2169 -0.5514
 7669SOL    HW134643   2.176   0.024   7.680 -0.6616 -0.5098  0.7429
 7669SOL    HW234644   2.072   0.045   7.783 -1.0501 -0.6163 -1.0729
 7670SOL     OW34645   1.747   4.171  10.818  0.1130 -0.1318  0.0299
 7670SOL    HW134646   1.788   4.094  10.857 -0.2493  0.1623  0.9887
 7670SOL    HW234647   1.723   4.223  10.895 -4.0750  0.0948 -1.4187
 7671SOL     OW34648   0.100   2.107   6.221 -0.4517  0.3810 -0.0297
 7671SOL    HW134649   0.030   2.108   6.287  0.5404  0.2470  1.0381
 7671SOL    HW234650   0.141   2.193   6.234  0.0718  0.1549 -0.1941
 7672SOL     OW34651   3.840   2.536   6.018  0.0075  0.3623 -0.0759
 7672SOL    HW134652   3.858   2.630   6.017  0.6604  0.2460  2.5858
 7672SOL    HW234653   3.748   2.521   5.995  0.1292 -1.4029  0.5810
 7673SOL     OW34654   1.346   0.693   8.363 -0.1068  0.0226 -0.2765
 7673SOL    HW134655   1.338   0.778   8.406 -0.6672  0.5811 -1.4746
 7673SOL    HW234656   1.252   0.678   8.350  0.0043  0.8366 -2.1184
 7674SOL     OW34657   2.041   4.230   3.023  0.2347 -0.3435 -0.3997
 7674SOL    HW134658   2.117   4.188   2.984 -1.6650 -3.1591 -1.0293
 7674SOL    HW234659   1.978   4.158   3.027 -2.6139  2.1629 -0.2354
 7675SOL     OW34660   3.798   2.060   6.866  0.5208  0.0119  0.0514
 7675SOL    HW134661   3.837   2.039   6.951  0.5597 -1.3549 -0.2951
 7675SOL    HW234662   3.849   2.136   6.838  0.5869  0.3017  0.9514
 7676SOL     OW34663   4.034   4.645   2.683 -0.0148  0.1417 -0.0145
 7676SOL    HW134664   4.090   4.688   2.748  1.0539  0.4922 -1.1793
 7676SOL    HW234665   4.075   4.683   2.606 -0.0623  0.7990  0.2805
 7677SOL     OW34666   4.123   3.074   8.461 -0.0950  0.3834  0.3749
 7677SOL    HW134667   4.149   3.122   8.540  0.1515 -1.0580  1.1747
 7677SOL    HW234668   4.066   3.008   8.499  0.5542  0.9214  2.2759
 7678SOL     OW34669   1.160   1.062  12.304  0.1898  0.1426 -0.7073
 7678SOL    HW134670   1.117   1.109  12.232 -0.4138  1.5761  0.5781
 7678SOL    HW234671   1.186   0.981  12.260  0.5169  0.1875 -0.5932
 7679SOL     OW34672   1.797   0.166   7.885 -0.5399  0.1337  0.3623
 7679SOL    HW134673   1.767   0.075   7.878 -3.1844  1.1314 -1.4588
 7679SOL    HW234674   1.721   0.191   7.939  0.0766  1.3997  0.6351
 7680SOL     OW34675   1.320   3.421   8.027 -0.1448 -0.5170  0.1848
 7680SOL    HW134676   1.249   3.368   8.064 -0.0830 -0.6927  0.0515
 7680SOL    HW234677   1.380   3.348   8.012 -1.6308 -1.4058 -1.4176
 7681SOL     OW34678   1.712   0.107  17.763 -0.2802  0.2502 -0.7244
 7681SOL    HW134679   1.682   0.048  17.693  0.0538  0.2546 -0.8699
 7681SOL    HW234680   1.743   0.186  17.719  1.0475 -0.0588 -0.3613
 7682SOL     OW34681   0.042   0.693   9.465 -0.3988 -0.3406  0.1805
 7682SOL    HW134682   0.109   0.692   9.397 -1.7085  1.8635 -1.1355
 7682SOL    HW234683   0.069   0.774   9.509 -0.6769  1.5324 -3.1553
 7683SOL     OW34684   4.247   1.806   9.022 -0.2818 -0.3904 -0.3890
 7683SOL    HW134685   4.311   1.843   8.962 -0.5522  0.5140 -0.1118
 7683SOL    HW234686   4.295   1.792   9.103  2.0149  4.1316 -0.9855
 7684SOL     OW34687   3.747   4.529   6.632 -0.6873 -0.1508  0.5090
 7684SOL    HW134688   3.694   4.563   6.560  0.1864  2.0564  0.9019
 7684SOL    HW234689   3.798   4.460   6.590  1.2897  0.6597  1.5736
 7685SOL     OW34690   3.075   2.809   5.539  0.4996 -0.0904 -0.1124
 7685SOL    HW134691   3.034   2.885   5.580  1.7947  1.2405 -1.2901
 7685SOL    HW234692   3.002   2.748   5.546  3.4907 -3.9004 -2.5358
 7686SOL     OW34693   1.728   1.378   6.631 -0.0094  0.4404  0.4914
 7686SOL    HW134694   1.707   1.296   6.676  2.6496 -1.5730 -1.9650
 7686SOL    HW234695   1.691   1.437   6.697 -0.1006  0.0613  0.7825
 7687SOL     OW34696   2.666   3.291   3.266  0.0806 -0.1438 -0.2342
 7687SOL    HW134697   2.745   3.273   3.215  1.2010 -0.6876  1.7151
 7687SOL    HW234698   2.599   3.309   3.200  0.7109 -1.7110 -1.3073
 7688SOL     OW34699   2.952   3.427   0.461  0.3252  0.0909 -0.4253
 7688SOL    HW134700   2.907   3.388   0.536  2.1982  0.1077  0.7148
 7688SOL    HW234701   2.895   3.416   0.385  0.0292 -1.0217 -0.0428
 7689SOL     OW34702   2.259   3.978  17.272  0.3862 -0.1783 -0.5228
 7689SOL    HW134703   2.188   4.039  17.292 -0.4676 -1.6226  0.8760
 7689SOL    HW234704   2.206   3.926  17.211  2.2872 -1.6159 -0.9712
 7690SOL     OW34705   2.540   0.070   6.867 -0.0501  0.2959 -0.3993
 7690SOL    HW134706   2.600   0.003   6.900 -1.2409 -0.2037  0.7087
 7690SOL    HW234707   2.543   0.140   6.932 -3.0451 -0.9251  1.0026
 7691SOL     OW34708   2.276   2.339   5.992 -0.3616 -0.4825  0.1612
 7691SOL    HW134709   2.267   2.243   5.987  1.0124 -0.6777  1.3645
 7691SOL    HW234710   2.248   2.364   6.080  0.0977 -1.2691  0.5307
 7692SOL     OW34711   1.475   0.318   7.281 -0.4490  0.3688 -0.2014
 7692SOL    HW134712   1.472   0.241   7.338  1.2570  1.6204  1.5678
 7692SOL    HW234713   1.495   0.378   7.352 -1.6524 -0.1046  0.5486
 7693SOL     OW34714   0.879   0.309   1.229  0.0392 -0.0364 -0.2881
 7693SOL    HW134715   0.904   0.314   1.321  1.5535  1.4856 -0.7737
 7693SOL    HW234716   0.908   0.219   1.214  0.4752  0.1936 -0.8236
 7694SOL     OW34717   4.254   2.280   1.263  0.4738  0.5718  0.5014
 7694SOL    HW134718   4.260   2.278   1.359  2.0815 -2.4164  0.3296
 7694SOL    HW234719   4.200   2.201   1.255  0.6230  0.8295 -2.8551
 7695SOL     OW34720   2.078   4.198   7.245 -0.0355 -0.3929  0.6485
 7695SOL    HW134721   2.106   4.259   7.176  1.7926 -0.8508  0.9874
 7695SOL    HW234722   1.985   4.222   7.250  0.0838  0.6342 -1.6556
 7696SOL     OW34723   1.346   3.257   0.650  0.0972 -0.4126 -0.5652
 7696SOL    HW134724   1.434   3.283   0.678 -0.3017  1.4895 -1.0705
 7696SOL    HW234725   1.342   3.294   0.562  1.6871 -0.2851 -0.5885
 7697SOL     OW34726   4.358   0.065  17.334  0.1134 -0.0566 -0.1497
 7697SOL    HW134727   4.447   0.031  17.320 -1.1549 -2.6769 -1.8927
 7697SOL    HW234728   4.306   4.729  17.340  0.2487 -0.1983 -0.8007
 7698SOL     OW34729   1.877   1.953  16.453  0.6698 -0.5982 -0.4156
 7698SOL    HW134730   1.928   2.033  16.461  0.6134 -0.7886  1.9588
 7698SOL    HW234731   1.791   1.982  16.424  0.6878  1.2689  1.3806
 7699SOL     OW34732   1.079   4.465  10.562  0.5494  0.6259  0.3706
 7699SOL    HW134733   1.143   4.427  10.623 -1.2076 -1.3536  0.9772
 7699SOL    HW234734   1.137   4.503  10.496  1.4362 -2.2001 -0.4627
 7700SOL     OW34735   2.747   1.037   6.640  0.4922  0.7448 -0.1375
 7700SOL    HW134736   2.780   1.036   6.550  0.3066  2.5432 -0.2137
 7700SOL    HW234737   2.712   1.125   6.653  0.3458  0.7237 -0.3818
 7701SOL     OW34738   2.913   3.405   5.914  0.7137  0.5078 -0.4114
 7701SOL    HW134739   2.870   3.487   5.888  0.0055  0.9757  2.2069
 7701SOL    HW234740   2.844   3.373   5.972  0.2531  0.1967 -1.1318
 7702SOL     OW34741   0.903   0.121   6.978  0.1590  0.5542  0.4469
 7702SOL    HW134742   0.832   0.176   6.945 -0.7255 -0.0802  1.3191
 7702SOL    HW234743   0.847   0.064   7.029 -0.9806  2.0303  0.8550
 7703SOL     OW34744   1.001   1.217   4.949 -0.4225  0.1280 -0.2028
 7703SOL    HW134745   0.949   1.149   4.992  0.1205 -0.8160 -1.0321
 7703SOL    HW234746   0.928   1.271   4.918  1.2848  1.0554 -2.5733
 7704SOL     OW34747   1.543   3.324  13.026 -0.0504 -0.1899 -0.2619
 7704SOL    HW134748   1.545   3.405  12.975 -2.0222  0.4534  0.6734
 7704SOL    HW234749   1.636   3.305  13.040  0.3121 -1.1967 -4.1797
 7705SOL     OW34750   3.462   1.015  17.161  0.4293  0.6550  0.1046
 7705SOL    HW134751   3.459   0.972  17.246  0.3284 -0.8239 -0.6547
 7705SOL    HW234752   3.544   0.981  17.127  0.7845  1.8142 -0.2115
 7706SOL     OW34753   0.577   3.254   3.201 -0.0958 -0.1284  0.2466
 7706SOL    HW134754   0.536   3.328   3.246  1.1858  1.1707 -0.7471
 7706SOL    HW234755   0.551   3.251   3.109  0.8299 -1.5384  0.0262
 7707SOL     OW34756   1.421   1.803   2.731 -0.4109 -0.0898  0.1761
 7707SOL    HW134757   1.511   1.801   2.764 -0.4935  2.6315  0.5255
 7707SOL    HW234758   1.378   1.853   2.800  0.2538 -1.2611  1.4488
 7708SOL     OW34759   3.300   3.702   7.192 -0.1808 -0.3891 -0.2880
 7708SOL    HW134760   3.309   3.610   7.213 -0.8156 -0.5307 -0.6345
 7708SOL    HW234761   3.391   3.732   7.193 -0.1837 -0.4482  1.6414
 7709SOL     OW34762   2.218   1.623   8.479 -0.0899  0.6296  0.0031
 7709SOL    HW134763   2.269   1.560   8.429  2.7970  1.8705  1.4309
 7709SOL    HW234764   2.291   1.665   8.524  2.5630 -3.3014 -0.6594
 7710SOL     OW34765   0.622   2.650   1.199 -0.7224  0.0457  0.6167
 7710SOL    HW134766   0.560   2.701   1.147 -2.2277 -0.6506  1.7329
 7710SOL    HW234767   0.698   2.708   1.197 -0.1106 -0.8638 -2.5659
 7711SOL     OW34768   3.711   0.113   5.570 -0.2634 -0.1231  0.3521
 7711SOL    HW134769   3.751   0.030   5.542 -0.7415 -0.2434  0.0203
 7711SOL    HW234770   3.730   0.105   5.663  1.3969 -2.7622 -0.2046
 7712SOL     OW34771   1.987   4.495   7.811  0.2311  0.2606 -0.1815
 7712SOL    HW134772   1.997   4.482   7.717  0.4845 -1.1618  0.0355
 7712SOL    HW234773   1.894   4.514   7.816  0.2072  0.4953 -1.7537
 7713SOL     OW34774   3.940   2.982  15.897 -0.4419 -0.1713 -0.3875
 7713SOL    HW134775   4.023   3.028  15.885  0.1078 -1.3483 -1.0753
 7713SOL    HW234776   3.888   3.049  15.941 -0.4695 -0.7231  0.4168
 7714SOL     OW34777   3.055   2.656   0.352  0.4335 -0.6442 -0.5955
 7714SOL    HW134778   3.108   2.602   0.294  2.3737 -1.1169  1.5891
 7714SOL    HW234779   2.973   2.665   0.304  0.2379  0.7372  0.0097
 7715SOL     OW34780   1.883   1.459  12.746 -0.1292 -0.1789  0.6090
 7715SOL    HW134781   1.960   1.450  12.802  1.1233  2.0911 -0.7286
 7715SOL    HW234782   1.916   1.514  12.675 -1.9720 -0.8142 -0.7620
 7716SOL     OW34783   2.991   1.457  15.394  0.2599 -0.0333  0.2673
 7716SOL    HW134784   3.001   1.431  15.303 -0.6723 -1.0045  0.4348
 7716SOL    HW234785   3.031   1.543  15.391 -1.9300  0.9617 -0.6817
 7717SOL     OW34786   3.607   4.594   3.714  0.0695  0.2403 -0.0213
 7717SOL    HW134787   3.678   4.557   3.662  0.2387  1.3656 -0.5794
 7717SOL    HW234788   3.639   4.683   3.730  1.3498 -0.7169  2.6907
 7718SOL     OW34789   3.839   2.675   2.562  0.1598 -0.1016 -0.4024
 7718SOL    HW134790   3.786   2.611   2.609  1.4040 -0.1796  0.8886
 7718SOL    HW234791   3.872   2.616   2.494 -0.5746  0.2387 -1.0700
 7719SOL     OW34792   1.260   0.583   2.620  1.1548  0.1835  0.1835
 7719SOL    HW134793   1.173   0.591   2.580  1.1229  1.6361  0.5307
 7719SOL    HW234794   1.280   0.495   2.589  0.9464  0.5064 -0.8546
 7720SOL     OW34795   1.062   3.953   9.470 -0.1908 -0.3239 -0.0557
 7720SOL    HW134796   1.028   3.902   9.396  0.3518 -1.7379  0.6708
 7720SOL    HW234797   1.038   3.891   9.539 -2.7302 -0.3832 -1.0016
 7721SOL     OW34798   0.638   2.298   9.165 -0.2259 -0.4286 -0.6391
 7721SOL    HW134799   0.579   2.366   9.198  1.1894  1.2690 -1.5781
 7721SOL    HW234800   0.598   2.220   9.203  0.3550 -0.8622 -0.9220
 7722SOL     OW34801   2.539   0.449   8.982 -0.5840 -0.3755  0.0300
 7722SOL    HW134802   2.526   0.400   8.902  2.2095  0.1687 -0.7733
 7722SOL    HW234803   2.541   0.375   9.042  1.4542 -1.6404 -1.5930
 7723SOL     OW34804   0.464   2.092   5.662 -0.3358  0.4392 -0.4963
 7723SOL    HW134805   0.386   2.107   5.716  0.0190 -1.9237  0.7007
 7723SOL    HW234806   0.434   2.125   5.578 -0.1483  0.7287 -0.4494
 7724SOL     OW34807   4.001   0.328   6.740 -0.2255  0.4136  0.0442
 7724SOL    HW134808   3.935   0.274   6.696  0.2700 -0.2237  0.0817
 7724SOL    HW234809   4.006   0.405   6.684 -0.7302  0.2565 -0.2228
 7725SOL     OW34810   2.027   4.404   2.796  0.4801 -0.2406 -0.3465
 7725SOL    HW134811   1.953   4.401   2.734  0.1124  2.3544 -0.0041
 7725SOL    HW234812   2.008   4.326   2.849 -1.4310 -0.6059 -1.5353
 7726SOL     OW34813   2.501   4.624   3.950  0.3358  0.6139 -0.4178
 7726SOL    HW134814   2.417   4.654   3.986  1.9935  0.8532  3.1525
 7726SOL    HW234815   2.473   4.548   3.899  0.9382 -0.2809  0.6032
 7727SOL     OW34816   0.061   2.020   1.140  0.3396 -0.7807  0.1909
 7727SOL    HW134817   0.065   2.075   1.218 -0.7357  0.2860 -0.4949
 7727SOL    HW234818   0.069   2.088   1.073  0.6760 -1.2881 -0.2849
 7728SOL     OW34819   2.777   1.864  17.152  0.5326  0.6211 -0.1672
 7728SOL    HW134820   2.779   1.780  17.106  0.4421  0.9854 -0.8331
 7728SOL    HW234821   2.730   1.920  17.091 -1.5742 -0.1239  0.7654
 7729SOL     OW34822   2.276   1.866   9.172  0.3499 -0.1807 -0.2809
 7729SOL    HW134823   2.205   1.854   9.110 -0.7082  0.0528  0.9017
 7729SOL    HW234824   2.277   1.775   9.202 -1.1092  0.3295  1.2968
 7730SOL     OW34825   1.940   2.701   8.073  0.0042  0.1891 -0.3675
 7730SOL    HW134826   1.918   2.619   8.117  0.9330  0.2473  0.1967
 7730SOL    HW234827   1.871   2.757   8.110  1.0251  1.0108  0.2832
 7731SOL     OW34828   2.745   2.650  10.756 -0.0012 -0.4246 -0.2576
 7731SOL    HW134829   2.707   2.658  10.668  0.5952  0.4874 -0.4315
 7731SOL    HW234830   2.725   2.735  10.794 -2.5759 -1.0617 -0.1852
 7732SOL     OW34831   3.705   2.122   5.353 -0.0137  0.0309  0.0467
 7732SOL    HW134832   3.688   2.030   5.372 -0.7000  0.1471 -0.0091
 7732SOL    HW234833   3.638   2.125   5.285  0.3922 -1.2777 -0.4077
 7733SOL     OW34834   2.795   1.101   8.768 -0.3081 -0.8982  0.7403
 7733SOL    HW134835   2.805   1.118   8.674  1.4271  1.2001  1.3244
 7733SOL    HW234836   2.761   1.011   8.761 -0.4634 -0.9119  1.6079
 7734SOL     OW34837   4.078   2.993  16.878  0.2847 -0.0562 -0.1118
 7734SOL    HW134838   4.060   3.009  16.971 -0.3469 -1.5855  0.0370
 7734SOL    HW234839   4.131   2.913  16.872 -1.6940 -1.3864 -0.0415
 7735SOL     OW34840   1.929   3.706   3.874  0.1880  0.6043 -0.0619
 7735SOL    HW134841   1.945   3.639   3.808  0.4778  0.2850  0.3324
 7735SOL    HW234842   1.953   3.779   3.817  1.3853 -1.4977 -2.2229
 7736SOL     OW34843   4.423   3.602   4.361 -0.5328  0.1712 -0.1407
 7736SOL    HW134844   4.427   3.506   4.354  0.6545  0.0405  2.3184
 7736SOL    HW234845   4.387   3.620   4.447 -2.7627  1.9954 -1.4650
 7737SOL     OW34846   2.815   4.497  17.351  0.1650 -0.4256  0.9877
 7737SOL    HW134847   2.768   4.447  17.417 -2.0545  0.9355  0.4522
 7737SOL    HW234848   2.747   4.553  17.314 -0.5337 -1.9843 -0.0872
 7738SOL     OW34849   0.881   1.989   7.642 -0.4123  0.1789 -0.0303
 7738SOL    HW134850   0.925   1.955   7.564 -0.8293  1.6581 -0.9132
 7738SOL    HW234851   0.918   1.923   7.701 -0.8326  0.7476  0.8789
 7739SOL     OW34852   3.546   1.249  13.066  0.0893 -0.1086  0.1104
 7739SOL    HW134853   3.582   1.232  13.153  1.3341 -0.1918 -0.4197
 7739SOL    HW234854   3.609   1.199  13.014 -0.3448 -1.1016  0.5276
 7740SOL     OW34855   4.304   0.452   5.125 -0.0673  0.3169 -0.8798
 7740SOL    HW134856   4.246   0.378   5.142 -2.1466  2.3795  1.0419
 7740SOL    HW234857   4.252   0.527   5.154 -0.6879 -0.7284  0.7217
 7741SOL     OW34858   3.170   3.647   4.154  0.5134 -0.3070  0.4839
 7741SOL    HW134859   3.097   3.601   4.195 -0.8098  1.6234  0.2802
 7741SOL    HW234860   3.126   3.701   4.088 -3.9218 -0.5896  3.2653
 7742SOL     OW34861   4.612   0.159   8.180 -0.2926  0.6943 -0.1856
 7742SOL    HW134862   4.555   0.110   8.240  1.6930 -0.9916  0.3423
 7742SOL    HW234863   4.549   0.193   8.117  3.4216  2.1233 -3.1357
 7743SOL     OW34864   4.333   0.434   7.111  0.3062  0.1848 -0.6527
 7743SOL    HW134865   4.425   0.451   7.132  0.0455  0.2892  0.3982
 7743SOL    HW234866   4.321   0.343   7.136  2.5489  0.1359  0.2908
 7744SOL     OW34867   2.582   0.949   0.625  0.5235  0.3098  0.0355
 7744SOL    HW134868   2.627   0.867   0.643  0.9397  0.6661  0.6256
 7744SOL    HW234869   2.651   0.992   0.573 -0.4168 -0.3697 -1.7967
 7745SOL     OW34870   3.544   0.930  16.877  0.1136  0.3232 -1.0222
 7745SOL    HW134871   3.562   0.854  16.932 -2.5539 -1.2075 -2.2648
 7745SOL    HW234872   3.515   0.888  16.796  0.4448 -0.9629 -0.4754
 7746SOL     OW34873   0.574   1.012   1.760  0.1944 -0.1740 -0.1722
 7746SOL    HW134874   0.608   0.925   1.780  0.6585  0.4100  1.6464
 7746SOL    HW234875   0.561   0.996   1.667  1.1754  0.6217 -0.4548
 7747SOL     OW34876   0.905   3.791   2.001 -0.1418  0.3166  0.5065
 7747SOL    HW134877   0.929   3.883   1.994  1.9683 -0.3839 -1.3200
 7747SOL    HW234878   0.996   3.763   2.004 -0.1279  0.4264  1.1928
 7748SOL     OW34879   2.672   2.058   6.698 -0.0787 -0.4880  0.0293
 7748SOL    HW134880   2.730   2.061   6.622  0.7347  0.0630  0.6747
 7748SOL    HW234881   2.588   2.088   6.663  0.1558 -0.6589 -0.6791
 7749SOL     OW34882   2.419   0.000   7.981  0.3197 -0.3678 -0.1567
 7749SOL    HW134883   2.325   0.007   7.996 -0.0357 -1.5764 -1.7949
 7749SOL    HW234884   2.440   4.659   8.020 -1.3172  1.2845  4.1927
 7750SOL     OW34885   3.743   1.773  11.522 -0.0221  0.5182  0.3451
 7750SOL    HW134886   3.823   1.822  11.503 -0.2660  0.2438 -1.3285
 7750SOL    HW234887   3.782   1.697  11.566  1.0575 -0.8521 -3.0102
 7751SOL     OW34888   2.911   4.087   1.218 -0.1870  0.0193  0.0829
 7751SOL    HW134889   2.818   4.108   1.226 -0.4472  0.2030 -3.0981
 7751SOL    HW234890   2.921   4.021   1.286  1.1291 -0.1564 -0.2676
 7752SOL     OW34891   0.269   1.797   9.289 -0.4508  0.2726  0.2659
 7752SOL    HW134892   0.358   1.824   9.268 -1.1560 -0.7334 -4.0078
 7752SOL    HW234893   0.251   1.735   9.218  0.4330 -0.1422  0.4101
 7753SOL     OW34894   0.574   1.576  12.716  0.3870 -0.0852  0.4168
 7753SOL    HW134895   0.622   1.604  12.794  0.8190  0.5139 -0.0596
 7753SOL    HW234896   0.644   1.524  12.678 -0.4325 -0.6148 -0.3627
 7754SOL     OW34897   3.669   0.739  13.238  0.0054  0.3822 -0.1146
 7754SOL    HW134898   3.678   0.762  13.145 -1.4392  1.8802  0.1136
 7754SOL    HW234899   3.574   0.750  13.246  0.0002  2.1125 -2.4085
 7755SOL     OW34900   2.574   3.149   5.242  0.2012  0.4032 -0.3583
 7755SOL    HW134901   2.497   3.092   5.252  1.4683 -0.8515  2.2017
 7755SOL    HW234902   2.542   3.223   5.191  2.8955  0.5816 -1.7739
 7756SOL     OW34903   1.047   0.151   3.630 -0.1602 -0.1278  0.1019
 7756SOL    HW134904   1.055   0.147   3.726  1.5100  0.6269  0.0097
 7756SOL    HW234905   0.992   0.077   3.606 -2.9031  1.2178  2.1964
 7757SOL     OW34906   3.262   2.569   0.203  0.6045  0.4856  0.4052
 7757SOL    HW134907   3.343   2.545   0.158 -0.8065 -0.4946 -1.6219
 7757SOL    HW234908   3.305   2.604   0.281  0.3615 -0.0587  0.7831
 7758SOL     OW34909   3.452   2.994   9.819 -0.1093 -0.4016 -0.3243
 7758SOL    HW134910   3.494   2.907   9.823  0.9738  0.2122  1.7440
 7758SOL    HW234911   3.407   3.003   9.902  0.4648 -3.0699  0.2886
 7759SOL     OW34912   0.351   4.726   7.689  0.1840 -0.4961  0.1655
 7759SOL    HW134913   0.370   0.074   7.665 -2.1451  0.1836  0.8583
 7759SOL    HW234914   0.440   4.697   7.709 -0.0242  0.1283  2.0265
 7760SOL     OW34915   2.553   0.552  15.353  0.1109 -0.1096  0.9121
 7760SOL    HW134916   2.485   0.564  15.287  0.7713 -0.9753  0.0607
 7760SOL    HW234917   2.631   0.560  15.297 -0.6864 -1.9254 -0.4628
 7761SOL     OW34918   2.962   0.756   8.484 -0.0260  0.1249  0.4320
 7761SOL    HW134919   3.047   0.711   8.479 -0.3660 -0.6090  1.2476
 7761SOL    HW234920   2.985   0.849   8.488  0.3590  0.0417  0.2443
 7762SOL     OW34921   0.717   1.339   0.475 -0.5878 -0.0885  0.7697
 7762SOL    HW134922   0.624   1.315   0.471 -1.0391  1.9726 -0.9717
 7762SOL    HW234923   0.740   1.317   0.565  1.6233  1.4006  0.5864
 7763SOL     OW34924   3.924   4.156   4.722  0.1148 -0.2118  0.1720
 7763SOL    HW134925   4.013   4.148   4.756  0.0228  0.1215  0.4920
 7763SOL    HW234926   3.939   4.171   4.629 -2.4920 -0.8065 -0.3641
 7764SOL     OW34927   1.332   2.114  11.768 -0.3677  0.0156  0.4766
 7764SOL    HW134928   1.296   2.148  11.850  0.7071  2.9241 -0.2794
 7764SOL    HW234929   1.365   2.196  11.731 -0.1431 -0.2234  0.1454
 7765SOL     OW34930   0.801   1.371   6.931 -0.2870 -0.2741  0.3297
 7765SOL    HW134931   0.792   1.309   6.858  0.3065  0.4257 -0.3385
 7765SOL    HW234932   0.881   1.341   6.973 -0.5798  0.1985  1.2183
 7766SOL     OW34933   3.783   3.455   8.126 -0.8151 -0.4816 -0.2591
 7766SOL    HW134934   3.854   3.393   8.109 -0.7923 -0.5728  0.1828
 7766SOL    HW234935   3.742   3.482   8.043  0.1578 -0.5544 -0.7553
 7767SOL     OW34936   0.826   2.167   7.317 -0.3365 -0.1955  0.2959
 7767SOL    HW134937   0.800   2.248   7.274 -0.3261 -1.7970 -2.6949
 7767SOL    HW234938   0.835   2.195   7.408 -1.7726 -0.6755  0.5885
 7768SOL     OW34939   3.882   2.881   9.249  0.3002 -0.3291 -0.4224
 7768SOL    HW134940   3.967   2.924   9.264 -0.1848  0.8688 -1.0775
 7768SOL    HW234941   3.880   2.906   9.156 -0.1602 -2.7416 -1.0532
 7769SOL     OW34942   3.057   1.770  16.547 -0.0453 -0.2400 -0.4360
 7769SOL    HW134943   3.121   1.714  16.504 -0.9492 -0.1144 -1.9360
 7769SOL    HW234944   3.101   1.854  16.549 -0.5423  0.0155 -0.1878
 7770SOL     OW34945   0.363   1.040   2.855  0.1595  0.1915 -0.7957
 7770SOL    HW134946   0.456   1.060   2.861  0.5766 -2.8740  2.9276
 7770SOL    HW234947   0.319   1.116   2.894 -1.4970 -0.7241 -0.8793
 7771SOL     OW34948   0.199   2.388   1.894 -0.6246  0.2059  0.0802
 7771SOL    HW134949   0.238   2.446   1.960  2.8255 -3.2527  1.0857
 7771SOL    HW234950   0.106   2.395   1.914 -0.9164 -1.3651 -0.7635
 7772SOL     OW34951   1.774   2.221   2.438  0.3098 -0.0305  0.3068
 7772SOL    HW134952   1.715   2.276   2.386 -1.2915 -2.0503 -0.0202
 7772SOL    HW234953   1.854   2.224   2.386  0.6210  0.6283  0.8195
 7773SOL     OW34954   2.673   0.620   4.414  0.2596 -0.2153  0.3601
 7773SOL    HW134955   2.718   0.664   4.342 -0.5765 -1.6829 -1.0529
 7773SOL    HW234956   2.587   0.595   4.379  0.5731 -0.6860 -0.0813
 7774SOL     OW34957   0.468   0.823   0.932  0.2861 -0.1019 -0.2774
 7774SOL    HW134958   0.389   0.812   0.984  0.4926  0.2276  0.1062
 7774SOL    HW234959   0.532   0.771   0.981  0.4413  0.7651  0.4336
 7775SOL     OW34960   0.592   4.180  10.868 -0.3000 -0.3773  0.4610
 7775SOL    HW134961   0.657   4.121  10.829 -2.3413 -1.2933 -1.5699
 7775SOL    HW234962   0.657   4.231  10.916 -0.6096 -0.4445  0.9557
 7776SOL     OW34963   1.458   2.279   1.387  0.2109  0.5565  0.0113
 7776SOL    HW134964   1.366   2.257   1.378  1.0059 -1.6734 -2.7877
 7776SOL    HW234965   1.480   2.265   1.295  2.2579 -1.0356  0.7278
 7777SOL     OW34966   0.400   0.633   8.851 -0.1096  0.4157  0.5367
 7777SOL    HW134967   0.412   0.689   8.928 -3.2423 -0.3301  1.5503
 7777SOL    HW234968   0.360   0.693   8.788 -2.5133 -1.1205  0.5919
 7778SOL     OW34969   0.478   4.709   0.946  0.4789  0.4341  0.1495
 7778SOL    HW134970   0.480   4.614   0.936  4.1676  0.6319 -1.1992
 7778SOL    HW234971   0.561   4.721   0.993  0.6216  1.3897 -0.3418
 7779SOL     OW34972   1.505   4.712  16.861 -0.0758  0.2637  0.4047
 7779SOL    HW134973   1.543   0.055  16.841  2.3277 -0.8935  0.0393
 7779SOL    HW234974   1.567   4.656  16.814  0.0206 -1.4098  2.5446
 7780SOL     OW34975   0.348   4.144   9.251  0.1916 -0.4474  0.8925
 7780SOL    HW134976   0.306   4.230   9.253 -0.5014 -0.8358  3.1422
 7780SOL    HW234977   0.301   4.107   9.177 -0.7330  2.0503  0.2349
 7781SOL     OW34978   1.985   0.537   8.181 -0.0290  0.4901  0.7582
 7781SOL    HW134979   1.900   0.532   8.139 -0.2476  1.8483  1.0460
 7781SOL    HW234980   1.982   0.453   8.228 -2.3552 -0.0168 -0.3208
 7782SOL     OW34981   3.792   1.266   1.406  0.3771  0.0507  0.2048
 7782SOL    HW134982   3.825   1.191   1.356  2.9755  2.1193 -1.1685
 7782SOL    HW234983   3.771   1.329   1.337  0.0140 -1.4174 -1.0276
 7783SOL     OW34984   1.830   2.568   4.390  0.0043 -1.0591 -0.0271
 7783SOL    HW134985   1.762   2.528   4.444 -1.0846  1.3573  0.3568
 7783SOL    HW234986   1.785   2.640   4.346  1.5020 -0.6394 -0.8495
 7784SOL     OW34987   4.206   3.545   6.338  0.7697  0.1045 -0.0655
 7784SOL    HW134988   4.130   3.489   6.355  0.8194 -0.0102 -0.2115
 7784SOL    HW234989   4.182   3.632   6.370  0.5461 -0.4126  1.1515
 7785SOL     OW34990   1.495   0.702  10.881  0.0935  0.1337 -0.3518
 7785SOL    HW134991   1.551   0.751  10.942 -1.9995  1.8887  0.1456
 7785SOL    HW234992   1.536   0.616  10.872  0.5337  0.3337 -0.2756
 7786SOL     OW34993   3.752   3.248   7.845 -0.5938  0.7433  0.0153
 7786SOL    HW134994   3.757   3.344   7.847  1.8018  0.6052  0.9960
 7786SOL    HW234995   3.783   3.229   7.934  0.0427  0.8228 -0.1898
 7787SOL     OW34996   1.926   4.113   8.103  0.0762 -0.8265 -0.2023
 7787SOL    HW134997   1.892   4.146   8.019 -0.0431 -3.8495 -1.3188
 7787SOL    HW234998   1.961   4.028   8.076  1.7626  0.1877 -1.2581
 7788SOL     OW34999   4.020   1.501  17.697  0.1043 -0.1163 -0.0883
 7788SOL    HW135000   3.981   1.469   0.009  0.7441 -1.3286 -0.2510
 7788SOL    HW235001   4.046   1.417  17.660  1.0747 -0.5233  1.5365
 7789SOL     OW35002   1.810   4.357   7.003  0.7270  0.9899 -0.5218
 7789SOL    HW135003   1.856   4.323   7.080  1.8845 -1.2593 -2.2105
 7789SOL    HW235004   1.845   4.293   6.942  2.2978  0.6837  0.7217
 7790SOL     OW35005   0.459   2.888   2.054  0.0658  0.2735  0.3833
 7790SOL    HW135006   0.398   2.930   1.993 -1.0290 -1.2893  0.4049
 7790SOL    HW235007   0.422   2.916   2.137 -0.0955 -1.5511  0.9282
 7791SOL     OW35008   4.430   2.108  16.021 -0.1985  0.2378  0.2002
 7791SOL    HW135009   4.388   2.174  16.076 -2.0740 -1.9162  1.3420
 7791SOL    HW235010   4.472   2.165  15.957  1.4887  0.3482  1.4195
 7792SOL     OW35011   3.334   0.612   7.238 -0.1444 -0.1553 -0.8958
 7792SOL    HW135012   3.301   0.540   7.184 -2.0789  0.0610 -0.0088
 7792SOL    HW235013   3.429   0.614   7.224  0.2784 -1.4044  1.7728
 7793SOL     OW35014   2.672   4.312   6.141  0.0421 -0.1407  0.2731
 7793SOL    HW135015   2.693   4.403   6.120  0.2930 -0.2311  0.1251
 7793SOL    HW235016   2.749   4.275   6.098 -0.3568 -1.7082  0.9342
 7794SOL     OW35017   2.373   0.159   1.224  0.2425 -0.2872  0.0312
 7794SOL    HW135018   2.310   0.191   1.288 -1.9232 -1.9785 -1.2572
 7794SOL    HW235019   2.442   0.133   1.286  0.4965 -1.7174 -0.8457
 7795SOL     OW35020   2.809   4.560   4.032  0.1021  0.1545 -0.2358
 7795SOL    HW135021   2.809   4.610   4.114  0.8158 -0.6617  0.2586
 7795SOL    HW235022   2.714   4.561   4.017 -0.1269 -1.2479  1.1077
 7796SOL     OW35023   1.956   0.468   7.412  0.0820  0.4259 -0.5296
 7796SOL    HW135024   1.979   0.390   7.464  1.1330  0.0195 -1.6068
 7796SOL    HW235025   1.915   0.432   7.334  0.4735  1.5032 -1.2273
 7797SOL     OW35026   3.459   0.204  17.550  0.1211 -0.5316 -0.0972
 7797SOL    HW135027   3.413   0.130  17.588  0.2975  1.3076  3.7296
 7797SOL    HW235028   3.540   0.160  17.524 -0.1524 -1.7289  1.1045
 7798SOL     OW35029   1.512   0.350   9.525 -0.3768 -0.5149 -0.5753
 7798SOL    HW135030   1.447   0.287   9.493 -1.4894  0.4448 -0.2281
 7798SOL    HW235031   1.454   0.426   9.513  0.0663 -0.0162  0.5035
 7799SOL     OW35032   3.507   0.212   0.830 -0.1243 -0.2597 -0.4096
 7799SOL    HW135033   3.474   0.174   0.911 -0.6313 -0.9469 -0.9438
 7799SOL    HW235034   3.597   0.180   0.839  1.0200  3.1276  0.4143
 7800SOL     OW35035   1.390   1.321   5.836 -0.1304  0.1004 -0.0709
 7800SOL    HW135036   1.481   1.348   5.850  0.0524 -0.9428  0.7543
 7800SOL    HW235037   1.351   1.406   5.815 -0.1372  0.5221  1.6593
 7801SOL     OW35038   1.235   2.794   5.417 -0.0432 -0.0412 -0.2919
 7801SOL    HW135039   1.159   2.837   5.377  0.6789  1.7123  0.2195
 7801SOL    HW235040   1.208   2.703   5.407 -2.6538  0.8931 -1.9146
 7802SOL     OW35041   2.365   3.818   3.232  0.3407  0.3366  0.1336
 7802SOL    HW135042   2.357   3.723   3.233  0.6521  0.3185  1.1491
 7802SOL    HW235043   2.456   3.830   3.257  0.1719 -0.5007  1.1286
 7803SOL     OW35044   4.174   1.142   1.861 -0.5315 -0.4464 -0.2263
 7803SOL    HW135045   4.118   1.196   1.805 -2.3119 -2.1393 -0.0553
 7803SOL    HW235046   4.121   1.063   1.872 -1.4112  0.5544  2.4800
 7804SOL     OW35047   4.594   0.309  11.209  0.0799 -0.7750  0.4619
 7804SOL    HW135048   4.527   0.338  11.271  0.2421  1.1298 -0.2494
 7804SOL    HW235049   4.623   0.227  11.250  0.2268 -1.6786 -1.4663
 7805SOL     OW35050   4.190   0.266   4.577 -0.4569  0.2672  0.0440
 7805SOL    HW135051   4.119   0.314   4.620  1.3820  1.1444  2.0979
 7805SOL    HW235052   4.164   0.177   4.602  0.7769  0.5568  2.4111
 7806SOL     OW35053   0.635   1.968   9.416 -0.1411  0.6715 -0.3854
 7806SOL    HW135054   0.571   1.989   9.348  0.3144 -0.1590 -1.0771
 7806SOL    HW235055   0.584   1.978   9.496  0.8240  3.5612 -0.1420
 7807SOL     OW35056   4.533   1.076   5.594  0.1483  0.1488 -0.0836
 7807SOL    HW135057   4.618   1.089   5.636  1.4094 -0.9526 -2.3422
 7807SOL    HW235058   4.539   0.985   5.564 -0.9364 -0.7504  2.3382
 7808SOL     OW35059   2.895   2.674   0.568  0.3911  0.1068 -0.0289
 7808SOL    HW135060   2.973   2.710   0.526 -0.4958 -0.2165 -1.9380
 7808SOL    HW235061   2.901   2.603   0.505 -0.0073 -0.3586  0.4604
 7809SOL     OW35062   2.873   3.429   8.391  0.6828 -0.4985 -0.4443
 7809SOL    HW135063   2.819   3.358   8.425  2.1238 -0.8653  1.0934
 7809SOL    HW235064   2.964   3.402   8.402  1.4201  1.5978 -1.3060
 7810SOL     OW35065   2.762   2.714   6.316 -0.5892  0.1262 -0.2628
 7810SOL    HW135066   2.844   2.743   6.355  0.4198  0.2035 -2.4869
 7810SOL    HW235067   2.772   2.751   6.229  0.8033 -2.4516 -1.1937
 7811SOL     OW35068   2.281   0.886   1.333 -0.2035  0.3356  0.0293
 7811SOL    HW135069   2.365   0.918   1.301  0.0505  0.5256  0.8841
 7811SOL    HW235070   2.304   0.877   1.426 -3.5351 -1.3372  0.7134
 7812SOL     OW35071   0.721   1.122   5.555  0.3259  0.0005  0.3842
 7812SOL    HW135072   0.786   1.190   5.570 -0.1256  1.0467 -2.5553
 7812SOL    HW235073   0.779   1.046   5.564 -0.2186 -0.4713 -0.1035
 7813SOL     OW35074   0.679   3.370   7.750  0.1449  0.1373  0.6450
 7813SOL    HW135075   0.696   3.330   7.665 -1.4187  1.3400 -0.2337
 7813SOL    HW235076   0.768   3.385   7.784  0.6698  0.6758 -0.9917
 7814SOL     OW35077   3.339   3.401  16.218  0.1140  0.5637  0.0337
 7814SOL    HW135078   3.417   3.425  16.169  1.4878 -1.7986  1.0758
 7814SOL    HW235079   3.352   3.424  16.310  0.3347 -0.1717  0.1854
 7815SOL     OW35080   0.710   1.688   8.826 -0.0644 -0.3814  0.3594
 7815SOL    HW135081   0.788   1.658   8.779 -0.3005 -1.2869  0.5622
 7815SOL    HW235082   0.642   1.668   8.763  0.2328  0.9286 -0.3867
 7816SOL     OW35083   1.272   1.943   3.475 -0.4677  0.4826 -0.0009
 7816SOL    HW135084   1.212   1.873   3.447  1.7457 -1.3459 -0.2227
 7816SOL    HW235085   1.300   1.977   3.390  0.6359  0.4942  0.3615
 7817SOL     OW35086   3.625   3.082   4.963  0.1922 -0.1898 -0.9329
 7817SOL    HW135087   3.673   3.152   4.918  0.1085 -0.8421 -2.0162
 7817SOL    HW235088   3.543   3.131   4.956  0.0040 -0.2007  1.0162
 7818SOL     OW35089   2.078   0.818  14.953  0.0334 -0.0529 -0.7672
 7818SOL    HW135090   2.016   0.876  14.908 -0.8238 -0.1473  0.2878
 7818SOL    HW235091   2.019   0.750  14.983  0.8130 -0.1350  0.5764
 7819SOL     OW35092   4.408   1.651   3.783  0.0498  0.1817 -0.0346
 7819SOL    HW135093   4.388   1.649   3.877  0.1642 -1.3922 -0.0381
 7819SOL    HW235094   4.483   1.591   3.785 -0.2789 -0.2346  0.0115
 7820SOL     OW35095   4.284   1.157   4.291  0.1105 -0.2965  0.4262
 7820SOL    HW135096   4.303   1.244   4.327 -2.0109 -0.2699  1.4855
 7820SOL    HW235097   4.303   1.158   4.197  0.4881  1.6625  0.5228
 7821SOL     OW35098   2.800   3.306   3.864 -0.7349 -0.3314 -0.3584
 7821SOL    HW135099   2.743   3.338   3.934  1.0184  0.1273  0.8430
 7821SOL    HW235100   2.803   3.387   3.814  3.1468  0.5995  1.3961
 7822SOL     OW35101   1.803   1.595   3.532  0.0885 -0.1837  0.1241
 7822SOL    HW135102   1.869   1.526   3.533 -0.8221 -1.0443 -0.1562
 7822SOL    HW235103   1.722   1.545   3.536  0.7646 -1.5245 -2.6423
 7823SOL     OW35104   0.452   3.078  14.558 -0.2822 -0.4339 -0.4342
 7823SOL    HW135105   0.469   3.060  14.651 -2.0581  1.0493  0.1843
 7823SOL    HW235106   0.476   3.170  14.561 -0.1810 -0.3978 -2.4680
 7824SOL     OW35107   3.455   3.313   8.397 -0.1217 -0.0529 -0.0759
 7824SOL    HW135108   3.537   3.278   8.432  2.0288  3.2686 -1.7552
 7824SOL    HW235109   3.446   3.400   8.436  1.7754  0.4183 -0.6533
 7825SOL     OW35110   1.553   2.722   3.213  0.6156 -0.5844  0.2140
 7825SOL    HW135111   1.532   2.780   3.286  1.2149 -0.1531  0.0407
 7825SOL    HW235112   1.579   2.784   3.145 -0.5180 -1.6171 -1.1549
 7826SOL     OW35113   3.726   4.085  13.040 -0.5182  0.0220  0.1517
 7826SOL    HW135114   3.675   4.078  13.121 -1.6201 -1.8460 -0.7052
 7826SOL    HW235115   3.707   4.178  13.025 -0.8092 -0.2096 -0.8753
 7827SOL     OW35116   3.173   3.117  11.584  0.3431  0.1474 -0.6601
 7827SOL    HW135117   3.253   3.168  11.591  0.6377 -0.5622  1.0966
 7827SOL    HW235118   3.204   3.040  11.632 -0.2001  0.1001 -0.3738
 7828SOL     OW35119   2.841   0.194   2.550  0.1511 -0.0287 -0.2172
 7828SOL    HW135120   2.828   0.171   2.642 -0.0416 -0.0677 -0.2543
 7828SOL    HW235121   2.815   0.286   2.549  0.5710  0.0717 -2.3130
 7829SOL     OW35122   1.885   1.751  13.126 -0.1713 -0.0885  0.5179
 7829SOL    HW135123   1.878   1.847  13.134  0.8532  0.0363 -0.0704
 7829SOL    HW235124   1.958   1.750  13.064 -0.5601 -1.2637  0.0879
 7830SOL     OW35125   1.862   1.255   9.022  0.1644 -0.6801 -0.0972
 7830SOL    HW135126   1.864   1.320   8.952  1.0200  0.7513  1.2744
 7830SOL    HW235127   1.835   1.179   8.970 -1.9178  0.5249 -0.7834
 7831SOL     OW35128   2.777   1.370  16.201 -0.4727 -0.0173 -0.5599
 7831SOL    HW135129   2.683   1.380  16.219 -0.3168 -0.8030  0.6879
 7831SOL    HW235130   2.803   1.459  16.177  1.3385 -0.0384  1.3793
 7832SOL     OW35131   4.623   0.398   1.339 -0.4382  0.5613 -0.1053
 7832SOL    HW135132   4.674   0.452   1.398  2.0569 -1.2471 -0.5943
 7832SOL    HW235133   4.676   0.399   1.259  1.8912  1.5672  1.4614
 7833SOL     OW35134   2.288   1.099   4.534 -0.1786  0.4209 -0.3311
 7833SOL    HW135135   2.234   1.114   4.456  0.4745 -2.1331 -1.2594
 7833SOL    HW235136   2.255   1.014   4.564  2.1830 -0.9286 -1.6002
 7834SOL     OW35137   3.587   1.881   1.973 -1.0065 -0.0363  0.0328
 7834SOL    HW135138   3.547   1.797   1.950  0.1392 -0.1067 -1.6578
 7834SOL    HW235139   3.666   1.895   1.921 -1.0593 -1.7216 -0.5025
 7835SOL     OW35140   1.706   2.650   3.970 -0.1863 -0.3998  0.6016
 7835SOL    HW135141   1.664   2.587   3.911 -0.4902  1.2719 -0.9472
 7835SOL    HW235142   1.634   2.709   3.992  0.6397  0.2632  1.5147
 7836SOL     OW35143   1.424   0.278  16.509  0.0736  0.0416  0.0516
 7836SOL    HW135144   1.498   0.225  16.478  0.6195  1.4429 -1.0658
 7836SOL    HW235145   1.464   0.362  16.530  1.0602 -0.3202 -0.3712
 7837SOL     OW35146   3.345   1.050   9.456 -0.2308 -0.0326 -0.0419
 7837SOL    HW135147   3.290   0.972   9.467  0.2238 -0.5331 -1.2608
 7837SOL    HW235148   3.376   1.055   9.546 -1.6904 -2.1933  0.5982
 7838SOL     OW35149   2.230   1.873   5.102  0.3516 -0.0691  0.1828
 7838SOL    HW135150   2.154   1.932   5.100 -0.8526 -1.5648  1.5819
 7838SOL    HW235151   2.292   1.911   5.164 -0.1248  1.5226 -0.3191
 7839SOL     OW35152   2.394   3.182  12.010 -0.1257 -0.1911  0.1362
 7839SOL    HW135153   2.302   3.189  12.035  0.5321 -1.3065  2.9976
 7839SOL    HW235154   2.419   3.274  12.008  0.5020 -0.3809 -0.6309
 7840SOL     OW35155   0.574   1.543   1.174  0.1136 -0.3982  0.1283
 7840SOL    HW135156   0.592   1.609   1.241 -1.3273 -0.0228  0.1449
 7840SOL    HW235157   0.647   1.565   1.116  0.6872 -1.2503  0.5358
 7841SOL     OW35158   4.397   2.053  11.433 -0.8674  0.1266  0.0421
 7841SOL    HW135159   4.383   1.959  11.449 -1.8745  0.3592  0.5171
 7841SOL    HW235160   4.314   2.090  11.461 -0.0882  2.4810 -0.8123
 7842SOL     OW35161   2.623   2.895  10.607  0.2211 -0.1745 -0.1538
 7842SOL    HW135162   2.656   2.920  10.693  0.5171  0.7649 -0.5390
 7842SOL    HW235163   2.692   2.927  10.548 -1.5075  0.6269 -1.7397
 7843SOL     OW35164   0.608   0.319   9.258  0.2457 -0.0127  0.1182
 7843SOL    HW135165   0.683   0.360   9.214 -1.2167  2.3606 -0.1444
 7843SOL    HW235166   0.547   0.307   9.185 -0.1091 -0.0352  0.4230
 7844SOL     OW35167   0.989   1.680   7.310  0.5345 -0.1588 -0.1742
 7844SOL    HW135168   0.935   1.758   7.296 -2.7442 -2.8161 -2.1823
 7844SOL    HW235169   0.942   1.644   7.386  2.1214  0.9389  1.3357
 7845SOL     OW35170   0.738   2.836  11.909  0.0423  0.3220  0.2724
 7845SOL    HW135171   0.796   2.908  11.881  0.2545  0.1228  0.1941
 7845SOL    HW235172   0.804   2.769  11.928  0.3106  0.8157  1.0818
 7846SOL     OW35173   4.496   0.644   2.695  0.0113 -0.1108  0.1061
 7846SOL    HW135174   4.468   0.724   2.652 -0.3391 -0.6389 -0.6477
 7846SOL    HW235175   4.420   0.589   2.677  0.1065 -0.3258  0.3682
 7847SOL     OW35176   1.174   4.343   7.264 -0.6168 -0.2192 -0.5518
 7847SOL    HW135177   1.254   4.357   7.213  0.5840  3.1000  2.2400
 7847SOL    HW235178   1.132   4.428   7.246 -1.8086 -0.2159  2.2495
 7848SOL     OW35179   3.724   0.393  16.474 -0.1073  0.1213 -0.3755
 7848SOL    HW135180   3.727   0.488  16.489  0.1446  0.3332 -1.7298
 7848SOL    HW235181   3.796   0.366  16.531  1.3059  0.2601 -2.0968
 7849SOL     OW35182   3.100   2.717   5.854  0.3319  0.1182 -0.3570
 7849SOL    HW135183   3.086   2.710   5.760  0.2855 -0.3284 -0.3144
 7849SOL    HW235184   3.191   2.745   5.852  0.2742  0.4855  2.0009
 7850SOL     OW35185   0.768   1.325   2.045 -0.2843 -0.0971 -0.5203
 7850SOL    HW135186   0.779   1.312   1.951  0.0941 -0.5260 -0.4118
 7850SOL    HW235187   0.788   1.238   2.078 -1.0364  0.0427  0.3092
 7851SOL     OW35188   0.248   0.871  12.976  0.3825 -0.4599 -0.4652
 7851SOL    HW135189   0.279   0.961  12.973  0.2263 -0.2862  2.5210
 7851SOL    HW235190   0.153   0.882  12.971 -0.0081 -1.7205  3.6012
 7852SOL     OW35191   0.462   4.371   7.271 -0.1933 -0.4713  0.2929
 7852SOL    HW135192   0.501   4.449   7.309 -2.3186  0.6355  0.2429
 7852SOL    HW235193   0.537   4.312   7.265  0.2958  0.5549 -3.4415
 7853SOL     OW35194   0.199   4.348   5.500 -0.9358  0.3445  0.4952
 7853SOL    HW135195   0.241   4.433   5.512  2.5377 -1.3541  0.3523
 7853SOL    HW235196   0.270   4.284   5.495 -0.1169  1.1580  1.7319
 7854SOL     OW35197   3.434   4.620   0.860 -0.4509  0.2427 -0.4981
 7854SOL    HW135198   3.371   4.656   0.922  0.3860  0.0904  0.4518
 7854SOL    HW235199   3.388   4.538   0.850  1.4586 -1.1496  2.0828
 7855SOL     OW35200   2.520   3.019   1.581 -0.8539 -0.3299  0.1736
 7855SOL    HW135201   2.547   3.094   1.634 -2.3126 -0.2460  0.7720
 7855SOL    HW235202   2.606   2.977   1.568 -0.6680  0.2532 -0.5107
 7856SOL     OW35203   4.094   2.220  15.703 -0.5243  0.3148  0.2138
 7856SOL    HW135204   4.086   2.289  15.768  0.7200  1.8804 -1.2966
 7856SOL    HW235205   4.133   2.150  15.755 -1.0711 -1.6473 -2.0040
 7857SOL     OW35206   1.022   0.786   3.387 -0.2883 -0.4628  0.3095
 7857SOL    HW135207   1.080   0.859   3.365 -0.1038 -1.0060 -1.0314
 7857SOL    HW235208   1.031   0.721   3.317 -0.4631  0.1131 -0.2509
 7858SOL     OW35209   0.120   3.981   1.581  0.5310  0.2323  0.1410
 7858SOL    HW135210   0.126   4.007   1.673  1.3143 -1.1840  0.4779
 7858SOL    HW235211   0.129   3.887   1.593 -1.0650  0.1761  1.0669
 7859SOL     OW35212   2.753   3.332   0.320  0.1859  0.2608 -0.0889
 7859SOL    HW135213   2.717   3.258   0.368 -2.2611  0.9763 -0.7861
 7859SOL    HW235214   2.671   3.372   0.291 -0.0226  0.3977  0.7036
 7860SOL     OW35215   2.517   0.882  13.986  0.1315 -0.2984  0.2724
 7860SOL    HW135216   2.499   0.912  13.897  0.4202  0.8977  0.6046
 7860SOL    HW235217   2.591   0.824  13.969 -1.1649 -1.7394 -0.3773
 7861SOL     OW35218   1.199   4.086   6.947 -0.3522 -0.0333  0.3794
 7861SOL    HW135219   1.270   4.117   6.890  1.0866  0.8009  2.6107
 7861SOL    HW235220   1.195   4.151   7.017 -0.0139 -0.6579  0.9779
 7862SOL     OW35221   3.105   3.690   0.809 -0.3670 -0.0820  0.2528
 7862SOL    HW135222   3.124   3.784   0.801  0.0384 -0.1027  0.9238
 7862SOL    HW235223   3.189   3.647   0.792  0.5549  2.5725 -1.8635
 7863SOL     OW35224   3.182   3.414   5.815  0.5848 -0.2167  0.4747
 7863SOL    HW135225   3.201   3.346   5.750 -0.0384  1.1821 -1.1861
 7863SOL    HW235226   3.086   3.414   5.813  0.6057 -0.1799 -0.8329
 7864SOL     OW35227   0.198   4.410  11.174  0.1949 -0.3664 -0.0398
 7864SOL    HW135228   0.265   4.428  11.108 -0.8677  0.3861 -0.9205
 7864SOL    HW235229   0.232   4.339  11.228 -0.1639 -0.9604 -0.5972
 7865SOL     OW35230   2.301   3.097  17.250 -0.3217  0.5493 -0.2217
 7865SOL    HW135231   2.283   3.082  17.157  1.4285  1.7945 -0.7335
 7865SOL    HW235232   2.266   3.186  17.250 -0.4800  0.4915 -1.3799
 7866SOL     OW35233   2.728   0.838   8.765 -0.1048 -0.7983 -0.2163
 7866SOL    HW135234   2.647   0.830   8.816 -1.4730  0.5427 -2.1870
 7866SOL    HW235235   2.779   0.768   8.805 -0.6081 -1.4180 -0.6656
 7867SOL     OW35236   4.165   3.314   9.227  0.5801 -0.1108  0.2598
 7867SOL    HW135237   4.233   3.381   9.227 -1.1128  1.6209  0.0380
 7867SOL    HW235238   4.179   3.279   9.314  1.7606  0.9217  0.4783
 7868SOL     OW35239   0.321   4.087   5.481  0.0016  0.0683 -0.0317
 7868SOL    HW135240   0.308   4.007   5.532 -2.3751  0.8739  0.6238
 7868SOL    HW235241   0.393   4.056   5.427 -0.7508  0.3766 -1.2102
 7869SOL     OW35242   2.722   3.380   9.889  0.1916  0.1048  0.3228
 7869SOL    HW135243   2.643   3.365   9.941  0.8762 -0.4058  1.1875
 7869SOL    HW235244   2.691   3.431   9.814  0.4198 -0.6529 -0.2884
 7870SOL     OW35245   0.641   3.989   8.593 -0.3186 -0.0656 -0.5287
 7870SOL    HW135246   0.605   4.075   8.614 -0.5053 -0.1417 -0.5398
 7870SOL    HW235247   0.625   3.971   8.500 -1.3130 -1.7719 -0.0363
 7871SOL     OW35248   1.279   4.261   8.657 -0.0435 -0.1511 -0.1002
 7871SOL    HW135249   1.251   4.170   8.663  0.4135 -0.3171 -0.4699
 7871SOL    HW235250   1.199   4.300   8.622 -1.1102 -1.0344  1.3503
 7872SOL     OW35251   3.662   1.834   4.681 -0.1075 -0.1445  0.1752
 7872SOL    HW135252   3.685   1.790   4.599  0.3586 -0.2227  0.3490
 7872SOL    HW235253   3.603   1.903   4.649  0.3578  0.7226  1.1932
 7873SOL     OW35254   2.141   4.672   7.994 -0.4797 -0.3368 -0.3732
 7873SOL    HW135255   2.114   4.619   7.919  1.0647 -1.0381 -0.4403
 7873SOL    HW235256   2.057   4.687   8.038  1.3973 -2.2750  3.9388
 7874SOL     OW35257   3.820   0.756   6.919 -0.0375  0.0483 -0.1102
 7874SOL    HW135258   3.850   0.847   6.923 -2.7783  0.9610 -0.2076
 7874SOL    HW235259   3.900   0.710   6.942 -0.7190 -0.6675  0.8058
 7875SOL     OW35260   2.412   4.436  17.141  0.2833  0.4851  0.0658
 7875SOL    HW135261   2.361   4.360  17.113  0.3446  0.2770  0.5178
 7875SOL    HW235262   2.345   4.504  17.146  0.2106  0.4036  0.1833
 7876SOL     OW35263   0.030   4.219  11.411  0.6940  0.7490 -0.4206
 7876SOL    HW135264   4.715   4.144  11.406 -0.8775  2.1468 -3.2744
 7876SOL    HW235265   0.032   4.239  11.504 -0.1775 -1.3313  0.0281
 7877SOL     OW35266   3.203   2.866   7.114  0.1254 -0.4517  0.4540
 7877SOL    HW135267   3.140   2.859   7.185  1.1730  0.3810  1.4545
 7877SOL    HW235268   3.160   2.814   7.045  1.6649 -0.4253 -0.5320
 7878SOL     OW35269   2.272   4.159   9.815  0.4793 -0.2012 -0.7044
 7878SOL    HW135270   2.265   4.094   9.885 -1.4206  0.0556 -0.6446
 7878SOL    HW235271   2.245   4.113   9.735 -0.7086 -0.9583  0.1159
 7879SOL     OW35272   2.572   0.163   4.316  0.3569  0.2724 -0.4038
 7879SOL    HW135273   2.611   0.242   4.353  0.6925 -0.1062  0.0459
 7879SOL    HW235274   2.596   0.111   4.393  3.3258  0.2335 -1.3476
 7880SOL     OW35275   1.531   2.061   2.026 -0.1910  0.1271  0.5144
 7880SOL    HW135276   1.511   2.145   2.068 -3.4495  0.9791 -2.7954
 7880SOL    HW235277   1.448   2.020   2.004  1.1366 -2.2590 -0.0643
 7881SOL     OW35278   0.367   4.104  15.171 -0.4166  0.1673  0.6493
 7881SOL    HW135279   0.408   4.029  15.128  0.0531  1.2714 -0.8064
 7881SOL    HW235280   0.427   4.137  15.238 -0.6220 -0.8332  1.3314
 7882SOL     OW35281   1.542   2.711   9.296 -0.3617 -0.3346 -0.6774
 7882SOL    HW135282   1.634   2.734   9.283  0.3790 -2.1679  1.3372
 7882SOL    HW235283   1.512   2.707   9.205  1.0410  1.0008 -1.2069
 7883SOL     OW35284   2.780   4.094   4.893 -0.1560 -0.2454 -0.0513
 7883SOL    HW135285   2.857   4.058   4.936 -0.2345 -1.4730 -0.9331
 7883SOL    HW235286   2.751   4.163   4.953  0.3744  0.8923 -1.0952
 7884SOL     OW35287   0.141   4.607   4.061 -0.0958  0.0557 -0.0652
 7884SOL    HW135288   0.159   4.549   4.134  1.8301  0.0941 -0.4956
 7884SOL    HW235289   0.158   4.695   4.094 -0.5245 -1.0235  2.9692
 7885SOL     OW35290   0.296   2.746   9.165 -0.1561  0.1299  0.2585
 7885SOL    HW135291   0.337   2.785   9.242 -1.5128 -1.0052  1.5652
 7885SOL    HW235292   0.362   2.681   9.139 -0.3791  0.4699 -1.1912
 7886SOL     OW35293   3.091   2.847   9.569  0.2112  0.5007  0.0705
 7886SOL    HW135294   3.131   2.817   9.651 -2.3922 -1.4970  0.6127
 7886SOL    HW235295   3.160   2.904   9.536 -0.1372  2.2499  2.3757
 7887SOL     OW35296   0.555   1.204   0.866  0.3785 -0.4641  0.0977
 7887SOL    HW135297   0.563   1.246   0.952 -0.7862 -2.5544  1.2414
 7887SOL    HW235298   0.464   1.226   0.846  0.2321 -2.1401 -1.0150
 7888SOL     OW35299   2.428   2.140   8.465  0.3469 -0.0943  0.9685
 7888SOL    HW135300   2.340   2.176   8.450 -0.9990 -2.7703  2.3574
 7888SOL    HW235301   2.410   2.105   8.552 -0.7228 -1.7079  0.0966
 7889SOL     OW35302   1.501   2.975  12.269  0.8094 -0.3122  0.2354
 7889SOL    HW135303   1.544   3.053  12.304 -1.1557  1.2336 -0.7705
 7889SOL    HW235304   1.410   3.003  12.257  0.5351 -0.8703  1.0646
 7890SOL     OW35305   2.844   3.966   5.127  0.4104 -0.1728 -0.3259
 7890SOL    HW135306   2.857   3.898   5.194 -2.5824 -0.3583  0.0724
 7890SOL    HW235307   2.753   3.988   5.143  0.1376 -1.9927  0.6266
 7891SOL     OW35308   1.277   1.114   4.064 -0.3816  0.3706  0.1979
 7891SOL    HW135309   1.370   1.101   4.048 -0.4151 -1.2689  1.3299
 7891SOL    HW235310   1.287   1.189   4.122 -1.0748 -0.4279  1.3581
 7892SOL     OW35311   0.052   1.522   2.733 -0.4029  0.1351  0.0330
 7892SOL    HW135312   0.123   1.478   2.780  0.2070  1.6938  0.5734
 7892SOL    HW235313   0.072   1.509   2.641 -1.3336 -2.0241  0.1288
 7893SOL     OW35314   4.243   4.561   5.605 -0.1401 -0.0791  0.1571
 7893SOL    HW135315   4.327   4.518   5.590  0.7507  1.0446  1.9529
 7893SOL    HW235316   4.223   4.530   5.694 -0.7209  0.2556  0.1388
 7894SOL     OW35317   2.443   2.672   5.839  0.1746  0.0032  0.2307
 7894SOL    HW135318   2.390   2.618   5.781  0.9361 -1.0333  0.5085
 7894SOL    HW235319   2.446   2.615   5.915 -1.3635 -1.3907 -0.7678
 7895SOL     OW35320   3.725   2.734   9.598 -0.1726  0.4356  0.1485
 7895SOL    HW135321   3.744   2.818   9.557 -2.5096 -0.4632 -2.8202
 7895SOL    HW235322   3.724   2.680   9.519  1.0330  1.1925 -0.3693
 7896SOL     OW35323   0.275   2.500   7.191  0.1365 -0.2743  0.2235
 7896SOL    HW135324   0.328   2.482   7.270  1.2673 -1.3981 -0.7827
 7896SOL    HW235325   0.197   2.467   7.236 -0.4996 -0.2299 -0.8734
 7897SOL     OW35326   1.388   3.199  17.659  0.1836  0.5011 -0.0655
 7897SOL    HW135327   1.352   3.123  17.706  0.5307 -0.6084 -1.5943
 7897SOL    HW235328   1.426   3.251  17.730 -1.9795  0.0174  1.4682
 7898SOL     OW35329   0.786   0.024   8.945 -0.8129 -0.0561 -0.0123
 7898SOL    HW135330   0.696   0.041   8.973 -1.0601  1.1109 -1.5493
 7898SOL    HW235331   0.838   0.076   9.005  0.3465  0.4655 -1.4728
 7899SOL     OW35332   3.058   1.823   7.322  0.0488  0.1096  0.7427
 7899SOL    HW135333   3.078   1.750   7.264 -0.3716 -1.5323  2.6519
 7899SOL    HW235334   3.118   1.887   7.285  0.9285 -0.8308  0.5448
 7900SOL     OW35335   4.065   2.274   8.487 -0.3109 -0.3906 -0.2970
 7900SOL    HW135336   4.019   2.316   8.561 -0.5316 -1.0217 -0.0802
 7900SOL    HW235337   4.037   2.327   8.412 -1.3834 -1.7184 -0.8254
 7901SOL     OW35338   4.452   0.591   0.787  0.1683  0.4519 -0.2032
 7901SOL    HW135339   4.388   0.592   0.716 -0.3190  0.9016  0.2502
 7901SOL    HW235340   4.532   0.564   0.742  0.7076 -1.0533  1.6734
 7902SOL     OW35341   3.781   3.401   8.966 -0.1159  0.9236  0.2885
 7902SOL    HW135342   3.852   3.452   8.926  0.0394  1.5899  1.3940
 7902SOL    HW235343   3.751   3.354   8.889  0.4953  0.5704  0.2679
 7903SOL     OW35344   1.923   4.486   7.540 -0.2353 -0.4777  0.3535
 7903SOL    HW135345   1.981   4.441   7.478  1.0980  1.4423  0.1950
 7903SOL    HW235346   1.891   4.560   7.490 -0.4256 -0.0451  1.1067
 7904SOL     OW35347   2.439   2.901   1.335  0.0911 -0.4844  0.0759
 7904SOL    HW135348   2.452   2.946   1.419  1.3428  0.3278 -0.5529
 7904SOL    HW235349   2.372   2.835   1.351 -1.4554  0.8115 -1.1392
 7905SOL     OW35350   2.604   4.511   8.961 -0.0535  0.1596 -0.4513
 7905SOL    HW135351   2.557   4.534   8.880 -0.9549  1.0002  0.3075
 7905SOL    HW235352   2.692   4.547   8.946  0.4845 -0.3968  1.4967
 7906SOL     OW35353   2.693   3.387   6.126 -0.6905 -0.1876  0.8021
 7906SOL    HW135354   2.728   3.440   6.198 -0.4583 -0.8742  1.1944
 7906SOL    HW235355   2.600   3.395   6.146 -0.9882 -0.8998 -0.3046
 7907SOL     OW35356   2.770   2.126   4.698 -0.2347 -0.0008  0.3722
 7907SOL    HW135357   2.790   2.214   4.732 -1.2439  0.2944  0.1928
 7907SOL    HW235358   2.692   2.143   4.646 -1.1713  0.0771  1.7942
 7908SOL     OW35359   1.105   0.626   8.946  0.0197  0.3122 -0.3732
 7908SOL    HW135360   1.178   0.587   8.897  1.0906  2.1032 -0.1713
 7908SOL    HW235361   1.133   0.716   8.959 -2.1447  0.5164  3.0226
 7909SOL     OW35362   3.829   0.906   4.228  0.2764 -0.1262  0.2773
 7909SOL    HW135363   3.877   0.881   4.150 -2.6030 -1.9438 -0.9211
 7909SOL    HW235364   3.891   0.968   4.267  0.3289 -0.1998  0.3104
 7910SOL     OW35365   2.526   2.656   8.788  0.4097  1.0692 -0.0611
 7910SOL    HW135366   2.589   2.693   8.725  0.1860  1.3478 -0.1211
 7910SOL    HW235367   2.555   2.565   8.798  2.0918  1.7954  1.5726
 7911SOL     OW35368   1.113   3.611   6.191  0.2139  0.2114 -0.0789
 7911SOL    HW135369   1.057   3.643   6.262 -0.2535 -0.6462 -0.0618
 7911SOL    HW235370   1.161   3.689   6.166  1.0691  0.3056  1.8735
 7912SOL     OW35371   3.573   2.890  14.006 -0.1308  0.4194  0.3978
 7912SOL    HW135372   3.585   2.962  14.069 -0.6641 -1.6015  2.7953
 7912SOL    HW235373   3.649   2.835  14.022 -0.6376 -0.6125 -0.7755
 7913SOL     OW35374   4.687   1.546   4.729 -0.4828  0.2909  0.0417
 7913SOL    HW135375   4.681   1.501   4.813 -0.1445  2.5329  1.2626
 7913SOL    HW235376   4.668   1.635   4.758 -0.8349  0.0950  0.4038
 7914SOL     OW35377   3.478   4.254   4.283  0.0495  0.4586  0.3507
 7914SOL    HW135378   3.511   4.239   4.371 -3.4905  1.5552  1.8590
 7914SOL    HW235379   3.403   4.313   4.291 -1.2222 -1.0920 -0.1702
 7915SOL     OW35380   2.026   2.422   7.001  0.0576 -0.1168 -0.1860
 7915SOL    HW135381   2.019   2.371   6.921  0.0635 -0.7537  0.2120
 7915SOL    HW235382   2.116   2.456   6.998  0.7723 -1.8169  1.6525
 7916SOL     OW35383   0.342   2.054   9.883  0.6525 -0.3514 -0.2637
 7916SOL    HW135384   0.298   1.970   9.895  1.8600 -0.9429  0.0295
 7916SOL    HW235385   0.413   2.054   9.948  0.6364  1.0692 -0.2410
 7917SOL     OW35386   2.484   1.339   6.002  0.0007  0.8060  0.1559
 7917SOL    HW135387   2.434   1.363   6.080  1.2493 -0.6019  1.3811
 7917SOL    HW235388   2.558   1.296   6.043  0.2685 -0.2832 -1.4614
 7918SOL     OW35389   3.175   1.184   8.879 -0.1631  0.5553 -0.1890
 7918SOL    HW135390   3.084   1.160   8.899 -0.0559  1.4391  1.3561
 7918SOL    HW235391   3.230   1.105   8.882  1.1083  1.4943  1.1631
 7919SOL     OW35392   0.270   2.136  16.881 -0.2347 -0.4811  0.2920
 7919SOL    HW135393   0.301   2.227  16.876  0.4592 -0.8232 -1.7098
 7919SOL    HW235394   0.176   2.153  16.884 -0.3027 -1.2312  2.5258
 7920SOL     OW35395   0.222   0.457  15.219  0.4599  0.0280 -0.1653
 7920SOL    HW135396   0.141   0.507  15.224 -0.6877 -1.6055 -2.0814
 7920SOL    HW235397   0.211   0.383  15.279 -2.3303 -1.7725 -2.9451
 7921SOL     OW35398   1.990   3.259  12.739 -0.0977 -0.3888  0.2153
 7921SOL    HW135399   1.900   3.282  12.714  0.0559 -2.1161 -1.9028
 7921SOL    HW235400   1.986   3.169  12.705 -1.2853 -0.1800 -0.2200
 7922SOL     OW35401   3.609   4.447   5.363 -0.3891 -0.4128 -0.2075
 7922SOL    HW135402   3.575   4.515   5.305 -1.2283 -1.6505 -1.1691
 7922SOL    HW235403   3.543   4.453   5.432  1.6737  0.0127  1.7348
 7923SOL     OW35404   1.449   0.974   2.864  0.1881 -0.1827 -0.6858
 7923SOL    HW135405   1.436   1.061   2.902 -1.7692 -0.5176 -0.5786
 7923SOL    HW235406   1.428   0.989   2.772 -1.3357  0.6245 -0.1988
 7924SOL     OW35407   4.683   0.135   1.186  0.4990  0.2938 -0.5463
 7924SOL    HW135408   4.628   0.184   1.246 -1.9638 -1.5370 -1.3159
 7924SOL    HW235409   4.667   0.168   1.098 -2.1319  0.8139  0.1252
 7925SOL     OW35410   1.613   2.739   3.503  0.2338 -0.3518 -0.4233
 7925SOL    HW135411   1.630   2.833   3.508 -0.5942 -0.1931 -0.5691
 7925SOL    HW235412   1.530   2.735   3.550  1.1426  0.0465  1.2016
 7926SOL     OW35413   1.046   1.711   1.894 -0.5167 -0.0929 -0.3217
 7926SOL    HW135414   1.114   1.682   1.954  1.6903 -1.8863 -3.6985
 7926SOL    HW235415   1.090   1.715   1.809 -0.3151 -0.7158 -0.2466
 7927SOL     OW35416   3.724   0.205  12.752 -0.1766  0.6330 -0.1428
 7927SOL    HW135417   3.701   0.264  12.681 -0.8597  1.4652  0.7652
 7927SOL    HW235418   3.752   0.128  12.703  2.4426  1.7146 -0.3674
 7928SOL     OW35419   2.996   2.749   9.320 -0.5585  0.4965 -0.0123
 7928SOL    HW135420   3.022   2.785   9.404  0.7212  1.5350 -0.8466
 7928SOL    HW235421   2.981   2.828   9.268  1.4350 -0.1677 -1.6344
 7929SOL     OW35422   4.576   2.925   5.621 -0.1971  0.1979  0.0715
 7929SOL    HW135423   4.668   2.916   5.646  0.0020 -1.4168 -1.2872
 7929SOL    HW235424   4.549   2.833   5.619 -0.7675  0.4020 -1.9200
 7930SOL     OW35425   2.077   2.629   5.744  0.0701 -0.1012  0.7963
 7930SOL    HW135426   2.052   2.540   5.770  2.9343 -0.7213  1.4407
 7930SOL    HW235427   2.002   2.654   5.691  1.3725  0.7170 -0.6499
 7931SOL     OW35428   2.896   4.045   0.587 -0.2994  0.0434 -0.1496
 7931SOL    HW135429   2.957   4.054   0.514  2.2362  1.5755  2.1599
 7931SOL    HW235430   2.846   3.974   0.546  1.3536 -0.6831 -0.9087
 7932SOL     OW35431   3.718   0.379  13.056  0.5896 -0.2005 -0.0780
 7932SOL    HW135432   3.721   0.443  12.984  0.9877 -0.6639 -0.4682
 7932SOL    HW235433   3.774   0.432  13.113  0.0589  1.2988 -0.9461
 7933SOL     OW35434   2.462   3.516   7.375  0.6122 -0.8578  0.5937
 7933SOL    HW135435   2.470   3.470   7.292  0.1828 -1.7734  1.0624
 7933SOL    HW235436   2.454   3.435   7.426 -1.9018 -1.0296 -0.0843
 7934SOL     OW35437   1.580   0.833  13.032 -0.0495  0.1109  0.2462
 7934SOL    HW135438   1.530   0.900  12.987 -1.7932 -1.4217 -0.0944
 7934SOL    HW235439   1.512   0.789  13.083  0.6162 -2.0896 -0.7126
 7935SOL     OW35440   0.534   3.864   5.782 -0.2395  0.6502  0.7155
 7935SOL    HW135441   0.498   3.835   5.866 -1.0595  2.1568  0.8815
 7935SOL    HW235442   0.454   3.866   5.730  1.3866  0.7249 -1.8035
 7936SOL     OW35443   3.865   1.730   9.142 -0.3632  0.3823  0.6543
 7936SOL    HW135444   3.936   1.668   9.157  1.4026  1.9242 -1.4965
 7936SOL    HW235445   3.831   1.729   9.232 -0.4678 -0.2680  0.6053
 7937SOL     OW35446   3.790   0.547   7.367 -0.2212 -0.4174 -0.1851
 7937SOL    HW135447   3.755   0.480   7.425 -0.6446 -0.2824 -0.2856
 7937SOL    HW235448   3.866   0.505   7.325 -0.3148 -1.4450  0.6975
 7938SOL     OW35449   0.875   0.804   4.280  0.9557  0.6198 -0.3327
 7938SOL    HW135450   0.837   0.839   4.361  2.6799  0.6871  0.4479
 7938SOL    HW235451   0.880   0.881   4.224  2.7913  0.2046 -0.7465
 7939SOL     OW35452   0.456   1.540   6.783 -0.1271  1.0859  0.2768
 7939SOL    HW135453   0.374   1.580   6.752  0.1750  2.2800  1.0139
 7939SOL    HW235454   0.493   1.516   6.698 -0.4115 -0.0061  0.4652
 7940SOL     OW35455   0.165   4.494  14.277  0.1042 -0.2849  0.8637
 7940SOL    HW135456   0.188   4.424  14.338  0.8142 -0.5089  0.3315
 7940SOL    HW235457   0.112   4.459  14.206 -0.8900  1.2443  0.8424
 7941SOL     OW35458   4.642   4.465  11.273 -0.3890  0.9015 -0.4518
 7941SOL    HW135459   4.719   4.456  11.216  1.1037  0.2053  1.6736
 7941SOL    HW235460   4.670   4.412  11.348  0.1060  0.7418 -0.7507
 7942SOL     OW35461   2.080   0.464   8.925 -0.4032 -0.0833  0.3825
 7942SOL    HW135462   2.123   0.454   9.010  0.8486  0.4041 -0.1855
 7942SOL    HW235463   2.114   0.389   8.875 -3.2250 -1.1391  0.0344
 7943SOL     OW35464   4.393   1.519   6.664 -0.2587 -0.3970  0.1010
 7943SOL    HW135465   4.402   1.427   6.687 -1.0867 -0.4267  0.3133
 7943SOL    HW235466   4.305   1.537   6.698  0.0243 -1.9489  1.6539
 7944SOL     OW35467   2.791   2.983  13.133  0.8735 -0.0512  0.3600
 7944SOL    HW135468   2.778   3.059  13.189  0.3838  1.6002 -2.0025
 7944SOL    HW235469   2.842   2.932  13.196  1.0107 -0.7027 -0.2792
 7945SOL     OW35470   1.609   2.974  14.177 -0.1058  0.4793 -0.3983
 7945SOL    HW135471   1.641   2.886  14.198  0.9394  1.1806  0.9106
 7945SOL    HW235472   1.566   2.988  14.262 -2.6238  1.6876 -1.8836
 7946SOL     OW35473   3.233   2.653  15.644 -0.0473 -0.2409  0.1744
 7946SOL    HW135474   3.295   2.592  15.604 -0.3048 -0.0428 -0.5183
 7946SOL    HW235475   3.228   2.723  15.579  0.8869 -0.3290  0.0020
 7947SOL     OW35476   2.188   4.602  17.131  0.5323 -0.0222  0.5664
 7947SOL    HW135477   2.129   4.529  17.149  0.1404  1.1419  3.9925
 7947SOL    HW235478   2.156   4.618  17.042 -0.0854  1.5553  1.0674
 7948SOL     OW35479   1.258   3.595   7.824  0.1050  0.4083  0.0496
 7948SOL    HW135480   1.333   3.647   7.852  1.1411 -0.5160 -0.9727
 7948SOL    HW235481   1.263   3.536   7.900  0.7375 -0.2761 -0.5199
 7949SOL     OW35482   2.028   4.565   4.968  0.3386  0.3009  0.1674
 7949SOL    HW135483   2.026   4.470   4.957 -2.2893  0.3544  0.0859
 7949SOL    HW235484   1.937   4.585   4.944 -0.7489 -2.2026  2.1632
 7950SOL     OW35485   0.720   3.499  11.246  0.2017 -0.7814 -0.0846
 7950SOL    HW135486   0.689   3.574  11.298  2.0313 -2.3884  3.3554
 7950SOL    HW235487   0.810   3.504  11.276 -0.5985  2.4675  1.8929
 7951SOL     OW35488   0.425   0.773   9.417  0.2574 -0.3317  0.1488
 7951SOL    HW135489   0.431   0.699   9.476  1.3058  1.9160  2.8759
 7951SOL    HW235490   0.478   0.839   9.461 -1.6787  0.2916  1.5502
 7952SOL     OW35491   0.182   2.726   7.093 -0.0972  0.0373  0.1533
 7952SOL    HW135492   0.227   2.650   7.131 -0.3529 -0.7976 -1.1992
 7952SOL    HW235493   0.254   2.787   7.076  0.3786 -0.0890  1.7262
 7953SOL     OW35494   1.908   3.664   6.799 -0.2462  0.0565 -0.1657
 7953SOL    HW135495   1.981   3.651   6.860 -0.7060 -0.6362  0.2345
 7953SOL    HW235496   1.872   3.578   6.780 -2.3440  1.2592 -1.7157
 7954SOL     OW35497   4.572   3.960   6.791 -0.1233  0.0988  0.2588
 7954SOL    HW135498   4.599   4.034   6.846 -1.9869  1.2953 -0.4607
 7954SOL    HW235499   4.489   3.936   6.831 -0.4376 -1.9434 -1.6838
 7955SOL     OW35500   1.649   2.428  10.484  0.5219  0.1241 -0.0066
 7955SOL    HW135501   1.602   2.348  10.504  1.1696  0.5250  3.0388
 7955SOL    HW235502   1.727   2.422  10.540 -0.5936 -3.0089  1.2015
 7956SOL     OW35503   0.271   3.380   2.292 -0.3475  0.3100  0.1471
 7956SOL    HW135504   0.300   3.395   2.203 -1.2412  1.5844  0.0765
 7956SOL    HW235505   0.186   3.422   2.301  0.5659  2.3720 -0.8462
 7957SOL     OW35506   1.354   3.640   7.097  0.1002  0.7313 -0.2487
 7957SOL    HW135507   1.266   3.606   7.115 -0.2278  2.8217  2.0789
 7957SOL    HW235508   1.338   3.712   7.037  2.1316  0.5085 -1.0559
 7958SOL     OW35509   0.295   0.535   3.536 -0.1188 -0.3239  0.2620
 7958SOL    HW135510   0.357   0.466   3.510 -2.2010 -1.4346 -1.8196
 7958SOL    HW235511   0.345   0.616   3.534  0.1007 -0.4863 -1.1236
 7959SOL     OW35512   2.650   2.364   5.135 -0.3406  0.0204  0.3683
 7959SOL    HW135513   2.556   2.380   5.122 -0.5733 -1.3106  0.4923
 7959SOL    HW235514   2.644   2.272   5.158 -0.7190 -0.2164 -0.6549
 7960SOL     OW35515   3.011   0.140   6.381 -0.2128 -0.0883  0.9130
 7960SOL    HW135516   2.947   0.173   6.319 -0.0056  0.5827  1.0560
 7960SOL    HW235517   2.993   0.205   6.449 -1.9837  0.4859 -0.1028
 7961SOL     OW35518   2.414   0.953   6.088 -0.1706 -0.2123  0.1633
 7961SOL    HW135519   2.361   1.018   6.042  1.2220  1.3899  0.8343
 7961SOL    HW235520   2.476   1.007   6.137 -1.7482  1.3360  0.4782
 7962SOL     OW35521   0.116   4.568   2.796  0.4416  0.5002 -0.1250
 7962SOL    HW135522   0.067   4.595   2.875  0.4134  2.4439 -0.8145
 7962SOL    HW235523   0.080   4.637   2.741 -1.8593 -0.7897 -0.2648
 7963SOL     OW35524   2.757   1.952  15.832  0.1727 -0.1456 -0.6295
 7963SOL    HW135525   2.776   1.880  15.771 -1.7691  0.0946 -1.4987
 7963SOL    HW235526   2.672   1.922  15.863  0.7664 -2.4636 -1.1809
 7964SOL     OW35527   2.897   3.467  12.000 -0.2899 -0.2596 -0.2034
 7964SOL    HW135528   2.815   3.479  11.951 -0.2644 -1.6857 -0.6130
 7964SOL    HW235529   2.940   3.552  11.990  0.2695 -0.5046  0.1174
 7965SOL     OW35530   2.259   0.605   7.056 -0.6888  0.1123 -0.4675
 7965SOL    HW135531   2.343   0.645   7.079 -1.3752  0.8289  0.7605
 7965SOL    HW235532   2.204   0.683   7.057 -1.1120 -0.2016  0.8956
 7966SOL     OW35533   1.141   2.047   1.126 -0.1587  0.2557  0.2898
 7966SOL    HW135534   1.114   1.969   1.174  2.2943 -1.7680 -1.6378
 7966SOL    HW235535   1.143   2.122   1.187 -1.3298  1.5926 -1.3082
 7967SOL     OW35536   2.626   3.962   4.285  0.5810  0.1467  0.7009
 7967SOL    HW135537   2.565   3.917   4.227  1.7238  0.4738 -0.7544
 7967SOL    HW235538   2.610   3.927   4.372  1.9114 -1.2364  0.3701
 7968SOL     OW35539   3.725   0.425  17.427  0.0200  0.6682 -0.2982
 7968SOL    HW135540   3.820   0.433  17.419  0.0885  0.7642  0.5868
 7968SOL    HW235541   3.711   0.330  17.426  2.2276  0.3469 -1.3531
 7969SOL     OW35542   1.181   3.577   6.581  0.2790 -0.4300  0.3732
 7969SOL    HW135543   1.120   3.622   6.523  0.4756  0.2221  0.6686
 7969SOL    HW235544   1.125   3.536   6.648 -1.4144  2.2601  0.6240
 7970SOL     OW35545   2.312   3.574   5.401 -0.2635 -0.2381  0.8462
 7970SOL    HW135546   2.341   3.662   5.377  2.6602 -1.7164 -1.0458
 7970SOL    HW235547   2.291   3.589   5.493 -1.1667  0.3141  0.5497
 7971SOL     OW35548   0.775   2.509  12.907  0.1172  0.2785 -0.2890
 7971SOL    HW135549   0.811   2.543  12.825 -0.0083 -0.2278 -0.5560
 7971SOL    HW235550   0.746   2.592  12.945  1.0382  0.8813 -0.8846
 7972SOL     OW35551   2.224   3.454   8.523  0.2024 -0.3362  0.0117
 7972SOL    HW135552   2.315   3.449   8.493  0.3168 -1.1282  0.4974
 7972SOL    HW235553   2.193   3.370   8.491 -0.4632 -0.6404  1.5009
 7973SOL     OW35554   3.091   1.228   7.817  0.0609  0.1410  0.0805
 7973SOL    HW135555   3.178   1.250   7.850  0.0190  1.3849 -0.6391
 7973SOL    HW235556   3.084   1.277   7.735 -2.5762 -1.3605 -0.5866
 7974SOL     OW35557   1.328   2.243   3.963  0.4110  0.5304 -0.1186
 7974SOL    HW135558   1.409   2.226   4.010  0.4066  0.7638 -0.0294
 7974SOL    HW235559   1.308   2.150   3.949  0.2015  0.6036 -0.3127
 7975SOL     OW35560   4.593   3.983   5.811 -0.1437 -0.0200 -0.2669
 7975SOL    HW135561   4.582   3.978   5.906 -0.3781  0.7282 -0.2587
 7975SOL    HW235562   4.521   4.035   5.775  0.8269  0.0762 -2.0810
 7976SOL     OW35563   3.733   3.317   8.467 -0.2589 -0.0278 -0.1503
 7976SOL    HW135564   3.804   3.374   8.497 -1.6248  1.5535  0.1073
 7976SOL    HW235565   3.784   3.260   8.409 -1.0164  0.4519 -1.3024
 7977SOL     OW35566   3.471   4.449   0.174  0.0427 -0.0440 -0.1435
 7977SOL    HW135567   3.523   4.524   0.201  0.2571  0.0880 -0.9169
 7977SOL    HW235568   3.391   4.493   0.145  0.5386 -0.2337 -1.8003
 7978SOL     OW35569   4.389   2.534   4.578  0.0260  0.9067  0.0669
 7978SOL    HW135570   4.373   2.439   4.576  0.9821  0.7281  1.1118
 7978SOL    HW235571   4.464   2.538   4.518 -1.3483  0.5765 -1.6878
 7979SOL     OW35572   1.318   0.279   1.772  0.8387  0.0375  0.5100
 7979SOL    HW135573   1.355   0.267   1.859  0.1852 -1.7527  0.5632
 7979SOL    HW235574   1.341   0.193   1.735 -0.7663 -0.4428  0.6323
 7980SOL     OW35575   3.797   1.351   4.940  0.2417  0.6479  0.0427
 7980SOL    HW135576   3.788   1.447   4.939 -1.7900  0.4606  0.6489
 7980SOL    HW235577   3.718   1.333   4.990 -0.0581 -0.5136 -0.8625
 7981SOL     OW35578   0.608   0.224   3.551 -0.5103 -0.2684  0.0853
 7981SOL    HW135579   0.525   0.241   3.595  0.0388  0.6245  0.7800
 7981SOL    HW235580   0.616   0.130   3.567  0.6831  0.0785  1.4744
 7982SOL     OW35581   2.592   2.544   3.490 -0.1797 -0.0109  0.1094
 7982SOL    HW135582   2.544   2.461   3.479  1.1287 -0.4923 -1.9960
 7982SOL    HW235583   2.563   2.590   3.411 -1.2882  0.0911  0.5689
 7983SOL     OW35584   0.636   0.105   4.602 -0.3029  0.2251  0.0908
 7983SOL    HW135585   0.564   0.053   4.639 -0.0973  0.2439  0.5171
 7983SOL    HW235586   0.691   0.040   4.557 -2.4977 -0.6933 -1.2656
 7984SOL     OW35587   1.783   3.076   3.704 -0.8202  0.8488  0.1462
 7984SOL    HW135588   1.782   3.045   3.794 -0.0903 -0.3194 -0.2505
 7984SOL    HW235589   1.697   3.051   3.670 -1.3818  0.4789  1.8500
 7985SOL     OW35590   2.540   0.180  13.905  0.4980 -0.0519 -0.5303
 7985SOL    HW135591   2.447   0.199  13.916  1.0102  0.7241  2.6624
 7985SOL    HW235592   2.545   0.174  13.810 -1.5325 -1.0298 -0.5838
 7986SOL     OW35593   1.562   0.826   1.225  0.4316 -0.0127  0.5441
 7986SOL    HW135594   1.654   0.835   1.251  0.6122 -0.5736  0.1073
 7986SOL    HW235595   1.576   0.785   1.140 -3.1547  0.3472 -0.1947
 7987SOL     OW35596   0.694   3.753   7.465 -0.2226  0.2575 -0.6057
 7987SOL    HW135597   0.685   3.820   7.397 -0.3573  0.0061 -0.8348
 7987SOL    HW235598   0.781   3.774   7.499 -0.5768 -1.2700  1.2247
 7988SOL     OW35599   4.619   0.155   6.476  0.2962 -0.5986  0.5662
 7988SOL    HW135600   4.678   0.100   6.528 -0.4326 -1.7879  0.1400
 7988SOL    HW235601   4.565   0.211   6.531 -2.5293 -1.5354 -1.2737
 7989SOL     OW35602   0.525   1.861   7.301  0.2852 -0.1484 -0.0913
 7989SOL    HW135603   0.474   1.941   7.293  4.2309  2.4942  1.5437
 7989SOL    HW235604   0.481   1.795   7.246  1.1560  0.4246 -1.4727
 7990SOL     OW35605   2.921   4.712   3.288  0.6305  0.5264  0.0746
 7990SOL    HW135606   2.981   4.669   3.349  1.3469  0.1174 -0.9204
 7990SOL    HW235607   2.892   0.052   3.325 -3.0147 -0.0732 -1.3794
 7991SOL     OW35608   2.930   0.237   3.107 -0.7311  0.1725  0.2729
 7991SOL    HW135609   2.965   0.274   3.188  0.5585 -0.5427  0.0401
 7991SOL    HW235610   2.967   0.293   3.039  0.4424 -1.2817 -0.2836
 7992SOL     OW35611   2.561   2.219   2.368  0.3087 -0.0298  0.0225
 7992SOL    HW135612   2.494   2.268   2.415 -0.2012 -1.8931  1.2549
 7992SOL    HW235613   2.592   2.283   2.304  1.1065 -1.2789 -0.8690
 7993SOL     OW35614   0.846   3.295   7.232  0.2250 -0.1260  0.2565
 7993SOL    HW135615   0.762   3.328   7.201 -1.0537 -2.1154  1.5911
 7993SOL    HW235616   0.888   3.377   7.259  0.5252 -0.2031  0.0110
 7994SOL     OW35617   1.940   2.271   5.686 -0.1814 -0.0690 -0.0756
 7994SOL    HW135618   1.904   2.341   5.741  2.1027  0.6405  0.5203
 7994SOL    HW235619   1.863   2.251   5.633 -1.5109  0.8983  1.4624
 7995SOL     OW35620   2.347   0.150   8.820 -0.0890  0.6998 -0.1344
 7995SOL    HW135621   2.320   0.069   8.775  1.0707 -1.0709  2.3400
 7995SOL    HW235622   2.294   0.215   8.775  0.7509  0.1240 -1.9470
 7996SOL     OW35623   0.652   1.120   7.938 -0.2213  0.3447 -0.4540
 7996SOL    HW135624   0.739   1.137   7.904 -0.5198  0.1302 -1.3117
 7996SOL    HW235625   0.667   1.039   7.988  1.8898  2.1234  1.8215
 7997SOL     OW35626   1.118   0.003   0.411 -0.6368  0.4382  0.3401
 7997SOL    HW135627   1.076   0.088   0.395 -1.0818  0.0392 -0.5721
 7997SOL    HW235628   1.164   0.029   0.491  0.9895  2.4876 -1.2729
 7998SOL     OW35629   2.966   4.145   9.330 -0.3533  0.7693 -0.2152
 7998SOL    HW135630   2.891   4.092   9.304 -0.2326 -0.1800  1.3518
 7998SOL    HW235631   3.014   4.143   9.248 -0.9782  1.1225 -0.5882
 7999SOL     OW35632   4.154   3.627   7.438  0.3800 -0.3515  0.1191
 7999SOL    HW135633   4.239   3.666   7.458 -0.4990  0.8541  1.4022
 7999SOL    HW235634   4.094   3.656   7.506  0.0315 -2.2037  0.6079
 8000SOL     OW35635   1.454   3.294  12.203  0.5002  0.3717 -0.5655
 8000SOL    HW135636   1.546   3.286  12.178  0.1045 -1.1841 -1.5386
 8000SOL    HW235637   1.458   3.352  12.279 -0.4381  0.8773 -0.9033
 8001SOL     OW35638   4.716   3.181   0.852 -0.2886 -0.2565  0.0792
 8001SOL    HW135639   0.026   3.254   0.819  0.2909 -0.6575  0.1223
 8001SOL    HW235640   0.016   3.114   0.799 -1.5088 -1.0998  0.1389
 8002SOL     OW35641   0.235   0.058  16.858 -0.3640 -0.2570  0.2441
 8002SOL    HW135642   0.204   0.145  16.885  3.6188  1.0226  0.6246
 8002SOL    HW235643   0.329   0.060  16.877 -0.2330 -0.4257 -0.3962
 8003SOL     OW35644   0.596   3.881  14.312  0.7949 -0.0184 -0.5600
 8003SOL    HW135645   0.575   3.862  14.404 -2.0043  2.7884 -0.6121
 8003SOL    HW235646   0.662   3.948  14.331 -1.9565  2.0116  1.8472
 8004SOL     OW35647   2.513   2.991   4.205 -0.1056  0.0852  0.0754
 8004SOL    HW135648   2.548   2.931   4.270  0.8465  0.0991 -0.4206
 8004SOL    HW235649   2.524   2.948   4.121  2.5634  0.3591  0.2965
 8005SOL     OW35650   1.468   3.079   8.836 -0.8807  0.7128  0.4401
 8005SOL    HW135651   1.557   3.045   8.839 -1.1844 -0.0550  0.6185
 8005SOL    HW235652   1.453   3.086   8.741  1.2943 -0.7342 -0.0053
 8006SOL     OW35653   3.254   0.109   3.596 -0.7766 -0.4572  0.1400
 8006SOL    HW135654   3.226   0.018   3.601 -0.0370 -0.6893  0.0368
 8006SOL    HW235655   3.218   0.145   3.677  0.7326  0.6419  0.3409
 8007SOL     OW35656   3.205   3.717  11.899 -0.0967  0.1736  0.6759
 8007SOL    HW135657   3.139   3.726  11.968 -0.6362 -1.0858  0.3423
 8007SOL    HW235658   3.205   3.623  11.877 -2.0484  0.4071 -0.4066
 8008SOL     OW35659   3.601   1.225   4.640  0.3561 -0.2964  0.1419
 8008SOL    HW135660   3.539   1.172   4.690  0.2623 -0.1469  0.1847
 8008SOL    HW235661   3.681   1.173   4.640  1.2952  1.1544 -1.5374
 8009SOL     OW35662   1.334   1.203   1.208 -0.6876 -0.6640 -0.1204
 8009SOL    HW135663   1.261   1.180   1.265 -0.5568 -2.7228 -0.7722
 8009SOL    HW235664   1.400   1.217   1.275  0.0768 -1.6199 -0.6849
 8010SOL     OW35665   1.150   3.751   2.770 -0.5434  0.1773 -0.3886
 8010SOL    HW135666   1.115   3.672   2.810  0.1155  0.7598  1.3263
 8010SOL    HW235667   1.144   3.803   2.850  0.2713 -0.2274 -0.0605
 8011SOL     OW35668   4.453   0.272   7.558  0.0974 -0.2312  0.7542
 8011SOL    HW135669   4.498   0.292   7.476  3.2392  0.7639  2.7204
 8011SOL    HW235670   4.532   0.257   7.610  0.0039 -2.4845  0.2409
 8012SOL     OW35671   1.092   0.269  16.826 -0.5022 -0.4761  0.1296
 8012SOL    HW135672   1.112   0.312  16.909  0.5068  1.4922 -1.1411
 8012SOL    HW235673   1.000   0.295  16.826 -0.2904  0.2289  1.6468
 8013SOL     OW35674   3.811   4.637   5.467  0.1245  0.6140  0.2514
 8013SOL    HW135675   3.732   4.589   5.443 -0.1090  1.0474  0.1350
 8013SOL    HW235676   3.881   4.595   5.418  0.0605  2.2860 -1.2768
 8014SOL     OW35677   2.175   2.830  12.395  0.1685  0.2324 -0.3244
 8014SOL    HW135678   2.206   2.893  12.330  0.8133 -0.1529 -0.3887
 8014SOL    HW235679   2.097   2.794  12.352  0.9560 -0.7615 -0.9238
 8015SOL     OW35680   3.631   1.236   9.173  0.4371 -0.0932  0.2917
 8015SOL    HW135681   3.596   1.323   9.191 -0.4974 -0.9267  2.5449
 8015SOL    HW235682   3.712   1.268   9.134  0.4889  0.1576  0.6011
 8016SOL     OW35683   4.382   4.070   8.382  0.1952  0.5663 -0.1478
 8016SOL    HW135684   4.367   4.000   8.318  0.5953  0.2346  0.1215
 8016SOL    HW235685   4.369   4.145   8.324  3.1736  0.9521 -0.3170
 8017SOL     OW35686   2.406   4.419  14.849  0.0014 -0.2892 -0.3804
 8017SOL    HW135687   2.363   4.391  14.930 -0.3183 -0.1806 -0.5135
 8017SOL    HW235688   2.331   4.451  14.800 -1.2597  1.0487  2.3723
 8018SOL     OW35689   1.982   2.490   5.327  0.2395  0.2995 -0.6956
 8018SOL    HW135690   1.962   2.523   5.414  1.9107 -0.7276  0.0750
 8018SOL    HW235691   2.000   2.397   5.333 -2.5306 -0.2317 -0.5373
 8019SOL     OW35692   1.358   2.687  13.772  0.0343  0.1286  0.4345
 8019SOL    HW135693   1.292   2.738  13.820 -1.4859 -1.1877 -0.2859
 8019SOL    HW235694   1.300   2.617  13.742  1.1736 -1.5790  2.1708
 8020SOL     OW35695   2.147   4.524   0.728 -0.7253  0.0066 -0.0166
 8020SOL    HW135696   2.236   4.493   0.747 -0.7808  1.5709  2.7706
 8020SOL    HW235697   2.173   4.584   0.658 -2.5197 -0.6250 -1.2364
 8021SOL     OW35698   3.826   2.626   1.872 -0.2162 -0.4445  0.1899
 8021SOL    HW135699   3.779   2.709   1.879 -1.7368 -1.1814 -1.2432
 8021SOL    HW235700   3.778   2.579   1.804 -1.3441 -1.3319  1.6043
 8022SOL     OW35701   4.423   1.390   6.072 -0.4160  0.0860 -0.6215
 8022SOL    HW135702   4.392   1.348   6.152 -0.0610 -3.7161 -2.4726
 8022SOL    HW235703   4.474   1.316   6.039 -0.5116 -1.2028  2.1709
 8023SOL     OW35704   0.014   0.244   9.988 -0.0630 -0.2547  0.0670
 8023SOL    HW135705   4.722   0.332   9.974  1.2831  0.4408  1.0196
 8023SOL    HW235706   0.087   0.236   9.927 -0.9200  1.5891 -1.2018
 8024SOL     OW35707   0.915   3.516   9.388 -0.2568  0.3442 -0.5829
 8024SOL    HW135708   0.896   3.426   9.360 -0.2018 -0.0664  0.6732
 8024SOL    HW235709   0.992   3.489   9.439 -0.0807  2.5796  0.3325
 8025SOL     OW35710   2.885   4.507   0.186  0.1619  0.6260  0.2463
 8025SOL    HW135711   2.842   4.592   0.201  0.5214 -0.1774  5.5973
 8025SOL    HW235712   2.812   4.445   0.193  0.0042  0.9345  1.2457
 8026SOL     OW35713   3.510   4.151   9.945  0.1233  0.1731  0.5737
 8026SOL    HW135714   3.416   4.151   9.966 -0.3154  0.3223 -1.3563
 8026SOL    HW235715   3.510   4.055   9.936 -2.3670  0.1083  1.1330
 8027SOL     OW35716   1.320   4.283   5.767 -0.3830  1.1041  0.1478
 8027SOL    HW135717   1.409   4.254   5.751 -0.9539 -0.1726 -0.6518
 8027SOL    HW235718   1.298   4.309   5.678 -4.1184 -0.4164  0.6202
 8028SOL     OW35719   1.299   2.674   8.363 -0.1586  0.2701 -0.2297
 8028SOL    HW135720   1.351   2.630   8.296 -0.3045 -0.9979  0.5041
 8028SOL    HW235721   1.219   2.699   8.316 -0.2549 -0.3539 -0.4012
 8029SOL     OW35722   0.394   1.158   1.904 -0.4159 -0.1488  0.1118
 8029SOL    HW135723   0.316   1.110   1.878  0.5429 -1.5810 -0.1233
 8029SOL    HW235724   0.446   1.128   1.829 -1.5105 -2.2241  0.1903
 8030SOL     OW35725   3.406   3.080  16.524  0.4922  0.0115 -0.0951
 8030SOL    HW135726   3.414   3.079  16.620  0.7837  0.1545 -0.1190
 8030SOL    HW235727   3.346   3.006  16.513  1.8313 -1.4755  2.4616
 8031SOL     OW35728   2.294   0.633   1.744  0.3361 -0.4418 -0.3467
 8031SOL    HW135729   2.295   0.722   1.710  0.6464 -0.6083 -0.7779
 8031SOL    HW235730   2.319   0.652   1.835 -1.2343 -2.1983  0.4559
 8032SOL     OW35731   3.882   4.508  14.613 -0.0640 -0.1430 -0.0590
 8032SOL    HW135732   3.867   4.453  14.536  0.1306 -0.4872  0.1479
 8032SOL    HW235733   3.870   4.452  14.689  1.2441 -1.6899 -1.0009
 8033SOL     OW35734   4.615   2.248   5.442  0.1498  0.4448  0.0553
 8033SOL    HW135735   4.596   2.202   5.524  0.7451 -0.3652 -0.2766
 8033SOL    HW235736   4.534   2.299   5.433 -0.7320 -1.0831 -0.7070
 8034SOL     OW35737   0.596   0.644   1.105 -0.1062 -0.1031  0.5678
 8034SOL    HW135738   0.649   0.614   1.179  1.0930  1.1582  0.2077
 8034SOL    HW235739   0.525   0.582   1.124  1.1407 -2.0112 -1.0295
 8035SOL     OW35740   1.141   2.251   1.303 -0.4833 -0.0522  0.2376
 8035SOL    HW135741   1.178   2.302   1.232  1.8032  0.3306  1.7165
 8035SOL    HW235742   1.073   2.308   1.339 -0.3987  0.7123 -0.8301
 8036SOL     OW35743   1.462   0.523   5.855 -0.6218 -0.1146 -0.0313
 8036SOL    HW135744   1.367   0.539   5.854 -0.5382  0.3029 -0.7531
 8036SOL    HW235745   1.489   0.506   5.765 -0.6892 -0.5688  0.0333
 8037SOL     OW35746   2.790   2.484   4.905 -0.4778 -0.1053  0.3049
 8037SOL    HW135747   2.723   2.459   4.968  0.0325  0.6965  1.1649
 8037SOL    HW235748   2.825   2.562   4.949 -0.8598  1.4083 -2.0637
 8038SOL     OW35749   1.259   2.491  10.881  1.0882 -0.1786  0.2993
 8038SOL    HW135750   1.168   2.519  10.866  1.3355 -0.0798 -0.9901
 8038SOL    HW235751   1.301   2.533  10.806  1.5864 -0.8123  0.2306
 8039SOL     OW35752   0.287   4.136   7.302 -0.1721 -0.0383  0.1646
 8039SOL    HW135753   0.299   4.082   7.380 -0.3323 -1.8812 -1.0848
 8039SOL    HW235754   0.324   4.219   7.332  1.3042  0.5352 -3.1879
 8040SOL     OW35755   2.032   1.570  17.694  0.4620  0.1916 -0.1788
 8040SOL    HW135756   2.042   1.479  17.723  0.9521  0.0279 -0.8617
 8040SOL    HW235757   1.944   1.574  17.655  0.4370  0.2191 -0.1198
 8041SOL     OW35758   3.902   3.173   9.449 -0.1290  0.3561  0.2109
 8041SOL    HW135759   3.990   3.141   9.431 -0.0370  1.6771 -1.7157
 8041SOL    HW235760   3.909   3.215   9.534 -1.1620  0.1416  0.4015
 8042SOL     OW35761   3.558   0.866   4.328 -0.3356 -0.2248 -0.2617
 8042SOL    HW135762   3.653   0.880   4.330 -0.3979 -0.3668  2.7509
 8042SOL    HW235763   3.532   0.932   4.263 -0.5688  1.4547  1.5288
 8043SOL     OW35764   3.032   0.891   7.834  0.3847 -0.0361  0.1226
 8043SOL    HW135765   3.089   0.815   7.818  1.4101  1.0997 -1.5479
 8043SOL    HW235766   3.090   0.963   7.854 -1.6074  1.0903  1.8540
 8044SOL     OW35767   3.948   0.935   3.584 -0.3662  0.2974  0.2540
 8044SOL    HW135768   4.014   1.002   3.602 -1.6558  1.6247  0.0522
 8044SOL    HW235769   3.909   0.978   3.508 -1.3588  0.7225  1.0081
 8045SOL     OW35770   0.193   0.044   4.857 -0.3147 -0.1654  0.0161
 8045SOL    HW135771   0.142   0.018   4.781 -2.9050  0.5134  1.5206
 8045SOL    HW235772   0.280   0.033   4.819  0.1250 -0.1361  1.0178
 8046SOL     OW35773   0.207   3.503   3.986  0.0480  0.4188 -0.0066
 8046SOL    HW135774   0.187   3.409   3.992  0.7836  0.2153 -0.7122
 8046SOL    HW235775   0.152   3.526   3.911  0.6968  2.0660  0.0220
 8047SOL     OW35776   3.898   1.198  17.065 -0.5486 -0.0628 -0.4309
 8047SOL    HW135777   3.934   1.124  17.113 -0.4485 -0.6551 -1.4064
 8047SOL    HW235778   3.896   1.264  17.134 -0.2935 -0.9865  0.4552
 8048SOL     OW35779   1.482   0.674   8.125 -0.6162 -0.0148  0.1588
 8048SOL    HW135780   1.440   0.760   8.117  0.7782  0.5903 -0.8672
 8048SOL    HW235781   1.441   0.665   8.210  1.1809 -0.8691  0.9313
 8049SOL     OW35782   2.576   1.519   2.588  0.3881 -0.6629  0.1481
 8049SOL    HW135783   2.659   1.564   2.602 -1.0085  2.0475 -0.3862
 8049SOL    HW235784   2.520   1.551   2.659  1.2821  0.4000  0.3716
 8050SOL     OW35785   4.156   0.566   6.577 -0.4030  0.4078  0.5229
 8050SOL    HW135786   4.160   0.640   6.517  0.1783 -0.8768 -1.0265
 8050SOL    HW235787   4.226   0.503   6.558 -0.3378  0.4159  0.7328
 8051SOL     OW35788   4.464   1.886  15.186  0.3872  0.7191  0.2345
 8051SOL    HW135789   4.530   1.870  15.254 -2.1140  0.1473  2.5391
 8051SOL    HW235790   4.377   1.873  15.224  0.7527  0.2572  0.9123
 8052SOL     OW35791   1.941   1.043   8.590  0.5644  0.2664 -0.2644
 8052SOL    HW135792   2.020   0.990   8.599 -0.9644 -2.2401 -1.5111
 8052SOL    HW235793   1.876   0.974   8.575 -1.3402  1.9575  0.2685
 8053SOL     OW35794   3.276   1.552   8.593  0.5978  0.6177 -0.2892
 8053SOL    HW135795   3.272   1.609   8.670  0.7236 -0.7304  0.7260
 8053SOL    HW235796   3.245   1.466   8.622  1.9390  0.5977  1.0642
 8054SOL     OW35797   1.883   4.730  11.232  0.0763 -0.3898  0.8349
 8054SOL    HW135798   1.945   0.041  11.280 -1.4610 -1.1516  3.6897
 8054SOL    HW235799   1.933   4.648  11.236 -0.1632 -0.7246 -2.4230
 8055SOL     OW35800   2.229   0.257   1.433 -0.5348  0.0480 -0.2073
 8055SOL    HW135801   2.266   0.242   1.520 -1.1001 -0.9037 -0.1268
 8055SOL    HW235802   2.171   0.181   1.422  0.0811 -0.6876  1.5688
 8056SOL     OW35803   2.658   2.136   3.077  0.8220  0.5339 -0.2656
 8056SOL    HW135804   2.587   2.171   3.131 -0.8315 -1.9939 -0.7444
 8056SOL    HW235805   2.724   2.097   3.134  0.8992 -0.2294 -0.8763
 8057SOL     OW35806   0.331   0.880   7.473 -0.1839 -0.7142 -0.0064
 8057SOL    HW135807   0.325   0.815   7.403  1.5133 -1.6492  0.7359
 8057SOL    HW235808   0.413   0.925   7.454 -0.8613  1.3276  1.8414
 8058SOL     OW35809   0.738   3.796  10.693 -0.3513  0.0688  0.0377
 8058SOL    HW135810   0.772   3.710  10.718  1.1606  1.0138  1.2843
 8058SOL    HW235811   0.671   3.760  10.635  0.1530 -0.4094 -0.2471
 8059SOL     OW35812   3.926   0.150   6.355  0.3512  0.0906 -0.0169
 8059SOL    HW135813   3.935   0.054   6.358 -1.4360 -0.0952 -0.8110
 8059SOL    HW235814   4.017   0.178   6.366 -0.2324  1.1558  2.0030
 8060SOL     OW35815   2.443   3.064   1.974  0.0821  0.5803 -0.1986
 8060SOL    HW135816   2.368   3.011   1.948  1.2189 -1.0372 -0.1518
 8060SOL    HW235817   2.408   3.149   1.947  2.0106  0.0941 -4.2081
 8061SOL     OW35818   2.418   3.573   4.443  0.6454 -0.1173  0.1836
 8061SOL    HW135819   2.440   3.592   4.534  0.4783  2.1223 -0.2498
 8061SOL    HW235820   2.332   3.614   4.434 -0.2359 -1.7048  1.3056
 8062SOL     OW35821   4.453   0.135  11.618 -0.1470 -0.2630 -0.0371
 8062SOL    HW135822   4.508   0.192  11.564  1.0382 -0.0567  1.3888
 8062SOL    HW235823   4.419   0.079  11.548  0.0631 -0.8910  0.3646
 8063SOL     OW35824   0.190   1.596  11.643 -0.4783 -0.3078  0.2034
 8063SOL    HW135825   0.219   1.639  11.723 -0.8965 -0.9139  0.6742
 8063SOL    HW235826   0.105   1.637  11.631 -0.3501  0.9044  3.4474
 8064SOL     OW35827   2.670   2.957  10.199 -0.2890  0.4384  0.2803
 8064SOL    HW135828   2.676   3.037  10.147 -0.2541  0.7951  0.8303
 8064SOL    HW235829   2.636   2.887  10.144 -0.4630  0.5709  0.2216
 8065SOL     OW35830   2.967   1.223   9.350 -0.0055 -0.4018 -0.1552
 8065SOL    HW135831   3.033   1.202   9.284 -0.4751 -2.5618  0.0405
 8065SOL    HW235832   2.891   1.169   9.325  0.7082 -1.1702 -0.6843
 8066SOL     OW35833   4.582   1.405   1.628  0.7080 -0.3260  0.0856
 8066SOL    HW135834   4.501   1.362   1.656  1.3348 -2.0733 -0.8106
 8066SOL    HW235835   4.557   1.496   1.613  1.9290 -0.1197 -0.6573
 8067SOL     OW35836   3.553   4.347   3.011 -0.0077  0.0964  0.7287
 8067SOL    HW135837   3.605   4.328   3.090 -1.4464  0.9445  1.8715
 8067SOL    HW235838   3.621   4.320   2.949 -0.8303  1.6324 -0.8420
 8068SOL     OW35839   3.332   0.523  15.184  0.5786 -0.7127 -0.6627
 8068SOL    HW135840   3.285   0.464  15.125  1.3848  0.5492 -2.5507
 8068SOL    HW235841   3.367   0.464  15.251 -2.0226  0.1695  1.5023
 8069SOL     OW35842   4.347   1.467   8.922 -0.9951  0.1194 -0.1885
 8069SOL    HW135843   4.373   1.399   8.860 -0.8253 -1.6349  1.7996
 8069SOL    HW235844   4.287   1.414   8.974  0.6481 -2.0368 -0.4876
 8070SOL     OW35845   2.504   3.439   2.356 -0.6238  0.4276 -0.3060
 8070SOL    HW135846   2.587   3.480   2.380  1.0959 -3.4050  0.3065
 8070SOL    HW235847   2.510   3.362   2.413  0.0510  0.8423  0.1878
 8071SOL     OW35848   1.476   4.210   7.266  0.4320 -0.8512  0.1903
 8071SOL    HW135849   1.503   4.225   7.175 -0.3295  0.3602  0.1630
 8071SOL    HW235850   1.475   4.114   7.265 -0.6929 -0.8401  0.8013
 8072SOL     OW35851   2.310   0.894  15.695 -0.1768  0.2244  0.1896
 8072SOL    HW135852   2.222   0.888  15.658 -0.2232  1.0108  0.1762
 8072SOL    HW235853   2.342   0.983  15.679  1.3746 -0.4344 -0.3629
 8073SOL     OW35854   2.782   2.413   4.633  0.3559  0.6244  0.2116
 8073SOL    HW135855   2.792   2.449   4.721 -1.6160  0.1350  0.6524
 8073SOL    HW235856   2.862   2.444   4.591  0.1145 -0.4243 -1.0330
 8074SOL     OW35857   4.339   3.911   6.927 -0.2789  0.5199 -0.2597
 8074SOL    HW135858   4.339   3.844   6.995  2.4970  1.1477  0.3900
 8074SOL    HW235859   4.258   3.955   6.951 -0.5794  0.5295 -1.2932
 8075SOL     OW35860   3.834   1.817  12.713  0.3661 -0.5144 -0.4166
 8075SOL    HW135861   3.793   1.882  12.656  3.4303  1.2742 -0.5836
 8075SOL    HW235862   3.921   1.822  12.672 -1.2907  0.9473 -3.7677
 8076SOL     OW35863   2.146   1.227   5.470 -0.0330 -0.8576  0.1097
 8076SOL    HW135864   2.062   1.238   5.425 -0.4690 -2.8306  0.4686
 8076SOL    HW235865   2.148   1.132   5.460 -1.3453 -1.0109  1.1992
 8077SOL     OW35866   0.398   2.089  15.444  0.4712 -0.4527  0.1835
 8077SOL    HW135867   0.479   2.140  15.448  1.5737 -1.9928 -2.9179
 8077SOL    HW235868   0.401   2.072  15.350 -2.5267  0.5852 -0.1155
 8078SOL     OW35869   2.549   4.582   5.625 -0.4675 -0.1241  0.0863
 8078SOL    HW135870   2.604   4.608   5.551 -1.2960  0.4541 -0.3282
 8078SOL    HW235871   2.526   4.492   5.600  1.3692 -0.0155 -2.0231
 8079SOL     OW35872   3.860   0.747  11.076 -0.2029 -0.6001 -0.3433
 8079SOL    HW135873   3.845   0.680  11.009  0.3507 -0.5179 -0.5557
 8079SOL    HW235874   3.840   0.828  11.030 -0.2205  0.8658  2.2463
 8080SOL     OW35875   4.340   3.118   5.763  0.0461  0.7947  0.1301
 8080SOL    HW135876   4.407   3.164   5.813  0.8902 -3.3836  2.7806
 8080SOL    HW235877   4.380   3.035   5.737  0.1151  1.3810 -1.6914
 8081SOL     OW35878   3.210   3.660   5.529  0.1299 -0.2726 -0.3792
 8081SOL    HW135879   3.152   3.589   5.500  2.0093 -1.2600 -1.7057
 8081SOL    HW235880   3.225   3.697   5.442  0.1982  2.0629  0.6408
 8082SOL     OW35881   2.984   0.677   6.862 -0.1244 -0.2098  0.0245
 8082SOL    HW135882   3.020   0.601   6.816 -1.7424 -0.0505 -1.4914
 8082SOL    HW235883   2.912   0.703   6.805 -0.3961  0.1769  0.5414
 8083SOL     OW35884   3.091   4.528  17.380 -0.1892  0.6004  0.0055
 8083SOL    HW135885   3.059   4.608  17.338  0.8146  1.4680  0.8803
 8083SOL    HW235886   3.001   4.495  17.390 -0.0085 -0.7168 -2.7608
 8084SOL     OW35887   0.357   1.017   8.143 -0.3602 -0.0796 -0.1305
 8084SOL    HW135888   0.430   1.062   8.186 -1.3683  2.8081 -1.4136
 8084SOL    HW235889   0.282   1.053   8.191  0.2200  1.3299 -0.2797
 8085SOL     OW35890   1.626   4.122   8.643  0.4561  0.5770  0.4217
 8085SOL    HW135891   1.548   4.115   8.697 -0.0433  3.4878  0.0595
 8085SOL    HW235892   1.622   4.039   8.595 -1.5875  1.5496 -1.0742
 8086SOL     OW35893   0.700   0.390   5.904  0.0326 -0.2303  0.2305
 8086SOL    HW135894   0.791   0.388   5.933  0.0323  1.2759  0.3145
 8086SOL    HW235895   0.697   0.461   5.841 -2.2895 -0.6758 -0.1595
 8087SOL     OW35896   4.596   4.293   9.108  0.1119  0.5823  0.3572
 8087SOL    HW135897   4.526   4.350   9.140 -1.1590 -0.5411 -0.4200
 8087SOL    HW235898   4.544   4.213   9.103 -1.4848  1.6782 -0.5811
 8088SOL     OW35899   0.131   1.544   3.085  0.1126 -0.3359  0.0804
 8088SOL    HW135900   0.174   1.541   3.170 -0.6303 -2.3705  0.3723
 8088SOL    HW235901   0.093   1.631   3.091  1.3121  0.2980 -1.2832
 8089SOL     OW35902   3.326   4.057   3.705 -0.1216  0.7246  0.1685
 8089SOL    HW135903   3.340   4.150   3.690 -0.8312  0.9710  1.0413
 8089SOL    HW235904   3.322   4.030   3.613  0.9160  0.1770  0.2850
 8090SOL     OW35905   3.375   4.148   9.000  0.2957 -0.0522  0.3417
 8090SOL    HW135906   3.425   4.204   9.059  0.4929  0.4424 -0.2967
 8090SOL    HW235907   3.422   4.066   8.986  1.4986  0.7061 -0.0637
 8091SOL     OW35908   4.127   0.038   4.721 -0.2896 -0.5273  0.0199
 8091SOL    HW135909   4.117   4.689   4.695  2.7207 -1.0207  0.6309
 8091SOL    HW235910   4.076   0.029   4.801  0.0232 -2.6838 -0.0133
 8092SOL     OW35911   1.572   1.307   8.165  0.2440 -0.1508 -0.3250
 8092SOL    HW135912   1.598   1.316   8.074 -1.7721  1.8833 -0.6993
 8092SOL    HW235913   1.570   1.212   8.172  2.6831 -0.1579  0.3939
 8093SOL     OW35914   0.846   0.992   9.842  0.4709  0.0839 -0.2721
 8093SOL    HW135915   0.873   0.922   9.783 -0.4917 -1.2640  0.8769
 8093SOL    HW235916   0.853   1.060   9.775 -0.5486  0.1617 -0.3045
 8094SOL     OW35917   1.241   3.782   3.985  0.5577  0.6338 -0.2592
 8094SOL    HW135918   1.279   3.744   3.906  0.2220 -1.6619  0.6891
 8094SOL    HW235919   1.270   3.873   3.977 -1.9178  1.3802 -0.8726
 8095SOL     OW35920   2.195   2.922  12.883  0.7356 -0.3206 -0.2377
 8095SOL    HW135921   2.174   2.938  12.791 -1.7081  1.8934  0.6956
 8095SOL    HW235922   2.267   2.985  12.890  1.2797 -0.9110 -0.6085
 8096SOL     OW35923   2.551   1.145   0.260  0.1944 -0.4564 -0.0741
 8096SOL    HW135924   2.579   1.055   0.277  1.3692 -0.3003 -1.0700
 8096SOL    HW235925   2.593   1.204   0.323  1.2105 -1.9115  0.6030
 8097SOL     OW35926   3.497   0.073  13.495  0.3263 -0.3013 -0.3635
 8097SOL    HW135927   3.463   0.034  13.575  0.9901 -0.2710 -0.0687
 8097SOL    HW235928   3.417   0.073  13.442  0.8696  2.2648 -1.1995
 8098SOL     OW35929   3.610   3.944   3.371 -0.5693 -0.2125 -0.1106
 8098SOL    HW135930   3.675   4.007   3.402 -1.3571  2.3778 -3.7530
 8098SOL    HW235931   3.607   3.966   3.278 -0.9317  0.8006  0.1341
 8099SOL     OW35932   0.191   2.647   6.176 -0.1526  0.0719 -0.5065
 8099SOL    HW135933   0.154   2.576   6.124  0.0425 -0.2703 -0.1784
 8099SOL    HW235934   0.122   2.713   6.175 -0.1528  0.0745 -0.2369
 8100SOL     OW35935   3.671   0.343  17.721 -0.0200  0.7368  0.5550
 8100SOL    HW135936   3.676   0.396  17.641  1.1174 -0.4937 -0.2043
 8100SOL    HW235937   3.591   0.292  17.708  0.4146  0.3033 -0.4101
 8101SOL     OW35938   2.855   1.116  10.672 -0.2031 -0.0504 -0.3583
 8101SOL    HW135939   2.885   1.189  10.616 -1.6567  0.3489 -0.6093
 8101SOL    HW235940   2.771   1.150  10.702 -0.2791  1.0405 -1.7912
 8102SOL     OW35941   1.639   2.989   6.900 -0.1009  0.1454  0.2454
 8102SOL    HW135942   1.678   2.974   6.986 -1.8148  0.3808  1.0755
 8102SOL    HW235943   1.709   2.959   6.842  0.1570  1.8903 -0.3492
 8103SOL     OW35944   2.550   1.522   3.233 -0.2679  0.6228  0.7369
 8103SOL    HW135945   2.588   1.436   3.250 -0.3496  0.9439  2.5273
 8103SOL    HW235946   2.578   1.576   3.307  0.5285 -1.9630  2.3014
 8104SOL     OW35947   0.260   3.583  10.538 -0.0402  0.0430  0.2441
 8104SOL    HW135948   0.242   3.637  10.460  0.7526  0.4357  0.3324
 8104SOL    HW235949   0.194   3.515  10.527 -0.2490  0.2218  0.3919
 8105SOL     OW35950   3.199   3.198   5.636 -0.1820  0.3267  0.0896
 8105SOL    HW135951   3.108   3.181   5.659 -0.1951  1.6277  0.9994
 8105SOL    HW235952   3.209   3.155   5.551 -2.2316  0.8264 -0.4230
 8106SOL     OW35953   2.228   1.028  14.086  0.1228 -0.2710  0.0399
 8106SOL    HW135954   2.142   1.063  14.109 -0.8522 -2.3096 -0.5555
 8106SOL    HW235955   2.284   1.031  14.164  2.4631 -0.1592 -1.6489
 8107SOL     OW35956   1.819   0.755   4.890  0.0640  0.3794 -0.3204
 8107SOL    HW135957   1.815   0.833   4.836 -0.7332  3.6140  4.3835
 8107SOL    HW235958   1.818   0.802   4.974  1.0842 -0.9623  0.4572
 8108SOL     OW35959   0.028   0.496  11.127 -0.4616  0.6709 -0.2953
 8108SOL    HW135960   4.742   0.572  11.177  0.2461  0.5997  0.2259
 8108SOL    HW235961   4.709   0.427  11.151  0.8640  0.8501  3.6690
 8109SOL     OW35962   2.264   1.934   6.844  0.0404  0.2211 -0.5013
 8109SOL    HW135963   2.338   1.912   6.788 -0.2807  1.6621 -1.4735
 8109SOL    HW235964   2.202   1.864   6.824 -0.3208  0.7819 -1.3550
 8110SOL     OW35965   3.504   3.123   9.597  0.0677 -0.2029  0.4304
 8110SOL    HW135966   3.489   3.087   9.685 -1.6352  2.3174  1.1636
 8110SOL    HW235967   3.565   3.057   9.566  0.5601 -0.2443  1.4759
 8111SOL     OW35968   1.456   1.459  16.268  0.2691  0.1300  1.1937
 8111SOL    HW135969   1.499   1.522  16.210  0.4184 -0.0884  1.0694
 8111SOL    HW235970   1.445   1.511  16.348 -2.8065  0.8254  0.3287
 8112SOL     OW35971   0.430   1.510  12.486  0.4899  0.0510  0.1649
 8112SOL    HW135972   0.477   1.572  12.542  0.0649 -0.5089  1.1326
 8112SOL    HW235973   0.492   1.438  12.499  0.3885 -0.1138 -0.2633
 8113SOL     OW35974   3.610   2.960  16.949 -0.4475  0.0858 -0.0018
 8113SOL    HW135975   3.544   2.893  16.939  0.3309 -0.9686  1.9018
 8113SOL    HW235976   3.652   2.934  17.031 -1.3942 -0.8803  0.1646
 8114SOL     OW35977   1.607   1.028   7.356  1.1684 -0.0551  0.3926
 8114SOL    HW135978   1.641   1.031   7.445 -1.2466  0.9345  1.2647
 8114SOL    HW235979   1.687   1.021   7.303  0.1532 -1.9052 -0.8813
 8115SOL     OW35980   0.886   2.046   4.879 -0.2150 -0.0892 -0.4923
 8115SOL    HW135981   0.869   1.958   4.911 -1.5136  1.0212  1.8725
 8115SOL    HW235982   0.808   2.090   4.913 -0.3034 -0.2076 -0.5419
 8116SOL     OW35983   0.247   2.293   8.155  0.4520  0.2690  0.3350
 8116SOL    HW135984   0.298   2.374   8.161 -0.4534  0.8804 -0.2115
 8116SOL    HW235985   0.184   2.316   8.223  0.5209  0.2154  0.4166
 8117SOL     OW35986   3.569   2.482   9.488  0.0633 -0.0914 -0.0043
 8117SOL    HW135987   3.511   2.557   9.476  0.8662  0.6241  0.5654
 8117SOL    HW235988   3.523   2.432   9.554  0.5419  1.6160  1.6383
 8118SOL     OW35989   4.514   2.031  14.324  0.1974  0.2731  0.6025
 8118SOL    HW135990   4.459   2.077  14.261  0.7350  1.0939  0.7262
 8118SOL    HW235991   4.598   2.019  14.279 -1.6404 -2.3070 -2.0854
 8119SOL     OW35992   1.903   1.976  13.699  0.1269 -0.2948  0.3264
 8119SOL    HW135993   1.895   1.999  13.606 -1.8507  0.8501  0.7882
 8119SOL    HW235994   1.945   1.890  13.701  1.3240  0.2569 -0.5222
 8120SOL     OW35995   4.470   2.081   8.470 -0.0013 -0.2378  0.3940
 8120SOL    HW135996   4.438   1.995   8.495 -1.1836  0.4082  1.0857
 8120SOL    HW235997   4.480   2.119   8.558 -3.2967 -1.1503  1.1526
 8121SOL     OW35998   1.045   1.767  15.521  0.2580  0.3782 -0.1011
 8121SOL    HW135999   1.127   1.797  15.559  0.4590 -0.3274  0.0201
 8121SOL    HW236000   0.992   1.752  15.599 -1.7668  0.2855 -1.4827
 8122SOL     OW36001   1.787   4.660   4.884 -0.1058  0.6075  0.4487
 8122SOL    HW136002   1.722   4.724   4.853  0.6174  0.0017 -2.3319
 8122SOL    HW236003   1.750   4.576   4.859 -0.2374  0.7526  0.1535
 8123SOL     OW36004   1.079   4.404   1.656 -0.9058 -0.5871 -0.0519
 8123SOL    HW136005   1.001   4.368   1.616  0.0168 -1.4083 -1.1152
 8123SOL    HW236006   1.140   4.336   1.625 -0.1594 -0.5200  1.2296
 8124SOL     OW36007   3.771   1.789  15.666  0.5014  0.2185 -0.8358
 8124SOL    HW136008   3.793   1.876  15.701  0.6917  0.5816 -1.8379
 8124SOL    HW236009   3.857   1.748  15.674  1.2799  1.9416 -0.1473
 8125SOL     OW36010   2.460   0.003   6.395  0.8445 -0.1484 -0.1283
 8125SOL    HW136011   2.420   4.669   6.355  0.6603 -0.3688  0.4731
 8125SOL    HW236012   2.461   4.738   6.491  1.0947 -1.6793 -0.2596
 8126SOL     OW36013   0.322   2.983   6.261 -0.2542  0.3730  0.2885
 8126SOL    HW136014   0.374   2.942   6.192  0.5718  1.0919  0.4871
 8126SOL    HW236015   0.277   3.047   6.207 -0.5074  0.1120  0.1921
 8127SOL     OW36016   1.960   1.079   6.318  0.0883 -0.0815 -0.0670
 8127SOL    HW136017   1.875   1.043   6.294 -0.3257  1.0052 -0.2674
 8127SOL    HW236018   2.008   1.029   6.383  1.1677  0.2156 -0.6390
 8128SOL     OW36019   1.311   4.443   7.058 -0.1661 -0.2186  0.3112
 8128SOL    HW136020   1.379   4.412   6.997  0.3763  0.8237  0.3989
 8128SOL    HW236021   1.240   4.476   7.003  0.7611 -0.7055 -1.2075
 8129SOL     OW36022   0.522   1.428   2.934  0.6656  0.6042  0.7010
 8129SOL    HW136023   0.528   1.486   2.858 -0.5982 -0.1716  0.0139
 8129SOL    HW236024   0.603   1.380   2.919 -0.7455 -2.0268  1.6629
 8130SOL     OW36025   0.414   4.533   2.427  0.1039 -0.1468 -0.1659
 8130SOL    HW136026   0.492   4.502   2.381 -0.1003 -0.4134 -0.3366
 8130SOL    HW236027   0.443   4.535   2.518  0.9497  0.4052 -0.4520
 8131SOL     OW36028   0.033   4.509  10.077 -0.4093 -0.3839  0.8104
 8131SOL    HW136029   4.707   4.570  10.103  0.7997  0.9046  0.9805
 8131SOL    HW236030   0.077   4.483  10.157  0.0963 -0.3929  0.5287
 8132SOL     OW36031   1.105   3.420   9.558  0.1643  0.5647  0.2390
 8132SOL    HW136032   1.188   3.374   9.562 -0.7257 -1.1156 -0.3713
 8132SOL    HW236033   1.083   3.415   9.651 -1.5007  2.3576 -0.0558
 8133SOL     OW36034   3.400   2.239  13.923  0.1885  0.5097 -0.2032
 8133SOL    HW136035   3.492   2.245  13.948 -0.1452 -3.4668  1.7995
 8133SOL    HW236036   3.389   2.332  13.902 -0.6734  0.0096 -1.9614
 8134SOL     OW36037   3.200   4.449   7.344  0.4680 -0.2750  0.4822
 8134SOL    HW136038   3.288   4.458   7.379  0.1003 -1.6832  1.7823
 8134SOL    HW236039   3.162   4.395   7.414 -0.7653  0.5836  0.4777
 8135SOL     OW36040   3.847   0.512   9.084  0.7331  0.0989 -0.8871
 8135SOL    HW136041   3.826   0.523   8.991 -1.5512 -1.8443 -0.6124
 8135SOL    HW236042   3.796   0.432   9.099 -0.3474  0.6960 -1.4206
 8136SOL     OW36043   2.942   2.884   4.149 -0.1612  0.2645 -0.1456
 8136SOL    HW136044   2.893   2.802   4.161  2.4571 -1.4853 -1.4856
 8136SOL    HW236045   2.897   2.919   4.072 -2.6628 -1.0482  0.7142
 8137SOL     OW36046   0.303   2.364  13.937 -0.7668  0.1398  0.1228
 8137SOL    HW136047   0.298   2.318  14.021  0.3764  1.7533  1.0872
 8137SOL    HW236048   0.212   2.348  13.912 -0.8876  1.5006 -0.2699
 8138SOL     OW36049   1.705   2.633   8.452 -0.0668  0.2691  0.1754
 8138SOL    HW136050   1.703   2.689   8.374  1.5934  1.0384  0.6768
 8138SOL    HW236051   1.669   2.554   8.413 -0.3352  0.6210 -0.3034
 8139SOL     OW36052   1.357   3.164  13.168  0.1543  0.4183  0.2664
 8139SOL    HW136053   1.412   3.233  13.129  1.4886 -1.3084 -0.8717
 8139SOL    HW236054   1.356   3.109  13.090  0.2924  0.1114  0.4842
 8140SOL     OW36055   1.876   0.871   1.572 -0.5768  0.4273  0.1606
 8140SOL    HW136056   1.810   0.819   1.617 -2.8283  3.7937  0.7219
 8140SOL    HW236057   1.945   0.814   1.606 -2.1008 -0.4208  1.8064
 8141SOL     OW36058   3.608   4.209   9.175  0.0419  0.2843 -0.1125
 8141SOL    HW136059   3.552   4.205   9.253  1.3929  3.5170  1.0347
 8141SOL    HW236060   3.669   4.273   9.212 -1.6245  2.2649 -0.8133
 8142SOL     OW36061   3.092   3.817  16.675  0.3707 -0.2542  0.2115
 8142SOL    HW136062   3.100   3.805  16.770 -1.4257 -0.2016  0.3679
 8142SOL    HW236063   3.184   3.826  16.652  0.7009  0.0886  1.6198
 8143SOL     OW36064   1.462   0.596   4.816  0.6451 -0.6261  0.0324
 8143SOL    HW136065   1.534   0.594   4.753  0.9589  0.0349  0.3791
 8143SOL    HW236066   1.416   0.673   4.784 -0.3688 -0.5530  1.6645
 8144SOL     OW36067   2.177   1.879   7.329  0.6701 -0.2660  0.0831
 8144SOL    HW136068   2.177   1.783   7.333 -0.9102 -0.3735 -2.3369
 8144SOL    HW236069   2.196   1.905   7.419 -1.4243  2.0230 -0.1593
 8145SOL     OW36070   2.494   0.732  15.135 -0.2744  0.1217  0.3572
 8145SOL    HW136071   2.451   0.763  15.055 -0.7947 -1.0340  0.1884
 8145SOL    HW236072   2.585   0.741  15.106 -1.0781  0.0240 -2.2702
 8146SOL     OW36073   1.442   2.322  13.299  0.4242  0.3529  0.3761
 8146SOL    HW136074   1.453   2.272  13.380  1.1220 -0.2020 -0.0679
 8146SOL    HW236075   1.389   2.260  13.248 -0.3605 -0.2671  1.9097
 8147SOL     OW36076   0.809   3.235   5.419 -0.3416 -0.0506  0.1926
 8147SOL    HW136077   0.885   3.288   5.444 -2.0465  2.1171  0.8270
 8147SOL    HW236078   0.855   3.153   5.407 -0.8886 -0.6139  1.9456
 8148SOL     OW36079   4.405   2.230   7.153 -0.5375  0.4181 -0.4617
 8148SOL    HW136080   4.336   2.253   7.091 -0.9321  0.8967  0.1590
 8148SOL    HW236081   4.421   2.310   7.203  1.8512 -0.4088  0.1323
 8149SOL     OW36082   4.279   2.673  15.611 -0.0477  0.3561  0.4156
 8149SOL    HW136083   4.213   2.642  15.549  1.0661 -0.9969 -0.1003
 8149SOL    HW236084   4.225   2.697  15.687 -0.8697  1.1454 -0.4165
 8150SOL     OW36085   1.849   1.452   2.100 -0.9254  0.6814 -0.1624
 8150SOL    HW136086   1.871   1.463   2.193 -1.0608 -1.4854  0.1347
 8150SOL    HW236087   1.935   1.450   2.057 -0.2397  0.4530  1.2320
 8151SOL     OW36088   1.844   0.225   5.052 -0.5888  1.0453 -0.1754
 8151SOL    HW136089   1.889   0.200   4.971 -0.3885 -0.1465  0.3058
 8151SOL    HW236090   1.918   0.230   5.112 -1.9779  2.9359  1.3760
 8152SOL     OW36091   4.094   2.101  12.402  0.0619 -0.7224  0.2456
 8152SOL    HW136092   4.184   2.103  12.371 -0.6776  0.3909 -1.8148
 8152SOL    HW236093   4.104   2.166  12.472  1.3439  0.7516 -1.3420
 8153SOL     OW36094   3.305   4.525  16.291 -0.4688  0.1455  0.1600
 8153SOL    HW136095   3.294   4.609  16.246 -0.3545 -0.6277 -1.3445
 8153SOL    HW236096   3.308   4.475  16.209 -2.9881 -0.8309  0.6899
 8154SOL     OW36097   2.507   4.635   3.075  0.6201  0.0160  0.0720
 8154SOL    HW136098   2.449   4.581   3.129  0.4503 -0.3810 -0.5094
 8154SOL    HW236099   2.562   4.569   3.033  0.2271  0.5244 -1.2635
 8155SOL     OW36100   3.032   3.835  13.237  0.8094  0.1547  0.0662
 8155SOL    HW136101   3.056   3.914  13.285 -0.9600 -0.2390  1.5741
 8155SOL    HW236102   3.105   3.784  13.272  0.9011 -1.1700 -2.0324
 8156SOL     OW36103   0.168   0.424   8.316  0.2673  0.3409 -0.0580
 8156SOL    HW136104   0.255   0.462   8.304  0.4765  0.0586  0.5561
 8156SOL    HW236105   0.101   0.491   8.301  1.9188  2.2345  0.8678
 8157SOL     OW36106   2.103   1.740   6.692 -0.0999  0.1454 -0.1312
 8157SOL    HW136107   2.055   1.668   6.651 -0.0601 -1.3509  2.4359
 8157SOL    HW236108   2.150   1.681   6.751  1.5647  1.8016  0.1936
 8158SOL     OW36109   0.570   4.166   8.925  0.0215 -0.6703  0.0276
 8158SOL    HW136110   0.549   4.200   8.838  2.3177 -0.5394 -0.4831
 8158SOL    HW236111   0.505   4.096   8.927  0.9646 -1.5647 -0.4028
 8159SOL     OW36112   3.591   2.885  15.879  0.1870 -0.4085  0.0407
 8159SOL    HW136113   3.686   2.889  15.886  0.1077 -0.9416  1.2731
 8159SOL    HW236114   3.568   2.978  15.873 -1.5880 -0.9898 -2.5185
 8160SOL     OW36115   3.182   0.659   7.740 -0.6190  0.5238 -0.3779
 8160SOL    HW136116   3.235   0.624   7.668 -0.3905 -0.3076  0.1939
 8160SOL    HW236117   3.156   0.577   7.782 -0.4595  0.8426  0.3557
 8161SOL     OW36118   1.653   3.725   8.821 -0.0913 -0.0952  0.1854
 8161SOL    HW136119   1.565   3.704   8.790 -0.4810  1.8712 -0.0241
 8161SOL    HW236120   1.640   3.794   8.886  3.2446  0.8629 -0.1891
 8162SOL     OW36121   2.611   4.616   2.473 -0.1590  0.3797 -0.7786
 8162SOL    HW136122   2.697   4.581   2.450 -0.3092 -0.9322  0.6245
 8162SOL    HW236123   2.567   4.625   2.389 -1.9045  2.0181  0.3133
 8163SOL     OW36124   1.011   0.683   2.475 -0.0015 -0.3028 -0.2438
 8163SOL    HW136125   0.936   0.681   2.416  1.4962 -1.3977 -2.0923
 8163SOL    HW236126   1.084   0.657   2.419  0.7733 -1.7878  1.4379
 8164SOL     OW36127   0.476   1.403  11.301 -0.1654  0.2092 -0.0214
 8164SOL    HW136128   0.398   1.437  11.345 -0.7184 -0.9079 -0.1247
 8164SOL    HW236129   0.430   1.365  11.225  1.2780  0.9636 -1.2786
 8165SOL     OW36130   0.062   4.406   1.841 -0.5174  0.0417 -0.5071
 8165SOL    HW136131   0.158   4.406   1.844 -0.5290 -0.4035 -0.0339
 8165SOL    HW236132   0.048   4.458   1.762  1.3117  2.4074  0.7182
 8166SOL     OW36133   0.628   0.434   4.924 -0.3337 -0.0730 -0.1047
 8166SOL    HW136134   0.532   0.442   4.927 -0.2735 -0.1445  1.8027
 8166SOL    HW236135   0.654   0.384   4.846  1.8605  0.6625  0.1583
 8167SOL     OW36136   2.075   2.363   7.954 -0.3895 -0.2932 -0.1067
 8167SOL    HW136137   2.003   2.356   7.891  0.1518  0.0431 -0.7689
 8167SOL    HW236138   2.133   2.426   7.911  0.7848  0.7635  3.0428
 8168SOL     OW36139   3.825   0.377   1.507  0.2488 -0.2531  0.1022
 8168SOL    HW136140   3.827   0.315   1.433 -2.8041  0.0963 -0.2482
 8168SOL    HW236141   3.868   0.319   1.570  1.5546  0.8100  0.1859
 8169SOL     OW36142   4.010   2.142   2.224  0.3523 -0.3792 -0.2091
 8169SOL    HW136143   4.033   2.133   2.317  0.8702 -0.5070 -0.3476
 8169SOL    HW236144   3.916   2.156   2.230  0.6246  1.6589 -0.8127
 8170SOL     OW36145   0.175   3.263   5.805 -0.3650 -0.1766 -0.1149
 8170SOL    HW136146   0.189   3.215   5.887  1.0079  1.2016  0.4712
 8170SOL    HW236147   0.268   3.275   5.785 -0.6017  1.2964 -0.3142
 8171SOL     OW36148   2.897   4.146   2.805 -0.2813 -0.3596  0.3371
 8171SOL    HW136149   2.826   4.142   2.870  0.1349  2.5319  0.9706
 8171SOL    HW236150   2.942   4.229   2.820  0.3229 -1.0133  2.1659
 8172SOL     OW36151   2.081   0.490   2.323 -0.3506 -0.2662  0.1814
 8172SOL    HW136152   2.106   0.498   2.415  0.9131 -0.0504 -0.1727
 8172SOL    HW236153   2.165   0.470   2.281  0.9058 -0.2699  2.6807
 8173SOL     OW36154   1.281   0.095   0.622 -0.2507  0.1508 -0.0718
 8173SOL    HW136155   1.352   0.059   0.675 -0.5425 -0.9327 -0.4210
 8173SOL    HW236156   1.231   0.148   0.683  1.6245 -0.0735  1.6697
 8174SOL     OW36157   1.626   0.983   6.134  0.2871  0.3791  0.2909
 8174SOL    HW136158   1.568   1.060   6.137  0.0965  0.3254 -1.4585
 8174SOL    HW236159   1.682   1.015   6.063 -0.0662 -0.7245 -0.4804
 8175SOL     OW36160   2.766   3.538   3.711 -0.4478  0.4121 -0.3092
 8175SOL    HW136161   2.852   3.570   3.682 -1.0955  0.6918 -1.9126
 8175SOL    HW236162   2.743   3.490   3.632 -0.3240 -0.1106 -0.0348
 8176SOL     OW36163   0.210   1.314   5.792  0.2326  0.1315  0.4796
 8176SOL    HW136164   0.285   1.289   5.738  0.5576  1.5395  0.2849
 8176SOL    HW236165   0.226   1.408   5.801 -0.3017  0.0854  1.9162
 8177SOL     OW36166   4.675   1.554   6.689  0.3621 -0.1219 -0.3608
 8177SOL    HW136167   4.610   1.500   6.735  3.0634 -1.1032  2.2485
 8177SOL    HW236168   4.638   1.642   6.698 -0.7359 -0.6668  0.6005
 8178SOL     OW36169   2.345   3.741   2.423 -0.0030 -0.4449  0.2151
 8178SOL    HW136170   2.377   3.655   2.397 -0.0990  0.8943 -4.3158
 8178SOL    HW236171   2.376   3.745   2.514 -2.1497  1.0013  0.9039
 8179SOL     OW36172   4.433   0.897   3.795 -0.2665 -0.1836  0.1236
 8179SOL    HW136173   4.366   0.962   3.776 -0.8172 -0.7506  0.1021
 8179SOL    HW236174   4.450   0.849   3.714  1.1260 -1.8741  1.3837
 8180SOL     OW36175   4.078   4.716  14.704 -0.2731  0.3120 -0.6245
 8180SOL    HW136176   4.136   4.697  14.630 -0.6340  1.3304 -1.1662
 8180SOL    HW236177   3.999   4.668  14.678  0.3771 -1.5844  0.9086
 8181SOL     OW36178   1.952   4.374  10.770  0.0667  0.5528 -0.2230
 8181SOL    HW136179   1.910   4.290  10.790  1.2672  0.0176  0.0882
 8181SOL    HW236180   2.042   4.350  10.748 -0.1756  1.6597 -2.3488
 8182SOL     OW36181   4.317   3.061   6.973  0.0748  0.0184 -0.3645
 8182SOL    HW136182   4.258   3.029   7.042 -0.7451 -0.8992 -1.4821
 8182SOL    HW236183   4.396   3.020   7.008 -0.2884 -1.5822 -1.4312
 8183SOL     OW36184   2.838   1.624  14.431  0.2167  0.3263 -0.2809
 8183SOL    HW136185   2.811   1.620  14.523 -1.9047  0.0342 -0.9105
 8183SOL    HW236186   2.881   1.709  14.437  1.5553 -0.5890  3.4480
 8184SOL     OW36187   4.289   2.380   7.790 -0.6940  0.7435  0.4166
 8184SOL    HW136188   4.214   2.433   7.819  0.2712  0.7602  2.8979
 8184SOL    HW236189   4.351   2.449   7.766 -0.6959  1.1174  1.4761
 8185SOL     OW36190   1.843   1.835  10.365 -0.0818  0.4458  0.0789
 8185SOL    HW136191   1.869   1.779  10.439 -0.6741 -0.3293 -0.3068
 8185SOL    HW236192   1.816   1.910  10.419 -1.3323 -0.4062  0.6419
 8186SOL     OW36193   1.869   0.305  12.243 -0.6358  0.5103  0.0540
 8186SOL    HW136194   1.774   0.316  12.231 -0.9980 -2.9039  0.0136
 8186SOL    HW236195   1.879   0.230  12.185 -1.1251  1.2205 -0.9514
 8187SOL     OW36196   4.160   4.452  17.161  0.2135 -0.0861 -0.4299
 8187SOL    HW136197   4.157   4.545  17.139  1.2127  0.5397  2.0575
 8187SOL    HW236198   4.245   4.448  17.206 -0.0216  0.4142  0.0603
 8188SOL     OW36199   3.005   3.683   7.052  0.5334  0.2124  0.6462
 8188SOL    HW136200   2.988   3.681   7.146 -0.6159  0.1345  0.4442
 8188SOL    HW236201   3.098   3.706   7.054 -0.0014  2.3303  1.4496
 8189SOL     OW36202   2.416   3.362   6.425 -0.1166  0.2743  0.4499
 8189SOL    HW136203   2.405   3.277   6.467  0.2379 -0.3868 -0.7879
 8189SOL    HW236204   2.495   3.394   6.468 -0.0130  1.2489 -0.4397
 8190SOL     OW36205   0.033   4.583   8.793  0.1672  0.1286 -0.1967
 8190SOL    HW136206   0.100   4.514   8.792 -0.3065 -0.3490  0.7894
 8190SOL    HW236207   0.084   4.650   8.838  0.4223 -0.0644 -0.1958
 8191SOL     OW36208   2.021   4.676  16.927  0.2271  0.9259 -0.0806
 8191SOL    HW136209   1.947   4.687  16.868 -0.8987  2.2629  1.5847
 8191SOL    HW236210   2.075   4.620  16.872 -0.9339  0.3105 -0.6003
 8192SOL     OW36211   1.623   2.182   1.094  0.2385 -0.2872 -0.2134
 8192SOL    HW136212   1.676   2.114   1.053  1.8827  0.5003  0.5880
 8192SOL    HW236213   1.540   2.136   1.103  1.9864 -2.9976  2.0078
 8193SOL     OW36214   3.737   3.131   3.823 -0.7268 -0.2986  0.5565
 8193SOL    HW136215   3.688   3.059   3.862 -0.9827  0.5745  1.8528
 8193SOL    HW236216   3.798   3.086   3.764 -1.2948  0.8447 -0.9059
 8194SOL     OW36217   3.722   2.533   7.212 -0.5511 -0.1319 -0.6227
 8194SOL    HW136218   3.667   2.554   7.287  0.8468  0.2811  0.2909
 8194SOL    HW236219   3.715   2.439   7.197  0.8333 -0.0709 -1.6566
 8195SOL     OW36220   0.723   4.051   9.294 -0.0238  0.3896 -0.6113
 8195SOL    HW136221   0.641   4.042   9.342  1.3545  0.9091  1.8169
 8195SOL    HW236222   0.743   3.958   9.286 -0.5477  0.2137  0.1711
 8196SOL     OW36223   3.926   3.089   7.715  0.4408  0.1847  0.6214
 8196SOL    HW136224   3.847   3.133   7.748 -0.6953 -2.5245  1.4999
 8196SOL    HW236225   3.974   3.161   7.673 -0.5469 -0.0461 -0.8817
 8197SOL     OW36226   3.947   3.077   2.865 -0.5454 -0.2955  0.7845
 8197SOL    HW136227   3.993   3.089   2.781 -1.5112  1.4866  0.5084
 8197SOL    HW236228   3.926   2.984   2.859  0.0676 -0.2681 -1.7770
 8198SOL     OW36229   4.638   3.694   6.072 -0.7519 -0.0011 -0.3269
 8198SOL    HW136230   4.596   3.780   6.079  2.2718  1.6618 -2.2947
 8198SOL    HW236231   4.563   3.635   6.075  0.1211 -1.1135 -0.5837
 8199SOL     OW36232   3.177   0.583  13.852 -0.0598  0.3281 -0.2514
 8199SOL    HW136233   3.213   0.662  13.890 -0.9319 -0.0294  1.2927
 8199SOL    HW236234   3.227   0.573  13.771  1.6446  3.4645  0.4165
 8200SOL     OW36235   1.556   0.770   3.902 -0.6629 -0.6120 -0.0287
 8200SOL    HW136236   1.490   0.719   3.854 -1.6907 -0.7876  1.5558
 8200SOL    HW236237   1.544   0.731   3.989 -0.0970 -1.5589 -0.3713
 8201SOL     OW36238   1.839   2.566   2.770 -0.9007 -0.2402  0.1366
 8201SOL    HW136239   1.929   2.539   2.789 -1.5470 -0.7120  2.6272
 8201SOL    HW236240   1.801   2.487   2.733  0.3770 -1.7150  1.9764
 8202SOL     OW36241   1.533   0.338  14.904 -0.4095 -0.4813 -0.3317
 8202SOL    HW136242   1.628   0.344  14.890 -0.3196 -1.2134 -0.0693
 8202SOL    HW236243   1.503   0.404  14.842  1.5402  0.7598  0.0394
 8203SOL     OW36244   4.418   0.013   8.731  0.0971  0.6070 -0.5944
 8203SOL    HW136245   4.380   0.084   8.679 -0.2787  1.7196  1.1721
 8203SOL    HW236246   4.481   4.727   8.666 -1.0131 -0.2559 -1.2705
 8204SOL     OW36247   1.081   4.502   5.352  0.0862  0.1149  0.3729
 8204SOL    HW136248   0.997   4.521   5.313  1.2443  1.4535 -1.4392
 8204SOL    HW236249   1.119   4.432   5.298 -1.1013  0.8021 -1.3271
 8205SOL     OW36250   1.693   2.818   8.252 -0.0590 -0.2381  0.4146
 8205SOL    HW136251   1.607   2.860   8.244 -0.2687 -0.2716  2.3606
 8205SOL    HW236252   1.751   2.889   8.279  0.4591 -0.6413  0.3681
 8206SOL     OW36253   4.144   1.277   5.790  0.2155 -0.2239  0.5310
 8206SOL    HW136254   4.084   1.256   5.861 -2.0648  1.4477 -0.9295
 8206SOL    HW236255   4.227   1.235   5.812  0.2657 -1.4677 -1.9432
 8207SOL     OW36256   0.384   2.152   4.726  0.4446 -0.3652  0.3678
 8207SOL    HW136257   0.345   2.143   4.639  0.2077 -0.6942  0.5099
 8207SOL    HW236258   0.424   2.239   4.723 -2.4841  0.9399 -0.5960
 8208SOL     OW36259   0.780   1.204   6.704  0.1729  0.0404  0.2299
 8208SOL    HW136260   0.831   1.209   6.623  0.5361  1.6956  0.5636
 8208SOL    HW236261   0.838   1.162   6.768  1.1950 -2.7045 -2.5021
 8209SOL     OW36262   3.424   1.216   3.471 -0.1793 -0.1591  0.2735
 8209SOL    HW136263   3.374   1.254   3.399 -2.2778 -0.6998  1.4530
 8209SOL    HW236264   3.352   1.183   3.525  0.2308 -0.9250  0.3480
 8210SOL     OW36265   0.701   2.304   8.401 -0.4391  0.2189 -0.5787
 8210SOL    HW136266   0.784   2.339   8.369 -0.3477 -0.4426 -1.0729
 8210SOL    HW236267   0.644   2.335   8.330  0.6975 -1.2417 -2.1174
 8211SOL     OW36268   1.261   0.706   6.072 -0.1792  0.1614 -0.3427
 8211SOL    HW136269   1.236   0.641   6.138 -0.0419  0.6737  0.2134
 8211SOL    HW236270   1.346   0.741   6.099 -0.0184 -1.2762  1.0015
 8212SOL     OW36271   2.567   3.318  12.395  0.1492 -0.3849  0.5965
 8212SOL    HW136272   2.545   3.403  12.357 -0.2317 -0.7653 -0.0419
 8212SOL    HW236273   2.486   3.288  12.436 -0.5878  0.5204 -0.1875
 8213SOL     OW36274   1.136   1.765   8.324 -0.3678 -0.1072 -0.8173
 8213SOL    HW136275   1.042   1.748   8.322 -0.6669  1.7855 -3.2739
 8213SOL    HW236276   1.161   1.745   8.234 -2.3507  2.2133 -1.9008
 8214SOL     OW36277   4.740   0.055   4.278 -0.2176 -0.1027  0.0060
 8214SOL    HW136278   4.710   0.125   4.336 -1.1742 -0.3125 -0.2421
 8214SOL    HW236279   0.050   0.000   4.335  0.1368 -1.6008 -1.7467
 8215SOL     OW36280   1.095   3.171  13.306 -0.5498  0.1191 -0.1501
 8215SOL    HW136281   1.110   3.259  13.270 -0.8775  1.2298  2.3912
 8215SOL    HW236282   1.136   3.120  13.236  0.7115  0.6938  0.1557
 8216SOL     OW36283   3.484   2.901   1.980  0.6454  0.5809  0.4860
 8216SOL    HW136284   3.450   2.981   2.021  1.2792 -0.6987  3.5195
 8216SOL    HW236285   3.417   2.839   2.008 -1.1070  2.3624  0.2259
 8217SOL     OW36286   4.374   4.313   7.643  0.2282  0.1248 -0.4431
 8217SOL    HW136287   4.461   4.346   7.624  1.0933 -4.1142 -3.7256
 8217SOL    HW236288   4.366   4.252   7.570 -0.3399  0.9840 -1.1093
 8218SOL     OW36289   0.546   0.096  10.547 -0.0365 -0.6459 -0.1118
 8218SOL    HW136290   0.585   0.035  10.484 -0.2754 -0.3166 -0.5798
 8218SOL    HW236291   0.609   0.104  10.619 -0.1150  0.0986 -0.1286
 8219SOL     OW36292   0.943   2.430   5.761  0.5584  0.2325 -0.1869
 8219SOL    HW136293   0.966   2.507   5.708  2.1688 -0.7900 -0.9948
 8219SOL    HW236294   0.897   2.475   5.831 -2.0085 -1.2196 -0.9524
 8220SOL     OW36295   4.243   4.580   6.994  1.0076  0.4383  0.1810
 8220SOL    HW136296   4.231   4.593   7.088 -2.8232 -2.1699  0.0242
 8220SOL    HW236297   4.232   4.486   6.983  0.3306  0.3691  1.4417
 8221SOL     OW36298   0.218   3.340   3.627  0.3771 -0.0662  0.6375
 8221SOL    HW136299   0.154   3.387   3.682 -0.9952  2.0998 -2.8180
 8221SOL    HW236300   0.168   3.318   3.549  2.1508  0.9792 -0.7882
 8222SOL     OW36301   4.486   2.589   8.104  0.0309 -0.1409 -0.0307
 8222SOL    HW136302   4.457   2.660   8.047  3.1013  1.2122  0.0911
 8222SOL    HW236303   4.580   2.607   8.104 -0.3961  2.0666  1.6579
 8223SOL     OW36304   1.972   0.555   3.105 -0.6123  0.0958 -0.1738
 8223SOL    HW136305   1.881   0.579   3.088 -0.6566 -0.9062 -1.3793
 8223SOL    HW236306   1.961   0.470   3.148  1.7746 -1.4804 -2.6460
 8224SOL     OW36307   0.853   3.068   4.351  0.6854  0.0976  0.0132
 8224SOL    HW136308   0.809   3.075   4.266 -1.7528 -2.0612  1.0755
 8224SOL    HW236309   0.926   3.008   4.339  0.5364 -0.2916  1.0750
 8225SOL     OW36310   0.803   4.461  15.931 -1.0194 -0.3302 -0.5287
 8225SOL    HW136311   0.730   4.408  15.901 -3.2034  3.0725 -1.2636
 8225SOL    HW236312   0.856   4.459  15.852 -2.5891  0.1903 -1.5835
 8226SOL     OW36313   1.542   2.192   4.144  0.2991 -0.3831  0.0981
 8226SOL    HW136314   1.603   2.139   4.093  2.8262  0.8887  1.8316
 8226SOL    HW236315   1.512   2.137   4.217 -2.2845  1.1299  0.1776
 8227SOL     OW36316   2.001   0.679   9.871  0.0378  0.3286 -0.9816
 8227SOL    HW136317   2.074   0.641   9.822  1.3825 -0.3017  1.5319
 8227SOL    HW236318   2.041   0.695   9.956 -0.3944 -1.8792 -0.3524
 8228SOL     OW36319   0.519   1.604   5.541  0.6865  0.4588 -1.0256
 8228SOL    HW136320   0.444   1.664   5.538 -0.2466 -0.5767  1.5616
 8228SOL    HW236321   0.517   1.560   5.456  1.4512  1.5142 -1.5860
 8229SOL     OW36322   4.406   3.590   3.325 -0.3058 -0.4308  0.1256
 8229SOL    HW136323   4.348   3.520   3.353 -0.1238 -0.9919 -0.8827
 8229SOL    HW236324   4.411   3.588   3.229 -2.2773 -3.3904  0.0956
 8230SOL     OW36325   1.249   1.896  12.134  0.2987  0.4424  0.1616
 8230SOL    HW136326   1.171   1.935  12.174  1.4222 -0.2284  2.9267
 8230SOL    HW236327   1.219   1.806  12.128  2.4656 -0.3498  1.3646
 8231SOL     OW36328   3.144   3.998   5.850 -0.6051  0.2676 -0.2331
 8231SOL    HW136329   3.104   3.932   5.793  0.2257  0.5560 -1.1612
 8231SOL    HW236330   3.063   4.024   5.893 -0.4149 -0.1569  0.3968
 8232SOL     OW36331   4.063   4.034   7.574  0.0687  0.3840  0.5030
 8232SOL    HW136332   4.064   4.129   7.581  0.7589  0.3934  0.2948
 8232SOL    HW236333   4.148   4.011   7.611 -0.0787 -1.6016 -0.3915
 8233SOL     OW36334   3.575   4.456   9.727  0.3202 -0.4781  0.3023
 8233SOL    HW136335   3.494   4.408   9.710  0.3025 -0.0720 -0.7964
 8233SOL    HW236336   3.591   4.437   9.819 -4.4187 -1.1234  0.9758
 8234SOL     OW36337   0.566   1.646  11.500  0.1480  0.2765  0.3973
 8234SOL    HW136338   0.656   1.658  11.530  0.2688  0.4158 -0.0101
 8234SOL    HW236339   0.580   1.597  11.419 -1.3886  0.3745  0.0721
 8235SOL     OW36340   3.473   4.727  15.578  0.2840 -0.4799  0.5292
 8235SOL    HW136341   3.547   4.732  15.639  0.4998 -0.1799  0.2434
 8235SOL    HW236342   3.416   0.055  15.608  0.1879  1.1385 -3.4285
 8236SOL     OW36343   2.561   0.152  11.204  0.1945 -0.0002  0.2646
 8236SOL    HW136344   2.653   0.156  11.227  0.1827 -2.0777  0.6300
 8236SOL    HW236345   2.518   0.174  11.287 -1.8262 -1.7000 -0.3299
 8237SOL     OW36346   1.079   1.016   4.202  0.3473  0.2037  0.2152
 8237SOL    HW136347   1.026   1.093   4.180  1.1496  1.1297  1.5315
 8237SOL    HW236348   1.151   1.039   4.145  0.2020 -1.9059 -0.8265
 8238SOL     OW36349   4.687   4.170   9.450  0.0462 -0.1950 -0.2870
 8238SOL    HW136350   4.693   4.265   9.448 -1.1879 -0.1491 -2.4374
 8238SOL    HW236351   4.593   4.155   9.460 -0.1160  0.2042 -1.1997
 8239SOL     OW36352   1.265   2.799   8.741  0.0189 -0.3632  0.0673
 8239SOL    HW136353   1.294   2.741   8.811 -0.2955 -0.2396  0.2993
 8239SOL    HW236354   1.348   2.806   8.694 -1.1157  0.3901 -1.8330
 8240SOL     OW36355   0.054   2.759   9.003 -0.1457 -0.0211 -0.0215
 8240SOL    HW136356   0.113   2.770   8.927  0.0712  0.0647  0.1593
 8240SOL    HW236357   0.115   2.755   9.076 -0.9473  1.4891  0.7257
 8241SOL     OW36358   4.640   1.885   7.163 -0.1462  0.0087 -0.1626
 8241SOL    HW136359   4.655   1.952   7.230  0.2029 -0.0247 -0.2030
 8241SOL    HW236360   4.579   1.923   7.101 -0.6445 -0.2357  0.1772
 8242SOL     OW36361   4.611   2.486   4.048  0.0389  0.1523  0.8656
 8242SOL    HW136362   4.565   2.408   4.018 -2.7518  2.9434 -2.1769
 8242SOL    HW236363   4.628   2.458   4.137 -1.9592 -1.1744  0.8294
 8243SOL     OW36364   2.565   3.035   8.823 -0.0223  0.1663 -0.3911
 8243SOL    HW136365   2.633   3.085   8.869  1.9978 -3.2614  0.3758
 8243SOL    HW236366   2.617   2.965   8.785 -0.5523  0.4834 -1.7135
 8244SOL     OW36367   2.834   1.964   7.405  0.5810  0.4440  0.0129
 8244SOL    HW136368   2.830   2.013   7.323 -0.8264  0.9999  0.4262
 8244SOL    HW236369   2.907   1.904   7.386 -0.8755 -1.4427  0.3670
 8245SOL     OW36370   1.176   2.538   2.771 -0.3678 -0.5404  0.9131
 8245SOL    HW136371   1.231   2.616   2.757 -1.2254 -0.3781 -1.4114
 8245SOL    HW236372   1.199   2.532   2.864  1.7991 -0.7489  0.3602
 8246SOL     OW36373   0.546   1.384   6.969 -0.3056  0.2087  0.4546
 8246SOL    HW136374   0.507   1.441   6.902  1.5057 -0.7306 -1.3858
 8246SOL    HW236375   0.639   1.405   6.959  0.4312 -1.4245  4.2103
 8247SOL     OW36376   0.847   2.543   2.215  0.4440 -1.0489 -0.3025
 8247SOL    HW136377   0.757   2.573   2.228  1.0885  0.4117  0.8055
 8247SOL    HW236378   0.845   2.578   2.126 -1.3520 -2.0934 -0.6891
 8248SOL     OW36379   1.393   1.959   3.904 -0.3639 -0.5466  0.4493
 8248SOL    HW136380   1.343   1.877   3.904  0.3958 -1.0141 -2.3710
 8248SOL    HW236381   1.479   1.932   3.934  0.7306  1.5067 -0.8579
 8249SOL     OW36382   4.055   0.250   5.344 -0.4095 -0.1427  0.1134
 8249SOL    HW136383   4.123   0.192   5.309 -0.4828  0.1157 -0.4774
 8249SOL    HW236384   3.995   0.198   5.396  3.0325 -2.6400  1.5474
 8250SOL     OW36385   4.293   1.500   1.682 -0.6830  0.6835  0.2275
 8250SOL    HW136386   4.317   1.510   1.590  0.3145 -0.1382  0.3998
 8250SOL    HW236387   4.197   1.495   1.679 -0.7752  2.2512  1.1291
 8251SOL     OW36388   3.961   3.193   7.259  0.2893 -0.2609 -0.7426
 8251SOL    HW136389   3.868   3.186   7.236  0.1412 -0.6825 -0.0171
 8251SOL    HW236390   3.977   3.265   7.198 -1.1417  0.7954  0.1505
 8252SOL     OW36391   0.582   1.031   9.493  0.3662 -0.1830  0.3459
 8252SOL    HW136392   0.577   1.080   9.576  0.9044 -2.1666  1.5606
 8252SOL    HW236393   0.674   1.007   9.487  1.4900  4.5109 -0.6523
 8253SOL     OW36394   0.580   2.164   3.783 -0.2911 -0.7188 -0.6958
 8253SOL    HW136395   0.545   2.202   3.702 -1.6324  0.1449  0.2803
 8253SOL    HW236396   0.516   2.094   3.799 -0.7880  0.5482  2.9345
 8254SOL     OW36397   2.762   2.254   9.453  0.1722 -0.0563 -0.6529
 8254SOL    HW136398   2.721   2.207   9.526 -0.0372  2.3471  0.7738
 8254SOL    HW236399   2.795   2.180   9.401  0.8570 -0.8957  0.9470
 8255SOL     OW36400   4.245   0.639  11.429  0.0244  0.2824  0.1715
 8255SOL    HW136401   4.193   0.655  11.508  1.5844  2.0728  0.8537
 8255SOL    HW236402   4.172   0.650  11.367  1.5131 -1.7162 -1.9385
 8256SOL     OW36403   0.095   3.619   5.684 -0.1406 -0.2053  0.0367
 8256SOL    HW136404   0.034   3.546   5.684 -1.1682  0.6394  0.2657
 8256SOL    HW236405   0.036   3.693   5.669  0.6963 -0.0216 -2.2840
 8257SOL     OW36406   4.057   1.607   4.848 -0.0218 -0.1005  0.1072
 8257SOL    HW136407   3.961   1.608   4.846 -0.0808 -1.1487  2.1920
 8257SOL    HW236408   4.069   1.512   4.846 -1.0958 -0.2700  1.3006
 8258SOL     OW36409   0.561   2.909   4.186  0.6688 -0.1537 -0.8093
 8258SOL    HW136410   0.506   2.965   4.132  0.2492 -1.6599 -1.9117
 8258SOL    HW236411   0.647   2.951   4.176 -0.1306  1.6260 -0.2683
 8259SOL     OW36412   3.244   0.770   6.698 -0.4054 -0.0007 -0.4656
 8259SOL    HW136413   3.258   0.779   6.792  0.1302  0.9683 -0.6297
 8259SOL    HW236414   3.272   0.854   6.661 -0.8193 -0.2433 -1.3151
 8260SOL     OW36415   2.574   1.693  12.019  0.2937  0.1218 -0.0730
 8260SOL    HW136416   2.652   1.746  12.006  0.2297 -0.6866 -3.5037
 8260SOL    HW236417   2.573   1.672  12.113 -0.7587  1.9482  0.3511
 8261SOL     OW36418   0.428   4.232   8.649  0.8754  0.2830  0.2196
 8261SOL    HW136419   0.427   4.284   8.569 -3.0817 -2.2377 -1.4239
 8261SOL    HW236420   0.361   4.275   8.703  0.3214  0.6256 -0.7343
 8262SOL     OW36421   1.470   4.375  13.716  0.6781 -0.2741 -0.4056
 8262SOL    HW136422   1.513   4.457  13.689 -0.2041 -0.0918 -1.2504
 8262SOL    HW236423   1.452   4.332  13.632  0.6809  0.4170 -0.7637
 8263SOL     OW36424   2.755   4.414   1.772 -0.2494  0.3976 -0.1023
 8263SOL    HW136425   2.767   4.320   1.779 -1.8238  0.1854 -0.2755
 8263SOL    HW236426   2.735   4.417   1.678  0.4932  0.9752 -0.2485
 8264SOL     OW36427   0.142   0.323  10.249 -0.2595 -0.0703 -0.2000
 8264SOL    HW136428   0.070   0.284  10.298  0.5365 -2.9627 -1.3857
 8264SOL    HW236429   0.148   0.264  10.175 -2.0421  3.1821 -2.9452
 8265SOL     OW36430   0.811   3.741   4.270  0.9486 -0.2114  0.4036
 8265SOL    HW136431   0.750   3.675   4.237  0.1262  1.4119 -1.3734
 8265SOL    HW236432   0.864   3.772   4.196 -0.9086  0.2982 -0.7203
 8266SOL     OW36433   0.577   4.475   6.515 -0.0316  0.6205  0.2709
 8266SOL    HW136434   0.554   4.385   6.492 -0.6374  0.6586  0.7528
 8266SOL    HW236435   0.613   4.456   6.602 -1.8813  0.0786  0.9097
 8267SOL     OW36436   3.138   4.452   8.747 -0.4524  0.4535 -0.2725
 8267SOL    HW136437   3.171   4.363   8.734 -0.7981  0.0832  1.3238
 8267SOL    HW236438   3.113   4.484   8.661 -0.6111 -1.4523 -0.9215
 8268SOL     OW36439   4.723   0.994   6.702  0.4063  0.4636 -0.2558
 8268SOL    HW136440   0.018   0.914   6.737 -0.7174  0.3982  0.8225
 8268SOL    HW236441   0.059   1.032   6.664 -0.8194  0.1133 -3.1515
 8269SOL     OW36442   2.865   2.826   7.024  0.0764 -0.0906  0.4283
 8269SOL    HW136443   2.838   2.897   6.965  1.5535  0.9340  0.9945
 8269SOL    HW236444   2.931   2.779   6.974 -0.6853  1.3156 -1.8989
 8270SOL     OW36445   1.892   0.404   4.134  0.2020  0.3561  0.5947
 8270SOL    HW136446   1.911   0.491   4.170 -0.3595  1.0155 -0.6869
 8270SOL    HW236447   1.799   0.420   4.116  0.7537  0.0988 -2.5071
 8271SOL     OW36448   4.058   2.152   3.635  0.3629 -0.4135 -0.1589
 8271SOL    HW136449   3.985   2.175   3.578  0.3274 -0.1870 -0.0226
 8271SOL    HW236450   4.097   2.237   3.652 -0.1498  0.0224 -1.1819
 8272SOL     OW36451   0.411   4.546   5.260  0.2213 -0.1064  0.7309
 8272SOL    HW136452   0.419   4.593   5.177 -1.2741 -2.0757 -0.5293
 8272SOL    HW236453   0.341   4.606   5.287  0.7481 -0.1226  2.1327
 8273SOL     OW36454   3.723   0.660  10.177 -0.5648  0.3869 -0.0731
 8273SOL    HW136455   3.796   0.598  10.175 -1.1990 -0.3849  0.3541
 8273SOL    HW236456   3.648   0.618  10.134 -0.5510 -1.6136  1.8482
 8274SOL     OW36457   2.614   1.077   8.277 -0.2943 -0.7204 -0.5152
 8274SOL    HW136458   2.608   1.017   8.352 -0.3250  1.7776  1.4727
 8274SOL    HW236459   2.704   1.071   8.245 -0.5263 -1.2531 -1.0676
 8275SOL     OW36460   2.586   4.742   7.200  0.1823 -0.2908 -0.5383
 8275SOL    HW136461   2.601   4.697   7.117 -2.2983  4.2990 -3.4582
 8275SOL    HW236462   2.497   4.724   7.231 -0.0709  0.2908 -0.9281
 8276SOL     OW36463   3.668   3.351  14.095  0.1213  0.5749 -0.4319
 8276SOL    HW136464   3.727   3.312  14.030  1.5621  2.0253 -0.0040
 8276SOL    HW236465   3.641   3.269  14.135  2.5638 -0.3586 -0.7024
 8277SOL     OW36466   1.916   0.988  14.839  0.3693 -0.1105  0.1836
 8277SOL    HW136467   1.909   1.032  14.923 -3.1687  0.3662 -0.3396
 8277SOL    HW236468   1.885   1.063  14.788  1.2703 -0.7104 -1.2536
 8278SOL     OW36469   1.575   3.168  12.545  0.2522 -0.3691  0.0537
 8278SOL    HW136470   1.563   3.107  12.618 -0.4808  0.4351  0.6135
 8278SOL    HW236471   1.489   3.156  12.506  0.6206 -0.3452 -0.7623
 8279SOL     OW36472   3.333   4.145   3.000  0.1100 -0.2855  0.0608
 8279SOL    HW136473   3.388   4.219   3.024  1.5893 -0.6231 -2.2670
 8279SOL    HW236474   3.397   4.074   3.007  0.2625 -0.1258  0.2835
 8280SOL     OW36475   0.509   0.866   7.067  0.1617 -0.4069 -0.0103
 8280SOL    HW136476   0.487   0.829   6.981 -1.1706  1.6201 -0.5213
 8280SOL    HW236477   0.564   0.938   7.037  1.2898 -1.4992 -0.5529
 8281SOL     OW36478   1.143   2.960   1.653 -0.0005 -0.2365 -0.7902
 8281SOL    HW136479   1.129   2.870   1.681 -2.0740  0.9376  1.8870
 8281SOL    HW236480   1.060   2.977   1.609  0.6868  0.1721 -1.9708
 8282SOL     OW36481   3.701   3.240  17.042  0.0906  0.3786  0.2586
 8282SOL    HW136482   3.665   3.155  17.014 -0.0510  0.5249 -0.0009
 8282SOL    HW236483   3.783   3.243  16.992 -0.4006  0.7614 -0.5334
 8283SOL     OW36484   3.540   0.948   2.240  0.4733  0.3237 -0.1881
 8283SOL    HW136485   3.488   0.984   2.312  1.9140 -1.0243  1.5267
 8283SOL    HW236486   3.614   0.913   2.290 -1.0734 -1.7140  0.6696
 8284SOL     OW36487   4.492   1.918   6.915 -0.0832 -0.2822  0.1199
 8284SOL    HW136488   4.405   1.952   6.894  0.0405 -1.3627 -2.2055
 8284SOL    HW236489   4.516   1.886   6.827  0.2575  2.0082 -0.6165
 8285SOL     OW36490   2.964   3.219  14.408  0.4565  0.0679 -0.4452
 8285SOL    HW136491   3.007   3.219  14.322  1.6904  1.5786  0.1726
 8285SOL    HW236492   2.912   3.139  14.412  0.6872 -0.2529 -3.5092
 8286SOL     OW36493   3.408   1.021   4.617 -0.0014 -0.0036 -0.4512
 8286SOL    HW136494   3.420   1.101   4.565 -1.0714 -0.3362 -1.2066
 8286SOL    HW236495   3.329   0.979   4.585 -0.0500 -1.4562  1.5460
 8287SOL     OW36496   1.697   2.154   5.924 -0.4602  0.3606  1.1356
 8287SOL    HW136497   1.624   2.093   5.916 -0.5509  0.6311 -0.2250
 8287SOL    HW236498   1.757   2.109   5.865  0.0654 -0.6118  2.4316
 8288SOL     OW36499   0.373   3.899   3.409  0.6547  0.1992 -0.0908
 8288SOL    HW136500   0.296   3.956   3.410 -1.0927 -2.1245 -3.2225
 8288SOL    HW236501   0.408   3.922   3.323  0.3379  1.2768  0.0595
 8289SOL     OW36502   3.357   3.994   3.974  0.3660 -0.1449  0.1018
 8289SOL    HW136503   3.419   3.922   3.983 -2.1088 -2.2237  0.5787
 8289SOL    HW236504   3.348   3.990   3.878 -0.0247  0.1172  0.1254
 8290SOL     OW36505   3.420   1.310   2.586  0.3692  0.3629  0.0447
 8290SOL    HW136506   3.335   1.342   2.616  0.6166 -0.3729  1.4912
 8290SOL    HW236507   3.433   1.362   2.506  0.9040 -1.1497 -0.8577
 8291SOL     OW36508   3.495   2.118   9.574 -0.3330 -0.5359  0.6681
 8291SOL    HW136509   3.516   2.160   9.658  1.6035 -1.2134  0.5208
 8291SOL    HW236510   3.439   2.178   9.526  1.3558 -0.1799 -0.8712
 8292SOL     OW36511   4.321   1.412   2.550  0.2621 -0.0621 -0.1459
 8292SOL    HW136512   4.381   1.395   2.478  0.0720  2.9306 -1.0170
 8292SOL    HW236513   4.247   1.439   2.494 -0.5060 -0.2870  0.7560
 8293SOL     OW36514   4.133   2.290   4.664 -0.4738 -0.4823  0.1380
 8293SOL    HW136515   4.067   2.330   4.606 -3.1517 -1.9491  2.1665
 8293SOL    HW236516   4.096   2.299   4.752  1.1319  1.3560  0.6082
 8294SOL     OW36517   1.807   0.534   0.008  0.0134 -0.3076 -1.1612
 8294SOL    HW136518   1.754   0.464  17.740 -1.1061  0.1623 -0.4227
 8294SOL    HW236519   1.887   0.510  17.730  1.2920  0.4603  0.6118
 8295SOL     OW36520   2.230   2.722   1.449  0.3848  0.5053 -0.5862
 8295SOL    HW136521   2.243   2.782   1.523  1.8215 -1.3666  0.6803
 8295SOL    HW236522   2.143   2.753   1.423 -0.3108 -0.7542  0.2509
 8296SOL     OW36523   3.590   1.226   2.784 -0.0175  0.4382 -0.1551
 8296SOL    HW136524   3.569   1.222   2.691 -1.1994  0.4767  0.1095
 8296SOL    HW236525   3.508   1.260   2.818  0.3733  0.4887  0.7564
 8297SOL     OW36526   3.705   2.599   6.587  0.0327 -0.2881  0.1317
 8297SOL    HW136527   3.637   2.652   6.627 -1.4061 -2.4965  0.5874
 8297SOL    HW236528   3.742   2.660   6.523  1.1568  0.5543  1.5620
 8298SOL     OW36529   3.795   3.292   2.910 -0.3913 -0.6426  0.0892
 8298SOL    HW136530   3.844   3.216   2.878  1.5611  0.0636  1.4081
 8298SOL    HW236531   3.791   3.269   3.003 -1.9540  0.3167  0.2727
 8299SOL     OW36532   4.313   4.064  12.026  0.0631  0.1072  0.5773
 8299SOL    HW136533   4.355   4.139  12.069 -0.5504  0.5825  0.3462
 8299SOL    HW236534   4.324   4.002  12.098 -1.9994 -1.6406 -0.6045
 8300SOL     OW36535   4.325   4.070   7.424 -0.4898 -0.3221  0.2945
 8300SOL    HW136536   4.384   4.023   7.366 -0.5818  0.6135 -0.5550
 8300SOL    HW236537   4.320   4.016   7.503 -0.5955 -0.0275  0.4893
 8301SOL     OW36538   2.485   2.190   6.206  0.1600 -0.5827  0.3822
 8301SOL    HW136539   2.416   2.256   6.209  1.0369  0.3633 -0.4421
 8301SOL    HW236540   2.448   2.122   6.149  0.7179  1.4251 -2.3521
 8302SOL     OW36541   2.270   0.895   1.656 -0.6323 -0.4222  0.0045
 8302SOL    HW136542   2.207   0.936   1.716  1.0790  0.8337  0.9343
 8302SOL    HW236543   2.343   0.955   1.671 -0.2585 -0.9539  0.2960
 8303SOL     OW36544   4.512   0.247  10.780 -0.8453  0.1512  0.2946
 8303SOL    HW136545   4.423   0.230  10.811 -0.2684 -1.7433  0.8954
 8303SOL    HW236546   4.567   0.181  10.822  0.7504  0.0277 -1.9767
 8304SOL     OW36547   3.302   1.257  15.035  0.5471  0.0314  0.5696
 8304SOL    HW136548   3.323   1.165  15.021  0.4577 -0.2569  2.3100
 8304SOL    HW236549   3.317   1.308  14.955 -0.0678 -0.1680  0.3224
 8305SOL     OW36550   3.848   1.682   1.393 -0.2308 -0.5346 -0.1475
 8305SOL    HW136551   3.815   1.643   1.313 -0.8112  2.9793 -1.6285
 8305SOL    HW236552   3.784   1.752   1.405  1.0538  0.9321 -1.9143
 8306SOL     OW36553   3.709   3.921  15.419 -1.2474  0.4293  0.2885
 8306SOL    HW136554   3.740   4.000  15.463  2.0878 -0.3122 -0.6974
 8306SOL    HW236555   3.794   3.886  15.392 -1.7245  1.6202 -2.6700
 8307SOL     OW36556   3.394   1.071   2.446 -0.2082  0.0964  0.4478
 8307SOL    HW136557   3.398   1.164   2.466 -0.8363  0.0972  0.5803
 8307SOL    HW236558   3.313   1.048   2.491 -1.5799  2.3516 -0.8973
 8308SOL     OW36559   4.329   4.307   3.529 -0.3634 -0.5322 -0.2878
 8308SOL    HW136560   4.386   4.333   3.457  0.7635 -2.3265 -0.0485
 8308SOL    HW236561   4.304   4.216   3.513  0.1655 -0.9692  1.3297
 8309SOL     OW36562   2.309   3.993  11.739 -0.0353  0.2586 -0.5600
 8309SOL    HW136563   2.218   3.981  11.766  0.0342 -1.4527 -1.0829
 8309SOL    HW236564   2.302   4.071  11.683  0.8924 -0.6493 -1.9616
 8310SOL     OW36565   0.275   3.746  17.181  0.2064 -0.0303  0.6011
 8310SOL    HW136566   0.246   3.744  17.089 -1.2146  1.9900  1.0139
 8310SOL    HW236567   0.190   3.728  17.221  0.3214 -0.8942  0.4496
 8311SOL     OW36568   3.198   1.452   0.616 -0.0247 -0.2217 -0.3871
 8311SOL    HW136569   3.209   1.469   0.523  0.0743  0.5684 -0.2301
 8311SOL    HW236570   3.221   1.535   0.658 -0.5323 -0.0074 -0.5390
 8312SOL     OW36571   1.438   0.806  17.156  0.3940 -0.2146  0.6979
 8312SOL    HW136572   1.510   0.840  17.102 -1.1459 -0.5648 -1.5654
 8312SOL    HW236573   1.475   0.722  17.182 -0.2584 -0.8640 -0.4503
 8313SOL     OW36574   3.615   1.781   1.215 -0.0993  0.3270  0.0476
 8313SOL    HW136575   3.575   1.755   1.298 -0.1718 -1.1415 -0.4581
 8313SOL    HW236576   3.629   1.876   1.220  2.0932 -0.1320  2.8999
 8314SOL     OW36577   2.841   4.425   9.276 -0.2237 -0.4639  0.1813
 8314SOL    HW136578   2.842   4.406   9.183 -3.6214 -0.6290  0.1685
 8314SOL    HW236579   2.753   4.456   9.297  0.7578  1.4845  1.3556
 8315SOL     OW36580   1.073   2.795   8.233 -0.0337 -0.6362  0.2100
 8315SOL    HW136581   1.079   2.812   8.139 -1.2073  0.2673  0.2993
 8315SOL    HW236582   1.019   2.870   8.256 -2.3091 -1.7152 -1.5896
 8316SOL     OW36583   4.283   1.485   5.419  0.2058  0.1276 -0.1875
 8316SOL    HW136584   4.305   1.392   5.419  0.7638  0.2633 -0.4433
 8316SOL    HW236585   4.322   1.511   5.336 -2.0020 -1.5071 -1.7385
 8317SOL     OW36586   3.097   0.091   8.614  0.0718 -0.3068 -0.0151
 8317SOL    HW136587   3.002   0.094   8.629  0.2723  1.5793  0.9670
 8317SOL    HW236588   3.094   0.132   8.527  2.3230  0.3476  0.2092
 8318SOL     OW36589   1.056   1.757   3.356 -0.3196 -0.5462 -0.0732
 8318SOL    HW136590   1.021   1.816   3.289  1.0881  2.5064  1.8360
 8318SOL    HW236591   1.004   1.678   3.347 -1.9734  0.5874 -0.4749
 8319SOL     OW36592   0.415   0.211   5.035  0.2362  0.5158  0.3978
 8319SOL    HW136593   0.325   0.192   5.064  0.2105  0.4415  0.2720
 8319SOL    HW236594   0.405   0.224   4.941  1.9668  0.4348  0.2188
 8320SOL     OW36595   1.093   1.789  14.810  0.1680 -0.1636  0.7293
 8320SOL    HW136596   1.186   1.794  14.830 -0.3744 -0.5367  3.3022
 8320SOL    HW236597   1.087   1.694  14.799  0.9278 -0.4643  3.0283
 8321SOL     OW36598   1.036   0.385   6.544 -0.0882  0.6840  0.9350
 8321SOL    HW136599   1.053   0.357   6.634  0.2134  1.0706  0.9977
 8321SOL    HW236600   1.020   0.476   6.566 -4.8670  0.4678 -1.7267
 8322SOL     OW36601   4.304   2.581  15.194  0.0160 -0.1829  0.4946
 8322SOL    HW136602   4.241   2.602  15.124 -0.3736 -1.0381  0.6009
 8322SOL    HW236603   4.304   2.665  15.240  1.3483 -0.3195  0.7595
 8323SOL     OW36604   2.607   2.660   9.779 -0.0448 -0.0994  0.5486
 8323SOL    HW136605   2.642   2.625   9.697  1.4498  0.2102  1.0454
 8323SOL    HW236606   2.669   2.732   9.787  0.1099 -0.1959  0.2246
 8324SOL     OW36607   3.116   3.815  16.948  0.2405  0.0549 -0.3551
 8324SOL    HW136608   3.128   3.759  17.024 -3.2024  0.5086  0.5321
 8324SOL    HW236609   3.086   3.893  16.994 -2.2612 -0.9986 -0.1857
 8325SOL     OW36610   0.206   1.129   5.991  0.5458 -0.5413  0.0301
 8325SOL    HW136611   0.194   1.201   5.931  0.9725  0.5951  1.3025
 8325SOL    HW236612   0.290   1.157   6.028  0.2417 -0.4231  0.6440
 8326SOL     OW36613   1.999   1.899   2.917  0.1848 -0.0124 -0.2942
 8326SOL    HW136614   1.908   1.900   2.884  0.0307  1.3502  0.1849
 8326SOL    HW236615   1.998   1.984   2.961  2.6944 -0.9485  1.5252
 8327SOL     OW36616   0.929   4.018  11.952  0.7263 -0.3250  0.6258
 8327SOL    HW136617   0.960   4.071  11.880  3.0418 -0.3745  1.5999
 8327SOL    HW236618   1.005   3.960  11.962  0.5275 -0.8489 -0.9191
 8328SOL     OW36619   2.362   4.728   2.862  0.1413 -0.6236  0.5372
 8328SOL    HW136620   2.417   0.039   2.806 -0.7407 -0.4416 -0.1563
 8328SOL    HW236621   2.409   4.718   2.945  0.0284 -1.8654  0.4575
 8329SOL     OW36622   1.332   3.470  12.408  0.5163 -0.2496 -0.0973
 8329SOL    HW136623   1.326   3.508  12.496  0.0109 -2.8512  0.9977
 8329SOL    HW236624   1.301   3.380  12.416 -1.0648  0.4267  1.5643
 8330SOL     OW36625   3.739   0.115   1.370 -0.9035 -0.1000 -0.1641
 8330SOL    HW136626   3.818   0.120   1.315  0.2694  0.2248  1.5651
 8330SOL    HW236627   3.674   0.090   1.304 -0.4159 -1.7417 -0.0184
 8331SOL     OW36628   1.796   3.344   8.847 -0.1117  0.2012 -0.1670
 8331SOL    HW136629   1.809   3.433   8.880 -2.1541  0.8505 -1.1338
 8331SOL    HW236630   1.701   3.333   8.846  0.0608 -1.3296 -0.2752
 8332SOL     OW36631   1.808   1.651   3.827  0.2793  0.4418  0.1182
 8332SOL    HW136632   1.784   1.648   3.734  1.8023  0.2572 -0.2616
 8332SOL    HW236633   1.787   1.744   3.840 -2.0824  0.1020 -1.2184
 8333SOL     OW36634   3.681   3.313   2.523 -0.1770 -1.1078 -0.0575
 8333SOL    HW136635   3.746   3.365   2.569 -0.2535 -1.3290  0.3038
 8333SOL    HW236636   3.689   3.223   2.556  0.9893 -1.4060 -1.1401
 8334SOL     OW36637   3.039   3.409   4.222  0.1480  0.0649  0.2380
 8334SOL    HW136638   3.076   3.337   4.273 -0.5199 -0.5456 -0.1381
 8334SOL    HW236639   3.044   3.382   4.130  0.7132 -1.2542  0.6532
 8335SOL     OW36640   3.856   4.480  10.938 -0.1209  0.8333  0.1762
 8335SOL    HW136641   3.828   4.451  10.851  0.2108  0.0998  0.3144
 8335SOL    HW236642   3.872   4.392  10.972  2.6022  0.9729 -0.7370
 8336SOL     OW36643   0.457   0.459   0.474  0.1432  0.4461 -0.1377
 8336SOL    HW136644   0.488   0.535   0.522  3.2635 -0.9969  0.1209
 8336SOL    HW236645   0.365   0.457   0.503  0.0228 -0.6460 -0.5943
 8337SOL     OW36646   0.500   1.931  10.253 -0.0999  0.5500 -0.5175
 8337SOL    HW136647   0.508   2.012  10.305 -0.5876  0.7383 -0.7391
 8337SOL    HW236648   0.415   1.957  10.218 -1.0715  0.1156  1.4856
 8338SOL     OW36649   0.881   0.345   1.492  0.1295 -0.6116 -0.1453
 8338SOL    HW136650   0.810   0.325   1.553  0.8121 -1.0654  0.4874
 8338SOL    HW236651   0.927   0.404   1.552  0.4880 -1.1729  0.1353
 8339SOL     OW36652   3.269   1.357   9.753  0.3882 -0.3471  0.5999
 8339SOL    HW136653   3.305   1.348   9.665  0.3470  2.9709  0.2517
 8339SOL    HW236654   3.209   1.282   9.754  1.8409 -1.5142 -1.0173
 8340SOL     OW36655   1.209   3.310   4.628  0.3694 -0.0069  0.4429
 8340SOL    HW136656   1.114   3.307   4.622  0.4609  0.2620 -1.0738
 8340SOL    HW236657   1.237   3.314   4.537 -0.4125 -0.1742  0.1971
 8341SOL     OW36658   2.536   0.854   8.922  0.0746 -0.6628 -0.1872
 8341SOL    HW136659   2.569   0.868   9.011 -1.0837 -1.6815  0.4068
 8341SOL    HW236660   2.451   0.813   8.939  0.7711 -2.2370 -0.5484
 8342SOL     OW36661   2.534   0.625   6.565  0.4467  0.1240  0.4302
 8342SOL    HW136662   2.591   0.683   6.615 -1.4287  0.2982  2.3608
 8342SOL    HW236663   2.490   0.586   6.641  0.7663  1.3222  1.2273
 8343SOL     OW36664   3.353   2.147   8.839 -0.1399  0.2750 -0.1639
 8343SOL    HW136665   3.449   2.139   8.845  0.1280  2.0766 -1.9495
 8343SOL    HW236666   3.345   2.239   8.865 -0.4068 -0.2836  1.7579
 8344SOL     OW36667   4.657   1.082   7.204  0.3884  0.3055  0.3209
 8344SOL    HW136668   4.699   1.145   7.146 -3.0282  1.5236 -0.8698
 8344SOL    HW236669   4.722   1.014   7.220  1.5573  1.4350  0.3183
 8345SOL     OW36670   2.839   2.207   2.832 -0.8974  1.1246  0.3130
 8345SOL    HW136671   2.756   2.187   2.876 -0.6278 -0.9758 -0.1231
 8345SOL    HW236672   2.896   2.195   2.908 -0.5545  3.4454  0.4314
 8346SOL     OW36673   2.626   4.448   4.244 -0.7704 -0.3146  0.3367
 8346SOL    HW136674   2.579   4.402   4.175 -0.6622  0.9009 -0.5586
 8346SOL    HW236675   2.659   4.378   4.301  0.9353 -1.6628 -2.2907
 8347SOL     OW36676   2.097   3.792   3.107 -0.5311  0.1460 -0.1345
 8347SOL    HW136677   2.177   3.803   3.159 -1.0653 -0.2692  0.7717
 8347SOL    HW236678   2.134   3.826   3.025 -1.1197 -0.8612 -0.8224
 8348SOL     OW36679   3.796   3.007   6.051  0.7222 -0.1412  0.1271
 8348SOL    HW136680   3.718   3.003   5.996  1.9868  0.2691 -1.7184
 8348SOL    HW236681   3.834   3.089   6.019 -0.0727  0.4289  0.6469
 8349SOL     OW36682   3.665   1.726  14.478  0.2708  0.6520  0.0301
 8349SOL    HW136683   3.757   1.717  14.502  0.3712  2.9834  0.4766
 8349SOL    HW236684   3.652   1.819  14.491  0.2076  0.6095  0.2686
 8350SOL     OW36685   4.615   1.864   5.020  0.1580 -0.1516  0.6081
 8350SOL    HW136686   4.523   1.887   5.006 -0.1447 -1.4456  0.5070
 8350SOL    HW236687   4.610   1.825   5.107 -0.0031  0.3215  0.8121
 8351SOL     OW36688   1.895   2.354   7.728 -0.2360 -0.2369  0.6650
 8351SOL    HW136689   1.822   2.414   7.743 -0.0132  0.1811  0.0476
 8351SOL    HW236690   1.851   2.270   7.715 -0.5818  0.0839 -0.2016
 8352SOL     OW36691   4.256   4.483   3.060  0.5849 -0.0438 -0.2079
 8352SOL    HW136692   4.205   4.558   3.029  0.2749 -0.2612 -0.2139
 8352SOL    HW236693   4.259   4.512   3.151 -3.0959 -0.6023  0.0580
 8353SOL     OW36694   4.189   1.745   8.619  0.0286  0.3575  0.3873
 8353SOL    HW136695   4.147   1.829   8.598 -0.5838 -0.2460 -0.8269
 8353SOL    HW236696   4.138   1.724   8.697 -0.9568  1.5941  0.0789
 8354SOL     OW36697   1.705   2.854   5.584  0.3186 -0.2487  0.2047
 8354SOL    HW136698   1.626   2.805   5.558  0.0827  0.5225 -0.5472
 8354SOL    HW236699   1.680   2.935   5.539  1.5019 -1.1408 -2.0995
 8355SOL     OW36700   4.406   3.310   0.435 -0.4134 -0.2825 -0.6523
 8355SOL    HW136701   4.457   3.380   0.476  0.7671 -1.2007 -0.5383
 8355SOL    HW236702   4.316   3.341   0.430  0.0351  0.9913 -0.7333
 8356SOL     OW36703   4.071   4.694   3.070 -0.0883 -0.4239 -0.1080
 8356SOL    HW136704   4.085   0.008   2.995 -2.4435  1.2793  0.7526
 8356SOL    HW236705   4.045   0.015   3.136 -0.2497 -1.0991  0.4954
 8357SOL     OW36706   3.935   4.140   6.675  0.0736 -0.1785 -0.4504
 8357SOL    HW136707   3.840   4.125   6.684  0.3354 -1.3108  0.4629
 8357SOL    HW236708   3.945   4.222   6.723 -0.5099 -0.2264 -0.2474
 8358SOL     OW36709   4.725   2.133   6.508 -0.1078 -0.0794  0.1816
 8358SOL    HW136710   0.070   2.116   6.541 -0.0078 -0.8138 -0.4854
 8358SOL    HW236711   4.693   2.185   6.582 -0.5416  0.5760 -0.4614
 8359SOL     OW36712   2.481   3.034   7.330 -0.0756 -0.0875  0.4466
 8359SOL    HW136713   2.401   3.011   7.282 -0.3170  1.7594 -0.0491
 8359SOL    HW236714   2.491   2.973   7.402  2.5104  0.6908  0.7252
 8360SOL     OW36715   0.472   2.593   6.893  0.0595  0.4007 -0.1539
 8360SOL    HW136716   0.433   2.623   6.811  0.7391  2.4627  0.2886
 8360SOL    HW236717   0.563   2.587   6.863 -0.3122 -2.1963 -0.8393
 8361SOL     OW36718   2.064   1.390   4.455 -0.3392 -0.3873  0.3661
 8361SOL    HW136719   2.084   1.423   4.543  0.7682 -2.3128  0.8435
 8361SOL    HW236720   2.118   1.447   4.401  0.2883 -1.1767  0.1553
 8362SOL     OW36721   2.858   4.540   4.638 -0.1866  0.2120 -0.4038
 8362SOL    HW136722   2.791   4.515   4.702  1.5424  1.2863  1.8304
 8362SOL    HW236723   2.825   4.487   4.565  1.0133 -0.4493 -0.4689
 8363SOL     OW36724   3.774   2.296   9.788  0.5752 -0.0823  0.3788
 8363SOL    HW136725   3.854   2.348   9.777  1.1082 -0.5063  2.2727
 8363SOL    HW236726   3.800   2.209   9.818  0.9100  0.6854  2.3366
 8364SOL     OW36727   4.711   3.042  12.258  0.2518  0.1910 -0.5634
 8364SOL    HW136728   4.712   3.120  12.203  0.7577  1.6085  1.4524
 8364SOL    HW236729   4.616   3.033  12.263  0.1764  0.0617 -2.1231
 8365SOL     OW36730   2.199   2.153   8.119 -0.5702 -0.1846  0.3592
 8365SOL    HW136731   2.165   2.067   8.095 -2.1452 -0.0856  2.2739
 8365SOL    HW236732   2.140   2.216   8.079  0.0781 -0.0504 -0.3962
 8366SOL     OW36733   1.675   0.343   6.263 -0.3335 -0.1815  0.1308
 8366SOL    HW136734   1.768   0.364   6.256 -0.4112  0.2195  0.2937
 8366SOL    HW236735   1.652   0.348   6.170  2.0275 -0.1546 -0.4615
 8367SOL     OW36736   3.524   3.787   3.965  0.0244 -0.4017 -0.4769
 8367SOL    HW136737   3.611   3.759   3.936 -0.8076 -2.7465 -0.6825
 8367SOL    HW236738   3.468   3.711   3.952  0.0315 -0.6905  1.2963
 8368SOL     OW36739   3.058   0.707   7.174 -0.0964  0.8927 -0.3393
 8368SOL    HW136740   3.097   0.624   7.202  1.5744  1.8001  0.0364
 8368SOL    HW236741   3.054   0.699   7.079 -0.4690  2.3495 -0.4496
 8369SOL     OW36742   0.542   2.336   6.080 -0.3642  0.0051  0.8149
 8369SOL    HW136743   0.517   2.329   5.988  2.5293  0.3672  0.0064
 8369SOL    HW236744   0.539   2.243   6.102 -1.6920 -0.1942 -0.2179
 8370SOL     OW36745   1.569   4.657  17.603 -0.5670  0.6252 -0.2649
 8370SOL    HW136746   1.553   4.576  17.554  0.6961 -0.1189  0.5479
 8370SOL    HW236747   1.542   4.614  17.684  1.7936 -2.7525 -1.2861
 8371SOL     OW36748   3.774   1.970   8.733 -0.1574  0.1320  0.2449
 8371SOL    HW136749   3.749   1.952   8.642  1.3352 -0.2723 -0.0837
 8371SOL    HW236750   3.788   1.881   8.767 -0.5686  0.5898  1.6232
 8372SOL     OW36751   1.549   2.369  17.495 -0.1031  0.2092 -0.1801
 8372SOL    HW136752   1.606   2.294  17.511  1.1248  1.1547 -0.1410
 8372SOL    HW236753   1.492   2.337  17.425 -1.9478  1.9739  0.4889
 8373SOL     OW36754   3.248   3.055   7.343  0.2279 -0.6697  0.4825
 8373SOL    HW136755   3.293   3.060   7.258 -1.9917 -0.9540 -0.7330
 8373SOL    HW236756   3.294   3.113   7.403 -1.9640 -0.8149  2.3180
 8374SOL     OW36757   2.198   4.479  16.830 -0.1480  0.6873  0.0155
 8374SOL    HW136758   2.220   4.404  16.776 -1.2381  1.1440 -1.0662
 8374SOL    HW236759   2.273   4.533  16.805  2.5964 -2.2892  1.7840
 8375SOL     OW36760   4.708   3.527   4.309 -0.0944 -0.4564 -0.1463
 8375SOL    HW136761   4.682   3.450   4.360  2.1799 -1.1556 -0.0311
 8375SOL    HW236762   4.631   3.584   4.314 -1.0193 -1.5677 -1.7628
 8376SOL     OW36763   3.147   3.669  15.488  0.2160  0.9376  0.4795
 8376SOL    HW136764   3.231   3.647  15.527 -0.3524 -1.5758  0.2745
 8376SOL    HW236765   3.131   3.762  15.506  0.1305  1.2141 -1.0066
 8377SOL     OW36766   1.060   4.040   3.235 -0.1895 -0.3420 -0.0834
 8377SOL    HW136767   0.976   4.076   3.207  0.0507 -0.2669 -0.7220
 8377SOL    HW236768   1.031   3.979   3.302 -1.1215  0.8519  0.6064
 8378SOL     OW36769   3.206   3.528   2.058  0.7034 -0.1054  0.5014
 8378SOL    HW136770   3.265   3.509   2.131  2.0273  0.2097 -0.4851
 8378SOL    HW236771   3.187   3.620   2.074  0.8054  0.0348 -0.2089
 8379SOL     OW36772   3.309   2.403   7.532  0.5589  0.1346  0.4896
 8379SOL    HW136773   3.253   2.430   7.459 -0.5266 -0.0878  1.2366
 8379SOL    HW236774   3.238   2.376   7.591 -1.0956  0.7124 -1.2447
 8380SOL     OW36775   1.752   0.161  17.281  0.4576 -0.2463  0.0072
 8380SOL    HW136776   1.794   0.134  17.362 -2.5012 -0.3785  1.4958
 8380SOL    HW236777   1.818   0.131  17.218 -0.4465  0.3330 -1.2428
 8381SOL     OW36778   4.063   1.768   8.226  0.1741  0.2988  0.7330
 8381SOL    HW136779   4.045   1.801   8.138 -0.3761  2.9343  1.8354
 8381SOL    HW236780   4.089   1.851   8.265  3.6725 -0.1353 -0.7231
 8382SOL     OW36781   1.375   0.120   5.130 -0.4453  0.5769  0.7870
 8382SOL    HW136782   1.463   0.150   5.151 -0.4166 -0.2643  1.8518
 8382SOL    HW236783   1.357   0.057   5.200 -2.4988  1.0097  0.6522
 8383SOL     OW36784   0.189   4.506   4.978 -0.1673 -0.3317  0.2327
 8383SOL    HW136785   0.148   4.582   4.936 -0.6442 -1.0623 -0.6192
 8383SOL    HW236786   0.277   4.543   4.988 -0.2366  0.1089 -0.7857
 8384SOL     OW36787   0.390   0.437   5.762  0.7079 -0.1656  0.2670
 8384SOL    HW136788   0.409   0.466   5.851  2.1995  0.7003 -0.3270
 8384SOL    HW236789   0.481   0.425   5.735  0.4400  1.5946 -1.3953
 8385SOL     OW36790   0.552   2.494  16.422 -0.5042  0.0468  0.4414
 8385SOL    HW136791   0.493   2.419  16.432  0.8087 -0.8724  1.3116
 8385SOL    HW236792   0.499   2.553  16.477 -0.4757  1.8864 -1.5029
 8386SOL     OW36793   0.962   1.371   2.588  0.0708 -0.3862 -0.1509
 8386SOL    HW136794   0.999   1.302   2.533 -0.3188  0.2116 -1.1773
 8386SOL    HW236795   1.032   1.436   2.584 -0.6303  0.2837 -1.7163
 8387SOL     OW36796   4.459   1.559  16.530  0.6949 -0.3589  0.6180
 8387SOL    HW136797   4.438   1.466  16.525  0.7669 -0.2507 -1.4114
 8387SOL    HW236798   4.545   1.571  16.490  0.6640  0.2417  0.7367
 8388SOL     OW36799   3.773   4.433   6.269 -0.1119 -0.2025 -0.4451
 8388SOL    HW136800   3.746   4.506   6.325 -1.5243  0.2346 -1.6816
 8388SOL    HW236801   3.758   4.358   6.326 -2.4177  0.8742  0.3813
 8389SOL     OW36802   1.504   3.737   2.613  0.5898  0.0621  0.8574
 8389SOL    HW136803   1.470   3.650   2.633 -2.0955  0.5473 -1.5381
 8389SOL    HW236804   1.478   3.744   2.521  0.0368  1.7066  1.1405
 8390SOL     OW36805   0.725   1.731   2.766  0.2779  0.1052 -0.5943
 8390SOL    HW136806   0.676   1.759   2.688  0.8691 -1.3648 -1.5020
 8390SOL    HW236807   0.740   1.637   2.752  0.1859  0.1072 -0.7086
 8391SOL     OW36808   1.882   2.786   4.140 -0.3639 -0.5112 -0.7638
 8391SOL    HW136809   1.951   2.723   4.120 -0.4249 -1.0419  0.7480
 8391SOL    HW236810   1.813   2.726   4.111 -0.9152  0.0795 -0.6824
 8392SOL     OW36811   4.493   0.045  15.468  0.1105 -0.8112 -0.3047
 8392SOL    HW136812   4.416   4.732  15.474 -0.8920  0.6096 -0.0264
 8392SOL    HW236813   4.517   0.041  15.376 -0.9178 -0.1458 -0.6001
 8393SOL     OW36814   0.431   4.107   6.634  0.0619  0.2029 -0.1960
 8393SOL    HW136815   0.509   4.059   6.664 -0.8227 -0.1991  1.4714
 8393SOL    HW236816   0.412   4.046   6.563  0.5522  0.6913 -0.7359
 8394SOL     OW36817   0.283   1.858   1.181  0.5099  0.1675 -0.2039
 8394SOL    HW136818   0.362   1.874   1.130  1.6245  1.3698  1.9310
 8394SOL    HW236819   0.217   1.920   1.149  0.7117 -0.2588 -1.4462
 8395SOL     OW36820   3.003   2.565  13.504  0.0294 -0.0029  0.1462
 8395SOL    HW136821   2.955   2.618  13.440 -1.4407 -0.0006  1.2471
 8395SOL    HW236822   2.989   2.621  13.580  0.3557 -0.7730  0.7749
 8396SOL     OW36823   3.371   2.228  11.917  0.2621  0.3582 -0.2408
 8396SOL    HW136824   3.430   2.188  11.981 -0.0308  1.1833  0.5399
 8396SOL    HW236825   3.311   2.154  11.907  0.7607 -0.0623 -0.1693
 8397SOL     OW36826   0.288   3.486   2.017 -0.0704 -0.0774  0.6278
 8397SOL    HW136827   0.205   3.452   1.981  2.0423 -2.0706 -2.3955
 8397SOL    HW236828   0.291   3.563   1.961 -1.2842 -0.0328  0.6169
 8398SOL     OW36829   3.732   1.874   7.822 -0.5932 -0.1452  0.1045
 8398SOL    HW136830   3.793   1.899   7.892  2.0107 -1.5949 -1.6476
 8398SOL    HW236831   3.720   1.780   7.833  0.5470 -0.4288 -1.0547
 8399SOL     OW36832   2.713   3.630   6.935  0.0937 -0.2558 -0.3587
 8399SOL    HW136833   2.770   3.598   7.005  1.3638  2.8180 -0.0082
 8399SOL    HW236834   2.632   3.651   6.981  0.1973 -2.5886  0.9036
 8400SOL     OW36835   2.283   3.815   2.146  0.3117  0.6580 -0.0215
 8400SOL    HW136836   2.373   3.800   2.119 -0.0225 -2.0649  0.3482
 8400SOL    HW236837   2.281   3.805   2.242  4.8550  0.0958  0.0353
 8401SOL     OW36838   2.223   0.751  17.481 -0.2615 -0.3340  0.1529
 8401SOL    HW136839   2.205   0.842  17.502  1.6823 -0.4922  2.4364
 8401SOL    HW236840   2.201   0.747  17.387 -1.6157  1.5248  0.4039
 8402SOL     OW36841   4.654   3.234   7.245 -0.2919  0.2107 -0.2391
 8402SOL    HW136842   4.701   3.158   7.210  0.3524 -1.2052  3.7986
 8402SOL    HW236843   4.574   3.242   7.193 -0.7402 -0.4340  0.3576
 8403SOL     OW36844   1.811   3.568   7.502 -0.4123  0.0252 -0.1775
 8403SOL    HW136845   1.883   3.563   7.564 -0.9885  2.5537  0.6953
 8403SOL    HW236846   1.789   3.475   7.505 -1.4617  0.1918 -2.5669
 8404SOL     OW36847   2.482   4.465  10.066 -0.2712  0.0107 -0.7082
 8404SOL    HW136848   2.571   4.482  10.037  0.4500 -0.8646  0.9599
 8404SOL    HW236849   2.454   4.545  10.109 -2.2628 -0.7040 -0.6612
 8405SOL     OW36850   0.428   2.248  13.401 -0.5414 -0.4751 -0.1250
 8405SOL    HW136851   0.453   2.200  13.322  0.0932  0.1931 -0.3350
 8405SOL    HW236852   0.385   2.324  13.361  0.2646 -0.6696 -1.3651
 8406SOL     OW36853   3.877   0.345   8.794  0.5222  0.4856  0.2084
 8406SOL    HW136854   3.848   0.269   8.845 -2.1065 -0.6412 -2.8578
 8406SOL    HW236855   3.894   0.315   8.704  3.4344  1.0731  0.5704
 8407SOL     OW36856   3.675   2.404  11.065  0.3640 -0.2589  0.0386
 8407SOL    HW136857   3.648   2.448  11.146  0.8250 -1.3854  0.8040
 8407SOL    HW236858   3.652   2.478  11.008  2.3079  1.0320  0.9331
 8408SOL     OW36859   1.421   1.169   0.931 -0.7589  0.0231  0.4749
 8408SOL    HW136860   1.476   1.247   0.931 -0.0432 -0.4991 -1.0110
 8408SOL    HW236861   1.378   1.178   1.017  0.8499  2.5542  1.0350
 8409SOL     OW36862   2.884   0.103   4.403  0.1496  0.0554 -0.6862
 8409SOL    HW136863   2.902   0.084   4.495  0.7731 -0.9782 -1.0198
 8409SOL    HW236864   2.819   0.173   4.404  1.9006  1.7123 -1.9500
 8410SOL     OW36865   3.021   3.916   4.390  0.7160 -0.1134 -0.1212
 8410SOL    HW136866   3.089   3.865   4.346 -0.0932 -1.4977  0.2328
 8410SOL    HW236867   3.035   3.898   4.483 -1.0256 -1.1315 -0.0668
 8411SOL     OW36868   3.295   1.018  13.332 -0.4266 -0.8132  0.0264
 8411SOL    HW136869   3.295   1.090  13.269  3.0754 -0.3203  0.6086
 8411SOL    HW236870   3.342   0.949  13.285  0.1059  0.5134 -1.4081
 8412SOL     OW36871   3.601   4.331   5.064  0.0813  0.1297  0.3414
 8412SOL    HW136872   3.614   4.410   5.011 -0.5219  0.5504  0.8342
 8412SOL    HW236873   3.582   4.384   5.141 -1.1543 -0.9609  0.7812
 8413SOL     OW36874   0.755   2.032   8.396  0.8165 -0.2048  0.4124
 8413SOL    HW136875   0.838   2.062   8.359  0.2026 -0.3314 -1.0953
 8413SOL    HW236876   0.710   2.116   8.405 -0.7426 -0.7832 -1.8646
 8414SOL     OW36877   3.252   1.488   3.655 -0.2771  0.5311  0.1397
 8414SOL    HW136878   3.183   1.456   3.597 -1.6348  2.1551  0.8717
 8414SOL    HW236879   3.218   1.457   3.739 -1.2328  0.6879 -0.1974
 8415SOL     OW36880   0.844   3.250  15.386  0.9005 -0.4238 -0.2919
 8415SOL    HW136881   0.848   3.304  15.465  3.7578 -1.3362  0.1688
 8415SOL    HW236882   0.922   3.269  15.334 -1.8375  0.4192 -4.1279
 8416SOL     OW36883   3.346   2.275   6.230  0.8150 -0.1316  0.3234
 8416SOL    HW136884   3.369   2.346   6.170 -0.6248 -1.0210 -1.2672
 8416SOL    HW236885   3.294   2.218   6.174  1.0805  2.1693 -2.2672
 8417SOL     OW36886   0.357   2.981   8.047  0.2916  0.4897  0.0987
 8417SOL    HW136887   0.349   3.048   7.980  1.7637 -0.8089 -1.3747
 8417SOL    HW236888   0.362   2.907   7.987 -0.8371  1.2998 -0.9835
 8418SOL     OW36889   1.723   2.407  14.048  0.2424 -0.2100  0.1533
 8418SOL    HW136890   1.729   2.366  13.962  2.6136 -1.1790  0.7834
 8418SOL    HW236891   1.654   2.468  14.023  0.8394  0.6555  0.6533
 8419SOL     OW36892   1.412   0.288  14.233  0.1183 -0.1309  0.4487
 8419SOL    HW136893   1.489   0.233  14.239 -0.3461 -0.5496  2.5966
 8419SOL    HW236894   1.361   0.259  14.309  0.0384 -0.9359  0.0825
 8420SOL     OW36895   0.089   3.680   3.237 -0.0585  0.6104  0.1060
 8420SOL    HW136896   0.017   3.681   3.174  0.0384  0.4566 -0.0068
 8420SOL    HW236897   0.145   3.624   3.184  0.9711  1.7928 -0.0597
 8421SOL     OW36898   2.715   3.695   4.763  0.2199  0.2055 -0.0079
 8421SOL    HW136899   2.653   3.701   4.836  0.6619 -1.3164  0.4870
 8421SOL    HW236900   2.755   3.610   4.780  0.9404  1.2845  3.8201
 8422SOL     OW36901   2.222   1.800   4.151 -0.2327 -0.6269  0.4225
 8422SOL    HW136902   2.271   1.875   4.183 -0.6885 -1.8032  3.8646
 8422SOL    HW236903   2.274   1.768   4.077 -1.5372 -0.9684 -0.3524
 8423SOL     OW36904   0.465   1.427   7.218 -0.0713  0.0945 -0.9179
 8423SOL    HW136905   0.489   1.392   7.132 -1.2238 -0.6703 -0.9339
 8423SOL    HW236906   0.542   1.483   7.227  1.0352 -1.2011 -2.1504
 8424SOL     OW36907   3.439   3.823   1.997  0.6655  0.3139  0.0603
 8424SOL    HW136908   3.488   3.755   2.042 -2.0610 -1.7016 -0.0271
 8424SOL    HW236909   3.443   3.890   2.065 -0.3054  0.9776 -0.5480
 8425SOL     OW36910   2.810   3.006   0.036 -0.9805 -0.0620  0.0161
 8425SOL    HW136911   2.905   2.994   0.026 -1.2773 -0.4840 -2.1533
 8425SOL    HW236912   2.768   3.012  17.720  2.6390 -0.3587 -1.7859
 8426SOL     OW36913   2.401   0.119   0.794  0.2609 -0.4739  0.5556
 8426SOL    HW136914   2.345   0.055   0.749 -0.7059 -0.5342  1.8430
 8426SOL    HW236915   2.381   0.189   0.732  1.1547 -0.7428 -0.0445
 8427SOL     OW36916   1.694   1.206   2.130 -0.2727 -0.2355 -0.0682
 8427SOL    HW136917   1.744   1.286   2.112 -0.4239  0.5492  3.0543
 8427SOL    HW236918   1.764   1.153   2.167  1.7721  2.1060 -0.5813
 8428SOL     OW36919   0.237   3.893   6.724  0.4451  0.0144  0.2637
 8428SOL    HW136920   0.314   3.921   6.676  0.2493 -1.0115 -0.6762
 8428SOL    HW236921   0.164   3.889   6.661 -2.7134  2.2298  3.7546
 8429SOL     OW36922   0.844   4.304   9.309 -0.0360  0.4429 -0.0263
 8429SOL    HW136923   0.843   4.208   9.319 -0.2219  0.4250 -0.2144
 8429SOL    HW236924   0.938   4.320   9.314  0.4377 -1.8010 -1.5723
 8430SOL     OW36925   4.569   3.593  16.659  0.2094  0.1938  0.0524
 8430SOL    HW136926   4.551   3.532  16.731  3.3038 -1.0753 -0.2619
 8430SOL    HW236927   4.484   3.635  16.645  0.0562 -0.1094  0.0656
 8431SOL     OW36928   3.920   4.647   1.748  0.1639 -0.5310  0.1703
 8431SOL    HW136929   4.005   4.606   1.734  0.8570  1.2400 -0.8642
 8431SOL    HW236930   3.867   4.625   1.671  2.1479  1.4972 -1.7771
 8432SOL     OW36931   4.272   0.233   3.020 -0.1784  0.4670 -0.0328
 8432SOL    HW136932   4.296   0.322   2.994  2.1809 -0.3382 -0.6110
 8432SOL    HW236933   4.190   0.248   3.067  0.5994  3.7817  0.2811
 8433SOL     OW36934   2.809   1.401   5.756  0.5120  0.0187  0.5676
 8433SOL    HW136935   2.856   1.344   5.695 -1.8745  1.5298 -2.7074
 8433SOL    HW236936   2.724   1.397   5.712  0.0438  1.6744  1.3031
 8434SOL     OW36937   4.705   4.460   4.786 -0.8432 -0.0361  0.5153
 8434SOL    HW136938   4.712   4.502   4.700  0.9328 -0.7585  0.3228
 8434SOL    HW236939   0.052   4.443   4.811 -0.7057  0.8033  0.5996
 8435SOL     OW36940   3.000   1.392   1.318  0.8842  0.5228  0.2848
 8435SOL    HW136941   3.011   1.300   1.295  1.1616  0.3955  0.9161
 8435SOL    HW236942   2.906   1.383   1.306  0.9211 -0.0046  0.3711
 8436SOL     OW36943   4.647   1.751  12.944  0.2483 -0.4104 -0.0649
 8436SOL    HW136944   4.604   1.667  12.958 -0.1402 -0.3566 -0.9218
 8436SOL    HW236945   4.622   1.763  12.853  0.9307 -2.1396 -0.4656
 8437SOL     OW36946   0.939   0.930   7.083  0.0524  0.1623 -0.1293
 8437SOL    HW136947   0.953   0.902   7.173 -0.7807 -1.1393 -0.3999
 8437SOL    HW236948   0.866   0.991   7.096 -0.7125 -0.4529 -1.4912
 8438SOL     OW36949   4.742   2.143  16.870  0.0393  0.1271  0.4294
 8438SOL    HW136950   0.006   2.048  16.877 -0.0219  0.1182  0.3711
 8438SOL    HW236951   4.661   2.157  16.918  1.6708 -1.2202  3.5537
 8439SOL     OW36952   1.500   0.439   5.584  0.7243  0.4157  0.7573
 8439SOL    HW136953   1.506   0.346   5.606  0.6668  0.3358  0.4342
 8439SOL    HW236954   1.533   0.441   5.494 -0.1599 -2.3788  0.3644
 8440SOL     OW36955   2.587   4.384   7.363  0.6839 -0.5405  0.0175
 8440SOL    HW136956   2.518   4.426   7.415  1.0832  0.3071 -0.1379
 8440SOL    HW236957   2.533   4.339   7.298  0.6956  0.8443 -0.9501
 8441SOL     OW36958   2.887   3.036   4.474  0.2961  0.1070 -0.0600
 8441SOL    HW136959   2.925   3.090   4.544  1.0472 -2.3155  1.4014
 8441SOL    HW236960   2.911   3.089   4.397  1.4711  0.7153  0.7237
 8442SOL     OW36961   0.670   1.895   9.015  0.1608  1.1150  0.2120
 8442SOL    HW136962   0.688   1.856   8.930 -1.3693  0.5941  0.1184
 8442SOL    HW236963   0.600   1.957   8.991 -0.2048  0.8632  0.6137
 8443SOL     OW36964   3.884   0.954   8.646  0.2350 -0.1777  0.4229
 8443SOL    HW136965   3.888   1.045   8.676  1.1668  0.3857 -1.4377
 8443SOL    HW236966   3.842   0.905   8.717 -3.2899 -0.4792 -1.8545
 8444SOL     OW36967   4.417   1.368   8.047  0.5171 -0.2095  0.2731
 8444SOL    HW136968   4.437   1.461   8.060  0.2035  0.3129 -2.9890
 8444SOL    HW236969   4.496   1.323   8.075  0.8833 -1.4064 -2.6926
 8445SOL     OW36970   0.814   3.316   6.800  0.2780  0.2027  0.3791
 8445SOL    HW136971   0.801   3.327   6.705 -0.9697 -0.0915  0.5051
 8445SOL    HW236972   0.722   3.308   6.827 -0.5287  1.5295 -1.9477
 8446SOL     OW36973   1.373   2.617   4.682 -0.1222 -0.2113  0.2123
 8446SOL    HW136974   1.324   2.621   4.764  1.5007  0.1651  1.1808
 8446SOL    HW236975   1.458   2.590   4.717 -0.6522 -2.4027 -0.1895
 8447SOL     OW36976   1.161   1.869   5.711  0.2102 -0.0927 -0.4683
 8447SOL    HW136977   1.069   1.888   5.694  0.4512  1.2529 -0.2820
 8447SOL    HW236978   1.155   1.783   5.753 -1.3577  0.4741  0.4514
 8448SOL     OW36979   4.679   2.755   6.943 -0.8230  0.0294  0.5127
 8448SOL    HW136980   4.738   2.699   6.994 -0.1408  0.6156  0.3576
 8448SOL    HW236981   4.741   2.804   6.890  0.0062 -0.3775  1.0965
 8449SOL     OW36982   0.397   1.796  12.833  0.4251  0.1936  0.8491
 8449SOL    HW136983   0.483   1.758  12.845  0.5445  0.0298 -0.4987
 8449SOL    HW236984   0.397   1.859  12.905 -1.5721  0.2885  0.7681
 8450SOL     OW36985   4.142   3.181   8.986 -0.2728  0.0017  0.1523
 8450SOL    HW136986   4.136   3.228   9.069  1.3273  0.5375 -0.0196
 8450SOL    HW236987   4.235   3.158   8.989 -0.6833 -1.0479  4.2598
 8451SOL     OW36988   1.264   0.450  10.417 -0.3411  0.0690 -0.5811
 8451SOL    HW136989   1.252   0.357  10.396 -0.6181 -0.4723  2.0551
 8451SOL    HW236990   1.215   0.466  10.497  0.7053 -0.0858  0.0918
 8452SOL     OW36991   2.156   1.936   3.462  0.5677  0.0737 -0.4169
 8452SOL    HW136992   2.092   1.938   3.533  0.1207 -0.9093 -0.7917
 8452SOL    HW236993   2.239   1.966   3.500 -0.9930  2.1276  1.3246
 8453SOL     OW36994   0.770   3.092   4.619  0.0665 -0.3022 -0.3122
 8453SOL    HW136995   0.759   3.053   4.533  2.2530  0.4015 -0.9061
 8453SOL    HW236996   0.742   3.184   4.614  0.1000 -0.1591  2.0003
 8454SOL     OW36997   3.250   2.158   2.641 -0.4839 -0.3485 -0.1063
 8454SOL    HW136998   3.184   2.211   2.597  0.7165  1.3154  0.0809
 8454SOL    HW236999   3.306   2.222   2.684 -0.4215 -0.7553  0.4145
 8455SOL     OW37000   1.248   1.156   8.036 -0.1794 -0.0535  0.3164
 8455SOL    HW137001   1.288   1.209   7.968  0.3397 -2.0516 -0.9253
 8455SOL    HW237002   1.323   1.099   8.048 -0.0528 -0.0379 -0.4243
 8456SOL     OW37003   0.817   3.899   1.659 -0.0296  0.1219  0.2651
 8456SOL    HW137004   0.727   3.894   1.691  0.0701 -2.6758  0.0783
 8456SOL    HW237005   0.801   3.883   1.566 -1.2490  2.0603  0.1253
 8457SOL     OW37006   0.355   2.105  15.184 -0.0257 -0.1069  0.3370
 8457SOL    HW137007   0.393   2.186  15.151 -0.3375 -0.5047 -1.0115
 8457SOL    HW237008   0.268   2.142  15.200 -0.3399 -0.2441 -1.0548
 8458SOL     OW37009   2.047   3.905   7.989  0.4220  0.4361  0.0816
 8458SOL    HW137010   2.054   3.825   8.041 -1.5391  0.1038 -0.1796
 8458SOL    HW237011   2.057   3.878   7.898  0.6403 -0.4506  0.3727
 8459SOL     OW37012   4.737   3.448   3.797  0.1315  0.1684 -0.0521
 8459SOL    HW137013   4.688   3.370   3.825  1.7951 -0.9685 -0.2834
 8459SOL    HW237014   4.676   3.483   3.732 -0.5515  0.8394  0.9516
 8460SOL     OW37015   0.002   4.256   1.597 -0.5835 -0.3314 -0.1342
 8460SOL    HW137016   0.039   4.283   1.681  1.2049  0.7070 -1.2539
 8460SOL    HW237017   0.039   4.168   1.592  0.8954  0.3421 -0.9759
 8461SOL     OW37018   2.327   2.029   8.711  0.1597  0.0540  0.0503
 8461SOL    HW137019   2.352   1.943   8.743  2.3105  0.3494 -0.8192
 8461SOL    HW237020   2.363   2.093   8.773 -2.2783 -0.7474  2.2818
 8462SOL     OW37021   0.435   1.697  10.027 -0.1255  0.5113  0.1820
 8462SOL    HW137022   0.493   1.718   9.954  0.0127  0.8516  0.3898
 8462SOL    HW237023   0.449   1.772  10.085 -0.7066 -0.9581  2.2247
 8463SOL     OW37024   2.091   3.503   7.229  0.0644 -0.4684  0.5456
 8463SOL    HW137025   2.020   3.467   7.282 -1.4809 -0.3195 -1.4475
 8463SOL    HW237026   2.153   3.525   7.299  0.4664 -0.2400  0.1201
 8464SOL     OW37027   3.992   0.378   2.105  0.0329  0.1336  0.0755
 8464SOL    HW137028   3.926   0.351   2.041 -0.1422 -1.1029  0.7972
 8464SOL    HW237029   3.979   0.306   2.166 -2.0028  1.6061  1.3809
 8465SOL     OW37030   2.716   1.124   7.740 -0.5757  0.3496 -0.7295
 8465SOL    HW137031   2.748   1.053   7.684  0.0513 -0.4339  0.6217
 8465SOL    HW237032   2.743   1.199   7.687 -1.4517  0.8589 -0.4538
 8466SOL     OW37033   3.779   0.091   4.716 -0.1564 -0.3416 -0.0964
 8466SOL    HW137034   3.712   0.047   4.768 -0.2424 -0.6410 -0.4585
 8466SOL    HW237035   3.818   0.020   4.665 -1.7811 -2.0667  1.0589
 8467SOL     OW37036   1.947   1.549   9.222  0.3918  0.1043  0.7624
 8467SOL    HW137037   1.928   1.457   9.236 -0.9333  0.1711 -0.6612
 8467SOL    HW237038   1.958   1.560   9.317  2.5198 -0.3511  0.5685
 8468SOL     OW37039   0.743   1.224   1.801 -0.3589 -0.7009 -0.4499
 8468SOL    HW137040   0.680   1.152   1.807 -1.6324  0.6628  2.6007
 8468SOL    HW237041   0.718   1.262   1.717  0.2211 -0.8337 -0.6848
 8469SOL     OW37042   0.807   3.537   2.292  0.3793 -0.4319  0.3861
 8469SOL    HW137043   0.885   3.517   2.344  0.9194  1.4838  0.3085
 8469SOL    HW237044   0.792   3.454   2.248  0.3707  1.2417 -2.7185
 8470SOL     OW37045   2.105   2.171  10.271 -0.3469 -0.3494  0.4342
 8470SOL    HW137046   2.126   2.141  10.360 -1.4507  0.3998  0.9486
 8470SOL    HW237047   2.094   2.265  10.287 -2.3009 -0.8999  2.3535
 8471SOL     OW37048   3.991   0.158   1.298  0.2732 -0.3033 -0.4374
 8471SOL    HW137049   4.016   0.245   1.267 -0.1299  0.0168  0.1443
 8471SOL    HW237050   4.012   0.111   1.217  2.4126 -0.0853 -0.0090
 8472SOL     OW37051   0.101   1.145  17.666 -0.9902  0.7790  0.6865
 8472SOL    HW137052   0.172   1.129  17.729 -1.9678  3.3448  2.4321
 8472SOL    HW237053   0.153   1.190  17.600 -0.3005 -0.0327  0.6675
 8473SOL     OW37054   3.636   4.517   5.836 -0.0866 -0.4893  0.5394
 8473SOL    HW137055   3.608   4.609   5.834 -3.3037 -1.4874 -0.7515
 8473SOL    HW237056   3.606   4.478   5.918 -1.5701  0.4102  0.4325
 8474SOL     OW37057   2.307   0.895   7.083  0.2664  0.0057 -0.4338
 8474SOL    HW137058   2.337   0.970   7.031 -1.2503  2.5237  2.3393
 8474SOL    HW237059   2.213   0.913   7.081  0.2507 -0.0025  0.2012
 8475SOL     OW37060   3.349   4.393  12.210 -0.8992  0.4513  0.0968
 8475SOL    HW137061   3.332   4.340  12.132  0.0067  1.0357 -0.4982
 8475SOL    HW237062   3.442   4.384  12.232 -1.0382  2.2111  1.4032
 8476SOL     OW37063   2.921   0.901  10.127  0.3833 -0.2576 -0.2391
 8476SOL    HW137064   2.883   0.975  10.175 -1.1345 -1.5737  0.5962
 8476SOL    HW237065   2.984   0.876  10.195 -0.8181 -0.9866  0.6232
 8477SOL     OW37066   1.487   3.749  12.888  0.1832 -0.2358  0.0095
 8477SOL    HW137067   1.481   3.685  12.959 -2.4506 -1.4626 -1.3272
 8477SOL    HW237068   1.555   3.805  12.925 -1.3226  1.3964  0.3028
 8478SOL     OW37069   2.061   4.049   9.627  0.3642  0.4369 -0.3527
 8478SOL    HW137070   2.004   4.118   9.593 -0.2424 -0.7529 -1.7968
 8478SOL    HW237071   2.042   4.051   9.720  1.8131  0.7248 -0.0680
 8479SOL     OW37072   3.206   4.211  11.795  0.1616  0.6273 -0.5554
 8479SOL    HW137073   3.215   4.191  11.888 -0.3367  4.1367  0.2300
 8479SOL    HW237074   3.178   4.125  11.763 -0.5928  1.4847 -2.2370
 8480SOL     OW37075   3.721   4.081   5.035  0.2554 -0.1140 -0.0514
 8480SOL    HW137076   3.669   4.162   5.033  0.7388  0.1623 -2.6439
 8480SOL    HW237077   3.788   4.106   5.099 -0.4623  0.5815  0.4315
 8481SOL     OW37078   4.136   1.119  14.225  0.1322 -0.3548  0.6826
 8481SOL    HW137079   4.165   1.052  14.287 -0.1012  0.0425  1.2158
 8481SOL    HW237080   4.150   1.201  14.272 -1.2657 -2.3972  4.6971
 8482SOL     OW37081   0.891   2.414   8.201  0.1752  0.4656 -0.2231
 8482SOL    HW137082   0.928   2.501   8.187  2.0569 -0.4153 -0.7498
 8482SOL    HW237083   0.862   2.390   8.113 -0.3886 -1.8152  0.5825
 8483SOL     OW37084   0.562   0.625   0.657  0.0158 -0.1407  0.4177
 8483SOL    HW137085   0.490   0.678   0.691  0.0250 -0.3198  0.7149
 8483SOL    HW237086   0.614   0.700   0.627 -0.8260  0.3124  0.0959
 8484SOL     OW37087   1.718   2.462   6.569 -0.7160  0.0301  0.3281
 8484SOL    HW137088   1.728   2.521   6.494  1.4204 -1.4386 -0.5169
 8484SOL    HW237089   1.623   2.446   6.565 -0.7041 -0.2287  1.0160
 8485SOL     OW37090   4.632   4.455   6.427  0.5054 -0.1675 -0.1290
 8485SOL    HW137091   4.668   4.378   6.471  0.0932 -0.6778 -0.6931
 8485SOL    HW237092   4.690   4.474   6.352  1.0955  2.4908  1.0210
 8486SOL     OW37093   4.176   4.623   8.298  0.8657 -0.2930  0.0441
 8486SOL    HW137094   4.174   4.559   8.227  1.7082  0.6936 -0.8829
 8486SOL    HW237095   4.154   4.571   8.376 -1.7464  1.4465  0.4819
 8487SOL     OW37096   1.290   3.215   1.780  0.1660  0.0311  0.4667
 8487SOL    HW137097   1.220   3.155   1.756  0.1112  1.5461 -3.2259
 8487SOL    HW237098   1.243   3.298   1.790 -0.4531 -0.3524  0.7037
 8488SOL     OW37099   4.587   1.253  13.367 -0.5821 -0.2086 -0.6228
 8488SOL    HW137100   4.612   1.338  13.405 -1.4847  0.7338 -2.1265
 8488SOL    HW237101   4.579   1.279  13.275  2.2582 -2.1306 -1.4301
 8489SOL     OW37102   4.662   0.483   9.658  0.1706 -0.0552 -0.2500
 8489SOL    HW137103   4.682   0.477   9.565 -0.7198  1.3611 -0.5376
 8489SOL    HW237104   4.718   0.558   9.680 -1.6174  0.9637  0.9357
 8490SOL     OW37105   0.560   2.338   0.423  0.2716  0.2869  0.0353
 8490SOL    HW137106   0.653   2.325   0.440  0.4481  0.3788 -0.8462
 8490SOL    HW237107   0.543   2.247   0.395  1.8479  0.2803 -0.9360
 8491SOL     OW37108   2.227   2.955   7.245  0.2782 -0.1924 -0.1164
 8491SOL    HW137109   2.259   2.867   7.228 -1.3546 -1.0463  1.1611
 8491SOL    HW237110   2.170   2.928   7.318  0.6388 -2.9344 -0.8526
 8492SOL     OW37111   0.302   1.659   8.172  0.6364 -0.5435  0.1118
 8492SOL    HW137112   0.363   1.586   8.166  1.9443  0.5145  0.4270
 8492SOL    HW237113   0.244   1.636   8.245  0.1095 -0.5289 -0.3027
 8493SOL     OW37114   0.612   4.381   9.156 -0.4821  0.3792 -0.0828
 8493SOL    HW137115   0.688   4.352   9.206 -1.5797 -2.2599  0.0571
 8493SOL    HW237116   0.567   4.298   9.138 -2.2726  1.4454 -0.5665
 8494SOL     OW37117   3.429   0.442  12.122 -0.2547  0.2625  0.6325
 8494SOL    HW137118   3.357   0.383  12.147 -0.3844  0.0053 -0.3680
 8494SOL    HW237119   3.378   0.520  12.103  0.1066 -0.5402 -3.5509
 8495SOL     OW37120   1.484   3.434   6.925 -0.1433 -0.1836  0.6342
 8495SOL    HW137121   1.506   3.501   6.990 -1.8324  0.1662  0.8266
 8495SOL    HW237122   1.469   3.488   6.848  0.1050  1.5090  1.7614
 8496SOL     OW37123   3.134   3.630  17.150 -0.0764  0.7505  0.0927
 8496SOL    HW137124   3.072   3.557  17.139  0.7768  0.1752 -0.8789
 8496SOL    HW237125   3.092   3.695  17.207  1.0168  0.0531  1.6882
 8497SOL     OW37126   2.226   4.306   6.500  0.0477  0.5815  0.6960
 8497SOL    HW137127   2.154   4.369   6.500 -1.0939 -0.7153 -0.1097
 8497SOL    HW237128   2.183   4.225   6.472  1.6385 -0.4039  1.1717
 8498SOL     OW37129   3.524   2.088   1.680 -0.2582 -0.6763 -0.2356
 8498SOL    HW137130   3.433   2.085   1.651 -1.4606  1.8984  3.2578
 8498SOL    HW237131   3.516   2.106   1.774  1.2431  2.5578 -0.7260
 8499SOL     OW37132   2.897   4.028   2.315 -0.5106 -0.3138  0.3656
 8499SOL    HW137133   2.949   4.099   2.277 -1.9947 -0.4572 -1.9623
 8499SOL    HW237134   2.935   4.021   2.402  1.1743  0.5184 -0.2925
 8500SOL     OW37135   1.036   0.559   3.555  0.0378  0.4664 -0.9436
 8500SOL    HW137136   1.043   0.476   3.508  0.7319  0.4453 -0.8032
 8500SOL    HW237137   1.026   0.621   3.483 -0.9670 -0.7630 -1.8431
 8501SOL     OW37138   4.122   2.951   7.541 -0.0352  0.2293  0.2695
 8501SOL    HW137139   4.061   2.985   7.607 -0.8328 -2.7523  1.0554
 8501SOL    HW237140   4.148   3.031   7.496 -1.0417  0.4508  0.0823
 8502SOL     OW37141   3.954   3.962   3.256 -0.2903  0.7436  0.0332
 8502SOL    HW137142   3.974   4.041   3.307  0.9625 -0.6142  1.6626
 8502SOL    HW237143   4.004   3.898   3.306 -2.3422 -1.5279 -0.8325
 8503SOL     OW37144   4.152   4.566   7.271 -0.0446 -0.6508  0.0237
 8503SOL    HW137145   4.181   4.495   7.327 -0.5400 -0.8709  0.0005
 8503SOL    HW237146   4.131   4.635   7.334 -0.2340 -0.2402 -0.4781
 8504SOL     OW37147   2.497   0.014  16.088  0.0639  0.2488 -0.0551
 8504SOL    HW137148   2.442   0.085  16.056  0.6482  1.8001  2.4305
 8504SOL    HW237149   2.474   0.010  16.180  0.6569 -0.2078  0.0734
 8505SOL     OW37150   4.725   1.277  16.198 -0.3602 -0.4713 -0.3895
 8505SOL    HW137151   0.060   1.243  16.154 -0.3008 -0.1183 -0.5542
 8505SOL    HW237152   4.665   1.292  16.125  0.0749 -1.3437 -0.9233
 8506SOL     OW37153   2.398   1.919   2.266  0.4813  0.8192  0.6889
 8506SOL    HW137154   2.351   1.993   2.305  0.7411  1.1129  0.4476
 8506SOL    HW237155   2.453   1.967   2.204 -3.1778  1.9505 -1.7476
 8507SOL     OW37156   2.819   3.450  16.694 -0.7130 -0.1347 -0.0398
 8507SOL    HW137157   2.822   3.501  16.775 -4.8142 -1.3357  0.8984
 8507SOL    HW237158   2.827   3.358  16.719  1.7849  0.4966  1.5248
 8508SOL     OW37159   3.677   1.840   5.641  0.1940 -0.4740 -0.2315
 8508SOL    HW137160   3.582   1.830   5.643  0.0904  0.8318  1.0686
 8508SOL    HW237161   3.694   1.885   5.723 -0.8054  0.6967 -0.6734
 8509SOL     OW37162   1.491   1.724   1.144  0.3047 -0.2272 -0.3673
 8509SOL    HW137163   1.574   1.705   1.099  1.6617  0.9206  1.6804
 8509SOL    HW237164   1.477   1.636   1.178 -1.0121 -1.3437 -3.7472
 8510SOL     OW37165   0.168   1.515   7.706 -0.4855 -0.2933 -0.2996
 8510SOL    HW137166   0.245   1.566   7.680 -0.1649 -0.7103 -0.1712
 8510SOL    HW237167   0.110   1.544   7.636 -0.1859 -1.6415 -1.1201
 8511SOL     OW37168   1.342   1.997  11.508 -0.0345  0.1444  0.2567
 8511SOL    HW137169   1.341   2.089  11.480 -2.7260  0.1270  0.3195
 8511SOL    HW237170   1.334   2.013  11.602  1.4000 -2.8502  0.9072
 8512SOL     OW37171   3.475   0.251   5.667  0.3209 -0.2797 -0.4407
 8512SOL    HW137172   3.506   0.340   5.648 -0.8959  0.6638  2.1039
 8512SOL    HW237173   3.545   0.194   5.634  1.0669  1.2678 -1.5548
 8513SOL     OW37174   3.499   0.397  12.718  0.2756  0.3377  0.5774
 8513SOL    HW137175   3.547   0.370  12.796 -0.0556 -2.6618 -0.2509
 8513SOL    HW237176   3.407   0.372  12.723  0.3254 -0.6377 -3.1732
 8514SOL     OW37177   2.189   3.427   2.336 -0.1044 -0.2593 -0.3662
 8514SOL    HW137178   2.114   3.484   2.355  0.2457  0.8145 -2.2167
 8514SOL    HW237179   2.242   3.449   2.413  0.3018 -0.8109 -0.4902
 8515SOL     OW37180   3.408   3.149  14.923 -0.4842  0.1237  0.5197
 8515SOL    HW137181   3.361   3.216  14.973  1.3204  2.3497 -0.7904
 8515SOL    HW237182   3.330   3.108  14.885  0.5260 -0.4036 -0.9814
 8516SOL     OW37183   1.884   1.047   2.240 -0.2904 -0.0388  0.4580
 8516SOL    HW137184   1.942   1.044   2.315 -1.3686 -1.3583  1.2347
 8516SOL    HW237185   1.852   0.957   2.233  1.1663 -0.4631 -0.8904
 8517SOL     OW37186   0.215   2.113   7.773 -0.5479 -0.1346  0.1896
 8517SOL    HW137187   0.290   2.172   7.775 -1.6734  1.3401 -1.1690
 8517SOL    HW237188   0.200   2.098   7.867  0.7508 -0.1813  0.3845
 8518SOL     OW37189   4.088   1.165   2.850  0.5570 -0.6586 -0.0088
 8518SOL    HW137190   4.167   1.172   2.797 -0.3060  2.4229 -0.9014
 8518SOL    HW237191   4.129   1.163   2.937  3.5198  1.1646 -1.3815
 8519SOL     OW37192   4.693   0.853   4.569 -0.1891  0.0233 -0.2391
 8519SOL    HW137193   4.705   0.777   4.512  4.2402  1.3493 -1.0717
 8519SOL    HW237194   4.652   0.911   4.506  1.9358  0.4484 -1.2157
 8520SOL     OW37195   2.079   3.552   6.963  0.2233  0.0399  0.2403
 8520SOL    HW137196   2.088   3.466   6.922  0.8177  0.9636 -1.5520
 8520SOL    HW237197   2.091   3.527   7.054 -1.9833 -1.0085  0.2437
 8521SOL     OW37198   2.381   3.909   7.649  0.2505 -0.0353  0.2666
 8521SOL    HW137199   2.339   3.992   7.627  1.2157  0.1380 -0.9431
 8521SOL    HW237200   2.443   3.895   7.578  0.4526  1.3393  0.1709
 8522SOL     OW37201   4.282   2.471  17.044 -0.3115 -0.3527 -0.2417
 8522SOL    HW137202   4.212   2.433  16.990  1.5917 -1.7509 -1.7213
 8522SOL    HW237203   4.290   2.414  17.121 -0.2392 -2.8241 -2.0726
 8523SOL     OW37204   0.236   1.384   8.995  0.1385 -0.6983 -0.2270
 8523SOL    HW137205   0.200   1.307   8.951 -0.4958  0.5542 -1.9146
 8523SOL    HW237206   0.309   1.389   8.933  0.1145 -0.3807 -0.2332
 8524SOL     OW37207   0.002   1.394   7.925 -0.4127  0.1103  0.3177
 8524SOL    HW137208   4.655   1.381   7.896 -0.8146 -3.2934  3.0594
 8524SOL    HW237209   0.029   1.433   7.842  3.0387  0.5242  1.6595
 8525SOL     OW37210   4.255   2.922   3.017 -0.0549  0.3270 -0.0505
 8525SOL    HW137211   4.241   2.877   2.934 -0.2670  2.1821 -1.0197
 8525SOL    HW237212   4.350   2.935   3.015 -0.5342  4.0036  0.7487
 8526SOL     OW37213   0.204   2.432   2.391 -0.2202 -0.2144 -0.0150
 8526SOL    HW137214   0.289   2.454   2.430 -0.4319 -0.2754  0.4786
 8526SOL    HW237215   0.221   2.368   2.321  3.2833  0.2819  0.3808
 8527SOL     OW37216   1.097   3.144   0.996 -0.0959  1.0000  0.0613
 8527SOL    HW137217   1.078   3.178   0.909 -0.4261 -1.5326 -0.8399
 8527SOL    HW237218   1.101   3.216   1.060 -0.0568  1.4922 -0.4963
 8528SOL     OW37219   2.171   2.851   5.588  1.1358 -0.6281  0.6019
 8528SOL    HW137220   2.163   2.784   5.520  2.4295 -0.4960  0.3165
 8528SOL    HW237221   2.181   2.799   5.667  0.0062  0.5842  1.5430
 8529SOL     OW37222   4.320   2.845  10.110 -0.4486  0.5319 -0.0809
 8529SOL    HW137223   4.281   2.806  10.032 -1.4353  1.5813 -0.1034
 8529SOL    HW237224   4.411   2.824  10.086 -0.1484  0.9012  0.7261
 8530SOL     OW37225   0.144   1.492  12.403 -0.0790 -0.1733  0.2376
 8530SOL    HW137226   0.209   1.442  12.453  0.9878 -0.2471 -1.2123
 8530SOL    HW237227   0.138   1.439  12.324  0.5312 -1.0397  0.7693
 8531SOL     OW37228   3.325   1.923   7.167  0.2872 -0.0106  0.6619
 8531SOL    HW137229   3.382   1.999   7.171  1.9539 -1.2160 -0.4033
 8531SOL    HW237230   3.394   1.857   7.158 -0.3082 -0.4797 -0.6016
 8532SOL     OW37231   4.616   4.044   4.159  0.5695  0.0035 -0.0798
 8532SOL    HW137232   4.593   4.128   4.120  1.7059  0.8921  1.1801
 8532SOL    HW237233   4.623   3.994   4.077 -0.1180 -0.8450  0.3758
 8533SOL     OW37234   1.464   1.815  16.270 -0.1411  0.3567  0.5914
 8533SOL    HW137235   1.374   1.810  16.304 -0.3890 -0.8021 -0.2435
 8533SOL    HW237236   1.461   1.772  16.184  1.0707  3.0090 -0.7851
 8534SOL     OW37237   2.758   2.198  12.107 -0.4385  0.3291 -0.4082
 8534SOL    HW137238   2.740   2.105  12.109 -1.6736  0.5201 -2.3428
 8534SOL    HW237239   2.854   2.202  12.108 -0.4036  0.0605 -2.1665
 8535SOL     OW37240   0.758   2.115  13.760  0.0816 -0.5723 -0.5230
 8535SOL    HW137241   0.717   2.134  13.675 -0.6215 -0.7965 -0.2351
 8535SOL    HW237242   0.684   2.144  13.814  1.1850 -0.9149  1.1495
 8536SOL     OW37243   4.346   3.888   2.969  0.1865  0.5159 -0.2611
 8536SOL    HW137244   4.286   3.906   2.897 -0.8400 -2.5749 -0.1797
 8536SOL    HW237245   4.296   3.940   3.032  0.3414 -0.0100  0.2921
 8537SOL     OW37246   2.271   0.447  17.464  0.2429 -0.7612 -0.2408
 8537SOL    HW137247   2.195   0.471  17.517 -0.3130  0.2447 -1.4924
 8537SOL    HW237248   2.224   0.427  17.383 -3.5007 -0.1954  1.7636
 8538SOL     OW37249   4.241   3.643  12.427  0.8174 -0.1860 -0.4854
 8538SOL    HW137250   4.211   3.557  12.396  1.1245 -0.2414 -0.6214
 8538SOL    HW237251   4.215   3.638  12.519  0.5149  0.1211 -0.5536
 8539SOL     OW37252   0.664   3.933   1.138  0.9883 -0.0879  0.0692
 8539SOL    HW137253   0.699   3.857   1.092  1.0896  1.3089 -2.1604
 8539SOL    HW237254   0.591   3.967   1.087  0.7670 -0.2410  0.2809
 8540SOL     OW37255   4.125   1.625   8.868  0.3815 -0.1338 -0.2178
 8540SOL    HW137256   4.157   1.677   8.941 -2.3568  1.0306  0.1388
 8540SOL    HW237257   4.205   1.576   8.847  0.6657 -0.0391  0.6353
 8541SOL     OW37258   2.483   0.685   5.943  0.6692 -0.6374 -0.0293
 8541SOL    HW137259   2.493   0.764   5.997  0.0318  0.4694 -1.5220
 8541SOL    HW237260   2.388   0.670   5.939  0.1086  2.5969  0.4033
 8542SOL     OW37261   2.186   3.712   3.577  0.4250  0.2616  0.1343
 8542SOL    HW137262   2.158   3.645   3.640 -1.0470  0.5988 -0.1540
 8542SOL    HW237263   2.106   3.726   3.526  0.6805 -0.9293 -0.5891
 8543SOL     OW37264   4.027   0.575   9.284 -0.1081 -0.0660 -0.2411
 8543SOL    HW137265   4.007   0.510   9.352  1.0755  0.4067  0.5613
 8543SOL    HW237266   3.966   0.544   9.218  0.8842 -0.2664 -1.0583
 8544SOL     OW37267   1.754   2.975   3.301 -0.3006  0.4482 -0.7892
 8544SOL    HW137268   1.784   2.972   3.210 -0.0389 -1.9631 -0.5995
 8544SOL    HW237269   1.837   2.980   3.350 -1.3080 -0.3427  0.9806
 8545SOL     OW37270   3.988   1.734  11.248 -0.0332  0.0029  0.2653
 8545SOL    HW137271   3.944   1.811  11.212 -1.7608 -1.1676 -0.1210
 8545SOL    HW237272   4.081   1.749  11.231  0.3859 -2.7456  0.2011
 8546SOL     OW37273   1.756   3.766   4.233  0.0862 -0.4926  0.6019
 8546SOL    HW137274   1.704   3.737   4.158 -1.5455  1.7712  0.8484
 8546SOL    HW237275   1.769   3.858   4.209 -1.1169 -0.5739 -0.3644
 8547SOL     OW37276   1.629   1.237   6.971 -0.0989 -0.1760 -0.0640
 8547SOL    HW137277   1.611   1.187   6.890 -0.8034  1.7246 -1.0741
 8547SOL    HW237278   1.543   1.236   7.013 -0.2388  1.7186 -0.3014
 8548SOL     OW37279   2.746   0.339  14.060 -0.0409 -0.4831 -0.5949
 8548SOL    HW137280   2.743   0.244  14.046  1.2883 -0.9679  2.5282
 8548SOL    HW237281   2.769   0.335  14.153 -0.2224 -0.3357 -0.5446
 8549SOL     OW37282   4.425   2.689  13.163  0.3795 -0.4933  0.1983
 8549SOL    HW137283   4.451   2.672  13.254 -2.9139 -0.7547  1.0752
 8549SOL    HW237284   4.375   2.770  13.178  0.2181 -0.6053  0.2619
 8550SOL     OW37285   2.374   2.797   7.893  0.2099 -0.0091  0.2730
 8550SOL    HW137286   2.311   2.755   7.952 -0.5915  2.4949  1.2435
 8550SOL    HW237287   2.350   2.888   7.912 -0.3675  0.0639 -0.7943
 8551SOL     OW37288   3.221   3.108   3.892  0.0565  0.2183 -0.0643
 8551SOL    HW137289   3.279   3.159   3.949 -2.6365  0.3583  2.5201
 8551SOL    HW237290   3.224   3.027   3.942  3.4854 -0.0399 -0.6989
 8552SOL     OW37291   3.764   3.951   0.521 -0.3026  0.1837 -0.0594
 8552SOL    HW137292   3.680   3.908   0.532  0.5434 -1.3594  0.3892
 8552SOL    HW237293   3.829   3.881   0.517 -1.6520 -1.1823  2.0352
 8553SOL     OW37294   3.997   0.335   7.019  0.3525 -0.0351 -0.4397
 8553SOL    HW137295   3.999   0.361   6.927 -0.9725 -0.1621 -0.5041
 8553SOL    HW237296   4.076   0.282   7.022  0.5369  0.3629  1.8769
 8554SOL     OW37297   0.242   0.693  13.433 -0.0965  0.3992  0.5985
 8554SOL    HW137298   0.265   0.784  13.415  2.0805  0.2690  2.6186
 8554SOL    HW237299   0.275   0.654  13.353 -1.0860  0.4638  0.1573
 8555SOL     OW37300   3.846   4.399  10.664 -1.0639  0.0618 -0.2295
 8555SOL    HW137301   3.809   4.459  10.600  0.4480 -0.0390 -1.1913
 8555SOL    HW237302   3.933   4.432  10.685 -1.5078  2.3286 -1.9224
 8556SOL     OW37303   0.844   1.419  15.024  0.5581 -0.3248  0.0695
 8556SOL    HW137304   0.800   1.342  15.060  0.0898  0.8300  1.9773
 8556SOL    HW237305   0.854   1.391  14.933 -1.4977 -1.1261  0.0739
 8557SOL     OW37306   1.477   3.478   4.956 -1.0076 -0.6152 -0.5348
 8557SOL    HW137307   1.546   3.417   4.980 -1.0869 -0.3170  0.4742
 8557SOL    HW237308   1.483   3.471   4.861 -1.6010 -0.5333 -0.5817
 8558SOL     OW37309   1.034   1.629   4.705 -0.2701 -0.0903  0.0130
 8558SOL    HW137310   1.005   1.614   4.615 -0.4338  0.4247 -0.0182
 8558SOL    HW237311   0.979   1.702   4.732 -1.0931 -1.1000  1.0653
 8559SOL     OW37312   1.226   3.012   6.654 -0.1734  0.0286 -0.1362
 8559SOL    HW137313   1.263   2.983   6.737  3.8185  1.9076 -1.2679
 8559SOL    HW237314   1.158   3.071   6.689  2.3822  1.8196  1.7927
 8560SOL     OW37315   1.144   0.318   0.761 -0.1783 -0.6084  0.0352
 8560SOL    HW137316   1.199   0.395   0.746  0.5186 -1.1838 -0.3781
 8560SOL    HW237317   1.101   0.344   0.843  1.1888  1.0719  0.2083
 8561SOL     OW37318   3.546   3.778   0.462 -0.0910 -0.4700 -0.1624
 8561SOL    HW137319   3.478   3.842   0.483 -0.1635 -0.3788 -0.7005
 8561SOL    HW237320   3.493   3.709   0.424  0.4370 -0.2406 -1.3043
 8562SOL     OW37321   3.516   2.393  13.515 -0.1122 -0.2130  0.4346
 8562SOL    HW137322   3.611   2.396  13.523  0.0660 -1.5434 -1.0645
 8562SOL    HW237323   3.519   2.325  13.447 -1.2551  1.7666 -1.6078
 8563SOL     OW37324   2.857   1.161   7.955  0.8344 -0.8011 -0.4795
 8563SOL    HW137325   2.797   1.129   7.889  1.2805 -1.6647 -0.4757
 8563SOL    HW237326   2.931   1.189   7.902 -0.3604  0.9339 -1.2177
 8564SOL     OW37327   0.776   3.545   1.433  0.0496  0.0950 -0.0830
 8564SOL    HW137328   0.868   3.555   1.406 -0.1928 -1.7725 -1.5826
 8564SOL    HW237329   0.782   3.461   1.478 -2.0761  0.6011  1.1355
 8565SOL     OW37330   4.390   3.710   2.400 -0.0353 -0.1696  0.0303
 8565SOL    HW137331   4.326   3.742   2.465 -0.1855  0.0324 -0.2178
 8565SOL    HW237332   4.337   3.647   2.352 -1.3336  1.8086 -1.1197
 8566SOL     OW37333   3.760   4.098  16.900 -0.7555  0.2477  0.3386
 8566SOL    HW137334   3.755   4.060  16.813 -1.0906  1.1078 -0.0181
 8566SOL    HW237335   3.831   4.161  16.889  1.1106 -1.6384  1.7031
 8567SOL     OW37336   0.383   1.925  13.073 -0.2393 -0.0787  0.1752
 8567SOL    HW137337   0.306   1.931  13.129  1.5562  1.5129  2.4798
 8567SOL    HW237338   0.422   2.010  13.090 -1.4879  0.5197  0.0425
 8568SOL     OW37339   0.919   0.036   1.269 -0.6547 -0.1466 -0.0278
 8568SOL    HW137340   0.969   0.034   1.352  0.8895 -0.7021 -0.9669
 8568SOL    HW237341   0.917   4.685   1.256  0.6749 -0.0784 -0.8110
 8569SOL     OW37342   3.276   0.183   9.213  0.3822 -0.3058 -0.1173
 8569SOL    HW137343   3.207   0.195   9.278  0.2215 -0.5646 -0.2387
 8569SOL    HW237344   3.221   0.213   9.141  1.4556  0.5055 -0.5931
 8570SOL     OW37345   4.305   1.604   1.420 -0.1656 -0.5582 -0.4654
 8570SOL    HW137346   4.315   1.696   1.445  0.0046 -1.3406  2.3670
 8570SOL    HW237347   4.225   1.603   1.367 -1.3339 -1.2925  1.3341
 8571SOL     OW37348   4.705   1.884   8.635 -0.6966  0.4610 -0.5317
 8571SOL    HW137349   0.006   1.816   8.584 -1.6477 -0.6257  0.0927
 8571SOL    HW237350   4.705   1.959   8.575 -2.2149  2.3503  1.8552
 8572SOL     OW37351   0.614   1.876   5.778  0.4192 -0.2441  0.3545
 8572SOL    HW137352   0.655   1.951   5.821 -0.2593 -0.7454  1.8982
 8572SOL    HW237353   0.556   1.921   5.717  0.6672 -0.4533 -0.0373
 8573SOL     OW37354   1.285   2.497   2.041 -0.2152 -0.2841  0.3994
 8573SOL    HW137355   1.207   2.466   2.087  0.4691  0.1469  1.8746
 8573SOL    HW237356   1.279   2.480   1.947 -0.2786 -1.8524  0.6842
 8574SOL     OW37357   1.827   3.968   5.690 -0.1364  0.0232 -0.2622
 8574SOL    HW137358   1.902   4.023   5.711 -0.6014  1.0125 -1.2375
 8574SOL    HW237359   1.829   3.915   5.770 -1.0211  0.3266 -0.0461
 8575SOL     OW37360   2.303   3.144  12.509  0.0366 -0.0137 -0.3809
 8575SOL    HW137361   2.275   3.148  12.417  1.1006  0.6519 -0.6746
 8575SOL    HW237362   2.365   3.072  12.511 -0.6852 -0.6759 -1.5869
 8576SOL     OW37363   1.161   2.253   5.541 -0.1226 -0.2696  0.2616
 8576SOL    HW137364   1.105   2.233   5.467  0.1561 -4.1640  1.1210
 8576SOL    HW237365   1.231   2.189   5.552 -1.6377 -2.1788 -1.4278
 8577SOL     OW37366   0.492   1.987   9.668  0.1894  0.0004  0.3166
 8577SOL    HW137367   0.459   1.997   9.758  0.1971  0.3027  0.2864
 8577SOL    HW237368   0.531   1.901   9.683  0.0050  0.1992  1.9210
 8578SOL     OW37369   0.500   2.429   1.329 -0.6161  0.3994 -0.3226
 8578SOL    HW137370   0.560   2.434   1.403 -1.1413 -0.2445  0.1414
 8578SOL    HW237371   0.529   2.509   1.285 -1.0254  0.3695 -0.6401
 8579SOL     OW37372   2.486   3.606   9.977  0.2745  0.3413 -0.0927
 8579SOL    HW137373   2.461   3.517  10.002 -3.8524  1.7039  0.6713
 8579SOL    HW237374   2.432   3.615   9.898 -0.6655  3.7046  0.9596
 8580SOL     OW37375   4.048   3.917   2.999  0.6759 -0.7191 -0.3692
 8580SOL    HW137376   4.038   3.938   3.092  0.4428 -0.8682 -0.3626
 8580SOL    HW237377   4.010   3.994   2.957 -1.2845 -0.8049  1.2777
 8581SOL     OW37378   2.071   4.095   5.732  0.6670 -0.0972 -0.7961
 8581SOL    HW137379   2.036   4.141   5.809 -0.1988  1.7100 -2.2906
 8581SOL    HW237380   2.140   4.048   5.779  0.6301  1.2114  0.5774
 8582SOL     OW37381   2.863   3.457  10.257  0.0563  0.2258 -0.5466
 8582SOL    HW137382   2.832   3.409  10.334 -1.5122  0.4106 -1.0621
 8582SOL    HW237383   2.937   3.406  10.226 -0.1614  1.8927 -3.8448
 8583SOL     OW37384   1.148   1.603   8.641 -0.1243  0.2809  0.2154
 8583SOL    HW137385   1.198   1.577   8.718  0.5627  1.4921  0.1689
 8583SOL    HW237386   1.222   1.629   8.586 -1.4423  1.9224 -0.7971
 8584SOL     OW37387   4.036   1.493   1.616 -0.3308 -0.0895  0.5388
 8584SOL    HW137388   4.011   1.401   1.622 -0.5434 -0.1346 -0.9959
 8584SOL    HW237389   3.970   1.522   1.553  0.4051  1.4395  0.4769
 8585SOL     OW37390   0.458   1.602  17.374 -0.3492  0.2629 -0.1975
 8585SOL    HW137391   0.492   1.627  17.460 -2.2094  1.3426  0.2257
 8585SOL    HW237392   0.377   1.557  17.398 -0.3666 -0.5359 -1.7110
 8586SOL     OW37393   2.602   4.025   5.239  0.0827  0.3602  0.3204
 8586SOL    HW137394   2.558   4.110   5.233  2.4697  1.5668 -0.2046
 8586SOL    HW237395   2.666   4.035   5.309 -0.2890  1.9752  0.4339
 8587SOL     OW37396   1.408   1.808   9.015  0.3619  0.2049  0.5372
 8587SOL    HW137397   1.447   1.752   9.082  0.4856 -0.9109 -0.4600
 8587SOL    HW237398   1.346   1.750   8.971 -0.8869  2.3017 -0.4651
 8588SOL     OW37399   3.808   3.864  13.286  0.0555 -0.4644  0.2576
 8588SOL    HW137400   3.892   3.849  13.243  0.5098  3.3937 -0.2734
 8588SOL    HW237401   3.790   3.958  13.280  1.5677 -0.1474  0.6840
 8589SOL     OW37402   4.137   3.742   1.371 -0.4080  0.4267 -0.6156
 8589SOL    HW137403   4.227   3.775   1.369  0.1114 -0.9043  2.1761
 8589SOL    HW237404   4.094   3.826   1.358  3.5596  2.0922 -2.9379
 8590SOL     OW37405   4.133   3.467   8.398 -0.5875 -0.7742 -0.1657
 8590SOL    HW137406   4.074   3.439   8.468 -0.9191 -0.4081 -0.2977
 8590SOL    HW237407   4.132   3.562   8.405  0.7253 -0.8313  0.8182
 8591SOL     OW37408   3.895   0.952   2.873 -0.3459 -0.6849  0.1486
 8591SOL    HW137409   3.981   0.946   2.914 -0.0240 -1.6198 -0.6652
 8591SOL    HW237410   3.851   0.895   2.937  0.8626  0.6482  2.1599
 8592SOL     OW37411   1.735   0.021   0.455 -0.3047  0.1392 -0.2864
 8592SOL    HW137412   1.790   4.704   0.506 -0.5862  2.6591  3.0086
 8592SOL    HW237413   1.773   0.017   0.368 -2.9126  2.1587 -1.5008
 8593SOL     OW37414   0.085   4.693   7.739 -0.7002 -0.2313 -0.7836
 8593SOL    HW137415   0.109   4.626   7.804  0.1070 -0.7765 -1.6409
 8593SOL    HW237416   0.174   4.706   7.705  0.3624 -1.4978  1.5406
 8594SOL     OW37417   2.272   4.202   6.762  0.0749  0.2649  0.1220
 8594SOL    HW137418   2.273   4.249   6.679 -2.2306  0.3758  0.1417
 8594SOL    HW237419   2.224   4.127   6.727  1.7025 -1.4668  1.6245
 8595SOL     OW37420   2.229   4.267   6.192 -0.0656  0.0252 -0.5121
 8595SOL    HW137421   2.145   4.250   6.236 -0.3043  1.1452 -0.5511
 8595SOL    HW237422   2.198   4.336   6.135  0.3127  1.7247  1.3417
 8596SOL     OW37423   1.525   0.834   7.100 -0.0412  0.4266  0.4763
 8596SOL    HW137424   1.438   0.872   7.087 -0.6276 -0.6040  1.2955
 8596SOL    HW237425   1.554   0.884   7.176  0.5115  1.1707 -0.2331
 8597SOL     OW37426   3.170   4.581   3.533  0.3370 -0.2557 -0.2183
 8597SOL    HW137427   3.192   4.505   3.480  0.6921 -0.0791 -0.3234
 8597SOL    HW237428   3.126   4.531   3.602 -0.4168  0.1325 -0.4118
 8598SOL     OW37429   1.383   2.700   6.865 -0.1143 -0.0372  0.9156
 8598SOL    HW137430   1.295   2.680   6.895 -0.2939  4.6162  3.4855
 8598SOL    HW237431   1.430   2.630   6.910  0.4104  0.0972  0.5716
 8599SOL     OW37432   3.789   4.582   1.983  0.2390  0.1752 -0.0338
 8599SOL    HW137433   3.852   4.599   1.912  0.8079 -0.8603  0.2104
 8599SOL    HW237434   3.853   4.586   2.054 -1.9607 -0.8038  2.0117
 8600SOL     OW37435   3.881   0.510   8.027  0.3871 -0.1792 -1.0109
 8600SOL    HW137436   3.789   0.505   8.002  0.2695  0.2892 -0.6806
 8600SOL    HW237437   3.917   0.557   7.953 -2.0990  2.9925 -0.1909
 8601SOL     OW37438   3.883   1.182   4.735 -0.0657  0.0936  0.2972
 8601SOL    HW137439   3.886   1.106   4.793 -0.1752  0.2084  0.4550
 8601SOL    HW237440   3.819   1.236   4.783 -1.4687 -0.6198 -0.7599
 8602SOL     OW37441   1.469   3.004   8.289  0.2298  0.0999  0.3579
 8602SOL    HW137442   1.486   3.089   8.249  1.9629 -0.8114 -0.8685
 8602SOL    HW237443   1.378   3.007   8.319  0.9718  0.8355  2.4831
 8603SOL     OW37444   2.374   2.904   0.594 -0.1328 -0.1092 -0.0247
 8603SOL    HW137445   2.397   2.967   0.525 -0.5836  1.5180  1.3181
 8603SOL    HW237446   2.376   2.959   0.672 -1.3867  0.4546 -0.3977
 8604SOL     OW37447   1.672   4.338   5.921 -0.0779  0.8227 -0.3155
 8604SOL    HW137448   1.735   4.367   5.987  0.4867  0.8561 -0.8727
 8604SOL    HW237449   1.605   4.399   5.952  0.2416 -0.1371  2.2944
 8605SOL     OW37450   2.810   2.220   5.965  0.5234 -0.2273  0.2403
 8605SOL    HW137451   2.736   2.192   5.911 -0.0952  0.5453  0.6805
 8605SOL    HW237452   2.880   2.194   5.905 -0.0499 -0.4732 -0.3176
 8606SOL     OW37453   1.579   4.471  17.317  0.0071 -0.8845 -0.4219
 8606SOL    HW137454   1.508   4.463  17.382 -0.2150  1.6950 -0.3724
 8606SOL    HW237455   1.554   4.421  17.239 -1.8988 -1.2391  0.4070
 8607SOL     OW37456   1.259   0.789   3.062  0.6680  0.3930 -0.0827
 8607SOL    HW137457   1.247   0.844   2.985  0.6072  2.0923  1.1577
 8607SOL    HW237458   1.318   0.726   3.021 -1.4291 -1.5565 -0.1492
 8608SOL     OW37459   0.981   0.369   4.118  0.0595  0.2226 -0.0536
 8608SOL    HW137460   0.898   0.354   4.073  0.8053  0.2926 -1.4597
 8608SOL    HW237461   0.961   0.452   4.161 -3.3645 -0.6733  0.1145
 8609SOL     OW37462   2.050   3.156   4.535  0.5565  0.5747  0.3083
 8609SOL    HW137463   2.100   3.230   4.502 -0.2768  0.2610 -1.6537
 8609SOL    HW237464   2.120   3.104   4.575  0.8496  0.3349 -0.5234
 8610SOL     OW37465   3.073   3.940  17.176  0.4092 -0.0172  0.1550
 8610SOL    HW137466   3.004   4.006  17.182 -2.0821 -2.4161 -1.6656
 8610SOL    HW237467   3.047   3.873  17.240  0.8858  1.2268  1.6468
 8611SOL     OW37468   3.593   0.485   1.303  0.0912 -0.4923 -0.5329
 8611SOL    HW137469   3.551   0.457   1.385  2.4596  1.6163  1.4043
 8611SOL    HW237470   3.595   0.579   1.319  2.7404 -0.5579 -0.4355
 8612SOL     OW37471   4.253   2.912  13.491 -0.5103  0.3797  0.1671
 8612SOL    HW137472   4.289   2.860  13.419 -0.0378 -0.0769  0.7291
 8612SOL    HW237473   4.313   2.886  13.561  0.9920  0.8253 -0.9708
 8613SOL     OW37474   1.353   2.656  11.127 -0.5368 -0.1790 -0.2305
 8613SOL    HW137475   1.303   2.642  11.046  1.7300 -1.5810 -1.4195
 8613SOL    HW237476   1.434   2.699  11.097  0.7976 -3.3606 -1.2370
 8614SOL     OW37477   1.200   1.604  12.192 -0.1189  0.1264 -0.2127
 8614SOL    HW137478   1.225   1.565  12.276 -0.5916  1.0692  0.3601
 8614SOL    HW237479   1.280   1.585  12.143 -0.9163 -1.0790 -1.0082
 8615SOL     OW37480   2.796   0.777   4.243 -0.6605 -0.4741 -0.6825
 8615SOL    HW137481   2.781   0.773   4.149  0.9663 -1.7391 -0.8978
 8615SOL    HW237482   2.762   0.863   4.269 -0.9754 -0.9244  0.4170
 8616SOL     OW37483   0.438   4.206  10.089  0.6877 -0.3132  0.4672
 8616SOL    HW137484   0.369   4.250  10.041  1.4230  0.5170  0.1685
 8616SOL    HW237485   0.467   4.146  10.020 -0.1514  0.2386 -0.3591
 8617SOL     OW37486   3.165   2.283   3.307 -0.2601  0.1281 -0.2827
 8617SOL    HW137487   3.168   2.299   3.402  1.0063  0.4338 -0.3790
 8617SOL    HW237488   3.186   2.373   3.283 -0.8945  0.2897 -0.2481
 8618SOL     OW37489   1.482   0.637   2.212 -0.4983 -0.3696  0.3196
 8618SOL    HW137490   1.563   0.614   2.257 -0.5733  1.4225  1.3940
 8618SOL    HW237491   1.492   0.731   2.196 -0.3714 -0.4884 -0.2730
 8619SOL     OW37492   2.108   1.038   1.020 -0.1974 -0.2121 -0.1434
 8619SOL    HW137493   2.085   0.945   1.019  0.7477 -0.4895  3.0290
 8619SOL    HW237494   2.084   1.052   0.928  0.9141 -0.0770 -0.4103
 8620SOL     OW37495   0.170   1.681  16.434  0.0262 -0.2713 -0.2819
 8620SOL    HW137496   0.096   1.715  16.384 -1.1788 -2.4062  0.0465
 8620SOL    HW237497   0.244   1.705  16.378  0.7378 -0.4033  0.6040
 8621SOL     OW37498   4.229   1.008  15.654  0.0810  0.3567 -0.6167
 8621SOL    HW137499   4.271   1.043  15.575  1.9377  2.3916  1.2881
 8621SOL    HW237500   4.161   0.952  15.615  1.2889 -1.3438 -0.2584
 8622SOL     OW37501   1.725   3.162  11.924 -0.2423  0.3555 -0.0331
 8622SOL    HW137502   1.736   3.086  11.867  0.9843  0.7857 -0.3652
 8622SOL    HW237503   1.632   3.173  11.902 -0.9959  0.4706  3.1706
 8623SOL     OW37504   4.650   3.857   2.024 -0.5420 -0.3227 -0.9375
 8623SOL    HW137505   4.618   3.867   2.113 -0.4687  0.7957 -1.0419
 8623SOL    HW237506   4.569   3.856   1.972 -0.6383  2.1241 -0.8376
 8624SOL     OW37507   1.276   3.507   3.555  0.1047  0.1737 -0.0212
 8624SOL    HW137508   1.236   3.520   3.641  3.6241 -0.6554  1.7464
 8624SOL    HW237509   1.351   3.466   3.599  0.2761  1.0048  0.4549
 8625SOL     OW37510   2.058   2.462   3.875 -0.2599  0.3628  0.3761
 8625SOL    HW137511   2.059   2.369   3.856 -0.9331  0.5059 -0.3226
 8625SOL    HW237512   1.982   2.497   3.830 -0.6221 -0.5477  0.3038
 8626SOL     OW37513   2.866   0.519   3.474 -0.5272  0.6725 -0.1377
 8626SOL    HW137514   2.861   0.609   3.508  1.9425 -0.1485  2.3505
 8626SOL    HW237515   2.934   0.525   3.406 -0.7299 -1.2934 -0.5018
 8627SOL     OW37516   3.298   0.817   5.666 -0.0668  0.4382  0.0677
 8627SOL    HW137517   3.298   0.892   5.725  1.3427  0.9946 -0.6371
 8627SOL    HW237518   3.382   0.778   5.688  0.9299  1.5655 -1.7373
 8628SOL     OW37519   3.132   4.438  12.354 -0.7161  0.2795  0.5381
 8628SOL    HW137520   3.076   4.376  12.306 -1.4033  1.5725 -0.3128
 8628SOL    HW237521   3.214   4.416  12.311 -1.7924  0.4390 -1.6007
 8629SOL     OW37522   0.402   2.398   7.421  0.1401  0.0634  0.0840
 8629SOL    HW137523   0.410   2.307   7.392 -0.4387  0.0469 -0.0290
 8629SOL    HW237524   0.409   2.389   7.516  0.7684 -0.4845 -0.0100
 8630SOL     OW37525   3.983   1.842   2.240 -0.1572 -0.8058 -0.1370
 8630SOL    HW137526   3.891   1.830   2.263 -0.2954  0.1728 -0.1858
 8630SOL    HW237527   3.978   1.937   2.227 -0.9740 -0.5054  2.2781
 8631SOL     OW37528   1.049   1.628  16.241  0.0333  0.3032 -0.3845
 8631SOL    HW137529   0.985   1.681  16.194  2.9261  0.1231 -4.5431
 8631SOL    HW237530   1.071   1.692  16.308  1.0144  0.3443 -0.7444
 8632SOL     OW37531   3.712   2.692   3.233 -0.0349 -0.4463  0.1942
 8632SOL    HW137532   3.716   2.609   3.281  1.4397 -0.8091 -0.5478
 8632SOL    HW237533   3.742   2.758   3.295 -0.3570  1.8978 -2.1042
 8633SOL     OW37534   2.816   0.590  13.413 -0.3139  0.6621 -0.1006
 8633SOL    HW137535   2.790   0.651  13.345  2.3296  1.2722 -0.5707
 8633SOL    HW237536   2.749   0.524  13.394 -0.3668  0.2563  1.5343
 8634SOL     OW37537   2.801   0.336   6.808  0.4749  0.1606  0.5781
 8634SOL    HW137538   2.786   0.367   6.897 -0.2677 -0.9693  0.8535
 8634SOL    HW237539   2.880   0.284   6.821  0.3311  0.7574  3.8981
 8635SOL     OW37540   0.639   0.746   9.937 -0.2564 -0.0942 -0.0546
 8635SOL    HW137541   0.685   0.664   9.920  0.0055 -0.0645  0.5367
 8635SOL    HW237542   0.704   0.792   9.990 -1.1249  0.9050  0.1603
 8636SOL     OW37543   3.029   0.551  12.695  0.2186 -0.4154  0.3371
 8636SOL    HW137544   3.028   0.626  12.754 -0.8489  0.7583 -1.1777
 8636SOL    HW237545   3.123   0.533  12.700  0.0644 -0.8457  1.7265
 8637SOL     OW37546   1.034   1.785   6.639 -0.0678 -0.6067 -0.2624
 8637SOL    HW137547   1.065   1.697   6.614  0.9563 -0.8435  1.8088
 8637SOL    HW237548   0.983   1.810   6.562  3.1001 -0.6412 -2.3983
 8638SOL     OW37549   3.451   3.853   6.231 -0.7328 -0.2374  0.6171
 8638SOL    HW137550   3.373   3.813   6.271 -0.0413 -1.7798  0.4215
 8638SOL    HW237551   3.453   3.819   6.142  0.9538  3.4463 -0.7435
 8639SOL     OW37552   1.528   2.785   4.989  0.2941  0.0761 -0.0537
 8639SOL    HW137553   1.610   2.819   4.953 -0.3061  1.5726  0.0094
 8639SOL    HW237554   1.462   2.839   4.945  0.2953  0.2712  0.1838
 8640SOL     OW37555   2.908   1.231   3.585  0.2052 -0.2099  0.1191
 8640SOL    HW137556   2.868   1.217   3.671 -1.7452  1.6932 -0.4884
 8640SOL    HW237557   2.859   1.175   3.525  1.4980 -1.0857 -0.1267
 8641SOL     OW37558   3.766   4.003   8.274 -0.0575  0.4329  0.2696
 8641SOL    HW137559   3.718   4.055   8.338 -2.9633 -1.0406 -0.7407
 8641SOL    HW237560   3.774   4.068   8.205  0.8504  0.3335  0.2814
 8642SOL     OW37561   3.856   1.785  16.776 -0.0865  0.1562 -0.2581
 8642SOL    HW137562   3.829   1.747  16.860 -1.7792  2.1023  0.0741
 8642SOL    HW237563   3.918   1.716  16.751  0.1896 -0.0802  1.0720
 8643SOL     OW37564   1.055   4.230   3.972 -0.1140  0.2438 -0.1838
 8643SOL    HW137565   1.001   4.155   3.948 -1.5373  1.0535  0.4533
 8643SOL    HW237566   1.041   4.288   3.897 -2.2288 -1.2862 -0.9643
 8644SOL     OW37567   4.080   1.310  11.227 -0.7625 -0.5342 -0.2938
 8644SOL    HW137568   4.054   1.372  11.295 -1.7821  0.6160 -1.7207
 8644SOL    HW237569   4.072   1.369  11.152 -0.4107 -0.2622 -0.1163
 8645SOL     OW37570   0.219   4.521   8.487  0.1831 -0.2427  0.9787
 8645SOL    HW137571   0.302   4.477   8.467  2.0405  2.7288  2.0896
 8645SOL    HW237572   0.237   4.573   8.565  0.2356  0.9329  0.1794
 8646SOL     OW37573   0.562   2.566   6.227 -0.1050  0.3253  0.9670
 8646SOL    HW137574   0.552   2.532   6.316  0.1801 -0.6681  0.6208
 8646SOL    HW237575   0.547   2.488   6.174  2.1104 -0.0222  0.8399
 8647SOL     OW37576   3.702   0.665  17.677 -0.5049  0.3377  0.4944
 8647SOL    HW137577   3.722   0.755  17.651 -1.0175 -0.1481 -1.5668
 8647SOL    HW237578   3.786   0.625  17.654 -0.6221  0.9773 -1.0479
 8648SOL     OW37579   3.837   1.842   5.038  0.1340 -0.2291  0.3332
 8648SOL    HW137580   3.765   1.904   5.042 -0.0908 -0.4667  0.0000
 8648SOL    HW237581   3.907   1.907   5.033 -0.3303  0.1256 -1.4197
 8649SOL     OW37582   2.248   2.735   6.287  0.2627 -0.3209 -0.0712
 8649SOL    HW137583   2.172   2.777   6.327  1.6235 -0.6449  2.8612
 8649SOL    HW237584   2.330   2.772   6.322 -0.4778  0.8977  0.3808
 8650SOL     OW37585   2.243   2.350   2.910  0.4991  0.6736 -0.2148
 8650SOL    HW137586   2.242   2.303   2.993 -0.2985  0.9735 -0.0548
 8650SOL    HW237587   2.256   2.279   2.847 -1.3270 -1.2419  1.5991
 8651SOL     OW37588   3.591   1.716   2.851 -0.3009 -0.4311  0.2842
 8651SOL    HW137589   3.665   1.656   2.849 -0.3223 -0.4921  1.5923
 8651SOL    HW237590   3.554   1.699   2.937 -1.4762 -0.6438 -0.2600
 8652SOL     OW37591   1.022   2.947   5.242 -0.5558  0.5043  0.3916
 8652SOL    HW137592   0.956   2.973   5.177  1.5031  0.0124 -1.8748
 8652SOL    HW237593   1.097   2.999   5.213 -0.5301  0.4271  0.3235
 8653SOL     OW37594   1.444   0.249   2.038  0.4128  0.0303  0.0333
 8653SOL    HW137595   1.512   0.316   2.031 -0.5640  0.9711 -0.4823
 8653SOL    HW237596   1.379   0.285   2.098  2.7830  0.5067  2.3268
 8654SOL     OW37597   1.340   3.191   5.463  0.2672  0.0110 -0.2547
 8654SOL    HW137598   1.352   3.120   5.526  1.0451 -0.2069 -0.6454
 8654SOL    HW237599   1.396   3.254   5.509 -1.1442  0.3723  0.9782
 8655SOL     OW37600   0.995   2.632   4.595  0.0869 -0.3663  0.2964
 8655SOL    HW137601   0.974   2.594   4.509 -0.1571  0.4555 -0.0160
 8655SOL    HW237602   1.039   2.559   4.638 -0.2229 -1.3424 -1.0290
 8656SOL     OW37603   1.610   4.461   4.793 -0.0958  0.7490 -0.6365
 8656SOL    HW137604   1.537   4.402   4.813  0.3767  1.1044  2.1970
 8656SOL    HW237605   1.590   4.539   4.844 -3.0296 -1.5258  1.6883
 8657SOL     OW37606   0.499   3.078   4.801 -0.3715  0.2224  0.1151
 8657SOL    HW137607   0.447   3.131   4.740  0.4110  0.5017 -0.2969
 8657SOL    HW237608   0.576   3.068   4.746 -0.5361 -0.6111  0.0353
 8658SOL     OW37609   3.013   4.649   6.554  0.6347 -0.6892  0.0176
 8658SOL    HW137610   3.037   4.698   6.475 -0.5016 -1.2895 -0.7063
 8658SOL    HW237611   3.028   4.562   6.516  0.0278 -1.2532  1.0541
 8659SOL     OW37612   2.119   1.148   4.333  0.5088 -0.6857 -0.4616
 8659SOL    HW137613   2.079   1.230   4.363 -0.7133 -1.2702 -0.5075
 8659SOL    HW237614   2.121   1.167   4.240  0.6106  1.8465  0.0408
 8660SOL     OW37615   2.817   2.757  14.806  0.2546 -0.1318 -0.1571
 8660SOL    HW137616   2.873   2.733  14.880  0.5129 -2.8143 -1.2000
 8660SOL    HW237617   2.771   2.828  14.850 -0.2994 -2.0887  2.4251
 8661SOL     OW37618   2.994   3.377  17.705  0.5422 -0.0940  0.5949
 8661SOL    HW137619   2.992   3.312   0.005  0.6173 -2.3913 -1.5545
 8661SOL    HW237620   3.005   3.458  17.755 -1.0959  1.7086 -1.9439
 8662SOL     OW37621   3.810   0.213   6.590 -0.1644 -0.0421  0.3331
 8662SOL    HW137622   3.739   0.270   6.562 -0.6912 -0.8618  0.0129
 8662SOL    HW237623   3.838   0.184   6.504  1.0041 -0.3428  0.8159
 8663SOL     OW37624   0.747   0.237   6.613  0.4399 -0.1728  0.0754
 8663SOL    HW137625   0.679   0.212   6.549  0.0747 -0.6650  0.6504
 8663SOL    HW237626   0.827   0.231   6.561  0.4967  2.7665 -0.1784
 8664SOL     OW37627   3.995   0.939   1.912 -0.7222 -0.1395  0.1143
 8664SOL    HW137628   4.024   0.853   1.882 -1.1307 -0.4480  0.6094
 8664SOL    HW237629   3.950   0.907   1.990 -2.0509  1.8310  0.1576
 8665SOL     OW37630   4.173   0.338   9.642 -0.2777 -0.1459 -0.4585
 8665SOL    HW137631   4.254   0.370   9.680 -1.0836  0.5077  0.6976
 8665SOL    HW237632   4.140   0.422   9.609 -2.8674 -0.3688  1.5883
 8666SOL     OW37633   3.903   2.640   3.018  0.6433 -0.5584 -0.8331
 8666SOL    HW137634   3.978   2.640   3.078 -0.4564 -0.5735  0.5581
 8666SOL    HW237635   3.836   2.665   3.083  1.3694 -4.1888  1.2826
 8667SOL     OW37636   2.956   0.524   4.473 -0.6919  0.6486 -0.4836
 8667SOL    HW137637   2.861   0.510   4.473 -0.5848 -0.0800 -0.6893
 8667SOL    HW237638   2.977   0.502   4.383 -1.0795  0.6200 -0.5685
 8668SOL     OW37639   4.240   4.494   8.700 -0.0774 -0.1879 -0.0215
 8668SOL    HW137640   4.295   4.562   8.662  0.7024 -0.6648  0.2442
 8668SOL    HW237641   4.299   4.458   8.767 -1.4801 -0.4030  1.1063
 8669SOL     OW37642   3.014   2.323   1.814  0.2766  0.0022  0.1328
 8669SOL    HW137643   2.987   2.365   1.895 -1.2580 -1.3322  0.3194
 8669SOL    HW237644   3.090   2.378   1.795  0.3314 -0.6037 -1.4056
 8670SOL     OW37645   4.097   2.276   6.308  0.2794 -0.3058  0.0777
 8670SOL    HW137646   4.039   2.346   6.337  0.2696 -0.0836 -0.4952
 8670SOL    HW237647   4.039   2.218   6.259 -0.2067  0.9810 -0.8603
 8671SOL     OW37648   4.017   1.461   4.214  0.1467  0.3589 -0.3287
 8671SOL    HW137649   3.970   1.380   4.192 -0.3847  0.0329  2.0444
 8671SOL    HW237650   3.949   1.527   4.217 -1.2499 -1.0626 -0.7981
 8672SOL     OW37651   3.064   2.477   2.697  0.4132 -0.1060 -0.0170
 8672SOL    HW137652   3.120   2.429   2.758  0.8121 -1.5057 -1.4822
 8672SOL    HW237653   3.075   2.570   2.714 -1.1582 -0.3036  2.0901
 8673SOL     OW37654   3.467   1.999  12.341  0.6856 -0.0276 -0.5664
 8673SOL    HW137655   3.391   1.995  12.283 -0.4877 -0.9003  1.0187
 8673SOL    HW237656   3.462   2.091  12.365  2.9803  0.1682 -0.8327
 8674SOL     OW37657   1.600   2.076   4.867  0.2942  0.3558 -0.0868
 8674SOL    HW137658   1.576   1.985   4.854 -0.2275  0.4357  0.3243
 8674SOL    HW237659   1.644   2.090   4.783 -0.1400  1.0400 -0.2047
 8675SOL     OW37660   0.540   3.979  11.303  0.0565 -0.4646  0.2994
 8675SOL    HW137661   0.518   4.016  11.217  0.2582 -0.5535  0.2084
 8675SOL    HW237662   0.458   3.941  11.335 -1.3443  0.0972 -2.5978
 8676SOL     OW37663   2.414   2.035   3.326  0.2402 -0.3440  0.2291
 8676SOL    HW137664   2.338   1.982   3.351 -0.5844  0.4702 -0.5401
 8676SOL    HW237665   2.423   1.994   3.241 -0.3700 -0.3217  0.1522
 8677SOL     OW37666   1.221   4.338  11.714 -0.0520  0.5188  0.3365
 8677SOL    HW137667   1.289   4.350  11.780  0.1192 -0.4388  0.3422
 8677SOL    HW237668   1.237   4.413  11.657  1.2058 -0.7228 -0.9328
 8678SOL     OW37669   3.704   1.166  16.880 -0.5556  0.4006  0.3904
 8678SOL    HW137670   3.643   1.094  16.898  0.4184 -0.5498 -0.1119
 8678SOL    HW237671   3.754   1.165  16.961  0.4591 -1.4693 -0.2628
 8679SOL     OW37672   4.514   4.467   6.766  0.2552 -0.4690  0.4299
 8679SOL    HW137673   4.586   4.407   6.784  1.4614  0.5301 -1.0537
 8679SOL    HW237674   4.452   4.406   6.725  0.0027  1.3437 -1.8600
 8680SOL     OW37675   3.329   4.175   8.217  0.1275  0.7308  0.4118
 8680SOL    HW137676   3.320   4.270   8.224 -0.4779  0.5886  1.4922
 8680SOL    HW237677   3.237   4.149   8.212  1.3345 -3.2627 -0.7597
 8681SOL     OW37678   2.474   2.728   6.795  0.4836 -0.1972 -0.8143
 8681SOL    HW137679   2.422   2.653   6.764  1.1394 -0.8916 -0.2372
 8681SOL    HW237680   2.552   2.693   6.752 -0.1853 -2.2604 -0.3803
 8682SOL     OW37681   1.338   4.368   6.038  0.1045 -0.0214  0.2219
 8682SOL    HW137682   1.356   4.277   6.061 -0.2169  0.6933  3.3118
 8682SOL    HW237683   1.295   4.361   5.953 -0.4530  0.7947  0.4381
 8683SOL     OW37684   1.472   3.064   2.994  0.0693  0.0939  0.4913
 8683SOL    HW137685   1.423   3.146   2.992 -0.2996 -0.1007  2.2975
 8683SOL    HW237686   1.408   3.007   3.036  0.1355  1.0663  1.9054
 8684SOL     OW37687   0.996   1.756  14.549 -0.3077 -0.5199  0.0271
 8684SOL    HW137688   1.040   1.820  14.604 -1.9205  1.8495 -1.4423
 8684SOL    HW237689   0.990   1.813  14.472  1.9449 -1.0033 -0.4931
 8685SOL     OW37690   1.309   3.984   7.814  0.0031  0.3870 -0.2213
 8685SOL    HW137691   1.321   3.987   7.719 -0.2354  1.5799 -0.2211
 8685SOL    HW237692   1.247   4.056   7.825  0.7245  0.9933 -0.1060
 8686SOL     OW37693   0.218   1.081  16.194  0.3211  0.9766  0.2737
 8686SOL    HW137694   0.269   1.025  16.253  1.0985  0.2747 -1.0585
 8686SOL    HW237695   0.149   1.020  16.167  1.4294  0.0460 -0.4415
 8687SOL     OW37696   0.560   1.041   6.610 -0.1852 -0.1241  0.1198
 8687SOL    HW137697   0.628   1.096   6.650  1.1120 -0.8125 -1.1108
 8687SOL    HW237698   0.606   0.959   6.590  0.2717  0.2766 -0.4731
 8688SOL     OW37699   0.143   0.900   3.759 -0.2742  0.2305  0.2374
 8688SOL    HW137700   0.234   0.910   3.729 -0.0835  1.1370  1.0757
 8688SOL    HW237701   0.105   0.851   3.687  0.7481 -0.2088 -0.0137
 8689SOL     OW37702   3.146   2.126   8.275 -0.4141  0.6679  0.0231
 8689SOL    HW137703   3.189   2.122   8.361 -1.3975  0.5594  0.5009
 8689SOL    HW237704   3.148   2.218   8.248 -0.3242  0.7889  0.4347
 8690SOL     OW37705   1.620   1.280   9.932  1.2736 -0.3396  0.3286
 8690SOL    HW137706   1.644   1.371   9.953 -0.7235  0.3913 -0.5394
 8690SOL    HW237707   1.526   1.293   9.943  1.7323  2.4163  1.0315
 8691SOL     OW37708   2.487   0.132   1.608 -0.6682 -0.2214  0.0341
 8691SOL    HW137709   2.552   0.173   1.666  0.1141 -0.1780 -0.8822
 8691SOL    HW237710   2.465   0.064   1.672 -0.3885 -0.0989  0.2617
 8692SOL     OW37711   3.909   2.116  13.690 -0.5771 -0.5518  0.1089
 8692SOL    HW137712   3.817   2.097  13.670 -0.1675 -0.9404 -1.3529
 8692SOL    HW237713   3.908   2.120  13.786 -4.2375 -1.0746  0.0780
 8693SOL     OW37714   3.548   0.013   9.167  0.4998 -0.5206 -0.2496
 8693SOL    HW137715   3.457   0.033   9.186  0.5045  0.1201 -0.8888
 8693SOL    HW237716   3.528   4.664   9.152  0.6196 -0.6768  0.5526
 8694SOL     OW37717   1.122   1.841   1.299  0.0527  0.4890  0.4872
 8694SOL    HW137718   1.128   1.778   1.228 -1.6478 -0.0845  0.8587
 8694SOL    HW237719   1.204   1.821   1.345  0.8607 -1.6264 -1.9315
 8695SOL     OW37720   0.534   2.173  13.908  0.3328 -0.0688 -0.3722
 8695SOL    HW137721   0.521   2.124  13.989  2.0282 -0.5889 -0.4390
 8695SOL    HW237722   0.451   2.221  13.902 -0.1670 -1.0466 -1.2418
 8696SOL     OW37723   0.695   1.247  11.226 -0.4847 -0.4179  0.3541
 8696SOL    HW137724   0.638   1.306  11.274  1.3889  2.5352 -1.0987
 8696SOL    HW237725   0.765   1.295  11.183 -0.6222 -0.2144  0.3601
 8697SOL     OW37726   2.162   2.146  10.540 -0.1813  0.8056  0.1028
 8697SOL    HW137727   2.089   2.139  10.601  0.2863  1.9595  0.8027
 8697SOL    HW237728   2.212   2.066  10.552  1.3211  1.0357 -4.6262
 8698SOL     OW37729   4.126   0.671  11.676  0.1119 -0.8652  0.8058
 8698SOL    HW137730   4.067   0.733  11.719 -0.9258 -0.1629 -1.6061
 8698SOL    HW237731   4.179   0.631  11.745 -0.5846 -0.1824  1.7233
 8699SOL     OW37732   2.940   2.729  13.701 -0.5739  0.2242  0.0891
 8699SOL    HW137733   2.880   2.672  13.751  0.9801 -1.0712  0.4748
 8699SOL    HW237734   2.997   2.765  13.769  1.0153 -2.4033  0.1699
 8700SOL     OW37735   0.044   0.700   5.890 -0.2080 -0.5006 -0.4261
 8700SOL    HW137736   4.742   0.619   5.915 -1.8096  0.9323  1.3306
 8700SOL    HW237737   0.131   0.702   5.931  0.2084  0.7461 -1.3443
 8701SOL     OW37738   3.988   1.843   7.954  0.4985 -0.0207  0.5300
 8701SOL    HW137739   4.045   1.768   7.936  1.9015  0.8641  1.2296
 8701SOL    HW237740   4.023   1.904   7.888 -0.0454 -1.3540 -0.9806
 8702SOL     OW37741   3.296   1.479  14.300  0.0810  0.3332  0.8134
 8702SOL    HW137742   3.246   1.559  14.313 -0.7212  0.0307 -0.4654
 8702SOL    HW237743   3.257   1.416  14.361 -0.2763 -0.8378 -0.6068
 8703SOL     OW37744   2.013   1.630   3.224 -0.0926  0.5324 -0.1704
 8703SOL    HW137745   1.990   1.537   3.219 -0.9393  0.7943 -1.1131
 8703SOL    HW237746   2.103   1.624   3.256  0.7323 -0.3702 -2.6338
 8704SOL     OW37747   3.684   0.494   4.978 -0.4961  0.4405 -0.2833
 8704SOL    HW137748   3.603   0.488   5.030  0.3932 -0.2634  1.0318
 8704SOL    HW237749   3.644   0.556   4.916 -1.4713  0.9370  0.8296
 8705SOL     OW37750   2.071   3.386   7.923  0.4570 -0.1167  0.0116
 8705SOL    HW137751   2.166   3.393   7.930  0.2540  1.4292  1.0124
 8705SOL    HW237752   2.042   3.420   8.007 -0.0442  0.5067 -0.4160
 8706SOL     OW37753   2.316   4.570  15.258 -0.1881 -0.1883  0.5781
 8706SOL    HW137754   2.265   4.565  15.338  0.1730 -0.0534  0.8165
 8706SOL    HW237755   2.358   4.656  15.268 -0.6216  0.1720 -0.6164
 8707SOL     OW37756   2.866   3.788  13.030 -0.1011  0.5167 -0.1315
 8707SOL    HW137757   2.901   3.815  13.115  1.1535  0.8903 -0.7598
 8707SOL    HW237758   2.951   3.771  12.988 -1.1465 -1.6566 -1.3706
 8708SOL     OW37759   2.189   0.925  10.843 -0.0575 -0.3223  0.2859
 8708SOL    HW137760   2.224   0.935  10.931 -1.2282 -2.0124  0.9386
 8708SOL    HW237761   2.096   0.943  10.852 -0.1169 -1.0016  0.9248
 8709SOL     OW37762   2.886   0.333   6.177 -0.9302  0.1732  0.3048
 8709SOL    HW137763   2.930   0.405   6.222 -0.7013 -0.2302  0.7244
 8709SOL    HW237764   2.797   0.367   6.171 -1.8179 -2.2912 -0.5915
 8710SOL     OW37765   4.481   2.607   7.691 -0.1952  0.4264  0.0046
 8710SOL    HW137766   4.494   2.664   7.615  1.3929 -0.9232 -0.7530
 8710SOL    HW237767   4.402   2.650   7.724 -1.2844 -0.3625 -1.5782
 8711SOL     OW37768   4.492   1.723   5.713 -0.1673  0.2158  0.4004
 8711SOL    HW137769   4.437   1.796   5.684 -0.8208 -0.0260  1.0246
 8711SOL    HW237770   4.432   1.649   5.718  0.3621 -0.0965  2.1727
 8712SOL     OW37771   2.968   4.573   2.178  0.0334  0.5293  0.6661
 8712SOL    HW137772   3.048   4.620   2.155  0.5449  0.1064  1.6131
 8712SOL    HW237773   2.905   4.637   2.145 -0.7638 -0.0247  1.0842
 8713SOL     OW37774   3.908   4.621   9.708  0.0791  0.4867  0.6268
 8713SOL    HW137775   3.967   4.695   9.695  1.0849 -0.4524 -0.1159
 8713SOL    HW237776   3.924   4.608   9.802 -2.2126  1.6902  1.1790
 8714SOL     OW37777   1.612   3.853   9.387  0.1770  0.1202 -0.0463
 8714SOL    HW137778   1.608   3.786   9.319 -0.9567  0.4046 -0.2488
 8714SOL    HW237779   1.524   3.890   9.386  0.7007  1.3543 -0.6100
 8715SOL     OW37780   0.725   0.777  15.732  0.0053 -0.1744 -0.8946
 8715SOL    HW137781   0.782   0.700  15.730 -1.5240 -1.3463  0.0092
 8715SOL    HW237782   0.698   0.793  15.822 -0.6368 -0.1585 -1.0869
 8716SOL     OW37783   1.962   3.115  12.224  0.7270  0.2696  0.3917
 8716SOL    HW137784   1.989   3.024  12.212  0.7829  0.2468  0.6949
 8716SOL    HW237785   2.033   3.153  12.173  0.1630 -0.0341 -0.6107
 8717SOL     OW37786   1.664   2.486  16.703  0.2336 -0.4384  0.4631
 8717SOL    HW137787   1.592   2.548  16.712 -0.6428 -1.7418  2.4307
 8717SOL    HW237788   1.719   2.534  16.642 -2.5550 -0.1655 -1.8346
 8718SOL     OW37789   3.260   1.469   5.603 -0.0366 -0.1077  0.2664
 8718SOL    HW137790   3.289   1.442   5.691  1.2589  1.6091  0.3794
 8718SOL    HW237791   3.289   1.393   5.553 -1.6847  0.9437 -2.2665
 8719SOL     OW37792   0.919   1.227   0.696 -0.8727 -0.1064  0.5865
 8719SOL    HW137793   0.961   1.294   0.750  0.9502  0.3959 -1.4590
 8719SOL    HW237794   0.890   1.167   0.765  3.3823  0.5571  2.9854
 8720SOL     OW37795   0.246   4.633   5.539  0.2754  0.1652  0.2504
 8720SOL    HW137796   0.227   4.679   5.457 -1.0634 -0.8421 -0.0018
 8720SOL    HW237797   0.280   4.702   5.596  0.3863  0.3854 -0.0792
 8721SOL     OW37798   2.308   2.400   6.299 -0.3003 -0.1471 -0.4550
 8721SOL    HW137799   2.238   2.391   6.365 -0.4315 -1.5778 -0.7848
 8721SOL    HW237800   2.378   2.407   6.364 -0.9501 -0.3856  0.2819
 8722SOL     OW37801   2.547   2.809   4.388 -0.3001 -0.1785  0.1570
 8722SOL    HW137802   2.481   2.758   4.342 -1.3087  1.2177  0.0661
 8722SOL    HW237803   2.566   2.757   4.466  0.0133  1.3648  1.1326
 8723SOL     OW37804   2.273   1.636   3.514  0.2298 -0.9311 -0.3367
 8723SOL    HW137805   2.255   1.677   3.430 -2.3041 -0.2670  0.5392
 8723SOL    HW237806   2.185   1.601   3.532 -0.3444  0.7714  0.1654
 8724SOL     OW37807   4.442   0.017  12.732  0.3012  0.0287 -0.1046
 8724SOL    HW137808   4.511   4.739  12.669  1.9238  2.3501  0.8967
 8724SOL    HW237809   4.416   4.675  12.768  1.4022 -0.4982 -0.5543
 8725SOL     OW37810   1.311   1.747   6.658 -0.1815  0.1137 -0.0869
 8725SOL    HW137811   1.357   1.815   6.707  0.7726 -0.1439 -0.6101
 8725SOL    HW237812   1.221   1.772   6.678  0.6698  1.0906  2.5481
 8726SOL     OW37813   2.863   0.558   3.975 -0.2776 -0.2297 -0.4354
 8726SOL    HW137814   2.785   0.584   3.927 -0.8258 -1.0783  0.0001
 8726SOL    HW237815   2.921   0.523   3.908  0.4300  0.2141 -0.0582
 8727SOL     OW37816   0.643   0.847   3.420  0.2784  0.1748  0.3297
 8727SOL    HW137817   0.572   0.891   3.373  0.1479 -2.3639 -1.8877
 8727SOL    HW237818   0.707   0.918   3.416 -2.1982  2.2343 -2.3990
 8728SOL     OW37819   0.962   0.650   5.342 -0.0051 -0.1358 -0.3309
 8728SOL    HW137820   0.914   0.627   5.262 -0.3663 -0.5833  0.0145
 8728SOL    HW237821   0.917   0.726   5.379  1.2836  0.6600 -0.4326
 8729SOL     OW37822   3.607   2.162   4.096 -0.3641 -0.1275 -0.3281
 8729SOL    HW137823   3.527   2.163   4.150  0.6541 -0.9161  1.1817
 8729SOL    HW237824   3.659   2.236   4.126  0.5384 -1.0286  0.3390
 8730SOL     OW37825   2.928   2.462  10.798  0.4537 -0.2678  0.9304
 8730SOL    HW137826   2.859   2.526  10.784 -1.2287 -2.1904  0.5358
 8730SOL    HW237827   2.917   2.410  10.719 -1.9972  3.7851 -1.3917
 8731SOL     OW37828   4.200   2.725   8.856 -0.2344 -0.1900  0.8646
 8731SOL    HW137829   4.120   2.777   8.856 -0.5064 -0.5962  2.6669
 8731SOL    HW237830   4.206   2.716   8.951 -1.3528  0.8478  1.0279
 8732SOL     OW37831   1.803   2.316  13.775  0.3077 -0.5149  0.3644
 8732SOL    HW137832   1.850   2.397  13.757 -0.2489 -0.2173  0.2331
 8732SOL    HW237833   1.795   2.287  13.684  0.6790 -0.3800  0.2923
 8733SOL     OW37834   3.440   1.722   7.504 -0.4111  0.0068  0.0385
 8733SOL    HW137835   3.463   1.794   7.445 -1.3958 -1.0875 -1.6765
 8733SOL    HW237836   3.466   1.645   7.453  1.0023  0.4981  0.0148
 8734SOL     OW37837   1.200   3.377   7.211  0.4025 -0.0680  0.3758
 8734SOL    HW137838   1.211   3.312   7.280 -1.2539 -1.5620 -0.7624
 8734SOL    HW237839   1.281   3.428   7.202  0.4559 -0.1233  0.5489
 8735SOL     OW37840   2.179   4.232  14.630  0.1517  0.4644  0.5865
 8735SOL    HW137841   2.158   4.323  14.612 -2.3360 -0.6945 -2.2867
 8735SOL    HW237842   2.269   4.227  14.664 -0.2010 -1.2436  1.2760
 8736SOL     OW37843   1.052   2.429  13.386 -0.1202 -0.4746  0.4456
 8736SOL    HW137844   0.991   2.434  13.460 -1.6454 -0.2217 -0.8379
 8736SOL    HW237845   0.993   2.436  13.311  2.2658  0.2658 -1.3708
 8737SOL     OW37846   0.666   1.073   7.069 -0.0102  0.3060  0.2341
 8737SOL    HW137847   0.645   1.089   7.160  0.1645  0.3767  0.2616
 8737SOL    HW237848   0.662   1.161   7.032 -1.5589 -0.4291 -1.3509
 8738SOL     OW37849   1.657   2.987   4.606 -0.5744 -0.0466  0.2290
 8738SOL    HW137850   1.650   2.896   4.635 -2.9099 -0.2934 -1.1329
 8738SOL    HW237851   1.692   2.967   4.519  2.4967 -1.1344  1.7152
 8739SOL     OW37852   2.829   2.904   5.318  0.7444  0.2695  0.0719
 8739SOL    HW137853   2.790   2.844   5.382 -0.2304  1.1102  0.2733
 8739SOL    HW237854   2.759   2.970   5.313 -1.3842 -2.0268 -0.0715
 8740SOL     OW37855   0.899   3.370   2.556  0.0203  0.6922  0.2344
 8740SOL    HW137856   0.946   3.441   2.512  0.2813 -0.4878 -1.3994
 8740SOL    HW237857   0.836   3.415   2.612 -1.3807 -1.6047  0.4827
 8741SOL     OW37858   4.233   0.746  14.561  0.4176 -0.5087  0.4206
 8741SOL    HW137859   4.171   0.674  14.572  0.8671 -0.4860  2.9353
 8741SOL    HW237860   4.318   0.707  14.577  1.3458  1.1219 -0.5490
 8742SOL     OW37861   4.329   2.655   2.837  0.4113  0.7611  0.0720
 8742SOL    HW137862   4.289   2.722   2.782  1.2885  1.0955 -0.1590
 8742SOL    HW237863   4.299   2.581   2.784  1.3647 -0.1015  0.7264
 8743SOL     OW37864   3.452   0.637   9.499 -0.0009 -0.2631  0.2755
 8743SOL    HW137865   3.437   0.697   9.426  1.6729 -1.9540 -1.4438
 8743SOL    HW237866   3.420   0.550   9.476  1.4390 -0.3106 -1.5124
 8744SOL     OW37867   0.963   3.881   7.043 -0.2042 -0.2315  0.6289
 8744SOL    HW137868   1.028   3.951   7.042  0.8065 -1.1742  0.2476
 8744SOL    HW237869   0.977   3.833   6.962 -2.3045 -0.2831  0.2886
 8745SOL     OW37870   3.350   3.412  17.248 -0.2194  0.3140 -0.3732
 8745SOL    HW137871   3.437   3.409  17.209  1.0983 -2.4409  2.8248
 8745SOL    HW237872   3.353   3.503  17.277  0.3769  0.0212  0.4598
 8746SOL     OW37873   0.619   2.705  14.807 -0.5701  0.5518  0.6687
 8746SOL    HW137874   0.709   2.716  14.778 -1.1117 -0.7885 -1.4980
 8746SOL    HW237875   0.626   2.610  14.805 -0.0919  0.6178 -0.3038
 8747SOL     OW37876   2.046   4.539   6.801  0.3761  0.1173 -0.1253
 8747SOL    HW137877   1.977   4.605   6.805  1.7261  1.5785 -0.8546
 8747SOL    HW237878   2.014   4.491   6.725 -0.1414 -0.7407  0.6287
 8748SOL     OW37879   4.585   3.597   7.702  0.6774 -0.4506 -0.9723
 8748SOL    HW137880   4.606   3.536   7.773 -2.5112 -1.8544 -1.2175
 8748SOL    HW237881   4.645   3.667   7.726 -0.3357  0.5862 -1.4865
 8749SOL     OW37882   2.976   3.849   4.661  0.3748  0.4719 -0.1202
 8749SOL    HW137883   2.884   3.846   4.688  0.4789  3.0918  0.5482
 8749SOL    HW237884   3.004   3.939   4.676  0.1630  0.2387  1.7472
 8750SOL     OW37885   2.038   1.584   8.973 -0.0919 -0.5046 -0.1136
 8750SOL    HW137886   2.015   1.561   9.063 -0.1377 -1.0612 -0.2670
 8750SOL    HW237887   2.087   1.508   8.941 -0.6812 -1.6953  1.7633
 8751SOL     OW37888   1.489   2.263   5.248  0.3490 -0.2369 -0.3961
 8751SOL    HW137889   1.449   2.204   5.184 -1.7180  0.1865  0.5154
 8751SOL    HW237890   1.433   2.244   5.324  2.0266 -2.6740  0.2444
 8752SOL     OW37891   4.527   4.081   3.261  0.1027  0.3361 -0.3979
 8752SOL    HW137892   4.439   4.110   3.238  0.1874  0.8954 -0.0093
 8752SOL    HW237893   4.497   3.996   3.294  0.4751  0.1619 -0.5087
 8753SOL     OW37894   3.208   0.034   8.243  0.1939  0.3776 -0.2634
 8753SOL    HW137895   3.152   4.700   8.232 -0.5997  1.1563 -1.7078
 8753SOL    HW237896   3.137   0.098   8.247 -0.7049 -0.6264  0.0256
 8754SOL     OW37897   4.467   1.942   0.706  0.2241 -0.5105 -0.4356
 8754SOL    HW137898   4.402   1.879   0.738 -0.3283  0.7754  0.9494
 8754SOL    HW237899   4.461   2.022   0.757  0.7779  0.1043 -1.3424
 8755SOL     OW37900   2.987   1.110   1.311  0.0195  0.5665  0.2310
 8755SOL    HW137901   2.990   1.034   1.368 -0.1389  0.4925  0.1419
 8755SOL    HW237902   2.893   1.111   1.291 -0.1279 -3.5398  0.7986
 8756SOL     OW37903   0.199   3.180   6.112  0.8039  0.3653 -0.0640
 8756SOL    HW137904   0.169   3.269   6.132  0.8592  0.6574 -1.2943
 8756SOL    HW237905   0.291   3.193   6.092 -0.4981  1.8824 -5.1391
 8757SOL     OW37906   0.133   3.956   9.393  1.3770 -0.2607 -0.0495
 8757SOL    HW137907   0.065   3.893   9.417 -0.9550  1.7497 -1.3249
 8757SOL    HW237908   0.085   4.034   9.420 -1.3518 -1.6731 -0.8646
 8758SOL     OW37909   0.810   3.046   8.935  0.0038  0.6417  0.3005
 8758SOL    HW137910   0.723   3.036   8.897 -0.1779 -0.1712  0.9217
 8758SOL    HW237911   0.860   2.969   8.909 -1.1491  0.0315 -0.1252
 8759SOL     OW37912   3.830   2.912   3.322 -0.3156 -0.0284  0.1753
 8759SOL    HW137913   3.820   2.979   3.254  3.4035 -0.7695 -1.1314
 8759SOL    HW237914   3.922   2.914   3.348  0.6378  0.1302 -3.1949
 8760SOL     OW37915   2.163   2.442   7.306 -0.7911 -0.8266  0.3445
 8760SOL    HW137916   2.127   2.455   7.393 -1.6944 -0.9231 -0.0113
 8760SOL    HW237917   2.127   2.360   7.271 -1.2258 -0.1961 -0.7099
 8761SOL     OW37918   4.157   0.809   9.347 -0.1046 -0.3377  0.7296
 8761SOL    HW137919   4.098   0.736   9.327 -0.6370  0.5780 -1.1038
 8761SOL    HW237920   4.173   0.836   9.256 -1.3359 -1.1258  0.2807
 8762SOL     OW37921   1.760   2.220  11.694  0.3341 -0.5138 -0.5648
 8762SOL    HW137922   1.851   2.239  11.672  0.3704  4.0652  3.2265
 8762SOL    HW237923   1.750   2.130  11.664 -1.1141 -1.0739  1.5167
 8763SOL     OW37924   3.604   4.019  16.636  0.4806 -0.6105  0.3518
 8763SOL    HW137925   3.611   4.099  16.583 -0.4087  0.8655  2.4658
 8763SOL    HW237926   3.516   3.994  16.607 -0.2461  2.7485 -0.3940
 8764SOL     OW37927   3.735   3.064  13.360 -0.2637 -0.4756 -0.3823
 8764SOL    HW137928   3.774   3.123  13.296  0.8527 -1.4566 -0.6119
 8764SOL    HW237929   3.789   2.985  13.362  0.9179  0.3099 -1.3588
 8765SOL     OW37930   2.020   0.916   4.041  0.1104 -0.3861 -0.1279
 8765SOL    HW137931   2.057   1.001   4.065  1.1716 -0.3984 -1.7212
 8765SOL    HW237932   1.980   0.891   4.125 -2.5132 -1.4610 -1.7162
 8766SOL     OW37933   1.312   1.146   8.685 -0.3265 -0.4299 -0.0589
 8766SOL    HW137934   1.395   1.163   8.640 -0.8297  1.4841 -0.2712
 8766SOL    HW237935   1.331   1.206   8.757  1.1772 -0.8193 -0.1398
 8767SOL     OW37936   2.075   2.240   4.664  0.4419  0.1731  0.2815
 8767SOL    HW137937   2.053   2.266   4.753  1.9183 -0.7625  0.9290
 8767SOL    HW237938   2.050   2.325   4.626 -2.6161 -1.2039 -0.7697
 8768SOL     OW37939   3.017   3.372   2.779  0.6096  0.1627 -0.6812
 8768SOL    HW137940   3.090   3.433   2.788 -0.7351  1.3939  1.9608
 8768SOL    HW237941   3.038   3.297   2.835  0.7394  0.0912 -0.8262
 8769SOL     OW37942   4.725   2.629   4.762  0.1933  0.1704  0.1461
 8769SOL    HW137943   4.636   2.636   4.796  0.9473 -0.1407  2.1944
 8769SOL    HW237944   0.013   2.552   4.809  2.4372  1.4814  0.8396
 8770SOL     OW37945   0.671   2.066   1.160  0.1977  0.7482 -0.1251
 8770SOL    HW137946   0.596   2.007   1.170 -0.1105  1.3929  1.3526
 8770SOL    HW237947   0.694   2.040   1.071 -0.0023 -1.5706  0.4918
 8771SOL     OW37948   0.758   1.416   3.960  0.0075  0.2605 -0.0743
 8771SOL    HW137949   0.838   1.464   3.940 -0.3683  0.6361 -0.6815
 8771SOL    HW237950   0.693   1.458   3.904 -0.4152  0.7079  0.7412
 8772SOL     OW37951   4.399   4.544   4.306 -0.5849 -0.1974 -0.8131
 8772SOL    HW137952   4.394   4.630   4.346  0.0890  0.2697 -1.7457
 8772SOL    HW237953   4.480   4.545   4.255 -1.5272  0.7981 -2.2654
 8773SOL     OW37954   0.435   4.007  16.598 -0.0883 -0.0987  0.1727
 8773SOL    HW137955   0.526   4.025  16.620 -0.3483  0.8019  0.5140
 8773SOL    HW237956   0.404   4.079  16.543 -1.2366 -0.1395  0.7668
 8774SOL     OW37957   2.029   2.174  14.925 -0.2742  0.0012  0.4274
 8774SOL    HW137958   2.019   2.096  14.872 -1.4219 -0.5677  1.4664
 8774SOL    HW237959   2.097   2.217  14.874  0.7169  0.5435  2.1937
 8775SOL     OW37960   3.605   3.060   4.545 -0.0706  0.2608 -0.3522
 8775SOL    HW137961   3.680   3.023   4.592  0.3331 -1.3235 -2.2608
 8775SOL    HW237962   3.634   3.143   4.508  0.3198  0.5415  0.5630
 8776SOL     OW37963   2.183   2.222   1.854  0.0988 -0.1897 -0.4349
 8776SOL    HW137964   2.137   2.142   1.880  1.4268 -1.1490 -1.0300
 8776SOL    HW237965   2.153   2.291   1.914 -1.1697 -0.2210 -1.0413
 8777SOL     OW37966   4.156   1.521  10.016  0.3154  0.0628  0.4608
 8777SOL    HW137967   4.076   1.470  10.011 -0.1423  0.6802  1.5518
 8777SOL    HW237968   4.223   1.475  10.067 -0.9665 -1.9582  0.3173
 8778SOL     OW37969   3.353   2.311  10.637 -0.5234 -0.5961 -0.0754
 8778SOL    HW137970   3.347   2.264  10.720 -1.5584  1.5471  1.0414
 8778SOL    HW237971   3.420   2.266  10.585  0.2561  2.6848 -1.8720
 8779SOL     OW37972   4.268   0.280  16.236 -0.4970 -0.2650  0.0570
 8779SOL    HW137973   4.263   0.373  16.257 -1.3814 -0.1336 -0.7396
 8779SOL    HW237974   4.358   0.258  16.211 -0.9119  1.0366 -2.4937
 8780SOL     OW37975   2.377   0.018  12.359  0.0440 -0.0553 -0.3479
 8780SOL    HW137976   2.393   0.008  12.265  1.2159  0.0230 -0.1638
 8780SOL    HW237977   2.362   0.111  12.373 -0.6543 -0.2403  0.1375
 8781SOL     OW37978   2.662   2.920   2.352 -0.4078  0.1323 -0.0437
 8781SOL    HW137979   2.657   2.968   2.269  1.0850  1.0000  0.3738
 8781SOL    HW237980   2.726   2.971   2.402  0.4494 -0.6366 -0.3595
 8782SOL     OW37981   2.205   3.925   2.896  0.0620 -0.2382  0.3179
 8782SOL    HW137982   2.236   4.016   2.900  0.8928 -0.5120  0.0813
 8782SOL    HW237983   2.178   3.933   2.804  0.4092 -0.3333  0.2070
 8783SOL     OW37984   4.335   2.431  15.703 -0.1857  0.1580 -0.5810
 8783SOL    HW137985   4.329   2.508  15.646 -0.4665 -1.0781 -2.1948
 8783SOL    HW237986   4.395   2.454  15.774 -0.6898  0.9445 -0.4097
 8784SOL     OW37987   1.132   1.925   2.238  0.2349  0.2782  0.2997
 8784SOL    HW137988   1.227   1.928   2.251  0.2454 -0.0663  0.3223
 8784SOL    HW237989   1.098   1.883   2.318 -0.3115 -1.9201 -1.0773
 8785SOL     OW37990   2.088   2.475   9.239  0.3088  0.3034  0.0992
 8785SOL    HW137991   2.066   2.398   9.290  0.7384 -0.7519 -1.3233
 8785SOL    HW237992   2.071   2.553   9.292  1.7465 -0.4878  1.7072
 8786SOL     OW37993   3.851   2.441   7.528 -0.1245 -0.2508 -0.5249
 8786SOL    HW137994   3.882   2.399   7.447 -2.9788  1.0182 -2.2769
 8786SOL    HW237995   3.818   2.370   7.583 -1.4551  1.3740  0.7754
 8787SOL     OW37996   4.140   1.176  11.462  0.3492 -0.2132 -0.4237
 8787SOL    HW137997   4.116   1.084  11.453 -1.7308  0.4118 -1.2333
 8787SOL    HW237998   4.127   1.201  11.370 -2.0018 -0.0752 -0.0399
 8788SOL     OW37999   2.095   3.871  10.745 -0.3649  0.0979  0.1363
 8788SOL    HW138000   2.046   3.937  10.695  1.6980  0.5431 -1.2729
 8788SOL    HW238001   2.143   3.921  10.811  2.3921 -0.2461 -1.5966
 8789SOL     OW38002   1.395   0.461  16.778  0.2436  0.6190  0.1341
 8789SOL    HW138003   1.410   0.528  16.711 -0.8953 -0.2000 -0.9452
 8789SOL    HW238004   1.315   0.414  16.755  1.2018  0.8598 -3.8028
 8790SOL     OW38005   4.348   3.223   7.227  0.1444 -0.0520  0.3374
 8790SOL    HW138006   4.298   3.141   7.231  0.3578 -0.2098 -0.3326
 8790SOL    HW238007   4.386   3.226   7.140 -1.7342  2.5578 -0.3991
 8791SOL     OW38008   3.022   3.496  15.301 -0.5110 -0.4400  0.1820
 8791SOL    HW138009   3.051   3.557  15.369  2.1581 -0.1219 -1.2625
 8791SOL    HW238010   3.045   3.407  15.328  1.1958  0.1015  0.5028
 8792SOL     OW38011   0.589   1.802   6.840 -0.2417  0.2007 -0.0071
 8792SOL    HW138012   0.513   1.861   6.836 -0.1137  0.1547 -2.5131
 8792SOL    HW238013   0.559   1.712   6.825  0.9506 -0.1639 -0.1354
 8793SOL     OW38014   1.687   3.275   6.921  0.1050 -0.3655  0.3637
 8793SOL    HW138015   1.648   3.189   6.905  1.0868 -0.2220 -2.8416
 8793SOL    HW238016   1.618   3.341   6.923 -1.3156 -1.8432  0.3694
 8794SOL     OW38017   2.812   2.205   3.865  0.1957  0.3462 -0.0691
 8794SOL    HW138018   2.808   2.300   3.850 -0.3680  0.5422  1.3329
 8794SOL    HW238019   2.901   2.188   3.895  0.1081 -1.1122 -0.6191
 8795SOL     OW38020   1.542   3.036  14.473  0.3061  0.2890  0.1175
 8795SOL    HW138021   1.617   3.019  14.531 -0.0596  1.6922  1.0029
 8795SOL    HW238022   1.570   3.121  14.441 -0.3858 -0.0252 -1.3233
 8796SOL     OW38023   0.023   4.683  13.341  0.0680 -0.0888 -0.7474
 8796SOL    HW138024   4.740   4.706  13.430  1.0675 -2.2732  0.0983
 8796SOL    HW238025   4.694   4.634  13.299 -0.0255 -0.1164 -0.5527
 8797SOL     OW38026   3.610   4.459   1.371  0.6681  0.3170  0.0664
 8797SOL    HW138027   3.650   4.372   1.363 -0.8327 -0.0922 -2.6788
 8797SOL    HW238028   3.557   4.459   1.292 -1.6141 -0.4912  1.6111
 8798SOL     OW38029   3.471   3.369  15.797 -0.1549  0.2650 -0.6132
 8798SOL    HW138030   3.386   3.408  15.775 -0.1634  2.0023  2.5413
 8798SOL    HW238031   3.531   3.385  15.724  2.2463  1.0137  1.5427
 8799SOL     OW38032   1.129   0.334  15.443  0.1491  0.2214 -0.3870
 8799SOL    HW138033   1.224   0.343  15.454 -0.1120  0.1909  1.9201
 8799SOL    HW238034   1.128   0.239  15.429 -1.0914  0.4367 -1.6330
 8800SOL     OW38035   2.318   2.512   2.088  0.1748 -0.2709  0.2422
 8800SOL    HW138036   2.309   2.559   2.005 -1.5875  1.4694  1.4260
 8800SOL    HW238037   2.246   2.449   2.093  1.1099 -1.0784  2.9424
 8801SOL     OW38038   2.749   3.300   1.959  0.1926  0.9223  0.3206
 8801SOL    HW138039   2.714   3.279   2.045  0.9459 -3.7525 -0.5320
 8801SOL    HW238040   2.844   3.306   1.964  0.3541  0.1546 -1.6864
 8802SOL     OW38041   0.113   4.015   3.607  0.5805  0.2562  0.2484
 8802SOL    HW138042   0.115   3.939   3.550 -1.0596  2.0644 -2.2212
 8802SOL    HW238043   0.067   4.078   3.551  0.1337 -0.4747 -0.2022
 8803SOL     OW38044   0.290   2.191  17.201 -0.5008 -0.1389 -0.1400
 8803SOL    HW138045   0.338   2.123  17.249 -3.3801 -0.5236  2.2068
 8803SOL    HW238046   0.356   2.212  17.135 -0.1773  1.0108  0.5414
 8804SOL     OW38047   3.456   0.842  17.370 -0.1694  0.3441  0.4135
 8804SOL    HW138048   3.433   0.760  17.327 -1.6969  0.8392  0.2880
 8804SOL    HW238049   3.550   0.834  17.389 -0.5014 -0.7349  1.5612
 8805SOL     OW38050   1.371   2.899   9.024  0.1555  0.3817  0.5220
 8805SOL    HW138051   1.413   2.959   8.963 -0.5920  0.3372 -0.0328
 8805SOL    HW238052   1.399   2.808   9.010 -1.5009  0.0661 -0.6203
 8806SOL     OW38053   1.277   4.604   7.548  0.0792 -0.1580  0.6254
 8806SOL    HW138054   1.187   4.627   7.571 -1.3710 -1.9355 -3.2796
 8806SOL    HW238055   1.273   4.509   7.548 -0.1080 -0.1470  0.0685
 8807SOL     OW38056   4.339   4.702  11.413 -0.2048  0.1488 -0.2488
 8807SOL    HW138057   4.351   4.640  11.485  1.3554 -0.2306 -0.8314
 8807SOL    HW238058   4.246   4.726  11.413 -0.1415  0.3254  2.0980
 8808SOL     OW38059   3.700   1.141  12.891 -0.2551 -0.3798 -0.2405
 8808SOL    HW138060   3.769   1.113  12.831 -0.5154  2.0972 -1.7213
 8808SOL    HW238061   3.662   1.214  12.842  2.3809  2.9885  2.7324
 8809SOL     OW38062   3.020   3.131  13.107  0.2295  0.1744 -0.0411
 8809SOL    HW138063   2.994   3.130  13.199 -0.4874 -1.7137 -0.2607
 8809SOL    HW238064   3.113   3.144  13.122  0.2208 -1.0984  1.1108
 8810SOL     OW38065   3.715   3.237   8.733 -0.0628 -0.4811 -0.5135
 8810SOL    HW138066   3.703   3.275   8.646  1.3760 -1.4092 -1.1066
 8810SOL    HW238067   3.790   3.180   8.716  0.6408 -0.0645  1.1401
 8811SOL     OW38068   0.370   3.947   6.427 -0.2902 -0.6108 -0.9817
 8811SOL    HW138069   0.294   3.898   6.394  0.8469 -2.3623 -0.9782
 8811SOL    HW238070   0.433   3.915   6.362  0.9746 -2.5019  1.2005
 8812SOL     OW38071   0.314   1.518  10.202 -0.1261  0.4059  0.2423
 8812SOL    HW138072   0.391   1.513  10.259 -0.9119  0.9758  1.3360
 8812SOL    HW238073   0.353   1.569  10.131 -0.4589 -0.5601 -0.6353
 8813SOL     OW38074   2.300   2.707  12.628 -0.7559 -0.1185  0.6167
 8813SOL    HW138075   2.265   2.761  12.557 -1.6500  0.1374  1.2456
 8813SOL    HW238076   2.369   2.767  12.657  0.1366 -0.4354 -0.8943
 8814SOL     OW38077   3.153   3.092   5.016  0.4930 -0.0226 -0.0851
 8814SOL    HW138078   3.205   3.012   5.024  0.9293  0.2154 -0.5595
 8814SOL    HW238079   3.073   3.071   5.064  0.2778 -0.1705 -0.5163
 8815SOL     OW38080   2.642   4.063   7.406  0.0022  0.4327  0.3725
 8815SOL    HW138081   2.574   4.093   7.346  0.0008  0.4896  0.4021
 8815SOL    HW238082   2.627   3.969   7.406  1.7612  0.1645 -0.2486
 8816SOL     OW38083   2.106   1.268   4.836  0.5470  0.5103 -0.0339
 8816SOL    HW138084   2.132   1.343   4.782 -0.6831  1.5080  0.7678
 8816SOL    HW238085   2.017   1.291   4.862 -1.3156 -4.7241 -1.8443
 8817SOL     OW38086   1.004   1.912   0.927  0.3375  0.3143 -0.6984
 8817SOL    HW138087   1.073   1.960   0.973  0.1890 -0.9135  0.8161
 8817SOL    HW238088   1.061   1.845   0.889 -0.6704 -0.9175 -0.0351
 8818SOL     OW38089   3.914   0.659   4.922  0.0769  0.1394  0.5603
 8818SOL    HW138090   3.867   0.585   4.960 -0.5040  0.4546  0.4513
 8818SOL    HW238091   4.005   0.633   4.906  0.4894  2.0088 -0.1617
 8819SOL     OW38092   3.757   4.686   9.303 -0.5552 -0.8863 -0.2065
 8819SOL    HW138093   3.677   4.703   9.254  0.2912 -1.0377 -1.6488
 8819SOL    HW238094   3.752   0.007   9.374  3.0475 -1.8175  0.8883
 8820SOL     OW38095   0.237   3.057   3.462  0.1115  0.4510 -0.0374
 8820SOL    HW138096   0.320   3.088   3.499  0.8646 -0.0606 -1.2880
 8820SOL    HW238097   0.273   2.997   3.396  1.0577  0.4048  0.5185
 8821SOL     OW38098   4.451   2.911   7.465 -0.3374  0.1493  0.3423
 8821SOL    HW138099   4.420   2.925   7.376 -0.2535 -0.3045  0.2390
 8821SOL    HW238100   4.496   2.994   7.481 -2.4322  1.1873  0.8408
 8822SOL     OW38101   2.590   3.022   9.831 -0.0318 -0.4984  0.6433
 8822SOL    HW138102   2.578   3.008   9.737 -0.1869  3.2429  0.1109
 8822SOL    HW238103   2.575   3.117   9.826 -1.6953 -0.7380  0.8649
 8823SOL     OW38104   4.357   1.004   5.213 -0.2500  0.4184 -0.0583
 8823SOL    HW138105   4.306   0.926   5.192  1.6096 -0.9159  0.3343
 8823SOL    HW238106   4.443   0.962   5.202 -0.0266  1.5338 -2.6206
 8824SOL     OW38107   4.111   1.922   2.585 -0.0691  0.1013  0.3819
 8824SOL    HW138108   4.053   1.992   2.554  0.4854  0.4938  0.2398
 8824SOL    HW238109   4.049   1.868   2.633 -0.1401 -0.6113 -0.5167
 8825SOL     OW38110   3.216   0.650   8.463 -0.0772  0.2802  0.5616
 8825SOL    HW138111   3.303   0.613   8.479  1.0238  2.9737  0.9004
 8825SOL    HW238112   3.182   0.581   8.406  0.9989 -0.6533  1.0442
 8826SOL     OW38113   2.002   2.020   3.240  0.3692 -0.5313  0.2831
 8826SOL    HW138114   2.062   1.987   3.307  0.6482  1.8914  1.2679
 8826SOL    HW238115   1.925   1.973   3.271  0.5666  0.3979  2.2265
 8827SOL     OW38116   2.101   3.760  12.324 -0.1073 -0.5760 -0.4313
 8827SOL    HW138117   2.020   3.720  12.353 -0.7103  1.3215  0.5053
 8827SOL    HW238118   2.109   3.724  12.235 -1.2614  0.4805 -0.9628
 8828SOL     OW38119   3.319   3.817   7.850  0.0428 -0.7074  0.6067
 8828SOL    HW138120   3.241   3.850   7.805 -0.6894 -0.5988  1.9413
 8828SOL    HW238121   3.279   3.801   7.936  1.7494 -0.6762  1.4159
 8829SOL     OW38122   2.047   3.172  11.743  0.3275  0.1484 -0.0905
 8829SOL    HW138123   2.053   3.105  11.675  1.4801  0.3657 -0.2126
 8829SOL    HW238124   1.967   3.214  11.712  0.5609  0.7517  0.1190
 8830SOL     OW38125   4.337   2.946   4.533  0.1632 -0.8913  0.3786
 8830SOL    HW138126   4.357   3.012   4.600 -0.2664  0.7915 -1.1504
 8830SOL    HW238127   4.422   2.934   4.489  1.3916 -0.0518  2.5152
 8831SOL     OW38128   2.157   1.882   7.617  0.2313 -0.1606  0.3717
 8831SOL    HW138129   2.113   1.961   7.585  2.4434  1.4924  1.3586
 8831SOL    HW238130   2.216   1.922   7.681  1.0973 -1.2730  0.2776
 8832SOL     OW38131   1.001   0.347   3.401 -0.1400 -0.1525 -0.2336
 8832SOL    HW138132   1.052   0.320   3.325  1.3388  1.2045  0.2839
 8832SOL    HW238133   0.951   0.266   3.413 -1.6327  1.1190  2.2468
 8833SOL     OW38134   3.227   1.923  14.044 -0.0002 -0.2893  0.8108
 8833SOL    HW138135   3.176   1.961  13.973  2.3472  1.1365 -0.1253
 8833SOL    HW238136   3.245   1.832  14.020  0.2871  0.0470 -0.2410
 8834SOL     OW38137   2.214   3.275   1.667  0.3553  0.8088  0.2290
 8834SOL    HW138138   2.125   3.255   1.697 -0.3564  0.5883 -2.0305
 8834SOL    HW238139   2.254   3.227   1.740 -1.4784 -2.0118 -0.5905
 8835SOL     OW38140   4.588   2.503  11.057  0.0072  0.0879 -0.5867
 8835SOL    HW138141   4.630   2.419  11.076  0.7559  0.6345  0.1916
 8835SOL    HW238142   4.660   2.565  11.064  0.8758 -1.2894  2.6696
 8836SOL     OW38143   0.494   4.176   2.793  0.0839 -0.0899 -0.1326
 8836SOL    HW138144   0.491   4.143   2.703 -0.3622  1.7411 -0.7881
 8836SOL    HW238145   0.404   4.209   2.797 -0.3606 -1.4006  0.7086
 8837SOL     OW38146   3.681   0.529   4.256  0.3794  0.3164  0.4265
 8837SOL    HW138147   3.683   0.433   4.264  2.0574  0.1331 -2.2383
 8837SOL    HW238148   3.755   0.561   4.307 -0.0730  2.7650 -0.4547
 8838SOL     OW38149   0.680   3.152   1.792 -0.5992  0.4659  0.1913
 8838SOL    HW138150   0.659   3.206   1.868 -2.0019 -1.5190  1.2180
 8838SOL    HW238151   0.757   3.193   1.753  0.2695 -2.1926 -0.9083
 8839SOL     OW38152   4.363   4.663   5.111  0.5187  0.0872 -0.6207
 8839SOL    HW138153   4.358   4.639   5.018 -2.1299 -1.4022 -0.1051
 8839SOL    HW238154   4.368   0.015   5.108  1.2533  0.1322  2.0858
 8840SOL     OW38155   0.278   0.631   4.857  0.1453 -0.3206 -0.2708
 8840SOL    HW138156   0.277   0.718   4.818  0.2033 -0.0392  0.3426
 8840SOL    HW238157   0.190   0.625   4.893  0.6178  0.6771  1.0994
 8841SOL     OW38158   3.194   3.328   0.214  0.2885  0.2040  0.3056
 8841SOL    HW138159   3.167   3.392   0.279 -0.5873  0.7910 -0.6384
 8841SOL    HW238160   3.109   3.292   0.187  0.0416  1.1467 -0.1878
 8842SOL     OW38161   2.378   2.149   9.674  0.2933  0.4175  0.2010
 8842SOL    HW138162   2.348   2.064   9.641  2.0720 -0.8443  1.8163
 8842SOL    HW238163   2.289   2.182   9.687  0.6554  1.7003 -0.6777
 8843SOL     OW38164   0.477   1.668  13.105  0.2191 -0.0221 -0.0868
 8843SOL    HW138165   0.413   1.732  13.134 -1.9769 -1.1543 -2.3547
 8843SOL    HW238166   0.553   1.725  13.099  0.4135 -0.1188  1.6708
 8844SOL     OW38167   0.109   3.967   6.113  0.7363 -0.0595 -0.1802
 8844SOL    HW138168   0.148   3.968   6.026  1.1234  2.6765  0.0387
 8844SOL    HW238169   0.130   3.879   6.145 -2.8411 -0.3121  1.4550
 8845SOL     OW38170   2.530   1.160  16.448  0.5155 -0.1039 -0.1238
 8845SOL    HW138171   2.503   1.194  16.363  1.3030  1.4562  0.2533
 8845SOL    HW238172   2.545   1.238  16.501  0.9827 -0.3515  0.1135
 8846SOL     OW38173   0.944   4.234  10.535  0.2037 -0.4407 -0.0775
 8846SOL    HW138174   0.990   4.319  10.533 -5.0155  2.3204 -1.2240
 8846SOL    HW238175   0.851   4.256  10.529  0.2434 -0.0402  0.7090
 8847SOL     OW38176   4.401   1.000  13.342 -0.2860 -0.2845  0.6524
 8847SOL    HW138177   4.343   1.021  13.269 -0.5298 -1.2332  0.5725
 8847SOL    HW238178   4.484   1.039  13.318 -0.3823 -0.1935  0.4685
 8848SOL     OW38179   4.366   0.604  10.424  0.1029  0.5576 -1.1469
 8848SOL    HW138180   4.345   0.633  10.513  1.9855 -2.0092  0.1325
 8848SOL    HW238181   4.428   0.535  10.447 -0.3844  0.0930 -1.2440
 8849SOL     OW38182   4.106   0.135   8.360  0.0287 -0.4877  0.0864
 8849SOL    HW138183   4.044   0.153   8.290 -0.3069 -2.1067 -0.0314
 8849SOL    HW238184   4.109   0.040   8.356  1.3441 -0.4146 -0.7444
 8850SOL     OW38185   2.741   3.270  11.389  0.2023 -0.1940  0.0170
 8850SOL    HW138186   2.678   3.248  11.458 -0.5610  2.2030  0.0792
 8850SOL    HW238187   2.750   3.181  11.354  1.6246  0.3325 -0.9691
 8851SOL     OW38188   1.518   4.672   4.957  0.0650 -0.1550 -0.2198
 8851SOL    HW138189   1.534   4.600   5.018  0.4122 -0.0921 -0.2346
 8851SOL    HW238190   1.426   4.693   4.975 -0.2717 -3.3067  1.8167
 8852SOL     OW38191   2.512   1.602  12.267  0.1566 -0.5032 -0.1633
 8852SOL    HW138192   2.581   1.628  12.328 -0.2318  0.7777 -0.2577
 8852SOL    HW238193   2.497   1.516  12.306  0.4945  0.4172  1.9908
 8853SOL     OW38194   0.987   1.818   7.888 -0.2556  0.1911 -0.0792
 8853SOL    HW138195   0.993   1.898   7.940  2.3925  0.6063 -1.0428
 8853SOL    HW238196   0.894   1.797   7.903  0.1300 -0.5141  1.2901
 8854SOL     OW38197   1.423   4.113   6.196 -0.4572  0.0960  0.4067
 8854SOL    HW138198   1.430   4.041   6.133  0.5664  0.0468  0.5752
 8854SOL    HW238199   1.365   4.068   6.259 -0.3163 -0.5600  0.0702
 8855SOL     OW38200   0.761   1.010   2.689  0.6095 -0.7505 -0.0958
 8855SOL    HW138201   0.714   1.008   2.772 -1.1834  0.3531 -1.0910
 8855SOL    HW238202   0.843   0.967   2.711  1.6234  0.9409 -0.5684
 8856SOL     OW38203   1.787   2.038  10.553  0.3849  0.5416 -0.4756
 8856SOL    HW138204   1.707   2.087  10.570 -0.0062 -0.1409 -0.3441
 8856SOL    HW238205   1.846   2.074  10.619  1.6671 -1.4705 -0.4952
 8857SOL     OW38206   1.023   3.061  16.303  0.2716 -0.4506 -0.0407
 8857SOL    HW138207   0.936   3.099  16.310  0.4926  0.0781 -0.1671
 8857SOL    HW238208   1.027   3.053  16.208  2.6460  2.7473 -0.2050
 8858SOL     OW38209   4.322   4.428   5.243  0.7170 -0.3130  0.1361
 8858SOL    HW138210   4.398   4.443   5.299  0.7968  2.2412 -0.6327
 8858SOL    HW238211   4.318   4.517   5.206 -5.3466 -1.1967 -1.3193
 8859SOL     OW38212   3.157   4.572   5.831  0.4891  0.4155 -0.2999
 8859SOL    HW138213   3.092   4.638   5.853 -1.0197 -1.8866  2.0047
 8859SOL    HW238214   3.116   4.486   5.837  1.1332  0.1354  0.0690
 8860SOL     OW38215   1.767   1.399   8.571  0.2051 -0.3312 -0.0208
 8860SOL    HW138216   1.783   1.438   8.485 -0.2753 -1.9107 -0.8385
 8860SOL    HW238217   1.862   1.403   8.587  0.1856  0.4064 -0.0998
 8861SOL     OW38218   3.776   1.141   3.479 -0.0215 -0.6392  0.3218
 8861SOL    HW138219   3.754   1.229   3.510  2.3837  0.5129 -1.2203
 8861SOL    HW238220   3.782   1.151   3.384 -1.0926 -1.1751  0.1954
 8862SOL     OW38221   0.543   4.587  16.259 -0.0657 -0.1179 -0.1475
 8862SOL    HW138222   0.574   4.626  16.341  0.8077  1.8405 -1.3914
 8862SOL    HW238223   0.450   4.578  16.280  0.0630 -2.0905 -0.4089
 8863SOL     OW38224   0.005   1.603   5.464 -0.5909 -0.0803  0.0314
 8863SOL    HW138225   4.739   1.631   5.555 -0.4937  0.0289  0.0089
 8863SOL    HW238226   4.715   1.514   5.463 -0.8378  0.0132  0.0332
 8864SOL     OW38227   3.791   2.007   2.780  0.1961  0.0815 -0.3833
 8864SOL    HW138228   3.696   1.996   2.780  0.3326 -1.1153 -2.2225
 8864SOL    HW238229   3.816   1.965   2.863  0.6390  2.5302  0.7090
 8865SOL     OW38230   2.307   1.807  17.161  0.4425 -0.5002  0.2502
 8865SOL    HW138231   2.288   1.803  17.255  1.2586 -1.0598  0.3967
 8865SOL    HW238232   2.312   1.714  17.142  2.0075 -0.9120  2.6873
 8866SOL     OW38233   4.535   1.258   2.902  0.1440  0.6840  0.2229
 8866SOL    HW138234   4.573   1.231   2.819 -0.0271 -0.2381  0.4530
 8866SOL    HW238235   4.512   1.351   2.889 -1.7183  0.0138 -1.3303
 8867SOL     OW38236   2.745   3.465   7.170  0.6803 -0.5114  0.3503
 8867SOL    HW138237   2.789   3.383   7.149 -1.2788 -1.0938 -1.5476
 8867SOL    HW238238   2.652   3.441   7.166  0.3013  1.2884 -1.6753
 8868SOL     OW38239   1.387   1.901   4.593 -0.4520  0.3985 -0.2761
 8868SOL    HW138240   1.371   1.991   4.623 -1.5041 -0.4871  1.7607
 8868SOL    HW238241   1.472   1.869   4.624 -0.8279 -0.1631  0.1547
 8869SOL     OW38242   0.891   3.337  16.862 -0.4738 -0.0312  0.3509
 8869SOL    HW138243   0.942   3.314  16.940  0.8087 -1.5594 -0.9330
 8869SOL    HW238244   0.958   3.360  16.798 -0.7991  0.1615  0.0803
 8870SOL     OW38245   3.415   3.438   4.738 -0.0792 -0.1253 -0.2171
 8870SOL    HW138246   3.500   3.400   4.715  0.0181 -0.5376  0.8346
 8870SOL    HW238247   3.385   3.377   4.805  0.7823  0.2848  0.5351
 8871SOL     OW38248   3.127   0.105  10.615  0.1266  0.1964  0.1543
 8871SOL    HW138249   3.067   0.149  10.555 -2.0598 -0.4084  1.9166
 8871SOL    HW238250   3.152   0.030  10.562  0.1899  0.2165  0.1545
 8872SOL     OW38251   4.649   3.849   3.958 -0.4511  0.5014  0.3981
 8872SOL    HW138252   4.729   3.839   3.905 -1.1136  0.0782 -0.5134
 8872SOL    HW238253   4.582   3.836   3.891  0.5850  0.8950 -0.7238
 8873SOL     OW38254   1.567   3.243   5.831 -0.9791  0.1463 -0.4572
 8873SOL    HW138255   1.528   3.234   5.745  0.0765  2.2307 -1.1643
 8873SOL    HW238256   1.498   3.290   5.878 -0.9867 -1.4040  1.0865
 8874SOL     OW38257   2.766   2.783   8.105  0.4265 -0.3446  0.2881
 8874SOL    HW138258   2.737   2.815   8.019  1.1397  0.1879  0.2453
 8874SOL    HW238259   2.744   2.690   8.099 -4.2959  0.8692 -0.9872
 8875SOL     OW38260   1.795   3.768   5.891 -0.2749 -0.2891 -0.2162
 8875SOL    HW138261   1.843   3.783   5.973 -1.6768  0.8718  0.4011
 8875SOL    HW238262   1.832   3.681   5.877 -0.2212 -0.2701 -0.1945
 8876SOL     OW38263   3.932   2.488  10.231 -0.1504 -0.4711  0.1471
 8876SOL    HW138264   3.896   2.399  10.234  0.4736 -0.7103  0.5494
 8876SOL    HW238265   3.956   2.490  10.323  0.2531 -2.4686  0.0834
 8877SOL     OW38266   4.578   0.302   0.993 -0.3733 -0.3035 -0.2122
 8877SOL    HW138267   4.644   0.314   0.926 -1.3068 -1.4722 -1.3461
 8877SOL    HW238268   4.531   0.231   0.950  0.2345  0.5573 -2.2794
 8878SOL     OW38269   3.364   2.663   5.735  0.7849  0.1359  0.3849
 8878SOL    HW138270   3.423   2.670   5.811 -1.0081  1.9258  1.6200
 8878SOL    HW238271   3.355   2.570   5.716  0.2491  0.0103  1.2403
 8879SOL     OW38272   0.815   2.725  14.425  0.4402 -0.7286 -0.3589
 8879SOL    HW138273   0.824   2.733  14.520  2.3496  0.9116 -0.6783
 8879SOL    HW238274   0.753   2.795  14.403  0.8348  0.1458  1.2300
 8880SOL     OW38275   1.513   3.716   2.192 -0.3914  0.1271  0.2931
 8880SOL    HW138276   1.425   3.746   2.214 -1.0799 -1.0327 -0.8232
 8880SOL    HW238277   1.560   3.799   2.191  1.4146 -0.8902  0.4987
 8881SOL     OW38278   1.024   0.502  11.803 -0.4092  0.0755 -0.0529
 8881SOL    HW138279   1.092   0.509  11.871 -0.8276 -0.7342  0.4552
 8881SOL    HW238280   1.059   0.561  11.738 -0.7476 -0.0464 -0.3462
 8882SOL     OW38281   1.945   4.657   5.318 -0.3004  0.4206 -0.3321
 8882SOL    HW138282   1.965   0.006   5.303 -1.4745  0.9044  1.1315
 8882SOL    HW238283   1.850   4.655   5.331 -0.1930 -0.2432  0.3730
 8883SOL     OW38284   0.062   3.813  17.621  0.5282 -0.2428  0.5818
 8883SOL    HW138285   0.045   3.906  17.612 -2.8129 -0.9780 -0.5800
 8883SOL    HW238286   0.050   3.786  17.529 -0.7674 -1.3683  1.0741
 8884SOL     OW38287   0.750   4.645  16.106  0.2631  0.0902  0.6000
 8884SOL    HW138288   0.765   4.587  16.031 -1.9599  0.6308 -0.2756
 8884SOL    HW238289   0.668   4.608  16.139 -0.1017 -0.0968 -0.4953
 8885SOL     OW38290   3.809   0.178   2.494 -1.1523  0.0402  1.0034
 8885SOL    HW138291   3.795   0.150   2.585 -0.5309 -2.1251  0.4463
 8885SOL    HW238292   3.900   0.208   2.494 -0.9900 -0.4481 -0.5456
 8886SOL     OW38293   3.871   2.937   4.629 -0.1702 -0.5091 -0.0152
 8886SOL    HW138294   3.943   2.886   4.593 -0.4845  0.0149 -1.3996
 8886SOL    HW238295   3.811   2.867   4.653 -0.9285 -0.1588 -0.8766
 8887SOL     OW38296   1.571   4.742   6.707 -0.3341  0.5345 -0.0863
 8887SOL    HW138297   1.514   0.063   6.750  0.4245 -0.0969  1.8498
 8887SOL    HW238298   1.627   0.059   6.658  1.4436 -0.0266  1.2895
 8888SOL     OW38299   0.198   2.491   9.659  0.3561 -0.3394  0.1757
 8888SOL    HW138300   0.109   2.513   9.630 -0.5146 -3.1040  0.7078
 8888SOL    HW238301   0.220   2.559   9.722 -2.1901  1.4323 -0.8316
 8889SOL     OW38302   1.419   2.591   7.981  0.2076 -0.2191 -0.5802
 8889SOL    HW138303   1.458   2.572   8.067 -1.0375  0.3337  0.1223
 8889SOL    HW238304   1.424   2.513   7.926 -0.3663 -0.3576 -0.4384
 8890SOL     OW38305   3.859   0.967  13.175  0.1964  0.0005 -0.3596
 8890SOL    HW138306   3.813   1.028  13.234  0.4432  0.2637 -0.4400
 8890SOL    HW238307   3.786   0.941  13.119 -1.0107  3.8472 -0.6027
 8891SOL     OW38308   4.404   4.617   3.612 -1.0019 -0.0460 -0.3855
 8891SOL    HW138309   4.404   4.700   3.566  0.3815  0.8758  1.2839
 8891SOL    HW238310   4.405   4.646   3.703  0.9228 -1.0977 -0.0640
 8892SOL     OW38311   4.431   0.727   7.776  0.1403  0.4005 -0.2419
 8892SOL    HW138312   4.449   0.805   7.723  0.7668  0.3685 -0.0790
 8892SOL    HW238313   4.426   0.662   7.706 -1.1639  0.1508  0.0894
 8893SOL     OW38314   0.439   4.029  12.046 -0.0836  0.7855  0.3814
 8893SOL    HW138315   0.418   3.977  12.123  0.0534  0.6709  0.3409
 8893SOL    HW238316   0.533   4.016  12.035 -0.6579 -1.7706 -1.6452
 8894SOL     OW38317   1.334   1.060   5.532  0.4983  0.8465  0.0951
 8894SOL    HW138318   1.419   1.016   5.535 -0.1149 -0.4087 -0.5675
 8894SOL    HW238319   1.357   1.146   5.496  1.7706  0.8730  1.0036
 8895SOL     OW38320   0.630   1.207   9.694 -0.2573  0.3403  0.3729
 8895SOL    HW138321   0.630   1.219   9.789 -0.7114 -0.5331  0.4816
 8895SOL    HW238322   0.560   1.265   9.663  0.0528  0.1990 -0.5874
 8896SOL     OW38323   3.533   3.171  17.539  0.3980 -1.0378 -0.4690
 8896SOL    HW138324   3.522   3.109  17.467  2.1757 -0.7803 -0.9680
 8896SOL    HW238325   3.572   3.240  17.485  1.1632  0.2570  1.7649
 8897SOL     OW38326   1.556   0.585   9.162 -0.0710  0.6415  0.2132
 8897SOL    HW138327   1.637   0.633   9.182  1.0561 -0.0294 -2.7194
 8897SOL    HW238328   1.587   0.499   9.131  1.9391  1.5945 -0.4315
 8898SOL     OW38329   1.297   1.976   3.192  0.9075  0.3631  0.3196
 8898SOL    HW138330   1.283   1.986   3.098 -1.8324 -0.5383  0.6506
 8898SOL    HW238331   1.324   1.884   3.191 -1.9636 -0.4766 -2.3721
 8899SOL     OW38332   0.384   3.293   8.721  0.2170  0.4826 -0.4277
 8899SOL    HW138333   0.474   3.295   8.753 -0.1383  0.8757  0.5784
 8899SOL    HW238334   0.351   3.213   8.761  2.1737 -0.7140 -1.2397
 8900SOL     OW38335   1.036   1.932  16.972 -0.0609 -0.4021 -0.1493
 8900SOL    HW138336   1.131   1.934  16.961  0.0861  1.3679  1.3652
 8900SOL    HW238337   1.029   1.846  17.012  2.1867 -0.0470  1.0207
 8901SOL     OW38338   2.089   2.722  11.563  0.5384 -0.0265  0.3654
 8901SOL    HW138339   2.088   2.660  11.491  0.6251 -0.3047  0.6056
 8901SOL    HW238340   2.034   2.673  11.624 -0.8951 -0.7308 -1.4911
 8902SOL     OW38341   3.860   3.834   7.985 -0.2433  0.4570 -0.0926
 8902SOL    HW138342   3.874   3.884   7.904  0.0194 -0.1090 -0.3981
 8902SOL    HW238343   3.768   3.840   8.010 -0.9295 -3.8720 -1.6182
 8903SOL     OW38344   1.876   2.676   8.956 -0.4567  0.6664  0.3313
 8903SOL    HW138345   1.822   2.689   8.878  0.7464 -0.5492 -0.7041
 8903SOL    HW238346   1.953   2.727   8.928 -1.0120  1.2091 -0.2351
 8904SOL     OW38347   4.660   1.570   3.626  0.0802  0.4554  0.2251
 8904SOL    HW138348   4.675   1.516   3.704 -0.6214 -1.4842 -0.9847
 8904SOL    HW238349   4.735   1.629   3.638 -0.1135  0.8403 -0.4819
 8905SOL     OW38350   0.180   1.603   4.614 -0.3364 -0.1864  0.0231
 8905SOL    HW138351   0.215   1.669   4.674  1.1098 -1.6642  0.7968
 8905SOL    HW238352   0.098   1.589   4.661  0.0182 -1.1915  0.3279
 8906SOL     OW38353   3.688   3.708   5.767 -0.0407  0.3417 -0.0999
 8906SOL    HW138354   3.667   3.801   5.782 -1.9740 -0.1936  0.5522
 8906SOL    HW238355   3.626   3.672   5.831 -1.0366  4.4059  1.2411
 8907SOL     OW38356   4.177   3.160   9.470  0.4383  0.6623 -0.3893
 8907SOL    HW138357   4.145   3.201   9.551  3.4559  0.6473  0.8127
 8907SOL    HW238358   4.270   3.158   9.492 -0.3353 -0.2038  2.7903
 8908SOL     OW38359   2.875   3.088  10.299  0.2827  0.1593 -0.7522
 8908SOL    HW138360   2.841   3.009  10.342  1.4262  0.9133  1.5337
 8908SOL    HW238361   2.818   3.153  10.341  1.9855  0.6360  0.8108
 8909SOL     OW38362   0.584   4.281   1.975  0.9367  0.2386 -0.4238
 8909SOL    HW138363   0.549   4.276   2.063  0.4529 -1.6866 -0.7333
 8909SOL    HW238364   0.598   4.376   1.974 -1.2025  0.5614  0.4185
 8910SOL     OW38365   0.852   3.517   8.101  0.3133  0.8427 -0.0019
 8910SOL    HW138366   0.770   3.531   8.150 -0.7792 -0.7038 -1.3748
 8910SOL    HW238367   0.902   3.573   8.160 -2.6749  2.2810  1.2206
 8911SOL     OW38368   1.653   3.649   8.023 -0.5091  0.1750 -0.1518
 8911SOL    HW138369   1.663   3.554   8.028  1.6491  0.4326  0.1539
 8911SOL    HW238370   1.659   3.683   8.113  0.5742 -3.9277  1.3449
 8912SOL     OW38371   0.246   0.799   8.307  0.1136 -0.3955  0.3487
 8912SOL    HW138372   0.275   0.822   8.219  0.8599 -3.5711 -0.2358
 8912SOL    HW238373   0.277   0.709   8.322 -0.6192 -0.9433 -1.4686
 8913SOL     OW38374   0.043   1.623   1.365 -0.2538  0.0078  0.5733
 8913SOL    HW138375   0.038   1.614   1.270  1.4454  1.4816  0.3526
 8913SOL    HW238376   0.087   1.541   1.387 -0.3675 -0.1366  0.2643
 8914SOL     OW38377   0.225   2.085   8.902  0.0030 -0.2944 -0.6458
 8914SOL    HW138378   0.320   2.080   8.902 -0.1339 -2.9967  0.2693
 8914SOL    HW238379   0.209   2.172   8.937  1.7537 -0.2824  0.1183
 8915SOL     OW38380   0.374   3.144   6.527  0.4572 -0.2207 -0.4125
 8915SOL    HW138381   0.329   3.097   6.457 -0.5004  0.9456 -0.5729
 8915SOL    HW238382   0.310   3.213   6.545  0.9746  0.3764 -0.8575
 8916SOL     OW38383   0.746   2.647   5.711 -0.3973 -0.0194 -0.2915
 8916SOL    HW138384   0.747   2.619   5.803 -0.4525  1.0158  0.0352
 8916SOL    HW238385   0.820   2.708   5.712 -0.4630  0.0493  1.6802
 8917SOL     OW38386   1.968   4.375   8.779 -0.0535  0.2659 -0.2277
 8917SOL    HW138387   2.055   4.397   8.744  0.7033 -1.5427  0.5217
 8917SOL    HW238388   1.938   4.310   8.716 -0.0483  0.0711 -0.0312
 8918SOL     OW38389   4.593   4.741   5.379 -0.0258 -0.0111 -0.2214
 8918SOL    HW138390   4.547   0.061   5.324  1.8340  1.2201 -0.3694
 8918SOL    HW238391   4.578   0.035   5.466 -0.4018 -2.3408  0.7102
 8919SOL     OW38392   0.445   0.484   1.612  0.5904 -0.4854  0.1700
 8919SOL    HW138393   0.377   0.417   1.599 -0.3300  0.3991  0.3741
 8919SOL    HW238394   0.423   0.529   1.693 -0.3863  1.1641 -1.0003
 8920SOL     OW38395   3.950   1.603   7.692  0.6670  0.8934  0.0330
 8920SOL    HW138396   3.913   1.571   7.774 -0.2537  1.0621 -0.3232
 8920SOL    HW238397   3.900   1.567   7.619  1.2452 -2.7563  1.4322
 8921SOL     OW38398   3.552   4.037  17.057 -0.1385  0.1262 -0.2955
 8921SOL    HW138399   3.555   3.941  17.050 -1.1208  0.2824 -2.9199
 8921SOL    HW238400   3.613   4.059  16.987 -0.8175  1.0508 -0.5965
 8922SOL     OW38401   0.900   1.541   2.962 -0.6805 -0.1300  0.1033
 8922SOL    HW138402   0.945   1.625   2.950  0.4461 -0.7100  0.2380
 8922SOL    HW238403   0.901   1.549   3.057 -0.8018  0.8048  0.0210
 8923SOL     OW38404   0.815   2.895   6.384  0.1128  0.1133 -0.2196
 8923SOL    HW138405   0.856   2.814   6.415 -0.7185  0.2250  1.1563
 8923SOL    HW238406   0.799   2.878   6.291  1.9873 -0.2591 -0.4795
 8924SOL     OW38407   4.477   3.687  12.650 -0.0097 -0.0086 -0.1561
 8924SOL    HW138408   4.571   3.706  12.650 -0.1683  0.7984 -2.4339
 8924SOL    HW238409   4.444   3.765  12.605  1.7739  1.2640  0.7407
 8925SOL     OW38410   2.470   1.873   7.021 -0.0747  0.2979 -0.2363
 8925SOL    HW138411   2.383   1.914   7.025 -0.5336 -0.9090  1.7015
 8925SOL    HW238412   2.446   1.781   7.009  0.8358  0.1008 -0.5491
 8926SOL     OW38413   2.745   2.140   8.388  0.5647  0.2571  0.5138
 8926SOL    HW138414   2.670   2.188   8.422 -0.0261 -1.9148  2.2647
 8926SOL    HW238415   2.783   2.112   8.471  2.4504 -1.7425 -1.0132
 8927SOL     OW38416   4.134   0.883   8.231 -0.2929 -0.2406 -0.3239
 8927SOL    HW138417   4.163   0.797   8.262 -0.3412  0.4151  1.5113
 8927SOL    HW238418   4.071   0.855   8.164  0.6863  0.2359 -1.4345
 8928SOL     OW38419   2.169   1.966   4.581  0.1466 -0.1269  0.3185
 8928SOL    HW138420   2.152   2.054   4.613 -0.8235 -0.2446  0.1239
 8928SOL    HW238421   2.224   1.937   4.654  0.9444 -0.1245 -0.2799
 8929SOL     OW38422   4.279   1.799   6.533 -0.1469 -0.0188 -0.2269
 8929SOL    HW138423   4.249   1.720   6.489  2.0538 -0.1704 -1.4279
 8929SOL    HW238424   4.224   1.867   6.495  1.0471  0.8020 -0.4766
 8930SOL     OW38425   2.969   0.881  16.244  0.8391  0.0993 -0.3253
 8930SOL    HW138426   3.049   0.889  16.192  0.5250  1.6037 -0.5793
 8930SOL    HW238427   2.932   0.965  16.217 -0.4858 -0.6922 -0.9703
 8931SOL     OW38428   3.982   0.523  10.558  0.3803  0.4519  0.7365
 8931SOL    HW138429   4.069   0.561  10.559  0.4246  0.3456  0.9620
 8931SOL    HW238430   3.991   0.462  10.631 -0.4394 -2.3104 -1.4649
 8932SOL     OW38431   1.180   4.555  12.722 -0.1087 -0.3204  0.6072
 8932SOL    HW138432   1.223   4.570  12.807  2.1347  0.8955 -0.7261
 8932SOL    HW238433   1.216   4.468  12.704 -0.6770 -0.4341  0.0223
 8933SOL     OW38434   4.401   0.679   4.929  0.0458 -0.2171 -0.1359
 8933SOL    HW138435   4.441   0.763   4.953  0.9454 -0.9230  0.8299
 8933SOL    HW238436   4.338   0.669   5.000  0.5512  1.9797  0.6386
 8934SOL     OW38437   4.740   3.960   8.957  0.0102 -0.0707 -0.4687
 8934SOL    HW138438   4.711   3.922   8.875  0.8046 -1.5656 -0.0439
 8934SOL    HW238439   4.669   4.021   8.980 -1.0836 -1.0880 -1.1757
 8935SOL     OW38440   4.393   3.407   7.896  0.1266  0.3595  0.5694
 8935SOL    HW138441   4.315   3.424   7.949 -0.8214  2.5811 -1.5362
 8935SOL    HW238442   4.350   3.373   7.817  0.0417 -0.9435  1.1826
 8936SOL     OW38443   3.136   3.434  11.569 -0.7109 -0.9218 -0.4168
 8936SOL    HW138444   3.209   3.373  11.560 -1.0364 -1.1817 -1.2250
 8936SOL    HW238445   3.110   3.428  11.661  1.6780 -1.7854  0.2091
 8937SOL     OW38446   4.318   2.813   6.671  0.3547  0.3623  0.7832
 8937SOL    HW138447   4.236   2.768   6.648  0.2634  0.5532  0.7399
 8937SOL    HW238448   4.283   2.867   6.741 -0.3569  0.7662  0.1179
 8938SOL     OW38449   4.107   4.132  14.974  0.2759  0.0798 -0.3412
 8938SOL    HW138450   4.020   4.164  14.996  0.4355  0.5222 -0.3617
 8938SOL    HW238451   4.116   4.179  14.891  1.5544  0.7445  0.1813
 8939SOL     OW38452   0.748   0.626   9.448  0.9234  0.9999  0.4722
 8939SOL    HW138453   0.697   0.614   9.528  0.4392 -0.1592 -0.0036
 8939SOL    HW238454   0.670   0.628   9.393  2.1742  0.5735 -1.3094
 8940SOL     OW38455   0.975   2.534   4.330  0.1946 -0.2766 -0.4131
 8940SOL    HW138456   0.949   2.586   4.254 -1.7497  0.1373  0.5434
 8940SOL    HW238457   0.930   2.450   4.323 -1.4174  0.5275  0.4444
 8941SOL     OW38458   3.227   2.764   7.756  0.5433 -0.0854 -0.1993
 8941SOL    HW138459   3.296   2.724   7.809  0.0671 -2.6110 -1.4944
 8941SOL    HW238460   3.174   2.688   7.731  0.4020  1.0477 -3.3584
 8942SOL     OW38461   3.760   1.931   3.696 -0.3224 -0.1238 -0.1695
 8942SOL    HW138462   3.751   1.989   3.620 -0.7328 -0.6603 -0.5339
 8942SOL    HW238463   3.681   1.877   3.685 -0.3178 -0.1216 -0.2156
 8943SOL     OW38464   1.023   4.021   3.696  0.0299 -0.4115  0.2689
 8943SOL    HW138465   1.051   3.930   3.687  0.2805 -0.0734 -2.5733
 8943SOL    HW238466   1.087   4.073   3.646 -0.3591  2.2448  2.5279
 8944SOL     OW38467   4.214   4.233   5.112 -0.1977 -0.1005  0.3152
 8944SOL    HW138468   4.136   4.285   5.090 -0.2711 -0.7689 -0.9850
 8944SOL    HW238469   4.256   4.305   5.159  0.4458  0.0208 -0.4585
 8945SOL     OW38470   0.142   0.117   7.207 -0.0193 -0.8870  0.5180
 8945SOL    HW138471   0.193   0.100   7.128 -0.4317  0.4106 -0.0409
 8945SOL    HW238472   0.149   0.024   7.227 -1.3375 -1.1645 -0.3246
 8946SOL     OW38473   4.520   2.732  15.432  0.2982  0.4012 -0.0051
 8946SOL    HW138474   4.493   2.735  15.341 -0.8128 -0.3605  0.3020
 8946SOL    HW238475   4.436   2.706  15.469  1.3264 -1.0540  1.3248
 8947SOL     OW38476   0.687   2.346   4.766 -0.1000 -0.1463 -0.1451
 8947SOL    HW138477   0.731   2.369   4.848  1.2735  0.9025 -1.1736
 8947SOL    HW238478   0.594   2.350   4.789  0.0319 -0.1886  0.3886
 8948SOL     OW38479   3.342   0.988   8.647  0.7330  0.4467  0.5896
 8948SOL    HW138480   3.434   1.010   8.632  0.0393  1.9858 -1.4451
 8948SOL    HW238481   3.346   0.964   8.739 -1.0830 -0.8927  0.3215
 8949SOL     OW38482   3.962   0.104   7.239  0.2215  0.1973  0.1860
 8949SOL    HW138483   3.870   0.097   7.212  0.3773  0.2455 -0.3595
 8949SOL    HW238484   4.002   0.062   7.163 -1.0340 -0.6900  0.0077
 8950SOL     OW38485   2.081   3.621   0.064 -0.0918  0.1929  0.0702
 8950SOL    HW138486   2.059   3.538   0.105 -0.3719  0.8267  1.1832
 8950SOL    HW238487   2.031   3.601  17.754 -0.0095  1.5314 -0.3252
 8951SOL     OW38488   4.276   2.251   8.861 -0.1588 -0.3052 -0.7546
 8951SOL    HW138489   4.191   2.217   8.832  1.1831 -1.3805 -3.4562
 8951SOL    HW238490   4.295   2.197   8.937  2.2887 -1.5570 -2.2618
 8952SOL     OW38491   2.834   1.616   6.061 -0.4641 -0.3399  0.1616
 8952SOL    HW138492   2.823   1.635   5.968 -1.0627  0.3714  0.3785
 8952SOL    HW238493   2.878   1.697   6.087  0.1041 -0.0257 -1.7447
 8953SOL     OW38494   2.364   1.123   7.577  0.1622 -0.0213  0.0044
 8953SOL    HW138495   2.378   1.114   7.672  2.3579 -0.8350 -0.4074
 8953SOL    HW238496   2.438   1.072   7.544  0.2500 -0.8387  1.4378
 8954SOL     OW38497   2.865   3.194   7.162 -0.3088 -0.1048 -0.2939
 8954SOL    HW138498   2.855   3.102   7.186 -2.6266  0.7831  2.2331
 8954SOL    HW238499   2.852   3.192   7.068  1.2818  0.2521 -0.5257
 8955SOL     OW38500   0.390   1.100   5.186 -0.0957 -0.2672 -0.6236
 8955SOL    HW138501   0.317   1.160   5.202  0.0461 -0.5655  1.2226
 8955SOL    HW238502   0.422   1.084   5.275 -1.8050  0.9916  0.2164
 8956SOL     OW38503   2.822   3.076   4.818  0.0974  0.3848  0.0741
 8956SOL    HW138504   2.886   3.145   4.800 -1.6082  1.3042 -2.6181
 8956SOL    HW238505   2.753   3.088   4.752 -1.3005 -1.2993  1.2443
 8957SOL     OW38506   0.831   2.882   3.915 -0.3561  0.3822 -0.1998
 8957SOL    HW138507   0.923   2.861   3.901 -0.1907  0.7758  0.2626
 8957SOL    HW238508   0.792   2.809   3.868 -0.6825 -0.3277  1.1664
 8958SOL     OW38509   2.688   3.529  16.257 -0.1635 -0.0383 -0.0866
 8958SOL    HW138510   2.731   3.610  16.284  0.6732 -0.5598  0.1504
 8958SOL    HW238511   2.706   3.476  16.335  0.7607 -0.2222 -0.4227
 8959SOL     OW38512   0.159   3.978  15.737  0.3372  0.0712 -0.0007
 8959SOL    HW138513   0.123   3.940  15.657  3.3730 -0.6490 -1.0381
 8959SOL    HW238514   0.253   3.982  15.720  0.1555  0.5768 -0.8803
 8960SOL     OW38515   4.493   2.399   4.992 -0.3238 -0.3263  0.6601
 8960SOL    HW138516   4.511   2.414   5.085  1.0608 -1.2772  0.5457
 8960SOL    HW238517   4.469   2.489   4.968  1.0043  0.1796  1.2045
 8961SOL     OW38518   1.349   3.107   7.123 -0.3901 -0.3699 -0.4209
 8961SOL    HW138519   1.345   3.049   7.047  0.7926 -1.6082  0.4748
 8961SOL    HW238520   1.360   3.193   7.083  0.1613 -0.8407 -1.2645
 8962SOL     OW38521   3.498   4.267   3.562  0.0638 -0.4162 -0.0992
 8962SOL    HW138522   3.547   4.330   3.615 -0.5874  0.5278 -0.6047
 8962SOL    HW238523   3.562   4.196   3.557 -0.5359 -0.9383 -0.3240
 8963SOL     OW38524   2.584   4.482   1.033  0.0108 -0.2971 -0.2088
 8963SOL    HW138525   2.581   4.573   1.004  0.2272 -0.1497  0.2362
 8963SOL    HW238526   2.678   4.471   1.047 -0.0509 -0.1465  0.3422
 8964SOL     OW38527   1.699   4.597   2.453 -0.7628  0.3438 -0.1379
 8964SOL    HW138528   1.664   4.613   2.541 -0.0560 -0.3164  0.2651
 8964SOL    HW238529   1.620   4.632   2.411  0.8490  2.0702 -1.7242
 8965SOL     OW38530   1.015   0.892  13.878  0.0494  0.5646 -0.9763
 8965SOL    HW138531   1.007   0.986  13.894  2.4130  0.7618 -1.0081
 8965SOL    HW238532   1.058   0.899  13.792 -1.2714  0.6168 -1.6413
 8966SOL     OW38533   2.342   1.325   7.034  0.4919 -0.3121 -0.0806
 8966SOL    HW138534   2.260   1.276   7.040  1.1251 -1.5832 -2.1319
 8966SOL    HW238535   2.379   1.315   7.122 -0.7844 -0.2033  0.4632
 8967SOL     OW38536   1.358   2.454   3.334  0.6068 -0.1462  0.0881
 8967SOL    HW138537   1.380   2.373   3.288  0.4188 -1.3700  2.1141
 8967SOL    HW238538   1.281   2.481   3.284  1.2903  1.3267 -0.1591
 8968SOL     OW38539   1.351   1.557   3.461 -0.1386  0.3797  0.6863
 8968SOL    HW138540   1.295   1.489   3.423  2.3931 -0.5953 -1.3230
 8968SOL    HW238541   1.370   1.609   3.383  1.7603  0.2441  1.0542
 8969SOL     OW38542   2.634   3.520   8.954 -0.0100 -0.1895  0.2200
 8969SOL    HW138543   2.648   3.592   8.892  3.9933 -0.0397  1.2762
 8969SOL    HW238544   2.578   3.463   8.901  1.8771 -3.5604  1.8258
 8970SOL     OW38545   3.128   2.040   4.397 -0.0422 -0.4336 -0.8774
 8970SOL    HW138546   3.220   2.048   4.423 -0.4273  2.9453 -0.5164
 8970SOL    HW238547   3.081   2.006   4.472  1.6570  1.7835  1.2043
 8971SOL     OW38548   3.044   3.296   3.991 -0.3892  0.1187 -1.0631
 8971SOL    HW138549   3.084   3.214   3.964 -0.0634  0.4700 -1.6384
 8971SOL    HW238550   2.968   3.307   3.935  0.3679 -0.6596 -2.2358
 8972SOL     OW38551   0.590   1.417  14.778  0.1494  0.6453 -0.1612
 8972SOL    HW138552   0.661   1.368  14.819 -1.2817  0.2729  1.8683
 8972SOL    HW238553   0.516   1.410  14.838 -0.6422  1.0057 -1.0968
 8973SOL     OW38554   2.540   0.218   3.662 -0.4691  0.0337 -0.5775
 8973SOL    HW138555   2.506   0.282   3.726 -2.0333 -2.8863  1.5540
 8973SOL    HW238556   2.605   0.179   3.721  0.4107  0.1081 -1.5025
 8974SOL     OW38557   4.213   2.886   4.796  0.3193 -0.1121  0.0751
 8974SOL    HW138558   4.227   2.896   4.702  0.3221 -0.8649 -0.0032
 8974SOL    HW238559   4.153   2.812   4.798 -1.0211  0.9712  0.3385
 8975SOL     OW38560   3.887   2.511   2.311 -0.3305 -0.0826 -0.3937
 8975SOL    HW138561   3.806   2.470   2.282 -1.9102  2.9839 -0.3047
 8975SOL    HW238562   3.877   2.598   2.272 -0.4949  1.0958  2.2878
 8976SOL     OW38563   0.593   4.337  16.148 -0.3790  0.4342  0.1814
 8976SOL    HW138564   0.578   4.340  16.054 -1.9100  1.0937  0.4489
 8976SOL    HW238565   0.581   4.427  16.179 -0.5962  0.7882 -0.9418
 8977SOL     OW38566   3.886   0.759   8.251 -0.3120 -0.1167  0.0761
 8977SOL    HW138567   3.809   0.738   8.198  0.6542 -0.1113 -1.3295
 8977SOL    HW238568   3.886   0.855   8.245  0.7005  0.0404  2.7542
 8978SOL     OW38569   1.289   1.538   8.849  0.2087 -0.5916 -0.0357
 8978SOL    HW138570   1.384   1.526   8.861  0.5024  1.4891 -0.4111
 8978SOL    HW238571   1.261   1.458   8.895 -2.0384  0.1974 -0.0730
 8979SOL     OW38572   0.159   0.407   7.936 -0.0278 -0.0362 -0.3024
 8979SOL    HW138573   0.108   0.448   8.006 -1.2450 -2.5974  0.3155
 8979SOL    HW238574   0.109   0.444   7.863  2.5420  1.2317 -1.4237
 8980SOL     OW38575   4.194   2.723  13.982  0.1906  0.5332  0.0105
 8980SOL    HW138576   4.282   2.696  13.955  0.3051  1.1114 -0.2006
 8980SOL    HW238577   4.213   2.812  14.012 -2.1254  0.2960  2.1767
 8981SOL     OW38578   2.935   3.878   8.214 -0.2554  0.3119  0.1769
 8981SOL    HW138579   2.848   3.871   8.175 -0.1841  1.3974 -0.1833
 8981SOL    HW238580   2.963   3.954   8.163  0.6302 -0.0356  0.1360
 8982SOL     OW38581   0.736   3.619   1.060 -0.3860  0.0239  0.2470
 8982SOL    HW138582   0.668   3.586   1.118  0.3026 -2.5658 -0.3981
 8982SOL    HW238583   0.811   3.578   1.103  0.3190  2.1853  1.0487
 8983SOL     OW38584   1.373   2.111   3.653 -0.1287  0.2830 -0.1415
 8983SOL    HW138585   1.339   2.042   3.596  0.9711 -1.1591  0.9644
 8983SOL    HW238586   1.355   2.063   3.734  2.6307 -0.0268  0.2936
 8984SOL     OW38587   4.693   0.804  11.130  0.2593 -0.4368  0.4335
 8984SOL    HW138588   4.736   0.826  11.212  0.6227  0.8104 -0.1020
 8984SOL    HW238589   4.601   0.812  11.154 -0.1939 -0.6353 -1.2720
 8985SOL     OW38590   4.234   1.619   4.007  0.1821  0.0294  0.1427
 8985SOL    HW138591   4.147   1.657   3.999 -0.4735 -1.1956  1.4678
 8985SOL    HW238592   4.287   1.699   4.015  3.7106 -2.4411  1.1024
 8986SOL     OW38593   3.440   2.987  15.319 -0.2734 -0.3791 -0.4084
 8986SOL    HW138594   3.449   2.892  15.331 -1.8732 -0.3845  0.7456
 8986SOL    HW238595   3.388   3.007  15.397  0.3108 -1.3934  0.2457
 8987SOL     OW38596   1.087   2.650   3.694  0.1416 -0.0247 -0.9922
 8987SOL    HW138597   1.145   2.579   3.665  0.1780  0.1695 -1.3964
 8987SOL    HW238598   1.111   2.643   3.787  0.0862 -0.8582 -1.0402
 8988SOL     OW38599   2.434   4.512   8.150 -0.2304  0.4326  0.1144
 8988SOL    HW138600   2.496   4.507   8.223  0.4009  0.1795 -0.4371
 8988SOL    HW238601   2.383   4.434   8.170 -0.2720  0.6498  0.8404
 8989SOL     OW38602   2.031   0.776   7.046 -0.1609 -0.4495  0.1218
 8989SOL    HW138603   1.947   0.821   7.032 -0.4261 -0.9241  0.1862
 8989SOL    HW238604   2.020   0.778   7.141 -1.2481  1.6857 -0.0422
 8990SOL     OW38605   1.207   2.591  16.461  0.0708 -0.2306 -0.1285
 8990SOL    HW138606   1.268   2.663  16.479  1.6073 -1.8711  1.2078
 8990SOL    HW238607   1.194   2.554  16.548  1.0237 -2.1596 -0.8223
 8991SOL     OW38608   3.914   0.674   3.549 -0.1880  0.4061 -0.2727
 8991SOL    HW138609   3.927   0.769   3.554  0.4654  0.1559  2.5946
 8991SOL    HW238610   3.941   0.654   3.638 -0.3975 -2.4291 -0.8266
 8992SOL     OW38611   3.564   2.852   5.083 -0.3777 -1.2270  0.2229
 8992SOL    HW138612   3.598   2.938   5.058 -0.7773 -0.9653  0.5816
 8992SOL    HW238613   3.470   2.867   5.091 -0.1442 -1.6970  3.7928
 8993SOL     OW38614   4.107   2.006   0.775  0.5198  0.4099 -1.2637
 8993SOL    HW138615   4.096   2.075   0.840 -1.6866 -1.1241 -0.0236
 8993SOL    HW238616   4.150   1.938   0.827  0.7622  2.6258  1.4311
 8994SOL     OW38617   2.687   0.124   6.342 -0.0481 -0.2131  0.3064
 8994SOL    HW138618   2.685   0.180   6.421 -0.8502 -1.1524  0.9517
 8994SOL    HW238619   2.592   0.112   6.343 -0.1411  0.4982  1.1158
 8995SOL     OW38620   3.614   1.168   9.804 -0.4131  0.2972 -0.3425
 8995SOL    HW138621   3.669   1.129   9.736  0.4537  0.3330  0.3469
 8995SOL    HW238622   3.668   1.143   9.879 -0.0053 -2.7687 -1.6769
 8996SOL     OW38623   2.946   3.065   5.599  0.4192  0.4210  0.0138
 8996SOL    HW138624   2.876   3.070   5.664  0.1357  0.1141 -0.2711
 8996SOL    HW238625   2.914   3.136   5.544  1.5126  0.1837 -0.9343
 8997SOL     OW38626   0.591   3.595   6.295  1.0113 -0.0012  0.2082
 8997SOL    HW138627   0.514   3.546   6.266  0.1646 -0.2992  3.0139
 8997SOL    HW238628   0.660   3.534   6.266  0.1320 -1.7094  1.6884
 8998SOL     OW38629   1.930   0.082   4.566 -0.4754 -0.7918  0.8782
 8998SOL    HW138630   1.971   0.128   4.493 -3.3246  0.7021  0.2217
 8998SOL    HW238631   1.837   0.102   4.562 -0.5472 -0.8637  2.1025
 8999SOL     OW38632   0.692   1.568   7.290  0.1629 -0.3827 -0.6870
 8999SOL    HW138633   0.668   1.625   7.363  1.3286  1.4175 -1.7199
 8999SOL    HW238634   0.730   1.629   7.227  0.6890 -0.8679 -0.8442
 9000SOL     OW38635   2.151   0.204  16.918 -0.4381 -0.2416 -0.0548
 9000SOL    HW138636   2.143   0.132  16.855 -1.7961  0.9274 -1.1955
 9000SOL    HW238637   2.122   0.158  16.997  0.6684  0.4339  0.7406
 9001SOL     OW38638   4.271   1.827  13.793 -0.6072  0.1452  0.4760
 9001SOL    HW138639   4.262   1.827  13.888  0.3593  1.8509  0.5567
 9001SOL    HW238640   4.248   1.918  13.777 -1.8878 -0.1819  0.4437
 9002SOL     OW38641   1.799   0.677   7.467  0.4637  0.0675 -0.3445
 9002SOL    HW138642   1.718   0.633   7.493  0.4794 -0.2759 -0.8809
 9002SOL    HW238643   1.852   0.605   7.432  1.1681  0.7407 -0.6810
 9003SOL     OW38644   0.412   1.082  12.056  0.1151  0.0353 -0.2795
 9003SOL    HW138645   0.400   1.175  12.072  1.3194 -0.2397  2.2100
 9003SOL    HW238646   0.494   1.076  12.105  0.3612  1.1428 -0.5829
 9004SOL     OW38647   2.901   2.754   2.249 -0.0767 -0.6385  0.1863
 9004SOL    HW138648   2.844   2.829   2.266 -0.3611 -0.9631  0.6760
 9004SOL    HW238649   2.847   2.684   2.286 -0.4089  0.3070  1.4911
 9005SOL     OW38650   1.063   2.137   3.773 -0.0060  0.0096  0.5603
 9005SOL    HW138651   0.979   2.169   3.740 -0.0994 -2.2099 -1.3690
 9005SOL    HW238652   1.121   2.191   3.720 -1.4689  1.1913  0.1480
 9006SOL     OW38653   0.442   4.443  12.318  0.2551  0.1071  0.4342
 9006SOL    HW138654   0.405   4.444  12.229 -0.6367  0.7582  0.8133
 9006SOL    HW238655   0.535   4.462  12.304  0.0560  1.4996  0.9710
 9007SOL     OW38656   0.367   1.859   4.390  0.0247 -0.0226  0.3409
 9007SOL    HW138657   0.391   1.780   4.440  1.8434  0.9340  0.9817
 9007SOL    HW238658   0.283   1.885   4.428 -0.5555  0.9159 -1.5929
 9008SOL     OW38659   0.473   1.672   8.605  0.1484  0.5350  0.2329
 9008SOL    HW138660   0.457   1.628   8.522 -0.1358 -1.7498  1.5004
 9008SOL    HW238661   0.495   1.762   8.578  0.5715  0.9551  1.9814
 9009SOL     OW38662   2.336   0.599   2.839 -0.1337 -0.1371  0.1553
 9009SOL    HW138663   2.408   0.538   2.853  0.2554  0.0464 -1.0714
 9009SOL    HW238664   2.292   0.554   2.911  0.7816  0.4509  1.0905
 9010SOL     OW38665   2.184   3.294  11.364  0.4972 -0.0221  0.1260
 9010SOL    HW138666   2.263   3.338  11.395  1.7329 -1.9830 -0.2842
 9010SOL    HW238667   2.202   3.203  11.386 -1.0832 -0.0976  1.0950
 9011SOL     OW38668   1.101   1.341   0.854 -0.2687 -0.1770  0.2091
 9011SOL    HW138669   1.118   1.249   0.873  1.0389  0.0785  0.2653
 9011SOL    HW238670   1.187   1.370   0.826  0.1490  0.0420  1.7221
 9012SOL     OW38671   1.296   3.029   9.805  0.3870 -0.3725 -0.0198
 9012SOL    HW138672   1.333   2.941   9.808  0.6558 -0.3319 -2.2076
 9012SOL    HW238673   1.309   3.056   9.896  1.8893 -0.1301 -0.3009
 9013SOL     OW38674   3.230   1.192   5.132 -0.1032 -0.0046  0.7009
 9013SOL    HW138675   3.237   1.181   5.226  1.9185  0.9159  0.6709
 9013SOL    HW238676   3.323   1.209   5.117 -0.2183  0.2426  0.2673
 9014SOL     OW38677   4.347   2.587   5.336  0.0877  0.1845  0.3312
 9014SOL    HW138678   4.287   2.521   5.372 -1.6586  2.5675  1.8003
 9014SOL    HW238679   4.343   2.659   5.399 -1.5962  3.3934 -3.4229
 9015SOL     OW38680   0.390   0.437   6.335  0.1110  0.2696 -0.0619
 9015SOL    HW138681   0.454   0.403   6.272 -1.7571 -1.0131 -1.2739
 9015SOL    HW238682   0.381   0.528   6.306 -2.9862  0.6556  2.1302
 9016SOL     OW38683   3.874   1.288   6.229  0.0169 -0.5041 -0.5108
 9016SOL    HW138684   3.799   1.249   6.275  0.5435  0.0103  0.7881
 9016SOL    HW238685   3.936   1.303   6.300 -2.6002  1.6669  1.3044
 9017SOL     OW38686   0.331   0.371   4.804 -0.1069 -0.1456 -0.4767
 9017SOL    HW138687   0.326   0.466   4.805 -0.7915 -0.1791 -0.9984
 9017SOL    HW238688   0.250   0.346   4.849 -1.0856  0.3080 -2.0097
 9018SOL     OW38689   4.671   2.459   1.978 -0.0981  0.2506  0.7446
 9018SOL    HW138690   4.670   2.508   2.061 -3.6955 -0.6061  1.2520
 9018SOL    HW238691   4.621   2.381   2.004  0.1979  0.6321  2.5156
 9019SOL     OW38692   1.912   4.352   6.591  0.3252  0.0423  0.2750
 9019SOL    HW138693   1.857   4.275   6.605  0.1456  0.0131 -0.6077
 9019SOL    HW238694   1.849   4.424   6.600 -1.3675 -1.4302  0.1779
 9020SOL     OW38695   3.826   3.208   5.809 -0.4945  0.3340 -0.2080
 9020SOL    HW138696   3.772   3.185   5.734 -1.3807 -0.0473  0.5419
 9020SOL    HW238697   3.912   3.188   5.774 -0.6566 -0.7099 -0.0195
 9021SOL     OW38698   1.263   1.402  13.494 -0.4020  0.2862 -0.3249
 9021SOL    HW138699   1.324   1.415  13.421  0.2646  0.2242  0.2200
 9021SOL    HW238700   1.248   1.496  13.507 -2.0948 -0.2602  1.5840
 9022SOL     OW38701   2.365   3.864   4.463  0.1385 -0.4517 -0.6672
 9022SOL    HW138702   2.353   3.959   4.462  0.7434 -0.3670  0.2221
 9022SOL    HW238703   2.291   3.833   4.410  0.0194 -0.1138 -0.7009
 9023SOL     OW38704   3.795   1.621   4.857  0.0702  0.0459 -0.2495
 9023SOL    HW138705   3.793   1.683   4.931  2.9747  0.8960 -0.8999
 9023SOL    HW238706   3.730   1.660   4.799 -0.7846 -0.4465  0.3703
 9024SOL     OW38707   3.033   0.572  15.183  0.5334 -0.4676  0.5809
 9024SOL    HW138708   3.069   0.642  15.128 -0.9247 -1.0855 -1.1766
 9024SOL    HW238709   3.081   0.499  15.145 -0.1402  0.0756 -1.3400
 9025SOL     OW38710   2.833   1.666   5.160  0.0246  0.0763 -0.2856
 9025SOL    HW138711   2.922   1.647   5.188 -0.2065 -2.2464 -1.1492
 9025SOL    HW238712   2.809   1.738   5.218 -2.1662  1.7858 -3.3254
 9026SOL     OW38713   0.544   1.247   7.736 -0.5720 -0.3091 -0.1004
 9026SOL    HW138714   0.582   1.196   7.808 -0.0011 -0.3342 -0.4207
 9026SOL    HW238715   0.452   1.231   7.753 -0.6696 -1.6033 -1.8281
 9027SOL     OW38716   4.156   3.130   3.177  0.3723 -0.1889 -0.2792
 9027SOL    HW138717   4.228   3.098   3.231  0.4745  0.4881 -0.0109
 9027SOL    HW238718   4.162   3.072   3.100 -2.6385 -2.2178  0.9859
 9028SOL     OW38719   1.155   3.728   7.422 -0.2621 -0.2936 -0.1633
 9028SOL    HW138720   1.122   3.708   7.334  1.0965  0.1071 -0.7660
 9028SOL    HW238721   1.202   3.649   7.447 -0.8365 -1.3620 -2.4496
 9029SOL     OW38722   1.730   3.994   3.922 -0.0111 -0.3004 -0.2661
 9029SOL    HW138723   1.762   4.062   3.864  1.6394 -1.2238 -0.4399
 9029SOL    HW238724   1.778   3.917   3.892 -1.0729 -1.8397  1.9393
 9030SOL     OW38725   1.107   1.375   1.558  0.2429  0.2614  0.3850
 9030SOL    HW138726   1.185   1.323   1.581  1.7615  2.3179 -0.1302
 9030SOL    HW238727   1.140   1.410   1.475 -2.3569  0.0415 -0.7463
 9031SOL     OW38728   1.457   2.721  12.179  0.1649 -0.2116  0.5358
 9031SOL    HW138729   1.478   2.810  12.205  1.5569 -0.4321  0.1843
 9031SOL    HW238730   1.532   2.715  12.120  0.1770  0.3805  0.4959
 9032SOL     OW38731   3.321   1.271   7.599 -0.3343 -0.1715 -0.9988
 9032SOL    HW138732   3.375   1.350   7.600  0.7150 -0.9234  1.1525
 9032SOL    HW238733   3.235   1.313   7.596 -0.9599 -1.2396  1.3313
 9033SOL     OW38734   1.182   1.976   1.787  0.0724 -0.0556 -0.5033
 9033SOL    HW138735   1.252   2.031   1.751 -0.0543 -0.0576 -0.7535
 9033SOL    HW238736   1.191   1.893   1.740  3.6731  0.2639 -0.3945
 9034SOL     OW38737   2.109   2.057  16.912 -0.2890  0.6468 -0.1971
 9034SOL    HW138738   2.112   2.151  16.929  0.6231  0.9019 -1.8376
 9034SOL    HW238739   2.073   2.036  16.999  0.1984  1.6779  0.2448
 9035SOL     OW38740   2.940   2.789   7.300 -0.5277  0.2644 -0.2754
 9035SOL    HW138741   2.897   2.864   7.341 -1.2517 -1.8177  2.7806
 9035SOL    HW238742   2.903   2.791   7.212  1.5403  1.1402 -1.1075
 9036SOL     OW38743   3.210   1.250   6.382 -0.2956  0.1491  0.1246
 9036SOL    HW138744   3.251   1.325   6.425 -0.7565  0.3151  0.2785
 9036SOL    HW238745   3.153   1.297   6.321  1.3130  1.4805 -0.3496
 9037SOL     OW38746   4.633   2.246  10.099 -0.5117 -0.1707  0.6573
 9037SOL    HW138747   4.699   2.296  10.051  0.7464 -0.6875  1.8254
 9037SOL    HW238748   4.573   2.245  10.025  2.1764  0.6807 -1.5102
 9038SOL     OW38749   2.930   1.517  16.689  0.1544 -0.3739 -0.3483
 9038SOL    HW138750   2.974   1.469  16.619 -0.1252  1.0144 -1.4679
 9038SOL    HW238751   2.859   1.557  16.639 -1.8241 -1.1922  1.8317
 9039SOL     OW38752   0.608   1.728   7.686 -0.2307  0.7522  0.2108
 9039SOL    HW138753   0.562   1.644   7.696 -1.6946  1.9084  3.1649
 9039SOL    HW238754   0.546   1.774   7.630 -1.6725  1.0790  2.0754
 9040SOL     OW38755   0.247   1.996   4.890 -0.3208 -0.3169 -0.2450
 9040SOL    HW138756   0.274   2.064   4.829  0.9163 -0.1442  0.4950
 9040SOL    HW238757   0.182   2.051   4.934 -0.1932  1.5415 -2.3882
 9041SOL     OW38758   0.630   2.941   5.830  0.5416 -0.3044  0.0199
 9041SOL    HW138759   0.690   2.916   5.760 -2.0371  1.6251 -2.8988
 9041SOL    HW238760   0.624   3.035   5.810 -1.6506 -0.6057 -0.8290
 9042SOL     OW38761   3.900   2.843  13.306 -0.6795 -0.5649 -0.2529
 9042SOL    HW138762   3.889   2.759  13.350 -0.2849  0.6516  2.1715
 9042SOL    HW238763   3.975   2.819  13.251 -0.9626 -1.0656 -0.4184
 9043SOL     OW38764   3.647   4.284   6.501 -0.3532 -0.2649  0.4296
 9043SOL    HW138765   3.629   4.191   6.486 -1.0570  0.0999 -0.9872
 9043SOL    HW238766   3.576   4.306   6.561 -0.4413 -2.1525  1.0392
 9044SOL     OW38767   3.640   3.409   2.262  0.2549  0.3263  0.1641
 9044SOL    HW138768   3.660   3.415   2.355  0.8758 -0.2820  0.0705
 9044SOL    HW238769   3.690   3.330   2.241  0.7754  1.0781 -1.4514
 9045SOL     OW38770   1.483   0.177   8.517 -0.1607 -0.5942  0.2094
 9045SOL    HW138771   1.399   0.171   8.471 -1.1633  1.8962  1.7422
 9045SOL    HW238772   1.482   0.272   8.530 -0.0398 -0.8294  1.9583
 9046SOL     OW38773   3.800   1.532   7.908 -0.6579 -0.3686  0.1633
 9046SOL    HW138774   3.844   1.478   7.973 -0.3848  1.9165  1.8474
 9046SOL    HW238775   3.713   1.549   7.944 -0.2840 -0.3471  1.0484
 9047SOL     OW38776   2.697   3.171   2.815  0.2149 -0.0707 -0.2321
 9047SOL    HW138777   2.687   3.077   2.833  0.8543  0.2935  2.1283
 9047SOL    HW238778   2.673   3.213   2.898 -2.3415 -0.2858 -0.8749
 9048SOL     OW38779   1.223   3.820   2.517  0.2512 -0.2790  0.1176
 9048SOL    HW138780   1.160   3.789   2.582  0.8227  2.9969  2.2196
 9048SOL    HW238781   1.256   3.902   2.552 -1.0946  0.0704  0.5735
 9049SOL     OW38782   4.117   0.916   8.508 -0.0176  0.2818 -0.3824
 9049SOL    HW138783   4.124   0.906   8.413 -1.3685  0.5619 -0.5071
 9049SOL    HW238784   4.024   0.903   8.527  0.5665 -0.7276  1.7831
 9050SOL     OW38785   0.779   4.496   4.381 -0.2788  0.2196 -0.5191
 9050SOL    HW138786   0.828   4.504   4.299  1.0536  1.1559  0.3849
 9050SOL    HW238787   0.808   4.583   4.407 -2.2463  0.4488  0.8613
 9051SOL     OW38788   2.676   4.080   9.023  0.0148  0.1051 -0.0423
 9051SOL    HW138789   2.624   4.024   8.965  2.0589 -1.8952  0.0720
 9051SOL    HW238790   2.705   4.011   9.082 -0.4439  0.4531  0.5889
 9052SOL     OW38791   2.777   0.290   3.382  0.2631  0.6278 -0.3053
 9052SOL    HW138792   2.800   0.241   3.460  2.2603 -1.5547 -2.2567
 9052SOL    HW238793   2.792   0.381   3.407  0.7005  0.2875  0.6508
 9053SOL     OW38794   4.017   3.161  12.214 -0.1687  0.1611 -0.2484
 9053SOL    HW138795   4.036   3.157  12.121 -1.7956  1.4712 -0.6384
 9053SOL    HW238796   3.941   3.220  12.207 -0.8164 -0.8387 -1.5220
 9054SOL     OW38797   2.844   1.711   9.960  0.2007  0.2562 -0.1206
 9054SOL    HW138798   2.868   1.645   9.895  0.2561 -1.3062  1.4610
 9054SOL    HW238799   2.920   1.723  10.017  0.5520  1.1912 -0.7858
 9055SOL     OW38800   2.590   0.003   0.971 -0.0924 -0.4997  0.1016
 9055SOL    HW138801   2.535   0.063   0.921 -1.0050 -2.0532 -0.7186
 9055SOL    HW238802   2.637   0.062   1.031 -1.0319  1.3370 -0.9602
 9056SOL     OW38803   2.976   0.100  14.238 -0.7127  0.4558 -0.0968
 9056SOL    HW138804   2.977   0.073  14.147  1.6053 -1.1556  0.3933
 9056SOL    HW238805   3.067   0.125  14.253 -0.7334  1.7121 -2.1464
 9057SOL     OW38806   0.678   4.604   8.729  0.1453  0.4114 -0.2960
 9057SOL    HW138807   0.608   4.569   8.783 -0.0328  1.7812  0.3707
 9057SOL    HW238808   0.740   4.636   8.795 -1.3184  1.8273  0.3987
 9058SOL     OW38809   1.560   4.504   4.164 -1.0280  0.1411 -0.2785
 9058SOL    HW138810   1.556   4.562   4.239 -1.5047 -0.9415  0.5283
 9058SOL    HW238811   1.556   4.570   4.095  0.1551 -0.4171 -0.8880
 9059SOL     OW38812   2.222   3.096  16.983 -0.2553 -0.1179 -0.2182
 9059SOL    HW138813   2.164   3.173  16.983  1.7657  1.3868 -1.0787
 9059SOL    HW238814   2.159   3.027  16.965 -0.3992 -0.6005  2.1473
 9060SOL     OW38815   4.661   2.360   9.737  0.2158  0.6378 -0.0960
 9060SOL    HW138816   4.712   2.282   9.713 -1.8980 -1.3305  1.6927
 9060SOL    HW238817   4.610   2.392   9.662  1.9743  0.4601 -1.3704
 9061SOL     OW38818   4.637   3.448   6.785 -0.2282  0.3064 -0.0989
 9061SOL    HW138819   4.696   3.474   6.856 -0.1193 -2.3518  0.8111
 9061SOL    HW238820   4.638   3.531   6.737  2.1855 -1.2082 -2.6889
 9062SOL     OW38821   1.560   1.454   2.022  0.6642 -0.6841 -0.5576
 9062SOL    HW138822   1.522   1.489   2.102  0.0384 -0.8510 -0.7764
 9062SOL    HW238823   1.654   1.458   2.040  0.6003 -0.8449 -0.1785
 9063SOL     OW38824   3.988   0.642   3.811  0.0990  0.4315 -0.8499
 9063SOL    HW138825   3.952   0.559   3.843  2.0436 -0.5700 -1.2933
 9063SOL    HW238826   3.955   0.702   3.878 -0.3295 -1.1260  0.3561
 9064SOL     OW38827   3.786   0.842  17.430  0.0666  0.4761  0.2033
 9064SOL    HW138828   3.811   0.883  17.514  0.4542  0.2561  0.1976
 9064SOL    HW238829   3.826   0.908  17.373  0.0733  1.3259  1.1926
 9065SOL     OW38830   2.998   3.159  14.108  0.4548  0.1511 -0.2083
 9065SOL    HW138831   2.996   3.064  14.120  0.1527  0.2347  0.4184
 9065SOL    HW238832   3.090   3.177  14.088  0.4766 -1.0649 -1.2102
 9066SOL     OW38833   0.970   3.496   1.153  0.1127  0.1668  0.9386
 9066SOL    HW138834   1.008   3.413   1.181 -0.9399 -0.5853  0.1273
 9066SOL    HW238835   1.035   3.560   1.180  1.1983 -0.4669 -0.1618
 9067SOL     OW38836   2.784   4.157  11.931 -0.5388 -0.7750 -0.4105
 9067SOL    HW138837   2.851   4.209  11.975 -1.7402  0.3956  0.0037
 9067SOL    HW238838   2.736   4.226  11.886 -0.8049  0.1554  1.3308
 9068SOL     OW38839   1.550   1.175   2.368  0.3933 -0.2924 -0.5873
 9068SOL    HW138840   1.484   1.108   2.349  0.0964  0.3439 -1.8300
 9068SOL    HW238841   1.580   1.189   2.279  0.1144 -0.2570 -0.6778
 9069SOL     OW38842   3.883   3.563   4.251  0.2185 -0.4364 -0.1219
 9069SOL    HW138843   3.800   3.520   4.229  1.0845 -2.1202 -0.1195
 9069SOL    HW238844   3.950   3.495   4.240 -1.0543 -1.4945 -1.4147
 9070SOL     OW38845   4.336   3.483   2.785 -0.3192  0.2647  0.0538
 9070SOL    HW138846   4.253   3.491   2.738 -0.2933 -0.5023 -0.1286
 9070SOL    HW238847   4.370   3.402   2.747  0.7973  0.7212  0.0709
 9071SOL     OW38848   3.909   3.466   9.201 -0.1058  0.1609 -0.3371
 9071SOL    HW138849   3.861   3.446   9.120  0.7856  1.4975 -1.1914
 9071SOL    HW238850   3.995   3.433   9.177  0.4278 -0.2467  2.2181
 9072SOL     OW38851   1.241   3.966   8.244  0.2003  0.5161  0.0699
 9072SOL    HW138852   1.273   3.878   8.225 -2.0558 -0.3794  0.4214
 9072SOL    HW238853   1.199   3.997   8.164  0.3285 -0.5142 -0.3861
 9073SOL     OW38854   1.427   2.972   6.481 -0.5418  0.4072  0.6931
 9073SOL    HW138855   1.353   2.995   6.536 -0.6466 -0.6266  0.9907
 9073SOL    HW238856   1.487   2.931   6.544  1.7045 -0.6204 -2.1186
 9074SOL     OW38857   1.087   3.187   6.128  0.1290 -0.1433  0.5890
 9074SOL    HW138858   1.024   3.144   6.186  1.4255 -3.2279 -0.2887
 9074SOL    HW238859   1.145   3.114   6.105  2.6453  1.5386  1.5264
 9075SOL     OW38860   0.649   4.468   2.302  0.7586  0.5119  1.0139
 9075SOL    HW138861   0.735   4.462   2.260  0.6685 -0.7169  1.0093
 9075SOL    HW238862   0.591   4.473   2.226  0.6159 -0.2402  1.0756
 9076SOL     OW38863   1.987   1.598  16.375 -0.0113 -0.3788  0.1771
 9076SOL    HW138864   1.990   1.647  16.458  1.0743 -1.7397  0.9289
 9076SOL    HW238865   1.897   1.602  16.342  0.3548 -1.8032 -0.9803
 9077SOL     OW38866   4.519   2.271   2.560 -0.4528 -0.0853 -0.4228
 9077SOL    HW138867   4.535   2.270   2.466  0.6680 -0.9288 -0.2212
 9077SOL    HW238868   4.593   2.328   2.579 -0.1124 -1.1659  1.4877
 9078SOL     OW38869   0.980   1.935  16.683 -0.3743  0.0118  0.4583
 9078SOL    HW138870   0.908   1.983  16.723 -0.0823 -0.2500  1.2874
 9078SOL    HW238871   1.047   1.926  16.750 -1.5966  1.7109  1.8978
 9079SOL     OW38872   2.210   3.976   0.757  0.0787  0.0114 -0.0902
 9079SOL    HW138873   2.201   4.069   0.781  3.8970  0.3362  0.0321
 9079SOL    HW238874   2.159   3.938   0.829 -0.2489  0.0390 -0.3060
 9080SOL     OW38875   3.594   0.565   7.950 -0.2894  0.1350  0.5608
 9080SOL    HW138876   3.587   0.632   8.018 -2.0905 -0.4706  0.9722
 9080SOL    HW238877   3.583   0.610   7.866  3.0810  0.0558  0.0752
 9081SOL     OW38878   2.946   2.919  11.884  0.0378  0.3238 -0.0454
 9081SOL    HW138879   2.993   2.850  11.931 -0.3862 -0.3363 -0.5894
 9081SOL    HW238880   2.960   2.994  11.942 -0.7784  0.3106  0.1752
 9082SOL     OW38881   4.584   1.897   0.453 -0.6552  0.1051  0.5263
 9082SOL    HW138882   4.622   1.984   0.466  0.0936 -0.1658  0.1463
 9082SOL    HW238883   4.539   1.903   0.537 -1.7217  1.2044 -0.1348
 9083SOL     OW38884   3.744   3.209   5.236  0.6069 -0.1275  0.4556
 9083SOL    HW138885   3.699   3.201   5.153 -0.3284 -1.1308  1.0649
 9083SOL    HW238886   3.727   3.122   5.271 -1.8816  0.8627  1.6699
 9084SOL     OW38887   1.390   4.226   9.993 -0.1434  0.0497 -0.8673
 9084SOL    HW138888   1.335   4.152   9.969 -0.7707  0.1856  0.1411
 9084SOL    HW238889   1.378   4.283   9.917 -0.8277 -2.2879 -2.4966
 9085SOL     OW38890   2.415   0.345   1.822  0.0890  0.5113 -0.0390
 9085SOL    HW138891   2.415   0.422   1.765 -0.2863  0.2849 -0.3484
 9085SOL    HW238892   2.504   0.345   1.855  0.1622  0.4721 -0.2362
 9086SOL     OW38893   3.773   1.425  16.767 -0.0266 -0.2723  0.9278
 9086SOL    HW138894   3.773   1.339  16.808 -1.4917 -1.2435 -1.0880
 9086SOL    HW238895   3.817   1.484  16.828 -0.4426  0.2008  0.7702
 9087SOL     OW38896   0.098   2.014   6.952  0.2219  0.4236 -0.3508
 9087SOL    HW138897   0.020   2.022   7.006  0.9603 -0.3045  0.8223
 9087SOL    HW238898   0.081   2.077   6.882  1.3425  2.3229  1.0974
 9088SOL     OW38899   4.690   0.478   5.536 -0.2457  0.0959 -0.4184
 9088SOL    HW138900   4.609   0.428   5.528  0.0251 -0.5726  0.9206
 9088SOL    HW238901   0.008   0.414   5.572 -1.4435 -0.7063  0.1608
 9089SOL     OW38902   0.204   1.363   5.029  0.4096  0.5513 -0.2918
 9089SOL    HW138903   0.234   1.450   5.004  0.2954  1.3253  2.2559
 9089SOL    HW238904   0.201   1.383   5.122 -0.6911  0.0918 -0.2308
 9090SOL     OW38905   0.098   0.702   6.520 -0.0745 -0.3725 -0.9390
 9090SOL    HW138906   0.055   0.749   6.449 -0.5346  0.2169 -0.2712
 9090SOL    HW238907   0.180   0.680   6.477  0.8124  2.8872 -0.9228
 9091SOL     OW38908   0.613   3.379   8.550 -0.1959 -0.2428 -0.0516
 9091SOL    HW138909   0.648   3.468   8.550 -0.3356 -0.1833  0.4205
 9091SOL    HW238910   0.533   3.395   8.600 -0.3967  1.2748 -0.8821
 9092SOL     OW38911   3.508   4.106   8.402  0.0081 -0.4290  0.4663
 9092SOL    HW138912   3.447   4.129   8.332  1.7128 -0.3194 -0.9830
 9092SOL    HW238913   3.488   4.180   8.460 -0.0940 -0.9690  1.1211
 9093SOL     OW38914   2.635   3.490   9.652 -0.6297  0.3158  0.1923
 9093SOL    HW138915   2.567   3.554   9.674 -1.3321 -0.0241 -0.9984
 9093SOL    HW238916   2.672   3.532   9.574 -1.2219 -1.1798 -0.8937
 9094SOL     OW38917   1.623   1.827   4.717  0.5233  0.1133 -0.4539
 9094SOL    HW138918   1.658   1.740   4.738  0.4516 -0.1034 -1.2276
 9094SOL    HW238919   1.707   1.872   4.728 -0.3748  1.9579 -1.1274
 9095SOL     OW38920   0.297   0.222   4.507  0.4653 -0.2588  0.3345
 9095SOL    HW138921   0.243   0.286   4.553 -0.3197 -0.7266  0.0454
 9095SOL    HW238922   0.341   0.181   4.582 -1.5485 -0.0294  1.6456
 9096SOL     OW38923   3.852   0.803   7.571 -0.2986  0.0919  0.0373
 9096SOL    HW138924   3.892   0.733   7.519  1.4536  2.3865 -1.6736
 9096SOL    HW238925   3.859   0.874   7.507 -1.9491 -1.9968 -2.4604
 9097SOL     OW38926   4.606   3.217   3.844  0.2730  0.5958 -0.5148
 9097SOL    HW138927   4.527   3.199   3.894  1.5165  0.5492  1.4129
 9097SOL    HW238928   4.606   3.140   3.787 -1.0693  0.4726 -0.3388
 9098SOL     OW38929   0.778   2.263   6.926 -0.0344  0.2053  0.3782
 9098SOL    HW138930   0.691   2.289   6.958 -0.1609  0.8622 -0.5120
 9098SOL    HW238931   0.769   2.169   6.915  2.1085  0.1687 -0.9919
 9099SOL     OW38932   3.363   4.653   3.246  0.1060  0.1826 -0.9415
 9099SOL    HW138933   3.298   4.717   3.216  0.5444  1.0410 -0.0576
 9099SOL    HW238934   3.446   4.678   3.204  0.4963 -2.3140 -1.6357
 9100SOL     OW38935   1.598   2.225  12.867  0.1856  0.1191  0.0297
 9100SOL    HW138936   1.607   2.275  12.948  2.1567 -1.7498  0.9414
 9100SOL    HW238937   1.557   2.143  12.893 -0.7221  0.4451 -0.3712
 9101SOL     OW38938   1.910   3.068   5.395 -0.3617 -0.4008  0.0993
 9101SOL    HW138939   1.815   3.073   5.392 -0.3596 -1.0306 -0.8435
 9101SOL    HW238940   1.934   3.072   5.488 -1.4296 -0.9542  0.3901
 9102SOL     OW38941   2.249   0.203   6.734  0.5260  0.6280  0.2537
 9102SOL    HW138942   2.311   0.132   6.720  0.1394  0.2935  0.2604
 9102SOL    HW238943   2.266   0.200   6.828  0.3891 -0.6531  0.2348
 9103SOL     OW38944   2.099   4.274   4.952  0.1183 -0.2071 -0.1665
 9103SOL    HW138945   2.071   4.246   5.039 -0.0606 -0.8687 -0.4325
 9103SOL    HW238946   2.025   4.237   4.905  0.6316  0.5368 -1.5647
 9104SOL     OW38947   2.030   0.537  17.602  0.5027  0.3258  0.7780
 9104SOL    HW138948   2.020   0.626  17.570 -3.1853 -1.1564 -2.2119
 9104SOL    HW238949   2.065   0.545  17.691  0.1143 -1.4859  1.0978
 9105SOL     OW38950   4.512   0.053   7.314  0.5054  0.1664 -0.7941
 9105SOL    HW138951   4.561   0.135   7.308 -0.5701  1.0465  2.1333
 9105SOL    HW238952   4.437   0.068   7.257  2.3033  0.9408 -2.9601
 9106SOL     OW38953   2.041   2.405   0.309  0.4127  0.0782  0.5806
 9106SOL    HW138954   1.993   2.472   0.260 -1.4101 -1.2736  0.5329
 9106SOL    HW238955   1.974   2.358   0.358 -0.6548 -0.6116 -1.5532
 9107SOL     OW38956   3.497   4.330   6.808  0.2534  0.6973 -0.0206
 9107SOL    HW138957   3.459   4.341   6.896 -0.4235  2.7475 -0.5744
 9107SOL    HW238958   3.469   4.412   6.766 -0.3402  0.6538  0.2761
 9108SOL     OW38959   2.055   2.383   1.672 -0.1136 -0.1342  0.6495
 9108SOL    HW138960   2.084   2.407   1.584 -1.4235 -2.5752 -0.4303
 9108SOL    HW238961   2.140   2.349   1.701  0.7092 -0.2985 -1.8753
 9109SOL     OW38962   2.640   0.176   8.011  0.0229 -0.2767 -0.6108
 9109SOL    HW138963   2.558   0.127   8.016 -0.4044  0.7353  2.0273
 9109SOL    HW238964   2.622   0.248   7.950  2.3024  0.1892 -0.7418
 9110SOL     OW38965   3.366   3.149   0.308  0.0765  0.1409 -0.0358
 9110SOL    HW138966   3.290   3.201   0.280  2.1462  3.3642  0.3358
 9110SOL    HW238967   3.352   3.086   0.237  2.3691 -1.3957  0.8858
 9111SOL     OW38968   4.622   1.845  14.506 -0.1725  0.0436 -0.3870
 9111SOL    HW138969   4.704   1.893  14.493 -0.0422 -0.1425 -0.2536
 9111SOL    HW238970   4.563   1.895  14.449  0.3117  0.7424 -0.2804
 9112SOL     OW38971   1.530   4.445   0.640 -0.3170  0.3732 -0.1164
 9112SOL    HW138972   1.486   4.530   0.641  2.3349  1.7139  1.0238
 9112SOL    HW238973   1.575   4.444   0.724 -2.4456 -2.3086  0.9947
 9113SOL     OW38974   2.892   2.767   6.067  0.1630  0.3933  0.4300
 9113SOL    HW138975   2.833   2.700   6.033  2.5478 -1.2076 -0.6025
 9113SOL    HW238976   2.954   2.753   5.995 -0.8118 -1.3111 -0.0722
 9114SOL     OW38977   0.416   2.410   4.871 -0.5505 -0.3677 -0.6607
 9114SOL    HW138978   0.366   2.473   4.818 -0.2889 -1.0669 -1.7351
 9114SOL    HW238979   0.422   2.438   4.962 -2.0960 -0.3634 -0.5688
 9115SOL     OW38980   0.765   3.591   5.896  0.0531 -0.3365  0.4208
 9115SOL    HW138981   0.856   3.582   5.923  0.6499  0.4360 -1.3510
 9115SOL    HW238982   0.752   3.681   5.866 -1.7688 -1.5268 -2.3584
 9116SOL     OW38983   4.100   2.158   1.984  0.2586 -0.3148  0.3367
 9116SOL    HW138984   4.075   2.155   2.076 -1.1251  0.8956  0.0067
 9116SOL    HW238985   4.100   2.067   1.953  3.6911  0.1836 -1.1244
 9117SOL     OW38986   2.423   1.143  17.104  0.0737 -0.0038 -0.3142
 9117SOL    HW138987   2.454   1.080  17.039 -0.0957 -0.6498  0.2246
 9117SOL    HW238988   2.456   1.106  17.186  0.4236  1.9191  0.4149
 9118SOL     OW38989   0.272   1.323   2.966  0.2385 -0.3449  0.8022
 9118SOL    HW138990   0.229   1.390   3.019  0.1698 -0.4278  0.8509
 9118SOL    HW238991   0.354   1.370   2.949 -0.5546  0.6214 -0.3244
 9119SOL     OW38992   3.513   1.567   9.598  0.1557  0.0865  0.0933
 9119SOL    HW138993   3.472   1.625   9.662  3.7243  1.1000  1.4567
 9119SOL    HW238994   3.445   1.505   9.573  0.8590 -0.7604  0.2607
 9120SOL     OW38995   1.750   0.053  13.737  0.7013 -0.5604 -0.2545
 9120SOL    HW138996   1.811   0.126  13.735  0.4561 -0.2887  2.2953
 9120SOL    HW238997   1.678   0.099  13.781  0.8100 -1.4714  0.9041
 9121SOL     OW38998   3.289   4.142   1.021 -0.3462  0.1727  0.3113
 9121SOL    HW138999   3.221   4.206   1.042 -1.0401 -1.1798  2.1557
 9121SOL    HW239000   3.315   4.102   1.104 -1.9383  1.7147  1.5620
 9122SOL     OW39001   2.100   1.309   9.660  0.5076 -0.4600 -0.1825
 9122SOL    HW139002   2.009   1.303   9.690  0.5747  3.3820  0.7108
 9122SOL    HW239003   2.152   1.304   9.740  1.4477 -0.9843 -0.8260
 9123SOL     OW39004   1.200   1.743   9.463  0.2948 -0.5155 -0.3098
 9123SOL    HW139005   1.241   1.657   9.456 -0.0332 -0.5810 -1.4686
 9123SOL    HW239006   1.176   1.737   9.555  0.7587 -0.7525 -0.2063
 9124SOL     OW39007   3.971   3.551   5.220 -0.2128 -0.2307  0.2199
 9124SOL    HW139008   3.905   3.560   5.152  0.3663 -1.9942 -0.5843
 9124SOL    HW239009   3.988   3.644   5.233  1.0531 -0.4846  0.4269
 9125SOL     OW39010   1.514   0.316  15.244 -0.5355 -0.6717 -0.3369
 9125SOL    HW139011   1.475   0.354  15.165 -3.1140  0.0589  1.2714
 9125SOL    HW239012   1.599   0.291  15.210 -0.4170  0.3255 -0.7929
 9126SOL     OW39013   3.682   4.216   0.420 -0.3746 -0.4290  0.6241
 9126SOL    HW139014   3.691   4.285   0.486  0.2414  0.1217 -0.0291
 9126SOL    HW239015   3.730   4.144   0.461  0.8739  0.1255  0.1456
 9127SOL     OW39016   1.340   0.866  12.661 -0.1398  0.5166 -0.0109
 9127SOL    HW139017   1.291   0.788  12.637 -0.1469  0.2935  0.7261
 9127SOL    HW239018   1.393   0.862  12.581  0.8604  0.7745  0.6303
 9128SOL     OW39019   2.528   3.268   6.705  0.3421  0.2263  0.3690
 9128SOL    HW139020   2.596   3.335   6.708  0.3338  0.1996  1.4279
 9128SOL    HW239021   2.535   3.235   6.795  0.3837  2.1855  1.0756
 9129SOL     OW39022   0.948   2.534   9.539  0.1121  0.4375  0.1166
 9129SOL    HW139023   0.875   2.501   9.487  0.9627 -0.3371 -0.5917
 9129SOL    HW239024   0.984   2.606   9.486 -0.4737 -0.4865 -1.5358
 9130SOL     OW39025   3.948   0.268  17.732 -0.5813  0.0115  0.3469
 9130SOL    HW139026   3.924   0.267   0.055 -0.2617  0.0009  0.4299
 9130SOL    HW239027   3.859   0.274  17.697 -0.9726 -1.1477  1.1603
 9131SOL     OW39028   1.344   2.109   5.062 -0.3295  0.4478  0.8152
 9131SOL    HW139029   1.252   2.089   5.078 -0.7389  0.2743 -1.8378
 9131SOL    HW239030   1.338   2.148   4.975  1.2991 -1.2064 -0.0443
 9132SOL     OW39031   3.866   4.094  17.678  0.0273 -0.1715  0.6238
 9132SOL    HW139032   3.824   4.011  17.657  0.8463 -0.1433 -1.1195
 9132SOL    HW239033   3.860   4.085   0.004 -2.7984 -0.0249  0.4725
 9133SOL     OW39034   0.172   0.131   5.107  0.1363 -0.6400  0.1960
 9133SOL    HW139035   0.156   0.092   5.022  1.4699 -1.3659  0.2771
 9133SOL    HW239036   0.154   0.065   5.173 -1.0745 -0.5887 -0.0916
 9134SOL     OW39037   2.528   3.211   7.710  0.1295 -0.1478  0.3210
 9134SOL    HW139038   2.567   3.257   7.784  0.5372  0.6394 -0.3850
 9134SOL    HW239039   2.490   3.278   7.653 -0.0144  2.5442  3.5366
 9135SOL     OW39040   3.380   3.323   2.562 -0.2460  0.0892  0.0815
 9135SOL    HW139041   3.476   3.321   2.559 -0.3110 -2.7452  0.3845
 9135SOL    HW239042   3.363   3.234   2.591  3.0684 -0.9545 -1.1928
 9136SOL     OW39043   1.937   4.708   5.678 -0.3389 -0.7061 -0.7220
 9136SOL    HW139044   2.026   4.681   5.653  0.3932 -0.5494  1.7387
 9136SOL    HW239045   1.947   4.730   5.771 -0.5455  0.6605 -1.0160
 9137SOL     OW39046   3.690   1.645   9.425 -0.2632  0.1538 -0.0263
 9137SOL    HW139047   3.644   1.622   9.505  0.7150 -1.8614 -0.0420
 9137SOL    HW239048   3.685   1.739   9.442 -2.5711  0.0096  0.1351
 9138SOL     OW39049   2.619   1.639   8.310  0.3479  0.5403  0.3397
 9138SOL    HW139050   2.537   1.593   8.327  0.2290  0.2258 -1.0719
 9138SOL    HW239051   2.676   1.562   8.302  0.2066  0.4892 -0.1700
 9139SOL     OW39052   0.036   2.496  14.954 -0.0581 -0.1802  0.2794
 9139SOL    HW139053   4.729   2.524  15.030  0.8711  1.7374  0.1767
 9139SOL    HW239054   0.107   2.558  14.970  0.9762 -1.4081  0.4737
 9140SOL     OW39055   2.509   2.332   3.210  0.0500  0.0639  0.5396
 9140SOL    HW139056   2.461   2.400   3.162  0.6406  1.8604  2.4496
 9140SOL    HW239057   2.438   2.270   3.224  1.8215 -1.3855  2.9612
 9141SOL     OW39058   1.641   1.897   9.533 -0.2413  0.2456  0.8183
 9141SOL    HW139059   1.594   1.977   9.557 -1.2504  0.4202 -1.6719
 9141SOL    HW239060   1.720   1.945   9.508 -0.6744  0.8879  0.6802
 9142SOL     OW39061   2.343   3.569  13.919  0.0072  0.4549  0.3633
 9142SOL    HW139062   2.313   3.480  13.903 -0.0498  0.1658  2.0618
 9142SOL    HW239063   2.384   3.550  14.004  0.2900  1.9865  0.5631
 9143SOL     OW39064   0.278   4.275   8.050 -0.5270  0.2152 -0.0402
 9143SOL    HW139065   0.266   4.368   8.071  3.7486  0.9586 -0.9239
 9143SOL    HW239066   0.187   4.247   8.039  0.0321 -1.7053  0.3008
 9144SOL     OW39067   1.926   1.418   7.928 -0.0185 -0.1936 -0.3894
 9144SOL    HW139068   1.865   1.346   7.945 -1.1066  0.8751  0.2260
 9144SOL    HW239069   1.998   1.400   7.988 -0.5683 -2.8211 -0.4934
 9145SOL     OW39070   3.308   2.130   4.072  0.7261 -0.6101 -0.3112
 9145SOL    HW139071   3.319   2.039   4.101 -0.6946 -0.4684  0.6771
 9145SOL    HW239072   3.320   2.131   3.977  1.3897  0.7363 -0.2082
 9146SOL     OW39073   3.529   0.777   5.283  0.4624  0.1927  0.0114
 9146SOL    HW139074   3.604   0.738   5.328  0.9340  0.9575 -0.1097
 9146SOL    HW239075   3.483   0.810   5.360 -3.3059  1.8391 -2.9400
 9147SOL     OW39076   2.216   0.339   5.180 -0.1636  0.1191 -0.5557
 9147SOL    HW139077   2.237   0.420   5.133 -3.3385  1.6744  0.6727
 9147SOL    HW239078   2.287   0.328   5.242  2.1993 -0.2672 -3.3194
 9148SOL     OW39079   0.010   2.389  11.434 -0.2907  0.7101  0.6035
 9148SOL    HW139080   0.064   2.320  11.473 -1.0957 -1.2756 -1.8026
 9148SOL    HW239081   4.672   2.349  11.466  1.1266 -1.1920  1.8278
 9149SOL     OW39082   0.280   0.817   4.412  0.8774  0.0330  0.6222
 9149SOL    HW139083   0.312   0.812   4.322 -0.7517 -1.2502  0.1072
 9149SOL    HW239084   0.267   0.912   4.416  1.8965  0.2295 -1.0661
 9150SOL     OW39085   1.225   4.373   6.446  0.3564  0.6256 -0.3905
 9150SOL    HW139086   1.183   4.355   6.530  0.2037  0.7068 -0.4494
 9150SOL    HW239087   1.164   4.415   6.386  1.3974  4.5587  1.3318
 9151SOL     OW39088   2.790   3.900   2.729 -0.1495  0.1702 -0.1305
 9151SOL    HW139089   2.802   3.989   2.762 -0.4756  1.0202 -2.3423
 9151SOL    HW239090   2.859   3.857   2.780  0.7867  0.8595 -0.8117
 9152SOL     OW39091   3.802   0.638  17.231  0.5565 -0.4921 -0.3728
 9152SOL    HW139092   3.756   0.604  17.308  2.8774  0.0903  1.2980
 9152SOL    HW239093   3.875   0.682  17.275  0.1641 -0.9177  0.6978
 9153SOL     OW39094   1.014   2.564   5.017 -0.3735 -0.0939 -0.5979
 9153SOL    HW139095   0.967   2.647   5.028 -0.4638 -0.2727  0.3044
 9153SOL    HW239096   1.104   2.584   4.991 -0.9025  1.8120 -0.9344
 9154SOL     OW39097   4.409   2.331  15.191 -0.1771  0.0052 -0.0806
 9154SOL    HW139098   4.341   2.301  15.251  0.6119  1.3895  1.5284
 9154SOL    HW239099   4.382   2.422  15.177 -0.4546  0.2789  2.3697
 9155SOL     OW39100   3.841   1.457   4.480  0.1197  0.4673  0.2283
 9155SOL    HW139101   3.824   1.382   4.536  0.6397 -0.0946 -0.3641
 9155SOL    HW239102   3.937   1.453   4.485  0.0954  1.3704  1.5912
 9156SOL     OW39103   1.255   2.478   4.294 -0.1829 -0.0325 -0.8085
 9156SOL    HW139104   1.256   2.396   4.343 -0.1805 -0.2925 -1.2397
 9156SOL    HW239105   1.161   2.492   4.308  0.2308 -0.9887  2.9453
 9157SOL     OW39106   4.066   3.065  15.188 -0.0215 -0.7053 -0.0397
 9157SOL    HW139107   4.153   3.044  15.154  0.0224  2.0382 -1.6807
 9157SOL    HW239108   4.037   3.124  15.118  1.7778  0.4673  0.2130
 9158SOL     OW39109   4.651   4.498   4.493  0.5552  0.1059 -0.4211
 9158SOL    HW139110   4.670   4.422   4.439  1.7907 -0.7979  1.2800
 9158SOL    HW239111   4.606   4.557   4.433  1.5123 -0.1468 -1.3873
 9159SOL     OW39112   4.267   1.730   3.565 -0.0902 -0.2308  0.4065
 9159SOL    HW139113   4.243   1.786   3.639  1.3367  2.2178 -1.0007
 9159SOL    HW239114   4.326   1.669   3.610 -0.2268 -2.9321 -3.0368
 9160SOL     OW39115   0.415   0.215   7.455  0.0506 -0.0986 -0.0995
 9160SOL    HW139116   0.487   0.271   7.485  0.3577  0.2118 -1.4024
 9160SOL    HW239117   0.412   0.244   7.364 -3.3512  2.2945  0.7883
 9161SOL     OW39118   0.973   3.291   4.444 -0.0106  0.2062  0.0226
 9161SOL    HW139119   0.984   3.327   4.356  1.3821 -1.1339 -0.3603
 9161SOL    HW239120   0.915   3.219   4.419  2.0390 -0.7276 -2.0166
 9162SOL     OW39121   4.561   3.958   6.098 -0.2627  0.5444 -0.0108
 9162SOL    HW139122   4.477   3.980   6.138  0.3046  1.3588  0.7477
 9162SOL    HW239123   4.625   4.019   6.135 -1.2489  2.0885 -0.8684
 9163SOL     OW39124   1.863   0.465  17.138  0.4356 -0.0620 -0.1746
 9163SOL    HW139125   1.840   0.387  17.189 -0.5762 -0.4350 -1.1879
 9163SOL    HW239126   1.780   0.475  17.091  0.2722  0.4610  0.2308
 9164SOL     OW39127   0.178   3.959   7.980 -0.4492 -0.1936  0.0876
 9164SOL    HW139128   0.115   4.024   8.011 -2.4890 -1.4366 -1.4607
 9164SOL    HW239129   0.173   3.985   7.888 -0.2507  0.6996  0.3281
 9165SOL     OW39130   0.168   2.831   2.785 -0.6698 -1.0580 -0.1943
 9165SOL    HW139131   0.191   2.805   2.874 -1.2488  0.1157  0.2962
 9165SOL    HW239132   0.222   2.910   2.787  0.6967 -2.0567  2.0947
 9166SOL     OW39133   2.491   1.976  11.168 -0.3023 -0.4919  0.0814
 9166SOL    HW139134   2.567   2.018  11.128 -0.8024  0.8884  0.5752
 9166SOL    HW239135   2.524   1.895  11.206  0.6899 -0.2843 -0.3315
 9167SOL     OW39136   0.238   0.876  16.903  0.2027 -0.0255 -0.2810
 9167SOL    HW139137   0.218   0.857  16.811  0.5179 -1.2977 -0.0832
 9167SOL    HW239138   0.328   0.909  16.898  0.0595  0.5865  1.3177
 9168SOL     OW39139   1.596   4.728   0.197 -0.1847 -0.1311 -0.6647
 9168SOL    HW139140   1.635   0.044   0.133  0.6673 -0.9262 -0.8824
 9168SOL    HW239141   1.554   0.048   0.255  1.7920 -0.0090  0.6667
 9169SOL     OW39142   4.189   4.402  16.392 -0.8171  0.0056 -0.2424
 9169SOL    HW139143   4.100   4.437  16.403 -1.3832 -1.7741  0.8861
 9169SOL    HW239144   4.172   4.308  16.403 -0.2664 -0.1015 -0.3139
 9170SOL     OW39145   3.773   2.818   7.791 -0.0587  0.2649  0.0095
 9170SOL    HW139146   3.860   2.847   7.820  0.4317 -1.2652  0.0777
 9170SOL    HW239147   3.723   2.840   7.870  0.5655 -0.5006  0.6201
 9171SOL     OW39148   3.578   2.290  14.183 -0.2364 -0.6092 -0.6867
 9171SOL    HW139149   3.537   2.368  14.146  0.4731 -0.4207 -1.0809
 9171SOL    HW239150   3.631   2.262  14.108  1.1964 -0.1355  0.1468
 9172SOL     OW39151   3.370   3.919  11.865  0.3355  0.2070 -0.4790
 9172SOL    HW139152   3.336   3.949  11.781  0.8112  0.0434 -0.7285
 9172SOL    HW239153   3.326   3.835  11.859  1.7263 -0.5396 -0.2826
 9173SOL     OW39154   0.089   1.582   5.191  0.2479 -0.4579 -0.2138
 9173SOL    HW139155   0.090   1.603   5.284  1.9110  2.8227 -0.9807
 9173SOL    HW239156   0.149   1.647   5.155  0.1990 -0.9221 -1.1360
 9174SOL     OW39157   2.326   0.729   5.685 -0.5663 -0.1473  0.5101
 9174SOL    HW139158   2.311   0.821   5.709 -0.7468  0.2382 -1.1016
 9174SOL    HW239159   2.299   0.728   5.594  0.5752 -0.6837  0.1745
 9175SOL     OW39160   1.427   3.248   1.178 -0.0947  0.0529 -0.6487
 9175SOL    HW139161   1.348   3.290   1.213  3.1646  2.0582  4.1963
 9175SOL    HW239162   1.445   3.306   1.104 -2.7985 -0.4626 -1.7322
 9176SOL     OW39163   3.845   3.490   2.606 -0.1006 -0.2579  0.2160
 9176SOL    HW139164   3.786   3.515   2.677  0.6226  0.6097  0.5156
 9176SOL    HW239165   3.858   3.578   2.569  0.3542 -0.3263  0.2198
 9177SOL     OW39166   1.288   1.813   8.050 -0.0607 -0.0852  0.4145
 9177SOL    HW139167   1.244   1.822   7.965 -0.9092  0.2959  0.8894
 9177SOL    HW239168   1.295   1.900   8.089 -2.4888  1.6962 -3.1096
 9178SOL     OW39169   0.917   3.819   2.594 -0.2337 -0.3434  0.0735
 9178SOL    HW139170   0.850   3.821   2.526  0.2678  2.6943 -0.3136
 9178SOL    HW239171   0.907   3.725   2.611  1.3626 -0.5993 -0.3751
 9179SOL     OW39172   4.416   2.303  16.707 -0.4870 -0.6255  0.4432
 9179SOL    HW139173   4.328   2.331  16.734 -1.2622 -0.4250 -2.2347
 9179SOL    HW239174   4.427   2.219  16.750 -0.8846 -1.0691 -0.3090
 9180SOL     OW39175   4.103   0.455  17.586 -0.0164 -0.0345 -0.2981
 9180SOL    HW139176   4.088   0.408  17.668 -1.2324  0.9574  0.0315
 9180SOL    HW239177   4.181   0.407  17.557 -0.3024 -1.2952  1.0163
 9181SOL     OW39178   2.418   0.722  16.694  0.2486  0.2520 -0.1013
 9181SOL    HW139179   2.372   0.805  16.702 -0.0850 -0.1031  1.6798
 9181SOL    HW239180   2.358   0.665  16.647 -1.0929  1.9867 -0.4598
 9182SOL     OW39181   0.080   4.704  11.709 -0.2149  0.4674 -1.0754
 9182SOL    HW139182   0.055   4.698  11.801 -0.2955  1.3752 -1.0383
 9182SOL    HW239183   0.072   0.056  11.698  2.6788  0.8337  0.0473
 9183SOL     OW39184   2.385   3.502   2.108 -0.5114  0.4688  0.5952
 9183SOL    HW139185   2.410   3.476   2.197  2.5845 -2.1117 -1.0070
 9183SOL    HW239186   2.304   3.456   2.086 -0.7881  1.8211 -1.2393
 9184SOL     OW39187   3.955   0.222   9.076 -0.5913  0.3281 -0.0564
 9184SOL    HW139188   4.007   0.179   9.008 -2.3640 -2.0602  0.0920
 9184SOL    HW239189   3.868   0.183   9.064 -1.3309  1.8543  0.4556
 9185SOL     OW39190   3.977   2.220  10.330 -0.4828  0.1782  0.6549
 9185SOL    HW139191   3.935   2.158  10.271  0.3020 -1.0652  1.3892
 9185SOL    HW239192   4.017   2.155  10.388  3.4822  0.5626 -1.5836
 9186SOL     OW39193   0.307   1.282  10.013 -0.4518 -0.1128  0.3571
 9186SOL    HW139194   0.220   1.321  10.009 -0.5097 -0.4758 -1.8680
 9186SOL    HW239195   0.361   1.351  10.049  0.2823 -1.0044  0.9757
 9187SOL     OW39196   3.628   1.896  17.524 -0.2751 -0.6431 -0.1592
 9187SOL    HW139197   3.616   1.907  17.618 -0.8324  0.3414 -0.3421
 9187SOL    HW239198   3.551   1.842  17.504 -0.9440  0.5274 -0.7047
 9188SOL     OW39199   2.889   1.516   7.354  0.3078 -0.2410  0.8130
 9188SOL    HW139200   2.837   1.586   7.315 -2.7502 -0.9905  3.4690
 9188SOL    HW239201   2.974   1.541   7.317  0.2891  0.9431  1.5738
 9189SOL     OW39202   1.181   3.236   3.945  0.0454 -0.0219  0.5126
 9189SOL    HW139203   1.087   3.253   3.949  0.4178  2.3846 -1.3848
 9189SOL    HW239204   1.199   3.180   3.870 -1.0656  2.3424 -1.5025
 9190SOL     OW39205   2.453   0.179  10.114 -0.1594 -0.2495  0.4886
 9190SOL    HW139206   2.457   0.086  10.137 -1.8778 -0.0778  1.5014
 9190SOL    HW239207   2.404   0.219  10.186 -3.7918 -2.5235 -0.6744
 9191SOL     OW39208   2.855   2.254   3.566 -0.0927  0.3544 -0.1068
 9191SOL    HW139209   2.814   2.305   3.496  1.3119  1.8453  0.1564
 9191SOL    HW239210   2.786   2.189   3.579 -0.9358  0.6462 -3.1177
 9192SOL     OW39211   3.822   0.858  16.675  0.2941  0.0873 -0.4231
 9192SOL    HW139212   3.835   0.884  16.766  1.4895 -1.8239 -0.0536
 9192SOL    HW239213   3.911   0.869  16.641  0.7306  0.6535  0.9121
 9193SOL     OW39214   4.409   3.742   7.982  0.4567  0.7135  0.6004
 9193SOL    HW139215   4.358   3.699   7.914  1.7346  0.0471  0.0699
 9193SOL    HW239216   4.493   3.701   7.964 -0.1998 -0.5768  0.4405
 9194SOL     OW39217   0.286   2.413   5.686 -0.1428 -0.1209  0.1037
 9194SOL    HW139218   0.233   2.490   5.706 -1.9756 -1.7434  1.6322
 9194SOL    HW239219   0.362   2.412   5.744 -2.4990  0.4606  3.2371
 9195SOL     OW39220   4.611   2.520  10.538  0.3725 -0.0755 -0.3275
 9195SOL    HW139221   4.553   2.532  10.464 -1.0455  1.0827  0.9810
 9195SOL    HW239222   4.577   2.581  10.603  1.8161  0.6655 -0.2599
 9196SOL     OW39223   3.685   3.179   7.173 -0.1557 -0.0567  0.0955
 9196SOL    HW139224   3.640   3.251   7.217  0.0283  1.0044 -1.4477
 9196SOL    HW239225   3.652   3.112   7.234  2.9184  0.3770  2.2581
 9197SOL     OW39226   4.204   4.056   9.163  0.0332 -0.6109 -0.8332
 9197SOL    HW139227   4.115   4.064   9.199  0.8863  0.6314  0.9950
 9197SOL    HW239228   4.192   4.113   9.087 -0.1589 -1.2819 -1.3050
 9198SOL     OW39229   2.781   3.439   5.145  0.0166 -0.6242 -0.1181
 9198SOL    HW139230   2.854   3.393   5.189  0.6011  0.2951 -0.1192
 9198SOL    HW239231   2.712   3.388   5.187  0.5141  0.5762  2.1702
 9199SOL     OW39232   0.168   1.495   4.267 -0.1224  0.3748 -0.3991
 9199SOL    HW139233   0.236   1.468   4.205 -0.4968 -1.1319 -0.1402
 9199SOL    HW239234   0.175   1.425   4.332  1.5004  2.1181  1.3111
 9200SOL     OW39235   4.667   2.653   3.081 -0.1640 -0.1090  0.3240
 9200SOL    HW139236   4.651   2.610   2.997 -2.0014  0.6865  0.2688
 9200SOL    HW239237   4.649   2.744   3.057  0.6441  0.2039  0.9073
 9201SOL     OW39238   2.361   4.224   3.587  0.6106 -0.2247 -0.3008
 9201SOL    HW139239   2.281   4.248   3.541  0.8991  0.8587 -0.2175
 9201SOL    HW239240   2.325   4.156   3.645 -2.5883  2.2453  0.5996
 9202SOL     OW39241   1.538   2.098   8.309  0.0841  0.1682 -0.2888
 9202SOL    HW139242   1.596   2.165   8.345  1.8481 -1.9306  0.7847
 9202SOL    HW239243   1.484   2.074   8.384  0.9139 -1.9150 -0.3464
 9203SOL     OW39244   2.367   4.118   8.555  0.6644  0.1991 -0.1226
 9203SOL    HW139245   2.369   4.027   8.526 -1.2720 -0.4886  1.9022
 9203SOL    HW239246   2.456   4.114   8.588  0.1973 -0.1001  1.0974
 9204SOL     OW39247   3.163   3.293   4.411 -0.2183  0.1532  0.2702
 9204SOL    HW139248   3.194   3.361   4.470  0.4401 -0.6369  0.8513
 9204SOL    HW239249   3.220   3.219   4.433 -2.9125 -1.7978  0.7608
 9205SOL     OW39250   4.628   0.180   4.550  0.5273 -0.1908  0.4449
 9205SOL    HW139251   4.565   0.243   4.586 -1.5445 -1.8238 -0.3169
 9205SOL    HW239252   4.708   0.234   4.553  2.0857 -2.5432  0.7750
 9206SOL     OW39253   4.030   1.742   4.614  0.0770 -0.1727 -0.0510
 9206SOL    HW139254   4.057   1.667   4.562 -1.9841 -2.0202  1.5723
 9206SOL    HW239255   4.039   1.695   4.697  0.5555 -0.5514 -0.3178
 9207SOL     OW39256   3.732   1.181   5.414 -0.4132  0.2807  0.2996
 9207SOL    HW139257   3.677   1.150   5.342  1.3280 -2.0767 -0.0407
 9207SOL    HW239258   3.782   1.250   5.370 -2.1651  1.8187  0.7281
 9208SOL     OW39259   4.108   1.472   3.512 -0.4150 -0.0270  0.4188
 9208SOL    HW139260   4.150   1.553   3.540 -1.4562  0.4490  0.5827
 9208SOL    HW239261   4.073   1.495   3.426  0.6758 -0.1612 -0.0683
 9209SOL     OW39262   1.388   0.025   1.661  0.4047  0.1510  0.9491
 9209SOL    HW139263   1.312   4.725   1.700  1.1042 -3.1544 -1.3315
 9209SOL    HW239264   1.461   4.712   1.689 -0.5993  0.2816  3.7924
 9210SOL     OW39265   1.472   2.146  13.482 -0.5676  0.2238 -0.1401
 9210SOL    HW139266   1.512   2.061  13.467  0.8112  0.8202  0.2246
 9210SOL    HW239267   1.422   2.133  13.563 -1.5547 -0.6469 -0.8903
 9211SOL     OW39268   3.177   3.334   8.441 -0.0240  0.3199 -0.5025
 9211SOL    HW139269   3.264   3.320   8.404 -0.1491  0.2129 -0.7543
 9211SOL    HW239270   3.191   3.291   8.525 -1.0034 -0.1598 -0.5866
 9212SOL     OW39271   3.853   2.009  10.164 -0.2850  0.0605 -0.3862
 9212SOL    HW139272   3.846   1.918  10.190  0.4143 -0.3908 -1.7647
 9212SOL    HW239273   3.870   1.985  10.073  0.1274 -0.3412 -0.2002
 9213SOL     OW39274   3.624   0.249  15.931 -0.0114  0.0786  0.5635
 9213SOL    HW139275   3.669   0.251  16.016 -0.4235  0.9222  0.7649
 9213SOL    HW239276   3.670   0.188  15.875  0.4894  1.1868 -0.2233
 9214SOL     OW39277   1.531   4.546   8.044 -0.4410 -0.3443  0.0949
 9214SOL    HW139278   1.441   4.571   8.064 -0.0232  0.5152  0.9077
 9214SOL    HW239279   1.575   4.575   8.124 -1.9461 -1.0109  1.1518
 9215SOL     OW39280   0.874   4.603   2.635 -0.2948  0.2363  0.2173
 9215SOL    HW139281   0.835   4.649   2.561  1.2835  0.9109 -0.1960
 9215SOL    HW239282   0.868   4.516   2.595 -0.4516 -0.0357  0.8221
 9216SOL     OW39283   3.337   1.058   5.766  0.9524 -0.1462 -0.1489
 9216SOL    HW139284   3.407   1.096   5.713 -0.6518  1.1630 -1.3097
 9216SOL    HW239285   3.271   1.127   5.775 -0.8796 -2.3425  3.1874
 9217SOL     OW39286   4.459   2.927   6.485 -0.0924  0.0624  0.1876
 9217SOL    HW139287   4.538   2.930   6.539  0.3464  1.8908 -0.5662
 9217SOL    HW239288   4.406   2.872   6.543  0.0137  0.6457  0.8308
 9218SOL     OW39289   1.732   4.078   6.033  0.1365 -0.6431  0.0298
 9218SOL    HW139290   1.700   4.154   5.985  0.3150 -0.4999  0.1400
 9218SOL    HW239291   1.661   4.016   6.054 -0.3683  0.3363  1.2293
 9219SOL     OW39292   2.876   3.536  14.852  0.8606  0.0312  0.5593
 9219SOL    HW139293   2.952   3.489  14.887 -0.4602 -2.9994 -0.5921
 9219SOL    HW239294   2.858   3.493  14.769 -0.5733  2.8295 -0.5854
 9220SOL     OW39295   3.010   1.103   2.339 -0.0027 -0.2284 -0.0783
 9220SOL    HW139296   3.096   1.117   2.300 -0.2882 -0.1224 -0.6790
 9220SOL    HW239297   2.972   1.187   2.312 -0.7794 -0.7104 -0.4956
 9221SOL     OW39298   4.022   4.474  11.336  0.0212  0.2846 -0.3865
 9221SOL    HW139299   4.020   4.489  11.430 -2.4954  3.3270 -0.9324
 9221SOL    HW239300   4.060   4.386  11.334 -0.4641  0.0541  0.9757
 9222SOL     OW39301   3.320   1.376   7.947 -0.0671  0.8613 -0.0131
 9222SOL    HW139302   3.367   1.398   8.027  2.6872  0.5334 -1.5401
 9222SOL    HW239303   3.304   1.461   7.905 -0.8969  1.5699  1.7549
 9223SOL     OW39304   2.851   0.499   2.866 -0.2483 -0.4604  0.5171
 9223SOL    HW139305   2.944   0.476   2.869 -0.5451 -1.1702  4.3540
 9223SOL    HW239306   2.855   0.546   2.783  0.9858 -0.8310  0.3611
 9224SOL     OW39307   1.959   2.920   1.748 -0.1723  0.2385 -0.0257
 9224SOL    HW139308   1.921   2.834   1.765  1.1491 -0.2134  0.6020
 9224SOL    HW239309   1.991   2.901   1.660  0.0406  1.9468 -0.3130
 9225SOL     OW39310   2.804   4.721   3.617  0.4734 -0.1230 -0.1909
 9225SOL    HW139311   2.875   0.033   3.649 -0.0640 -0.3953  1.5197
 9225SOL    HW239312   2.757   4.723   3.701 -0.4167  1.1394 -0.7308
 9226SOL     OW39313   0.491   1.814   1.553 -0.2834  0.1170  0.0402
 9226SOL    HW139314   0.560   1.787   1.493 -0.7366 -1.2169  0.1300
 9226SOL    HW239315   0.464   1.897   1.514 -0.5903  0.3013  0.6513
 9227SOL     OW39316   2.092   0.353   2.841 -0.5259  0.0733  0.0336
 9227SOL    HW139317   2.011   0.306   2.861 -1.0701  1.5815  1.3354
 9227SOL    HW239318   2.128   0.353   2.930  0.5219  0.2961 -0.3907
 9228SOL     OW39319   3.426   3.359  16.711 -0.4903 -0.1491  0.5627
 9228SOL    HW139320   3.433   3.266  16.735  1.0731 -0.7302 -2.0955
 9228SOL    HW239321   3.436   3.405  16.794 -0.3468 -0.6010  0.7953
 9229SOL     OW39322   0.663   2.039   1.708 -0.2914 -0.8273 -0.2477
 9229SOL    HW139323   0.573   2.041   1.742 -0.2725  0.3301 -0.2657
 9229SOL    HW239324   0.660   2.100   1.634  1.2129 -0.6626 -0.1718
 9230SOL     OW39325   2.919   0.701   2.701  0.0186  0.1467  0.6696
 9230SOL    HW139326   2.941   0.729   2.612 -2.2285 -0.1896  0.0070
 9230SOL    HW239327   2.969   0.764   2.753  0.5181  0.9720 -0.8158
 9231SOL     OW39328   1.016   3.374  15.207  0.1587  0.2330  0.2135
 9231SOL    HW139329   1.076   3.435  15.250 -0.7252  0.9652  0.4309
 9231SOL    HW239330   1.068   3.345  15.133  0.4959 -0.4587  0.7260
 9232SOL     OW39331   2.414   3.109  15.887  0.2075  0.0123 -0.3635
 9232SOL    HW139332   2.504   3.106  15.920 -0.8006 -2.4756  2.1286
 9232SOL    HW239333   2.427   3.174  15.818 -1.6845 -0.2909 -0.9988
 9233SOL     OW39334   2.477   0.535   6.830  0.8551  0.2453 -0.0085
 9233SOL    HW139335   2.398   0.518   6.881 -0.0442  4.5281  0.0109
 9233SOL    HW239336   2.541   0.467   6.854 -0.2077 -1.1769 -1.1856
 9234SOL     OW39337   0.934   0.652   5.904 -0.2316 -0.2079 -0.7648
 9234SOL    HW139338   0.957   0.716   5.972  0.6767  0.4498 -1.6919
 9234SOL    HW239339   0.949   0.576   5.961  1.9707  0.3839 -0.5514
 9235SOL     OW39340   2.812   3.319   7.479 -0.0929 -0.1711  0.2817
 9235SOL    HW139341   2.796   3.298   7.571 -0.4827 -0.9780  0.0307
 9235SOL    HW239342   2.779   3.246   7.428  0.4662 -0.0108 -0.3172
 9236SOL     OW39343   1.218   0.047   2.187  0.2486 -0.1595 -0.1843
 9236SOL    HW139344   1.201   0.139   2.169 -2.1601 -0.3970  0.8837
 9236SOL    HW239345   1.184   0.038   2.276 -0.5553 -1.4762 -0.6150
 9237SOL     OW39346   4.723   4.714  13.833 -0.3794  0.5478 -0.2516
 9237SOL    HW139347   4.735   4.669  13.749  1.5494  0.7208 -0.0690
 9237SOL    HW239348   0.051   0.033  13.815  0.0839  0.7832  2.4529
 9238SOL     OW39349   4.297   4.674   6.738  0.2828 -0.4783 -0.1654
 9238SOL    HW139350   4.261   4.666   6.826 -0.7662 -2.5207 -0.7729
 9238SOL    HW239351   4.366   4.608   6.749  1.3240  0.4450 -1.0908
 9239SOL     OW39352   2.692   2.037   2.567 -0.2813 -0.6129 -0.3456
 9239SOL    HW139353   2.616   1.981   2.584 -2.1584  1.4628 -1.8436
 9239SOL    HW239354   2.655   2.088   2.494 -2.6319  1.9279  2.6208
 9240SOL     OW39355   0.566   4.572   2.055 -0.1208 -0.3276 -0.1076
 9240SOL    HW139356   0.629   4.598   1.988  1.1174  0.7621  1.4649
 9240SOL    HW239357   0.525   4.657   2.075 -0.9481 -0.3530 -1.6828
 9241SOL     OW39358   2.984   4.467   0.760 -0.1573 -0.1651  0.1335
 9241SOL    HW139359   2.898   4.486   0.796  0.4805  1.1728  0.9515
 9241SOL    HW239360   3.019   4.553   0.733 -2.1379  0.2253 -1.1965
 9242SOL     OW39361   2.227   1.946  11.285  0.2037 -0.2478  0.0804
 9242SOL    HW139362   2.309   1.962  11.238  0.8318 -1.6971  0.6518
 9242SOL    HW239363   2.166   1.927  11.214 -0.7553  0.2958  0.7649
 9243SOL     OW39364   2.818   4.743   9.688 -0.6395  0.5661 -0.0148
 9243SOL    HW139365   2.756   0.018   9.759  1.2668  0.5975  1.6487
 9243SOL    HW239366   2.829   0.085   9.646 -3.3107  1.6423  1.4963
 9244SOL     OW39367   0.609   2.043   9.967  0.0554 -0.1026  0.2096
 9244SOL    HW139368   0.663   1.965   9.983 -1.7295 -1.6933 -1.4054
 9244SOL    HW239369   0.656   2.085   9.896  0.9566  0.1009  0.9327
 9245SOL     OW39370   3.037   1.487   6.971 -0.4384 -0.2158 -0.0940
 9245SOL    HW139371   3.005   1.570   6.936 -0.6762  0.0472  0.7539
 9245SOL    HW239372   2.949   1.449   6.971  0.0426 -1.2830  2.0813
 9246SOL     OW39373   2.776   1.379  16.995  0.3335 -0.3043  0.1939
 9246SOL    HW139374   2.751   1.289  16.974 -1.7149  0.5560 -0.9645
 9246SOL    HW239375   2.872   1.376  17.002  0.2114 -1.0407  1.6581
 9247SOL     OW39376   2.782   3.880  13.459  0.4565  0.0993  0.2362
 9247SOL    HW139377   2.838   3.901  13.534  0.0141  0.5402  0.4394
 9247SOL    HW239378   2.825   3.797  13.439 -0.5385 -0.4305  0.2942
 9248SOL     OW39379   0.363   2.714   8.286  0.1867  0.1774 -0.1614
 9248SOL    HW139380   0.384   2.670   8.204 -1.3379 -1.4357  0.3225
 9248SOL    HW239381   0.368   2.642   8.349  1.3607  1.0880  0.7967
 9249SOL     OW39382   0.575   3.013  16.371 -0.4908 -0.0078 -0.6707
 9249SOL    HW139383   0.573   3.021  16.466  0.0624  1.5478 -0.7808
 9249SOL    HW239384   0.664   3.042  16.354  0.5947 -2.9470  0.1073
 9250SOL     OW39385   4.233   2.475   3.452  0.2558  0.5285 -0.2403
 9250SOL    HW139386   4.148   2.504   3.419 -0.1455  0.5614  0.8274
 9250SOL    HW239387   4.254   2.547   3.511 -1.7051 -1.3759  2.7106
 9251SOL     OW39388   0.279   0.919   5.559 -0.9776  0.5357  0.3462
 9251SOL    HW139389   0.284   0.824   5.564 -0.0717  0.6241  1.0385
 9251SOL    HW239390   0.362   0.933   5.514  0.1653  0.4156  2.4372
 9252SOL     OW39391   0.174   0.664   1.662 -0.5267  0.0856 -0.6029
 9252SOL    HW139392   0.129   0.739   1.623  2.1000  1.3417 -1.2049
 9252SOL    HW239393   0.254   0.691   1.706  0.1385  0.4591 -2.0396
 9253SOL     OW39394   0.656   4.208   8.333 -0.1021 -0.4834 -0.0811
 9253SOL    HW139395   0.727   4.265   8.364 -0.8869  0.5585 -0.2005
 9253SOL    HW239396   0.667   4.222   8.239 -1.6376  2.4276  0.1816
 9254SOL     OW39397   1.457   4.014   5.286 -0.0940 -0.0900  0.2437
 9254SOL    HW139398   1.432   3.958   5.360 -1.4282 -0.0955 -0.2128
 9254SOL    HW239399   1.479   3.946   5.222  2.4235  1.1500 -0.2176
 9255SOL     OW39400   3.669   1.371   5.970 -0.2270  0.5189  0.1152
 9255SOL    HW139401   3.714   1.447   6.008  0.3293  0.3798 -0.2654
 9255SOL    HW239402   3.591   1.359   6.024 -0.4163  0.2975 -0.2141
 9256SOL     OW39403   0.187   0.264  15.415  0.2140  0.0448  0.2758
 9256SOL    HW139404   0.179   0.185  15.468 -0.9194  0.6546  1.0338
 9256SOL    HW239405   0.095   0.274  15.391  0.4864  1.9726  0.0476
 9257SOL     OW39406   1.893   3.452   4.780  0.0311  0.1557 -0.0508
 9257SOL    HW139407   1.844   3.381   4.738  0.3170 -0.0689 -0.0021
 9257SOL    HW239408   1.964   3.453   4.716  0.3890 -1.6338  0.3098
 9258SOL     OW39409   0.449   2.104   2.300  0.0645  0.3155  0.2170
 9258SOL    HW139410   0.465   2.101   2.206  0.2667 -1.3344  0.3040
 9258SOL    HW239411   0.374   2.045   2.304  0.3220  0.0617  1.3966
 9259SOL     OW39412   4.221   2.397   5.461  0.0263 -0.6300  0.6813
 9259SOL    HW139413   4.129   2.403   5.488  0.4002  1.1184  1.6296
 9259SOL    HW239414   4.269   2.360   5.535  0.1899  2.7973  2.3168
 9260SOL     OW39415   2.761   2.856   1.535  0.3365  0.2330  0.9791
 9260SOL    HW139416   2.791   2.799   1.606 -0.6285 -1.3103  0.1441
 9260SOL    HW239417   2.822   2.813   1.475 -1.1366  0.1682 -0.4591
 9261SOL     OW39418   3.224   3.070   6.184  0.0009  0.2961 -0.1731
 9261SOL    HW139419   3.184   3.117   6.257 -0.2000  0.6081 -0.4785
 9261SOL    HW239420   3.144   3.050   6.136  0.0852  2.6921 -1.3252
 9262SOL     OW39421   0.889   0.623   1.844 -0.5242  0.0117 -0.6508
 9262SOL    HW139422   0.939   0.608   1.764  2.8500 -0.0480  1.5171
 9262SOL    HW239423   0.955   0.633   1.911 -0.4880  4.6903 -1.3546
 9263SOL     OW39424   1.856   1.285   9.770  0.1702 -0.4893  0.0031
 9263SOL    HW139425   1.795   1.277   9.844 -2.7735 -0.7604 -2.4719
 9263SOL    HW239426   1.832   1.360   9.715 -0.0411  0.3148  1.1768
 9264SOL     OW39427   1.225   0.767   7.522 -0.0545  0.1785 -0.5569
 9264SOL    HW139428   1.130   0.760   7.519 -0.1505  1.1981  0.3405
 9264SOL    HW239429   1.239   0.801   7.433  1.5561  1.2753  0.1116
 9265SOL     OW39430   0.450   2.636  15.038 -0.2698 -0.0461 -0.2669
 9265SOL    HW139431   0.508   2.567  15.071  0.4228  0.4071 -0.5567
 9265SOL    HW239432   0.484   2.645  14.949  0.3716  0.2447  0.0074
 9266SOL     OW39433   1.113   3.964   9.097 -0.3520 -0.1203 -0.2813
 9266SOL    HW139434   1.028   3.954   9.139  1.4854 -1.3298  3.1335
 9266SOL    HW239435   1.102   3.923   9.011 -1.2334  2.0912 -1.2024
 9267SOL     OW39436   1.893   1.206   7.097  0.3221  0.1664 -0.3665
 9267SOL    HW139437   1.899   1.197   7.192 -1.5362 -1.2718 -0.3780
 9267SOL    HW239438   1.818   1.265   7.084  1.0253  0.7900 -1.7003
 9268SOL     OW39439   1.605   0.773   2.958 -0.2541  0.3240  0.0858
 9268SOL    HW139440   1.555   0.835   2.904 -2.2026 -0.1563  1.3205
 9268SOL    HW239441   1.548   0.697   2.946 -1.1274  1.4011 -2.5661
 9269SOL     OW39442   3.365   1.307   2.906 -0.1304 -0.5632  0.6668
 9269SOL    HW139443   3.311   1.277   2.979  1.8333  1.4640  2.9485
 9269SOL    HW239444   3.320   1.387   2.877 -1.2618 -0.6694  2.1659
 9270SOL     OW39445   0.236   1.936   5.957 -0.1637 -0.4624 -0.1623
 9270SOL    HW139446   0.261   1.848   5.927  4.6925  1.1047 -0.6843
 9270SOL    HW239447   0.213   1.922   6.049  1.2713  0.1558  0.2823
 9271SOL     OW39448   3.229   2.985  14.242  0.2398 -0.3057 -0.2827
 9271SOL    HW139449   3.145   2.941  14.226  0.6626 -0.8802 -0.9316
 9271SOL    HW239450   3.223   3.052  14.175  1.0458  1.3208  1.2877
 9272SOL     OW39451   0.202   3.953   4.725 -0.2405  0.1321  0.2956
 9272SOL    HW139452   0.208   3.941   4.820  0.1223 -0.1552  0.2349
 9272SOL    HW239453   0.148   4.032   4.724  1.5002  1.3845  3.9456
 9273SOL     OW39454   2.133   1.907   6.075 -0.4327 -0.3774  0.0212
 9273SOL    HW139455   2.141   1.814   6.055 -2.4142 -0.8425  1.3542
 9273SOL    HW239456   2.056   1.903   6.133 -1.2625 -0.5179 -1.0812
 9274SOL     OW39457   2.043   3.562  13.954  0.1346  0.4639  0.1797
 9274SOL    HW139458   2.014   3.484  13.908 -1.5355  0.3884  1.3435
 9274SOL    HW239459   2.101   3.598  13.887  0.3724  1.9916  1.1888
 9275SOL     OW39460   0.989   0.678   2.910  0.1333  0.2835  0.1586
 9275SOL    HW139461   1.019   0.617   2.978  0.2307 -1.0574 -1.0868
 9275SOL    HW239462   0.899   0.648   2.896 -0.0614  1.2301 -0.5757
 9276SOL     OW39463   4.533   3.749  15.881 -0.3896  0.5742  0.0858
 9276SOL    HW139464   4.545   3.658  15.853  3.0132  0.2963  2.3790
 9276SOL    HW239465   4.618   3.772  15.919 -0.2506  0.6956 -0.3052
 9277SOL     OW39466   1.009   0.372   6.872 -0.0156 -0.4520  0.4679
 9277SOL    HW139467   1.000   0.278   6.887 -1.2019 -0.3912  0.1082
 9277SOL    HW239468   1.043   0.396   6.958  0.6074  2.7820 -0.6864
 9278SOL     OW39469   1.643   0.869   6.793 -0.5003  0.0274 -0.5219
 9278SOL    HW139470   1.699   0.889   6.868 -0.8590  2.3937 -0.9024
 9278SOL    HW239471   1.710   0.824   6.742  0.7201  0.3162  0.8294
 9279SOL     OW39472   0.301   0.823   5.950  0.0959  1.1668  0.8180
 9279SOL    HW139473   0.356   0.874   5.891  0.9069 -0.2406  0.3748
 9279SOL    HW239474   0.248   0.897   5.979 -1.7357 -0.3673  1.3957
 9280SOL     OW39475   2.283   2.516   8.557 -0.4850 -0.3229  0.2230
 9280SOL    HW139476   2.226   2.536   8.483 -2.7988 -1.1318  1.7616
 9280SOL    HW239477   2.243   2.438   8.596 -0.1555 -0.8699 -0.5396
 9281SOL     OW39478   1.853   1.703   5.956  0.4677  0.5442  0.1245
 9281SOL    HW139479   1.839   1.645   5.881 -0.1683 -0.8958  1.3549
 9281SOL    HW239480   1.941   1.676   5.984 -0.8094 -1.1789  2.5747
 9282SOL     OW39481   3.082   3.882   6.177  0.0346 -0.5712 -0.6634
 9282SOL    HW139482   3.137   3.811   6.210  0.3957 -0.1715 -0.3899
 9282SOL    HW239483   3.150   3.941   6.143 -1.8923  1.8932 -0.2793
 9283SOL     OW39484   0.853   0.398  15.442 -0.1134  0.2226  0.2918
 9283SOL    HW139485   0.946   0.388  15.457  0.1938  0.9755 -1.0416
 9283SOL    HW239486   0.851   0.412  15.347 -1.9673  1.9402  0.5672
 9284SOL     OW39487   2.775   3.599   7.414  0.0688 -0.1720  0.0618
 9284SOL    HW139488   2.754   3.567   7.327  1.0572  3.1668 -1.3961
 9284SOL    HW239489   2.769   3.514   7.460  0.2081 -0.3713 -0.2907
 9285SOL     OW39490   3.430   0.674   4.454 -0.3132  0.2921  0.0263
 9285SOL    HW139491   3.371   0.678   4.378  0.3869  1.2943 -0.4639
 9285SOL    HW239492   3.495   0.738   4.427 -0.7429  1.9120  2.8548
 9286SOL     OW39493   1.305   4.343  16.733  0.0978 -0.1473 -0.1654
 9286SOL    HW139494   1.215   4.357  16.765  0.4042  1.4008 -0.0136
 9286SOL    HW239495   1.311   4.423  16.681  1.3765  0.0274  0.2653
 9287SOL     OW39496   2.235   0.919   6.752 -0.0106  0.0788 -0.4211
 9287SOL    HW139497   2.193   0.914   6.837 -1.8455  1.2804 -1.2618
 9287SOL    HW239498   2.323   0.945   6.778 -0.6932  1.0072  0.9218
 9288SOL     OW39499   1.014   1.987   6.405  0.1226  0.0719  0.4069
 9288SOL    HW139500   1.023   2.042   6.483  1.2041  2.6145 -1.5104
 9288SOL    HW239501   1.050   2.044   6.337  1.3602 -0.9664  0.2064
 9289SOL     OW39502   2.652   2.511   1.391 -0.4266 -0.3020  0.6723
 9289SOL    HW139503   2.711   2.437   1.379  1.1477  0.9697  0.5987
 9289SOL    HW239504   2.706   2.586   1.364  0.4429 -1.0283  0.4120
 9290SOL     OW39505   0.117   2.775   1.811 -0.0832 -0.1965  0.0785
 9290SOL    HW139506   0.128   2.682   1.792 -3.0851 -0.3817 -0.7541
 9290SOL    HW239507   0.029   2.782   1.849  0.2735  0.2703  0.8238
 9291SOL     OW39508   0.953   0.287   2.960  0.4176  0.3756  0.1998
 9291SOL    HW139509   0.902   0.220   3.006 -0.7139 -0.2830 -2.0045
 9291SOL    HW239510   0.902   0.361   2.992 -0.5499 -0.2118  0.0166
 9292SOL     OW39511   0.946   4.397  14.287  0.1221  0.3769 -0.1234
 9292SOL    HW139512   0.991   4.457  14.346  0.2400 -0.4095  0.5893
 9292SOL    HW239513   0.988   4.312  14.304  0.3983  0.4504 -0.4397
 9293SOL     OW39514   0.827   4.710   2.387 -0.3058 -0.0858 -0.3344
 9293SOL    HW139515   0.833   0.062   2.386  2.1706 -0.2853 -2.5382
 9293SOL    HW239516   0.740   4.692   2.351  0.3877 -0.1575 -1.9645
 9294SOL     OW39517   0.952   0.510   9.773 -0.3423  0.1788  0.1949
 9294SOL    HW139518   0.874   0.464   9.743  0.8882 -2.1666  0.6154
 9294SOL    HW239519   0.931   0.536   9.862  0.6873  0.1803  0.4419
 9295SOL     OW39520   0.265   3.737   8.113  0.3926  0.5421 -0.0699
 9295SOL    HW139521   0.254   3.792   8.035 -0.9231  0.0740 -0.2179
 9295SOL    HW239522   0.217   3.790   8.176  0.4448 -0.3577  0.7179
 9296SOL     OW39523   0.975   3.232   9.038 -0.0672  0.0746 -0.7229
 9296SOL    HW139524   0.892   3.204   9.000 -1.1194  0.1889  1.4603
 9296SOL    HW239525   1.030   3.155   9.025 -0.8031 -0.6287  0.3024
 9297SOL     OW39526   2.817   0.741   7.916 -0.1657  0.5046 -0.0192
 9297SOL    HW139527   2.859   0.727   8.001  0.7567  2.2100 -0.1920
 9297SOL    HW239528   2.880   0.809   7.892  0.5318 -0.3231 -0.5444
 9298SOL     OW39529   1.020   2.371   9.727  0.1232  0.2260  0.0665
 9298SOL    HW139530   1.013   2.427   9.650 -0.8131  0.1153  0.0730
 9298SOL    HW239531   1.108   2.337   9.714 -0.4858 -1.0946 -0.6128
 9299SOL     OW39532   3.480   2.268   6.627  0.6313  0.0237 -0.2893
 9299SOL    HW139533   3.448   2.314   6.705 -0.2792  2.4796 -2.1377
 9299SOL    HW239534   3.571   2.297   6.623  0.7264 -0.6642 -3.3927
 9300SOL     OW39535   3.997   2.438   8.263 -0.2554 -0.0741 -0.0750
 9300SOL    HW139536   4.069   2.492   8.230  0.2294  0.2026  1.4044
 9300SOL    HW239537   3.929   2.452   8.197  0.8518  1.9391 -0.7792
 9301SOL     OW39538   3.134   2.314   6.449 -0.5599  0.2704 -0.3153
 9301SOL    HW139539   3.220   2.314   6.407 -1.7136  0.6453 -2.6848
 9301SOL    HW239540   3.154   2.317   6.542 -0.9476 -2.0729 -0.1570
 9302SOL     OW39541   1.007   1.227   4.037 -0.0219 -0.2644 -0.5144
 9302SOL    HW139542   1.047   1.180   3.963  0.2457 -2.2178  0.8925
 9302SOL    HW239543   1.066   1.303   4.039  0.3540 -0.5446 -0.8734
 9303SOL     OW39544   1.649   4.178   6.309 -0.4665 -0.4052  0.2818
 9303SOL    HW139545   1.683   4.089   6.312 -2.5838 -1.2639 -1.1902
 9303SOL    HW239546   1.561   4.159   6.276  0.1677  0.7870 -2.1100
 9304SOL     OW39547   0.093   2.142   2.938 -0.3197 -0.2514 -0.0842
 9304SOL    HW139548   0.088   2.118   2.846  2.7349  1.8225 -0.8006
 9304SOL    HW239549   0.016   2.102   2.979 -0.8962  1.8835  0.9218
 9305SOL     OW39550   0.596   2.094   6.224 -0.1853 -0.8286  0.5022
 9305SOL    HW139551   0.680   2.092   6.180 -0.8150  3.0029 -0.8602
 9305SOL    HW239552   0.566   2.004   6.207 -1.2723 -0.2554 -0.6018
 9306SOL     OW39553   1.781   1.211   5.473 -0.3531  0.1015 -0.1622
 9306SOL    HW139554   1.726   1.133   5.476  2.2472 -1.7590 -0.8742
 9306SOL    HW239555   1.747   1.270   5.406 -1.8338 -0.0437  0.4784
 9307SOL     OW39556   3.548   3.320   6.201 -0.1218  0.0785  0.2741
 9307SOL    HW139557   3.608   3.328   6.274 -1.0722  0.3032  1.0263
 9307SOL    HW239558   3.605   3.328   6.124 -0.7944 -1.1911 -0.3660
 9308SOL     OW39559   1.456   1.573  12.061 -0.0640 -0.8057  0.5963
 9308SOL    HW139560   1.531   1.625  12.032 -1.8710  0.8232 -1.1623
 9308SOL    HW239561   1.509   1.514  12.114  0.9981  1.0690  1.6375
 9309SOL     OW39562   2.970   3.157   8.132 -0.4847  0.3326 -0.5364
 9309SOL    HW139563   3.063   3.133   8.139 -0.4626  0.7192  0.3707
 9309SOL    HW239564   2.980   3.252   8.134  0.5342  0.1956  1.2208
 9310SOL     OW39565   4.217   4.740   5.331 -0.3532  0.2041  0.1364
 9310SOL    HW139566   4.241   4.697   5.413 -0.9453  0.8603  0.6517
 9310SOL    HW239567   4.284   4.725   5.264  0.1383 -0.2887  0.7397
 9311SOL     OW39568   2.817   2.403   6.695 -0.2435 -0.4267 -0.0586
 9311SOL    HW139569   2.881   2.362   6.752  0.2600  0.3375 -0.0844
 9311SOL    HW239570   2.852   2.391   6.606  1.6813 -0.8651  0.7691
 9312SOL     OW39571   2.956   4.433   3.341  0.1727  0.4087  0.4191
 9312SOL    HW139572   2.904   4.475   3.409  1.1787 -0.3970  1.6617
 9312SOL    HW239573   2.987   4.351   3.379 -0.5063 -1.2370 -2.5618
 9313SOL     OW39574   1.402   3.775  11.846 -0.0731  0.4453 -0.4407
 9313SOL    HW139575   1.402   3.869  11.827  0.9724  0.5573  0.1363
 9313SOL    HW239576   1.328   3.781  11.906  0.1530  0.6742 -0.1839
 9314SOL     OW39577   0.621   1.813   2.555 -0.0074  0.4490  0.5858
 9314SOL    HW139578   0.674   1.842   2.481  0.9292 -0.3949  0.9350
 9314SOL    HW239579   0.546   1.770   2.514  0.9094 -1.1432  0.5544
 9315SOL     OW39580   2.362   0.651   3.981 -0.0606 -0.0298 -0.2191
 9315SOL    HW139581   2.310   0.676   4.058 -1.6752  0.9034 -1.6289
 9315SOL    HW239582   2.341   0.724   3.923 -2.0136  0.5050  1.1301
 9316SOL     OW39583   4.376   3.382   8.484  0.3544 -0.0957  0.6124
 9316SOL    HW139584   4.287   3.414   8.471  0.7080  0.8265  0.4798
 9316SOL    HW239585   4.387   3.391   8.579  3.3869 -1.1813  0.3633
 9317SOL     OW39586   3.418   1.595  14.722  0.3559 -0.0142  0.2504
 9317SOL    HW139587   3.387   1.644  14.798 -0.2572  2.8747 -1.8681
 9317SOL    HW239588   3.375   1.510  14.735  2.0952 -0.9566 -0.2041
 9318SOL     OW39589   3.132   1.717   2.744 -0.4157 -0.2094 -0.4492
 9318SOL    HW139590   3.221   1.716   2.710  0.5277 -0.9406  2.0308
 9318SOL    HW239591   3.094   1.786   2.690  0.8779  1.7847  1.1754
 9319SOL     OW39592   3.753   0.626   2.766 -0.1467 -1.1297  0.0037
 9319SOL    HW139593   3.842   0.591   2.761  1.1431  2.2551 -0.4891
 9319SOL    HW239594   3.737   0.621   2.860  0.8712  0.3090  0.2558
 9320SOL     OW39595   0.498   4.236   2.221 -0.0089  0.3788 -0.1406
 9320SOL    HW139596   0.433   4.197   2.279  0.1680  1.2349  0.6218
 9320SOL    HW239597   0.576   4.214   2.272  0.2813  0.8386 -0.3889
 9321SOL     OW39598   3.238   3.187   8.671  0.3844  0.4412  1.0730
 9321SOL    HW139599   3.308   3.145   8.722  1.6040 -0.8324 -1.6389
 9321SOL    HW239600   3.161   3.132   8.678  0.3818  0.4192  0.8707
 9322SOL     OW39601   2.680   3.123  17.122  0.2879  0.6831 -0.1930
 9322SOL    HW139602   2.615   3.091  17.060  3.5192 -0.1675 -3.1360
 9322SOL    HW239603   2.673   3.217  17.107 -0.6425  0.6579  0.0658
 9323SOL     OW39604   0.682   4.162   6.494 -0.3267  1.1117 -0.1607
 9323SOL    HW139605   0.756   4.220   6.515  1.2531  0.2112 -3.3267
 9323SOL    HW239606   0.716   4.103   6.427 -0.5397 -0.5038  1.1576
 9324SOL     OW39607   3.167   1.990  14.720 -0.0607 -0.4302 -0.4702
 9324SOL    HW139608   3.135   2.061  14.664 -0.3223 -1.6768 -1.8907
 9324SOL    HW239609   3.139   1.908  14.679 -0.9273 -1.4484  2.1648
 9325SOL     OW39610   1.768   0.044   0.837 -0.3535  0.3191  0.5537
 9325SOL    HW139611   1.717   0.125   0.843 -3.3778 -1.5052 -0.3085
 9325SOL    HW239612   1.801   0.028   0.925 -1.8760 -1.4008  0.8176
 9326SOL     OW39613   1.999   2.881   8.650 -0.0772 -0.6738  0.1032
 9326SOL    HW139614   2.080   2.831   8.643 -0.5504 -0.9755 -3.2786
 9326SOL    HW239615   2.029   2.972   8.658 -0.7840 -0.6731  2.6418
 9327SOL     OW39616   4.529   1.781   1.071 -0.2798 -0.4986 -0.5204
 9327SOL    HW139617   4.559   1.869   1.047  0.2468 -0.4375  0.3638
 9327SOL    HW239618   4.505   1.796   1.162 -1.8508  1.3934 -1.2307
 9328SOL     OW39619   4.366   3.588   3.022  0.2894 -0.2696 -0.9231
 9328SOL    HW139620   4.356   3.542   2.939  1.0597  0.7462 -1.5726
 9328SOL    HW239621   4.343   3.680   3.008  0.6437 -0.0177  0.1117
 9329SOL     OW39622   0.338   2.863  14.370  0.6387  0.6367 -0.3981
 9329SOL    HW139623   0.360   2.921  14.297  0.5254 -0.0979 -1.0102
 9329SOL    HW239624   0.343   2.929  14.440 -2.1585 -0.4285  0.7922
 9330SOL     OW39625   1.477   0.192   4.550  0.3143  0.2203  0.0343
 9330SOL    HW139626   1.443   0.241   4.625  0.4258  0.2466  0.0677
 9330SOL    HW239627   1.572   0.199   4.554  0.3529  0.1330 -0.8093
 9331SOL     OW39628   1.822   0.835   1.299  0.3866  0.1586 -0.9344
 9331SOL    HW139629   1.858   0.833   1.388 -0.2272  2.0181 -0.6401
 9331SOL    HW239630   1.853   0.750   1.268 -1.0102 -0.3639 -0.8776
 9332SOL     OW39631   1.607   0.016  11.213 -0.1709 -0.5964 -0.4528
 9332SOL    HW139632   1.584   0.069  11.136 -0.0447 -1.2001 -0.9089
 9332SOL    HW239633   1.699   4.743  11.195  0.1959  1.1369 -0.1301
 9333SOL     OW39634   3.690   0.345   8.264 -0.5282  0.1344 -0.4166
 9333SOL    HW139635   3.746   0.418   8.238 -0.1636  0.6863  1.8755
 9333SOL    HW239636   3.727   0.269   8.218 -1.0770 -1.7689  2.2252
 9334SOL     OW39637   1.871   1.216   8.133  0.3155 -0.1138 -0.0050
 9334SOL    HW139638   1.879   1.134   8.085 -1.1419 -0.1070 -0.2576
 9334SOL    HW239639   1.955   1.221   8.178  0.7576  1.7523 -1.0161
 9335SOL     OW39640   4.571   0.647   6.281  0.3682 -0.1933 -0.0262
 9335SOL    HW139641   4.648   0.703   6.282  0.5029 -0.3485 -1.6294
 9335SOL    HW239642   4.511   0.700   6.333 -1.3150 -2.4723  0.3510
 9336SOL     OW39643   0.394   0.572   8.423  0.1226  0.3286 -0.0754
 9336SOL    HW139644   0.336   0.543   8.494  0.8427 -1.3431 -0.1669
 9336SOL    HW239645   0.476   0.560   8.470 -1.1906 -0.0080  2.1364
 9337SOL     OW39646   2.697   3.493  12.666  0.4800 -0.0134  0.2103
 9337SOL    HW139647   2.667   3.572  12.711  0.7364  0.6768 -0.8359
 9337SOL    HW239648   2.622   3.434  12.664  0.2687  0.2652 -0.0894
 9338SOL     OW39649   3.003   4.227  14.201 -0.5141 -0.3762  0.0671
 9338SOL    HW139650   3.068   4.157  14.191 -0.1881 -0.2251  1.1613
 9338SOL    HW239651   2.927   4.172  14.181  0.5014 -1.4831 -0.7451
 9339SOL     OW39652   1.445   3.943   0.972  0.5634 -0.1383  0.1163
 9339SOL    HW139653   1.445   4.007   0.901  0.5043  0.9477  1.0938
 9339SOL    HW239654   1.526   3.968   1.016  0.1486 -1.0973  1.4114
 9340SOL     OW39655   3.295   3.450   8.755 -0.2110 -0.3354  0.2686
 9340SOL    HW139656   3.372   3.502   8.732  0.6593 -0.9360  1.8044
 9340SOL    HW239657   3.319   3.359   8.739 -0.8345 -0.5354  0.4816
 9341SOL     OW39658   1.115   0.759   6.429 -0.3948 -0.4485 -0.3737
 9341SOL    HW139659   1.200   0.750   6.386  0.0134  1.3302  0.0589
 9341SOL    HW239660   1.126   0.712   6.511 -2.5679 -0.1411  0.1086
 9342SOL     OW39661   1.143   1.098   3.826  0.1581  0.2153 -0.2077
 9342SOL    HW139662   1.212   1.127   3.885 -0.7381  1.1470  0.3837
 9342SOL    HW239663   1.193   1.083   3.746  0.3030  0.2030 -0.1152
 9343SOL     OW39664   2.814   3.742   0.984 -0.7565  0.3637  0.0948
 9343SOL    HW139665   2.720   3.732   0.969 -0.4349 -0.4245 -1.3446
 9343SOL    HW239666   2.843   3.688   0.911  2.0736  1.9808  0.0091
 9344SOL     OW39667   3.427   2.449   4.772  0.3454  0.3178 -0.2239
 9344SOL    HW139668   3.415   2.543   4.786 -0.6141 -0.0045  1.1540
 9344SOL    HW239669   3.504   2.462   4.716  0.9048 -1.0398  0.2221
 9345SOL     OW39670   0.537   0.375   8.217 -0.2920 -0.3265 -0.3246
 9345SOL    HW139671   0.481   0.439   8.173  0.7140 -1.4960 -3.3104
 9345SOL    HW239672   0.551   0.311   8.147  1.6370 -1.1463  0.8171
 9346SOL     OW39673   2.758   1.314   7.103  0.4652 -0.2452  0.3624
 9346SOL    HW139674   2.777   1.233   7.055 -0.3734 -0.3341  0.1758
 9346SOL    HW239675   2.819   1.290   7.173  0.6496 -0.1324  0.2394
 9347SOL     OW39676   1.084   0.747   8.675 -0.1672  0.2494 -0.4280
 9347SOL    HW139677   1.049   0.834   8.694  1.1403  0.3153  1.6207
 9347SOL    HW239678   1.057   0.689   8.746  1.8593 -0.8072 -0.5420
 9348SOL     OW39679   3.735   4.650   8.785  0.3789 -0.1885  0.2565
 9348SOL    HW139680   3.721   4.558   8.807  0.3687  0.2293  1.9757
 9348SOL    HW239681   3.649   4.683   8.812  1.0901 -0.0414  2.3612
 9349SOL     OW39682   3.427   1.700   2.645 -0.2608 -0.3396 -0.1201
 9349SOL    HW139683   3.483   1.717   2.721  0.0710  0.1325 -0.4760
 9349SOL    HW239684   3.424   1.783   2.598 -0.2198 -0.3995 -0.2288
 9350SOL     OW39685   2.201   2.701   8.085 -0.1240 -0.2375 -0.1261
 9350SOL    HW139686   2.193   2.750   8.166  0.5191  1.4320 -1.0797
 9350SOL    HW239687   2.109   2.703   8.060 -0.8247 -1.5516  2.3724
 9351SOL     OW39688   0.195   2.515  11.277  0.1985  0.8949 -0.1498
 9351SOL    HW139689   0.140   2.463  11.334  0.1560 -1.7890 -2.6604
 9351SOL    HW239690   0.202   2.602  11.316  1.7621  2.0138 -2.8875
 9352SOL     OW39691   2.589   3.928  13.272  0.5147  1.0641 -0.5309
 9352SOL    HW139692   2.646   3.925  13.349  1.4433 -0.1188 -1.2623
 9352SOL    HW239693   2.598   4.023  13.257 -2.7724  1.1056 -2.1655
 9353SOL     OW39694   3.137   4.250   0.722  0.0104  0.0404 -0.5587
 9353SOL    HW139695   3.082   4.324   0.746 -0.1826 -1.0366  2.3386
 9353SOL    HW239696   3.140   4.252   0.626  1.1575  1.3323 -0.4970
 9354SOL     OW39697   3.743   1.112  10.053 -0.2437  0.0330 -0.3253
 9354SOL    HW139698   3.747   1.076  10.141  0.1317 -3.1095 -1.6406
 9354SOL    HW239699   3.796   1.047  10.007  0.9308  0.8423 -0.1146
 9355SOL     OW39700   3.817   2.056   9.356  0.5157  0.4373 -0.0260
 9355SOL    HW139701   3.811   2.124   9.423  0.9140 -2.9001  3.4478
 9355SOL    HW239702   3.760   1.988   9.394 -1.6492  1.1946 -1.8760
 9356SOL     OW39703   3.011   0.487   4.234 -0.2534  0.1699  0.3758
 9356SOL    HW139704   2.939   0.504   4.174  0.4171 -0.7137 -0.6827
 9356SOL    HW239705   3.081   0.538   4.193 -1.6359  1.6371 -0.1771
 9357SOL     OW39706   1.103   1.378   0.117 -0.3077 -0.5428  0.1749
 9357SOL    HW139707   1.081   1.424   0.036  1.2199 -1.3792 -0.7050
 9357SOL    HW239708   1.089   1.285   0.098 -1.4809 -0.6060  1.3060
 9358SOL     OW39709   1.707   3.348   5.048 -0.1457 -0.2693 -0.2895
 9358SOL    HW139710   1.687   3.255   5.041  2.7179 -0.8545 -0.9911
 9358SOL    HW239711   1.784   3.357   4.991  0.8349  1.4982  1.2808
 9359SOL     OW39712   4.544   1.856   6.604 -0.5628 -0.0240 -0.0538
 9359SOL    HW139713   4.459   1.813   6.592  0.0801 -1.2359 -0.2131
 9359SOL    HW239714   4.575   1.848   6.514 -0.7575 -0.6070 -0.0699
 9360SOL     OW39715   2.678   3.209  16.004 -0.1751  0.0235  0.0955
 9360SOL    HW139716   2.750   3.198  16.066 -1.3480  1.4371  1.6763
 9360SOL    HW239717   2.607   3.235  16.062  0.0114  2.1824 -0.6408
 9361SOL     OW39718   3.449   1.085   6.372 -0.4923  0.0809 -0.2604
 9361SOL    HW139719   3.409   1.000   6.357  0.5280 -0.0627 -2.0758
 9361SOL    HW239720   3.377   1.145   6.394  1.3759  1.5655  1.8011
 9362SOL     OW39721   0.438   2.661  10.198  0.1783 -0.0867  0.3042
 9362SOL    HW139722   0.428   2.598  10.127 -0.5078 -0.5383  0.8046
 9362SOL    HW239723   0.489   2.731  10.158  0.0498 -0.5211 -0.6134
 9363SOL     OW39724   2.476   0.865  17.262  0.1924  0.2505  0.4245
 9363SOL    HW139725   2.381   0.867  17.261  0.1736 -1.4632 -1.4669
 9363SOL    HW239726   2.497   0.826  17.347  1.6518 -1.0710 -0.5260
 9364SOL     OW39727   1.532   1.940   5.928 -0.4177  0.2349  0.5098
 9364SOL    HW139728   1.551   1.904   6.014  1.3210 -3.6918 -1.5403
 9364SOL    HW239729   1.530   1.863   5.871  1.2442  0.8751 -0.4194
 9365SOL     OW39730   4.460   3.519  13.802 -0.1085  0.0185  0.7050
 9365SOL    HW139731   4.432   3.576  13.874  1.3032  1.3739  0.1842
 9365SOL    HW239732   4.393   3.534  13.735  0.9492  2.4162  0.1875
 9366SOL     OW39733   4.581   1.092   6.467  0.4138 -0.0341 -0.9660
 9366SOL    HW139734   4.617   1.161   6.413 -1.7292  1.7235 -0.1498
 9366SOL    HW239735   4.638   1.087   6.543  0.4670 -0.6841 -1.0416
 9367SOL     OW39736   2.897   1.401   8.593  0.6941  0.1554 -0.3650
 9367SOL    HW139737   2.889   1.318   8.546 -1.4093 -0.7320  1.5966
 9367SOL    HW239738   2.990   1.399   8.616  0.7304  0.3853 -0.4941
 9368SOL     OW39739   4.220   0.028   2.837 -0.4931  0.0706  0.0294
 9368SOL    HW139740   4.221   0.108   2.891 -1.0144  1.6186 -2.2664
 9368SOL    HW239741   4.313   0.027   2.817 -1.1017 -0.0135 -2.8310
 9369SOL     OW39742   0.284   4.199  11.332  0.5563 -0.1487  0.0716
 9369SOL    HW139743   0.192   4.207  11.357  0.4001  0.2458 -0.6381
 9369SOL    HW239744   0.317   4.163  11.414  2.4810 -0.2384 -0.7377
 9370SOL     OW39745   1.558   2.211  13.878  0.3566  0.0350  0.1465
 9370SOL    HW139746   1.635   2.252  13.838 -0.7571 -0.1346 -2.1450
 9370SOL    HW239747   1.571   2.123  13.841  0.7194 -0.7514  2.1293
 9371SOL     OW39748   4.530   0.731   7.475  0.2841  0.3761  0.3047
 9371SOL    HW139749   4.441   0.706   7.449  0.7931 -2.7109  1.5689
 9371SOL    HW239750   4.583   0.656   7.449 -0.0688  0.4022 -0.4998
 9372SOL     OW39751   4.389   4.705   3.870 -0.1812 -0.0193 -0.0894
 9372SOL    HW139752   4.374   4.626   3.923 -1.7158 -0.0578 -0.5701
 9372SOL    HW239753   4.442   0.016   3.929 -0.4017  0.8827 -0.7358
 9373SOL     OW39754   1.236   1.831   9.766 -0.0379  0.3290  0.1316
 9373SOL    HW139755   1.203   1.908   9.814 -0.6789 -0.4642  0.9582
 9373SOL    HW239756   1.228   1.753   9.820 -1.1384 -0.8115 -1.6919
 9374SOL     OW39757   0.990   3.959  11.007 -0.7264 -0.0418  0.2308
 9374SOL    HW139758   1.038   4.022  10.953 -1.3727 -0.5224 -0.9084
 9374SOL    HW239759   0.915   3.944  10.949  0.2419 -1.4993 -0.6408
 9375SOL     OW39760   1.394   3.331  16.842  0.7449  0.0312 -0.3174
 9375SOL    HW139761   1.362   3.395  16.780 -3.4935 -0.1427  1.7102
 9375SOL    HW239762   1.447   3.390  16.896 -0.7074 -0.1150  1.2641
 9376SOL     OW39763   4.662   3.464   4.929  0.0390 -0.1051  0.0929
 9376SOL    HW139764   4.637   3.554   4.949 -0.4179 -0.5192  1.4043
 9376SOL    HW239765   4.693   3.436   5.015 -0.5111 -1.9313 -0.2857
 9377SOL     OW39766   3.361   1.016   7.486 -0.1676  0.7970 -0.2514
 9377SOL    HW139767   3.409   1.085   7.440  2.0482  0.8734  2.1658
 9377SOL    HW239768   3.323   1.074   7.552  1.1428  0.3062  0.9315
 9378SOL     OW39769   0.034   3.800   0.114 -0.2427 -0.3924 -0.0964
 9378SOL    HW139770   0.055   3.803   0.021  1.7176 -0.7923  0.3459
 9378SOL    HW239771   4.685   3.780   0.096 -0.6267  0.6218  0.7821
 9379SOL     OW39772   3.953   1.108   6.055  0.1018  0.6839 -0.7950
 9379SOL    HW139773   3.928   1.191   6.095 -0.1232  1.5037 -2.6679
 9379SOL    HW239774   4.035   1.087   6.101 -0.3804  0.3260 -0.0941
 9380SOL     OW39775   2.828   2.035  16.479  0.3372 -0.1454  0.3380
 9380SOL    HW139776   2.844   2.084  16.399  3.7974 -0.6791  0.7022
 9380SOL    HW239777   2.827   1.942  16.453  2.7263  0.3784 -1.5600
 9381SOL     OW39778   4.577   1.364  13.118 -0.5387 -0.4530  0.4042
 9381SOL    HW139779   4.641   1.425  13.080 -0.1856 -1.2940 -0.3569
 9381SOL    HW239780   4.542   1.318  13.042 -0.9616 -1.1476  1.0235
 9382SOL     OW39781   1.128   3.820  11.719 -0.2620 -0.2162  1.0753
 9382SOL    HW139782   1.093   3.908  11.731 -0.0978  0.0529 -0.3418
 9382SOL    HW239783   1.179   3.807  11.799  1.0201  1.0928  0.4622
 9383SOL     OW39784   3.699   4.059   2.099 -0.8007 -0.5550  0.0632
 9383SOL    HW139785   3.611   4.026   2.118 -0.5802 -0.0774  1.8582
 9383SOL    HW239786   3.695   4.154   2.095 -3.3940 -0.6195  1.1685
 9384SOL     OW39787   0.142   0.154  13.633 -0.4012 -0.6287  0.5311
 9384SOL    HW139788   0.218   0.200  13.597  0.6588 -1.1872  2.0557
 9384SOL    HW239789   0.104   0.211  13.699 -0.0760  0.8480 -0.5328
 9385SOL     OW39790   1.871   0.611   5.502  0.2679  0.2301 -0.7002
 9385SOL    HW139791   1.894   0.679   5.439  1.2944  1.5527  1.0716
 9385SOL    HW239792   1.931   0.541   5.478  0.4583  0.9387 -2.2392
 9386SOL     OW39793   2.422   4.473   5.923  0.0071 -0.2085 -0.2049
 9386SOL    HW139794   2.392   4.436   5.840 -1.8414 -0.3991  0.5436
 9386SOL    HW239795   2.460   4.395   5.963  0.5206  0.2670  0.2353
 9387SOL     OW39796   2.470   1.977   3.854  0.3680  0.1162  0.5142
 9387SOL    HW139797   2.435   1.891   3.875 -2.5890  1.2698  0.3294
 9387SOL    HW239798   2.500   2.004   3.942 -1.4665 -0.5303  1.3288
 9388SOL     OW39799   1.059   2.668   5.716 -0.6090 -0.3106 -0.3681
 9388SOL    HW139800   1.075   2.657   5.623  1.4320 -1.3638  0.1143
 9388SOL    HW239801   1.147   2.659   5.751 -1.5523 -1.8676  1.6557
 9389SOL     OW39802   4.392   2.819  13.704 -0.1801 -0.2275  0.1511
 9389SOL    HW139803   4.350   2.734  13.703  1.1841 -0.9004  0.2287
 9389SOL    HW239804   4.454   2.817  13.778 -1.6298 -3.5282  1.2346
 9390SOL     OW39805   0.437   1.469   3.657  0.0479 -0.0339  0.0984
 9390SOL    HW139806   0.390   1.393   3.692  0.8651 -0.2486  0.7015
 9390SOL    HW239807   0.503   1.414   3.615 -0.9456 -1.8040  0.8527
 9391SOL     OW39808   2.947   4.080   7.144  0.4318  0.2846  0.0091
 9391SOL    HW139809   2.885   4.138   7.098  0.3385 -1.0860 -1.6187
 9391SOL    HW239810   2.902   3.996   7.137 -0.5993  0.8304  0.0447
 9392SOL     OW39811   1.070   3.581   4.378 -0.0719 -0.1174  0.1715
 9392SOL    HW139812   1.135   3.511   4.386  1.2006  1.0267 -0.1257
 9392SOL    HW239813   1.115   3.641   4.319 -0.4434  0.4251  0.4443
 9393SOL     OW39814   0.502   0.072   2.589  0.0503  0.9545 -0.0984
 9393SOL    HW139815   0.512   4.721   2.604 -0.1159  0.9981  0.2887
 9393SOL    HW239816   0.538   0.111   2.668 -0.5129  1.5595 -0.1401
 9394SOL     OW39817   0.886   1.645  15.825 -0.8099 -0.1629 -0.3326
 9394SOL    HW139818   0.791   1.650  15.841 -0.8036  3.0723 -1.4759
 9394SOL    HW239819   0.883   1.604  15.738 -1.1749  1.1364 -0.9328
 9395SOL     OW39820   0.555   0.781   5.322 -0.5507  0.0813  0.1617
 9395SOL    HW139821   0.508   0.759   5.241 -0.9286 -0.2956  0.4845
 9395SOL    HW239822   0.556   0.698   5.369  1.3169 -0.0856 -0.2083
 9396SOL     OW39823   0.750   0.492   9.111  0.0429 -0.3060 -0.0964
 9396SOL    HW139824   0.824   0.538   9.150  0.2510 -1.7145  1.1526
 9396SOL    HW239825   0.672   0.541   9.137 -0.1991  0.2478 -1.8394
 9397SOL     OW39826   2.740   2.564   2.347  0.4872 -0.4206  0.0735
 9397SOL    HW139827   2.674   2.521   2.293 -0.3896  1.9403 -0.7203
 9397SOL    HW239828   2.724   2.528   2.434 -0.5021  0.2025  0.1409
 9398SOL     OW39829   2.580   1.262   8.524 -0.4254  0.1854 -0.2708
 9398SOL    HW139830   2.534   1.189   8.565  0.5092 -0.0601  0.3492
 9398SOL    HW239831   2.635   1.214   8.462  0.4112  0.5104  0.2042
 9399SOL     OW39832   3.916   0.465  12.706  0.3222 -0.2842 -0.1281
 9399SOL    HW139833   3.861   0.419  12.643 -1.1212  0.4591  0.5709
 9399SOL    HW239834   3.991   0.406  12.711  0.2916 -0.0737  3.1416
 9400SOL     OW39835   3.450   0.063   4.792 -0.4755  0.4894 -0.4404
 9400SOL    HW139836   3.423   4.714   4.800  2.7214 -0.6572 -2.9368
 9400SOL    HW239837   3.395   0.100   4.724 -3.5004 -1.3773  0.9967
 9401SOL     OW39838   3.926   3.606   6.165 -0.4400 -0.4882  0.4370
 9401SOL    HW139839   3.852   3.614   6.105 -1.6400  0.4958  2.0259
 9401SOL    HW239840   3.886   3.541   6.224  1.8441 -0.5751  1.8931
 9402SOL     OW39841   3.167   3.213  10.332 -0.4591 -0.6427  0.0390
 9402SOL    HW139842   3.092   3.155  10.314 -0.8650  0.0351 -0.4517
 9402SOL    HW239843   3.176   3.262  10.251  0.1844  0.5610  0.8429
 9403SOL     OW39844   2.183   0.998   9.142 -0.0473  0.4879 -0.3738
 9403SOL    HW139845   2.096   0.991   9.181  0.6772 -0.4318  1.1062
 9403SOL    HW239846   2.169   0.956   9.057  0.1728 -0.1711 -0.0831
 9404SOL     OW39847   1.564   3.552  11.137 -0.2453 -0.5032  0.3998
 9404SOL    HW139848   1.526   3.600  11.063  1.0062  0.8298  0.6121
 9404SOL    HW239849   1.587   3.626  11.194 -0.5421 -0.5057  0.5231
 9405SOL     OW39850   4.573   1.254   7.458  0.0443 -0.1380  0.4670
 9405SOL    HW139851   4.563   1.227   7.367  0.1112  2.6796 -0.3672
 9405SOL    HW239852   4.479   1.267   7.471 -0.0772  0.5891 -1.1484
 9406SOL     OW39853   2.305   3.244   4.774  0.5737  0.2085 -0.1569
 9406SOL    HW139854   2.251   3.223   4.850  0.8055  2.7221  0.7285
 9406SOL    HW239855   2.301   3.163   4.724  0.7784  0.4134 -0.5072
 9407SOL     OW39856   3.831   0.960   0.391  0.9565 -0.2903 -0.0042
 9407SOL    HW139857   3.777   0.956   0.470  0.0778 -0.9199 -0.6316
 9407SOL    HW239858   3.828   0.872   0.353 -2.1646  1.0742 -2.8832
 9408SOL     OW39859   1.954   0.785   6.343  0.3432  0.5505  0.4038
 9408SOL    HW139860   1.997   0.865   6.316 -1.1590  0.5237 -2.0280
 9408SOL    HW239861   2.011   0.748   6.412  0.3586 -1.2224 -0.5471
 9409SOL     OW39862   3.758   0.807   9.152  0.2167 -0.1336  0.0110
 9409SOL    HW139863   3.813   0.844   9.222  0.0955 -0.9708  0.5476
 9409SOL    HW239864   3.767   0.713   9.170 -1.1611 -0.3209 -0.2814
 9410SOL     OW39865   0.509   4.010   2.572 -0.0962  0.5664 -0.1294
 9410SOL    HW139866   0.416   3.987   2.576 -0.3239  1.4892 -0.2096
 9410SOL    HW239867   0.559   3.940   2.530 -0.2012  0.5468 -0.2184
 9411SOL     OW39868   2.125   1.823   5.475  0.3182  0.1280 -0.1485
 9411SOL    HW139869   2.160   1.761   5.411 -0.6270  1.1123 -1.5992
 9411SOL    HW239870   2.175   1.803   5.554  0.7089  1.7685  0.0175
 9412SOL     OW39871   1.172   1.012   5.166 -0.1229  0.6881 -0.8262
 9412SOL    HW139872   1.188   1.084   5.105  1.0196  0.6467 -0.5801
 9412SOL    HW239873   1.103   1.051   5.219  0.9506  1.2879  0.1256
 9413SOL     OW39874   1.850   4.471   4.559  0.0787 -0.0523 -0.0202
 9413SOL    HW139875   1.763   4.500   4.587 -0.6580 -1.2354 -1.0988
 9413SOL    HW239876   1.849   4.488   4.465 -2.7324  2.2818  0.4104
 9414SOL     OW39877   3.990   3.337   5.410 -0.0220  0.1335  0.2562
 9414SOL    HW139878   3.941   3.374   5.336  2.4350  2.9844  0.0442
 9414SOL    HW239879   4.005   3.417   5.461  1.4701  0.2046 -0.2890
 9415SOL     OW39880   1.680   1.462  13.905  0.1024 -0.2603 -0.6745
 9415SOL    HW139881   1.739   1.389  13.885 -0.0725 -0.7994  0.7696
 9415SOL    HW239882   1.683   1.525  13.833  1.4196 -0.4298 -0.7748
 9416SOL     OW39883   0.130   3.603  13.804 -0.1639 -0.1257 -0.3619
 9416SOL    HW139884   0.128   3.615  13.899 -1.0154 -2.8065 -0.0404
 9416SOL    HW239885   0.220   3.630  13.787 -0.5501  0.1820 -1.8711
 9417SOL     OW39886   2.648   4.156   6.747  0.0062 -0.4225  0.0497
 9417SOL    HW139887   2.663   4.062   6.743  2.5822 -0.0260  0.1083
 9417SOL    HW239888   2.698   4.178   6.668  0.1810  0.7142  0.4788
 9418SOL     OW39889   1.703   2.207   3.288  0.3329  0.4713  0.5458
 9418SOL    HW139890   1.616   2.199   3.249  0.0166 -1.6115  1.6845
 9418SOL    HW239891   1.703   2.301   3.270 -1.9259  0.5818  1.2161
 9419SOL     OW39892   2.795   3.601  15.125 -0.1426  0.3595 -0.1070
 9419SOL    HW139893   2.868   3.555  15.165 -0.7777 -0.2770  0.3309
 9419SOL    HW239894   2.829   3.632  15.042  1.3914  0.4330  0.5553
 9420SOL     OW39895   3.143   3.544   4.913  0.4459 -0.4107  0.3175
 9420SOL    HW139896   3.090   3.472   4.944  0.1787 -0.2003  0.3496
 9420SOL    HW239897   3.095   3.564   4.833  0.7587 -1.1678 -0.0560
 9421SOL     OW39898   0.471   4.374   6.998  0.6985 -0.0399  0.4950
 9421SOL    HW139899   0.386   4.347   6.961  1.1165 -1.6196  0.6614
 9421SOL    HW239900   0.452   4.381   7.091  0.4366  2.5758  0.2423
 9422SOL     OW39901   4.073   4.476   8.507  0.2147 -0.1252 -0.1240
 9422SOL    HW139902   4.047   4.386   8.486 -3.3977  1.0533 -0.6907
 9422SOL    HW239903   4.139   4.449   8.571  2.3080 -0.1055 -2.2441
 9423SOL     OW39904   1.476   3.034   2.168 -0.0590  0.7869 -0.3728
 9423SOL    HW139905   1.545   2.969   2.179 -0.8837  0.5438  3.4695
 9423SOL    HW239906   1.430   2.991   2.096 -0.6411  0.6835  0.0574
 9424SOL     OW39907   0.460   2.718   9.787 -0.2288 -0.4117  0.1221
 9424SOL    HW139908   0.477   2.767   9.707 -1.8336 -0.8601 -0.4903
 9424SOL    HW239909   0.520   2.644   9.777 -0.4072 -0.2777 -1.8210
 9425SOL     OW39910   3.473   4.237   9.398 -0.1812 -0.2826  0.1352
 9425SOL    HW139911   3.419   4.161   9.373  1.5793 -1.5848  0.2698
 9425SOL    HW239912   3.421   4.281   9.466 -0.9561 -1.4504  0.3104
 9426SOL     OW39913   0.275   1.750   5.539 -0.3706  0.9068 -0.1737
 9426SOL    HW139914   0.190   1.737   5.498  1.1163  0.9452 -3.2665
 9426SOL    HW239915   0.299   1.836   5.504 -0.4116  0.5434 -1.0895
 9427SOL     OW39916   4.409   3.223   2.735  0.5490  0.2126  0.0169
 9427SOL    HW139917   4.346   3.152   2.718 -0.3615  0.7454  1.1110
 9427SOL    HW239918   4.479   3.169   2.773 -0.5540 -0.3236  1.3202
 9428SOL     OW39919   4.359   1.846   1.496 -0.2358 -0.1519  0.1380
 9428SOL    HW139920   4.369   1.818   1.587 -0.6409  0.2139  0.2952
 9428SOL    HW239921   4.369   1.940   1.512  1.9005 -0.6832  1.8503
 9429SOL     OW39922   2.161   3.384   5.275 -0.3360  0.7495  0.8464
 9429SOL    HW139923   2.213   3.455   5.312 -1.4090  1.0559  1.7657
 9429SOL    HW239924   2.103   3.422   5.210 -0.6499  0.7559  1.1305
 9430SOL     OW39925   0.989   2.881   6.930 -0.5350  0.0298 -0.2967
 9430SOL    HW139926   0.962   2.930   7.008 -1.9419 -1.7313  0.3189
 9430SOL    HW239927   0.978   2.954   6.870 -1.0435  0.6021  0.4911
 9431SOL     OW39928   2.468   1.116   7.837 -0.2097  0.7332  0.3100
 9431SOL    HW139929   2.476   1.143   7.928  1.0839  1.6262 -0.0771
 9431SOL    HW239930   2.555   1.091   7.807  0.0649  0.9329  0.9471
 9432SOL     OW39931   1.042   4.218   9.547 -0.2887  0.0572 -0.2843
 9432SOL    HW139932   1.044   4.128   9.514  3.0835 -0.0526  0.1888
 9432SOL    HW239933   1.046   4.280   9.474  0.7190  3.1142  2.3254
 9433SOL     OW39934   1.562   3.847   6.043 -0.0691 -0.1881  0.0515
 9433SOL    HW139935   1.627   3.782   6.018  2.2019  2.4044 -0.7207
 9433SOL    HW239936   1.512   3.863   5.963  0.0472  0.6349  0.1400
 9434SOL     OW39937   2.707   0.868   2.863 -0.0679 -0.1100  0.5037
 9434SOL    HW139938   2.789   0.819   2.856 -0.0697  0.1284 -1.4020
 9434SOL    HW239939   2.697   0.885   2.956 -1.9593 -1.0925  0.4849
 9435SOL     OW39940   1.698   1.002   4.452  0.1239  0.5390  0.1999
 9435SOL    HW139941   1.679   1.066   4.384  1.9713  2.3864  1.4008
 9435SOL    HW239942   1.621   1.026   4.503  0.1046  1.5855 -0.3308
 9436SOL     OW39943   1.103   2.334   5.987 -0.4012  0.5380 -0.0417
 9436SOL    HW139944   1.193   2.310   5.966 -0.4177 -1.9545  2.6246
 9436SOL    HW239945   1.058   2.320   5.904  0.1421  3.5830 -0.8694
 9437SOL     OW39946   2.735   1.178   3.067  0.4457  0.6393 -0.3437
 9437SOL    HW139947   2.738   1.088   3.101  0.9586 -0.5068 -3.3620
 9437SOL    HW239948   2.711   1.166   2.975  0.6561 -0.5247 -0.2494
 9438SOL     OW39949   4.229   4.480   2.322 -0.2260  0.5501 -0.2244
 9438SOL    HW139950   4.242   4.386   2.334 -1.0133 -0.1035 -4.6070
 9438SOL    HW239951   4.298   4.500   2.259 -0.7442  0.3109 -0.8595
 9439SOL     OW39952   3.801   2.235  16.744 -0.0735  0.3563 -0.2392
 9439SOL    HW139953   3.872   2.278  16.697 -1.7981  2.7850 -0.6181
 9439SOL    HW239954   3.735   2.302  16.765  0.9465  0.2194  3.3270
 9440SOL     OW39955   4.371   1.493   4.632 -0.9090 -0.1695 -0.1850
 9440SOL    HW139956   4.465   1.513   4.623 -1.3824  2.1032  0.0305
 9440SOL    HW239957   4.382   1.442   4.713 -0.6425  0.1819  0.0053
 9441SOL     OW39958   4.015   3.276   7.537  0.0873  0.6533  0.0747
 9441SOL    HW139959   4.100   3.320   7.539  1.6163 -2.2921 -0.0452
 9441SOL    HW239960   3.991   3.273   7.444 -0.3910  0.1755  0.2137
 9442SOL     OW39961   1.129   0.467  17.016  0.6642 -0.3350 -0.4697
 9442SOL    HW139962   1.080   0.511  17.085 -0.1945 -1.0187 -0.6297
 9442SOL    HW239963   1.122   0.536  16.950  0.4552 -1.1335 -1.2781
 9443SOL     OW39964   3.995   1.953   9.037  0.3905  0.8599 -0.0269
 9443SOL    HW139965   3.928   1.898   9.078 -0.7927  3.4963  1.5981
 9443SOL    HW239966   4.078   1.906   9.049 -0.2900  0.1836  2.0898
 9444SOL     OW39967   4.481   1.852  14.906 -0.3828 -0.5991 -0.4262
 9444SOL    HW139968   4.479   1.872  15.000 -2.9776 -1.0858 -0.3655
 9444SOL    HW239969   4.575   1.839  14.902 -0.2706 -0.3878  1.3397
 9445SOL     OW39970   3.684   1.193  13.312 -0.0789 -0.3556  0.5029
 9445SOL    HW139971   3.755   1.256  13.314 -0.8427  0.5354 -0.4648
 9445SOL    HW239972   3.700   1.139  13.389  0.5855 -0.6518  0.1565
 9446SOL     OW39973   2.216   0.961   5.793 -0.5278 -0.7745  0.1121
 9446SOL    HW139974   2.221   1.050   5.827  1.9489 -0.1614 -1.8686
 9446SOL    HW239975   2.150   0.909   5.839  1.6617 -2.1027  1.7066
 9447SOL     OW39976   1.208   1.745   4.311 -0.5914  0.0058  0.4613
 9447SOL    HW139977   1.269   1.674   4.289  0.4384  1.3341 -0.9246
 9447SOL    HW239978   1.141   1.694   4.357 -1.1450  0.1993 -0.1275
 9448SOL     OW39979   1.772   2.893   4.915  0.3250  0.1832  0.1703
 9448SOL    HW139980   1.823   2.847   4.848  0.8632  1.3645 -0.2295
 9448SOL    HW239981   1.836   2.964   4.923  1.2008 -0.5752 -0.0726
 9449SOL     OW39982   2.895   3.074  13.384 -0.4864  1.0267 -0.1986
 9449SOL    HW139983   2.907   3.031  13.468 -3.4042 -0.9015 -0.7710
 9449SOL    HW239984   2.804   3.103  13.383 -1.0148 -0.6489 -1.3449
 9450SOL     OW39985   1.917   3.544   3.641  0.0204  0.5763 -0.5659
 9450SOL    HW139986   1.918   3.454   3.608 -0.6861  0.7497 -1.0773
 9450SOL    HW239987   1.898   3.593   3.560 -0.3695  0.0115 -0.8186
 9451SOL     OW39988   3.697   3.460   9.370 -0.0097 -0.0452 -0.2721
 9451SOL    HW139989   3.762   3.452   9.301 -1.1245 -0.2213 -1.3118
 9451SOL    HW239990   3.744   3.420   9.443  1.0148 -2.2692 -2.1484
 9452SOL     OW39991   1.387   3.806   4.385 -0.3266  0.6142 -0.1992
 9452SOL    HW139992   1.367   3.894   4.353  4.1320  1.4321 -0.7550
 9452SOL    HW239993   1.482   3.817   4.396 -0.5217  1.4675  0.5996
 9453SOL     OW39994   2.128   1.020   1.900 -0.7551  0.4186  0.2886
 9453SOL    HW139995   2.180   1.070   1.963  0.2865 -0.2363 -0.0497
 9453SOL    HW239996   2.045   1.065   1.888 -1.2421 -0.2118  1.3272
 9454SOL     OW39997   1.878   0.362  13.785 -0.3686 -0.4365 -0.2396
 9454SOL    HW139998   1.871   0.451  13.820  2.8349  0.2187 -1.2276
 9454SOL    HW239999   1.963   0.363  13.742 -0.0376 -1.9078  0.3809
 9455SOL     OW40000   2.937   2.044   1.847 -0.5102 -0.3754 -0.3043
 9455SOL    HW140001   2.948   2.134   1.815 -1.7489  0.0591  0.4868
 9455SOL    HW240002   2.898   2.072   1.930 -0.1122 -0.1649 -0.1883
 9456SOL     OW40003   1.960   3.534   6.335 -0.1406  0.7894 -0.4661
 9456SOL    HW140004   1.905   3.458   6.315 -2.2021  1.3375  3.0391
 9456SOL    HW240005   2.011   3.508   6.412  1.0325 -2.0756 -2.2043
 9457SOL     OW40006   2.860   1.860  12.964 -0.4467 -0.1976  0.3047
 9457SOL    HW140007   2.795   1.900  13.022  1.0059  0.9237  1.1757
 9457SOL    HW240008   2.854   1.768  12.990  1.3629 -0.3686  0.1233
 9458SOL     OW40009   1.971   0.458   3.714 -0.3285 -0.3931  0.3769
 9458SOL    HW140010   1.903   0.517   3.746 -1.3753 -0.4431 -1.7382
 9458SOL    HW240011   1.922   0.387   3.673 -0.0885 -2.3603  3.5564
 9459SOL     OW40012   1.155   2.645   7.039 -0.0607  0.1294  0.2626
 9459SOL    HW140013   1.177   2.737   7.051  0.7937  0.0560 -0.7689
 9459SOL    HW240014   1.088   2.635   6.971 -0.0474 -3.8860  0.7970
 9460SOL     OW40015   1.063   4.414   1.976  0.1647  0.2135 -0.5159
 9460SOL    HW140016   1.062   4.363   1.895  2.2148  1.7333 -1.4965
 9460SOL    HW240017   1.142   4.468   1.967  0.3891  0.2249  1.5316
 9461SOL     OW40018   0.798   1.618  11.677  0.4591  0.5504 -0.2938
 9461SOL    HW140019   0.878   1.669  11.692  2.2287 -2.0600 -0.8411
 9461SOL    HW240020   0.831   1.533  11.708  0.6678  1.8936  3.2312
 9462SOL     OW40021   2.684   2.611  17.044 -0.6395 -0.0651  0.1919
 9462SOL    HW140022   2.773   2.593  17.075 -1.2146  0.9967  2.4484
 9462SOL    HW240023   2.688   2.706  17.032  0.3949 -0.3523 -1.8801
 9463SOL     OW40024   0.860   1.813   9.531 -0.1630  0.2312 -0.1473
 9463SOL    HW140025   0.774   1.854   9.533 -0.2206  0.1276 -0.4238
 9463SOL    HW240026   0.910   1.862   9.466  0.1888  0.0627 -0.0013
 9464SOL     OW40027   1.789   0.454   7.855 -0.3497 -0.6042 -0.2127
 9464SOL    HW140028   1.764   0.468   7.946  0.2978  1.6678 -0.3913
 9464SOL    HW240029   1.810   0.361   7.864 -1.6368 -0.8928 -0.2459
 9465SOL     OW40030   0.674   1.953  11.550 -0.3116 -0.6703 -0.0208
 9465SOL    HW140031   0.675   1.908  11.634 -1.0883  0.7366  0.7518
 9465SOL    HW240032   0.759   1.996  11.548  0.3992 -2.2275 -2.9516
 9466SOL     OW40033   1.305   4.259   1.595 -0.4867  0.0720  0.6223
 9466SOL    HW140034   1.358   4.237   1.519 -0.6840  1.9585 -0.0781
 9466SOL    HW240035   1.363   4.309   1.654 -1.1735  1.4432  0.1424
 9467SOL     OW40036   0.446   0.694   6.562  0.0665 -0.3418 -0.2410
 9467SOL    HW140037   0.530   0.730   6.534 -0.2320  0.4028 -0.1773
 9467SOL    HW240038   0.401   0.680   6.479  0.7824 -0.9715 -0.5210
 9468SOL     OW40039   4.696   3.429  13.695 -0.2089 -0.4047 -0.0955
 9468SOL    HW140040   0.024   3.471  13.744  0.9289 -0.4589 -1.6848
 9468SOL    HW240041   4.623   3.472  13.738  0.4553  1.7436 -1.1019
 9469SOL     OW40042   1.654   0.971   3.506  0.0938 -0.4738 -0.2296
 9469SOL    HW140043   1.642   1.062   3.478 -1.7804  0.4254  3.4077
 9469SOL    HW240044   1.668   0.984   3.600 -0.2185  1.1351 -0.4014
 9470SOL     OW40045   3.203   2.528   3.236  0.1072  0.4391  0.0028
 9470SOL    HW140046   3.150   2.603   3.210 -1.6999 -0.4597  1.0900
 9470SOL    HW240047   3.279   2.563   3.283 -0.4446  0.0992  1.1662
 9471SOL     OW40048   3.145   0.559   5.175 -0.5087 -0.8087  0.2322
 9471SOL    HW140049   3.051   0.559   5.195 -0.4345 -0.2970  0.5975
 9471SOL    HW240050   3.170   0.524   5.261 -0.0781  0.6039  0.6924
 9472SOL     OW40051   1.518   2.724   1.734 -0.3745  0.1562 -0.3723
 9472SOL    HW140052   1.433   2.714   1.777  0.0768 -3.1559 -0.2891
 9472SOL    HW240053   1.544   2.812   1.763  0.1574  0.5605 -2.1066
 9473SOL     OW40054   4.643   2.223   6.766 -0.0301 -0.3726  0.4747
 9473SOL    HW140055   4.620   2.215   6.859 -1.3896  2.2187  0.3535
 9473SOL    HW240056   4.563   2.259   6.727  2.1465 -0.2177 -3.8169
 9474SOL     OW40057   2.975   3.379   9.843 -0.3645  0.2137 -0.0589
 9474SOL    HW140058   2.988   3.451   9.781  1.7020 -0.5818 -0.5599
 9474SOL    HW240059   2.881   3.373   9.857 -0.5145 -0.1531 -1.2210
 9475SOL     OW40060   1.320   2.980   3.355  0.3075 -0.6165 -0.3063
 9475SOL    HW140061   1.302   2.959   3.264  2.2985 -1.1603 -0.5726
 9475SOL    HW240062   1.327   2.894   3.396  0.4777 -0.9972 -1.1556
 9476SOL     OW40063   4.114   0.230  12.970  0.5829  0.1658  0.2200
 9476SOL    HW140064   4.060   0.186  12.904  3.2476  0.3358 -2.0680
 9476SOL    HW240065   4.074   0.318  12.974  0.4014  0.0806  0.2713
 9477SOL     OW40066   4.238   2.731   7.665  0.7192 -0.2967 -0.2046
 9477SOL    HW140067   4.206   2.803   7.611  0.8513  1.4145  2.0003
 9477SOL    HW240068   4.214   2.662   7.603 -0.6902 -0.1263  0.1554
 9478SOL     OW40069   2.238   4.184   0.923  0.2283  0.0885 -1.0107
 9478SOL    HW140070   2.331   4.171   0.941  0.3116 -0.1500 -1.6425
 9478SOL    HW240071   2.231   4.264   0.977 -0.2531 -2.2258  2.3514
 9479SOL     OW40072   0.962   2.220   3.415 -0.4479  0.5072  0.2202
 9479SOL    HW140073   1.014   2.140   3.419  1.8272  1.8942 -1.2954
 9479SOL    HW240074   0.879   2.186   3.383  0.0592  0.8007 -1.4039
 9480SOL     OW40075   0.978   1.921   8.780  0.0060 -0.5257  0.1158
 9480SOL    HW140076   0.942   1.843   8.739 -0.0842  0.6295 -2.0040
 9480SOL    HW240077   0.987   1.879   8.866 -1.7746  2.3034  1.6804
 9481SOL     OW40078   2.514   1.701   5.719 -0.0472 -0.4371  0.6807
 9481SOL    HW140079   2.509   1.606   5.732 -0.9664 -0.2276  1.9234
 9481SOL    HW240080   2.535   1.696   5.626 -0.3141 -1.6594  0.6847
 9482SOL     OW40081   4.617   4.439   7.643  0.1275  0.4193 -0.3627
 9482SOL    HW140082   4.691   4.473   7.693  1.3055 -1.9037 -0.5287
 9482SOL    HW240083   4.616   4.504   7.573  0.6193 -1.5144 -2.1541
 9483SOL     OW40084   2.428   3.300  11.082 -0.2602  0.2267 -0.6701
 9483SOL    HW140085   2.471   3.228  11.129 -0.1060 -0.1494 -1.3741
 9483SOL    HW240086   2.502   3.358  11.065  2.1435 -2.4631  0.5517
 9484SOL     OW40087   3.545   1.585   8.022 -0.1134 -0.7958  0.9256
 9484SOL    HW140088   3.552   1.627   8.108  0.0784 -0.5948  0.8124
 9484SOL    HW240089   3.467   1.620   7.978  0.9122  0.0358 -0.2253
 9485SOL     OW40090   3.227   2.151  16.338  0.7292 -0.3333  0.0788
 9485SOL    HW140091   3.187   2.237  16.353  0.5692 -0.6509  1.4429
 9485SOL    HW240092   3.157   2.107  16.290 -1.0565  1.6876  0.7896
 9486SOL     OW40093   0.467   1.579  15.684 -0.9963 -0.2770  0.0894
 9486SOL    HW140094   0.447   1.488  15.662 -0.1304 -0.5496  0.4329
 9486SOL    HW240095   0.499   1.610  15.600  1.1809 -1.9611  0.3072
 9487SOL     OW40096   4.174   2.476   6.488 -0.0820  0.3118 -0.2383
 9487SOL    HW140097   4.174   2.410   6.418 -0.0905 -0.2154  0.2572
 9487SOL    HW240098   4.146   2.543   6.425  0.6202  0.0932 -0.7936
 9488SOL     OW40099   3.734   2.460   3.376 -0.4944  0.4282 -0.6100
 9488SOL    HW140100   3.711   2.451   3.468  2.6213 -0.5289  0.0888
 9488SOL    HW240101   3.826   2.483   3.386 -0.9103  1.7205  0.2778
 9489SOL     OW40102   0.916   3.049   3.037 -0.4234 -0.0875  0.0673
 9489SOL    HW140103   0.954   3.077   2.953 -1.1521  3.1863  0.8140
 9489SOL    HW240104   0.946   3.119   3.096 -1.7677  1.5974 -1.2363
 9490SOL     OW40105   2.541   0.705  14.656  0.0199  0.0976 -0.2706
 9490SOL    HW140106   2.449   0.679  14.647  0.1307 -1.0526  1.9751
 9490SOL    HW240107   2.581   0.624  14.626 -1.5624 -0.4209 -0.9988
 9491SOL     OW40108   0.903   4.597   4.162  0.4642  0.3559 -0.3746
 9491SOL    HW140109   0.992   4.569   4.186  0.2577  0.0222  0.0007
 9491SOL    HW240110   0.926   4.689   4.176 -2.3006  0.7917  1.1226
 9492SOL     OW40111   1.753   0.803   3.169 -0.8678  0.4180  0.1725
 9492SOL    HW140112   1.701   0.781   3.091 -0.0653 -0.9506  0.0148
 9492SOL    HW240113   1.756   0.899   3.167  0.2568  0.3937  0.6973
 9493SOL     OW40114   4.704   4.614  17.762  0.1603 -0.0885  0.4566
 9493SOL    HW140115   4.707   4.671  17.685 -1.5679 -0.1457  0.3478
 9493SOL    HW240116   4.631   4.556  17.741 -0.5710  0.9379  0.1990
 9494SOL     OW40117   4.243   1.723   5.557 -0.3872  0.3607  0.5368
 9494SOL    HW140118   4.256   1.639   5.513  3.4297  1.0833  0.2873
 9494SOL    HW240119   4.155   1.712   5.595 -2.4279  4.7133 -3.0291
 9495SOL     OW40120   0.750   1.950   0.913 -0.0197  0.1629  0.5216
 9495SOL    HW140121   0.764   1.969   0.821  1.8408  0.4368  0.8569
 9495SOL    HW240122   0.843   1.949   0.934  0.7602 -1.4525 -3.1190
 9496SOL     OW40123   0.026   0.472   1.573  0.4210 -0.5755  0.9180
 9496SOL    HW140124   0.080   0.521   1.635  1.5310  2.0659 -2.1339
 9496SOL    HW240125   4.686   0.521   1.575  1.7468  1.7341  0.0636
 9497SOL     OW40126   0.777   1.046  11.428 -0.0529  0.7106  0.5410
 9497SOL    HW140127   0.788   0.967  11.376 -2.0783  0.7340  0.1029
 9497SOL    HW240128   0.685   1.070  11.418 -0.6094 -1.7047 -0.1524
 9498SOL     OW40129   1.718   4.631   3.720  0.1403 -0.0914 -0.1130
 9498SOL    HW140130   1.793   4.624   3.662  1.0565  3.3702  0.6771
 9498SOL    HW240131   1.761   4.641   3.805  2.3985 -1.3959 -1.1159
 9499SOL     OW40132   0.215   1.357   3.853 -0.2990 -0.4019 -0.6432
 9499SOL    HW140133   0.269   1.303   3.795  0.5931  1.1393 -1.2709
 9499SOL    HW240134   0.154   1.293   3.889 -0.1690  0.1851  0.6274
 9500SOL     OW40135   1.602   2.083   1.517 -0.1809  0.8356  0.8035
 9500SOL    HW140136   1.650   2.109   1.595  1.8483  0.7146 -0.4089
 9500SOL    HW240137   1.573   2.166   1.476 -1.9868  0.0145  0.3877
 9501SOL     OW40138   3.925   1.378   6.699 -0.5715 -0.3130  0.0479
 9501SOL    HW140139   3.898   1.302   6.751  0.5858 -0.2597  0.7365
 9501SOL    HW240140   4.006   1.390   6.749 -1.0003  0.7188  0.4853
 9502SOL     OW40141   2.563   4.543   9.296  0.1678  0.6757 -0.2679
 9502SOL    HW140142   2.505   4.543   9.372  3.2728 -2.6568  2.1310
 9502SOL    HW240143   2.511   4.512   9.222  0.7405  0.8527 -0.7480
 9503SOL     OW40144   1.958   2.418   9.002 -0.4730  0.0024  0.1768
 9503SOL    HW140145   1.934   2.507   8.977 -0.8630 -0.9011 -2.7824
 9503SOL    HW240146   2.000   2.441   9.084 -0.8776  0.7124  0.1854
 9504SOL     OW40147   4.186   3.772   2.752  0.1248 -0.1111 -0.1383
 9504SOL    HW140148   4.184   3.820   2.669  0.5594 -1.0884 -0.7194
 9504SOL    HW240149   4.132   3.828   2.808  2.4093  1.3717  0.5730
 9505SOL     OW40150   1.774   2.547   7.200  0.6005  0.2190 -0.2101
 9505SOL    HW140151   1.764   2.457   7.168  0.6247  0.5973 -1.2579
 9505SOL    HW240152   1.804   2.529   7.289 -0.0206  0.4507  0.0484
 9506SOL     OW40153   0.080   4.602  11.455  0.0330 -0.0811 -0.0699
 9506SOL    HW140154   0.105   4.510  11.462  0.1716  0.0217  0.8198
 9506SOL    HW240155   0.074   4.634  11.545 -1.2216 -0.9149  0.1263
 9507SOL     OW40156   1.105   0.979   1.801  0.3187  0.2352  0.4957
 9507SOL    HW140157   1.028   0.976   1.858  0.1906  2.6154  0.4598
 9507SOL    HW240158   1.122   1.073   1.795 -4.0058  1.0703  1.1452
 9508SOL     OW40159   4.466   0.661   9.101 -0.0925  0.0258  0.1007
 9508SOL    HW140160   4.482   0.631   9.190 -1.3279  0.8544  0.6014
 9508SOL    HW240161   4.406   0.595   9.065 -1.2960  0.8219  0.6267
 9509SOL     OW40162   1.999   3.766   1.546 -0.3514  0.3116 -0.1556
 9509SOL    HW140163   1.921   3.737   1.594 -1.1927 -0.3620 -1.9213
 9509SOL    HW240164   2.057   3.693   1.568  0.2458  0.5612 -0.9128
 9510SOL     OW40165   4.502   3.269  13.595  0.8418  0.3335 -0.5858
 9510SOL    HW140166   4.571   3.313  13.645  0.0858  2.3046 -1.2474
 9510SOL    HW240167   4.427   3.329  13.598  0.4915 -0.1460  0.0266
 9511SOL     OW40168   4.043   0.094  17.558  0.5467  0.2106 -0.5888
 9511SOL    HW140169   3.985   0.029  17.598  1.6907  1.0395  2.4241
 9511SOL    HW240170   4.014   0.168  17.612  4.6054  1.4173 -0.0729
 9512SOL     OW40171   0.065   3.777  10.873 -0.4934 -0.2003 -0.2895
 9512SOL    HW140172   0.092   3.842  10.938 -0.3926 -0.0947 -0.4384
 9512SOL    HW240173   0.108   3.808  10.794 -0.0583  1.4077  0.5682
 9513SOL     OW40174   0.916   2.930   7.414  0.6674 -0.2956  0.1069
 9513SOL    HW140175   0.917   2.867   7.485 -2.4897  0.7018  1.0564
 9513SOL    HW240176   0.961   3.006   7.451 -1.8157  1.1237  0.2412
 9514SOL     OW40177   1.233   0.376   2.192  0.2914  0.3959  0.5287
 9514SOL    HW140178   1.189   0.460   2.201 -1.2789 -0.4590  0.7496
 9514SOL    HW240179   1.237   0.342   2.281 -2.0327 -0.5960  0.2391
 9515SOL     OW40180   0.201   4.421  15.992  0.5610 -0.2795  0.3371
 9515SOL    HW140181   0.241   4.401  15.907  1.6393  1.5225  0.4362
 9515SOL    HW240182   0.250   4.493  16.031  0.4421  0.5280 -1.0161
 9516SOL     OW40183   0.662   3.786   4.730 -0.7025  0.0178  0.7087
 9516SOL    HW140184   0.723   3.769   4.802 -0.5509 -1.1825  0.2898
 9516SOL    HW240185   0.615   3.704   4.745 -0.9244  0.2416  1.2263
 9517SOL     OW40186   1.776   4.052   7.465  0.2041  0.2648  0.0359
 9517SOL    HW140187   1.716   3.997   7.515 -2.2602 -0.9982 -4.2611
 9517SOL    HW240188   1.846   3.987   7.473 -1.1202 -1.2683 -0.7097
 9518SOL     OW40189   4.014   4.213   8.410  0.1525  0.3935 -0.0493
 9518SOL    HW140190   3.920   4.210   8.394  0.1665 -0.2001 -0.0277
 9518SOL    HW240191   4.051   4.245   8.328 -0.0691 -1.7283 -0.9543
 9519SOL     OW40192   3.434   1.797   5.031  1.0806  0.1388 -0.5974
 9519SOL    HW140193   3.450   1.703   5.024 -0.2883 -0.1859  0.6907
 9519SOL    HW240194   3.477   1.823   4.950  1.0768  0.2217 -0.5724
 9520SOL     OW40195   4.141   3.556  16.297 -0.4579  0.4529  0.1314
 9520SOL    HW140196   4.164   3.550  16.204  1.4368 -0.3042  0.6314
 9520SOL    HW240197   4.047   3.565  16.288 -0.7055 -2.4861 -0.3483
 9521SOL     OW40198   3.784   2.634   9.238  0.5948 -0.3240 -0.4740
 9521SOL    HW140199   3.860   2.577   9.251 -0.7234 -1.7916  0.6809
 9521SOL    HW240200   3.823   2.720   9.218  1.1499  0.0193  2.1387
 9522SOL     OW40201   1.343   0.645   3.794 -0.0153  0.5610 -0.7587
 9522SOL    HW140202   1.317   0.686   3.711 -0.8594 -1.9551 -1.7490
 9522SOL    HW240203   1.268   0.660   3.852 -1.0142 -0.4004 -1.7965
 9523SOL     OW40204   4.472   2.349   3.432  0.1202 -0.2331 -0.2503
 9523SOL    HW140205   4.382   2.378   3.422 -0.1801 -0.7745  0.8258
 9523SOL    HW240206   4.511   2.379   3.350  0.2129 -0.3437 -0.2479
 9524SOL     OW40207   3.567   1.543  14.269 -0.2316  0.1170 -0.1323
 9524SOL    HW140208   3.488   1.517  14.317  0.1698 -0.6646  0.1176
 9524SOL    HW240209   3.612   1.596  14.336 -1.7748 -1.8984  2.5081
 9525SOL     OW40210   1.183   1.348  10.609 -0.6950  0.2980  0.4421
 9525SOL    HW140211   1.119   1.313  10.671 -0.1017 -0.0943  0.8273
 9525SOL    HW240212   1.202   1.267  10.562  1.5479  1.9360 -1.4689
 9526SOL     OW40213   1.508   1.673   3.942 -0.3377 -0.0320 -0.2708
 9526SOL    HW140214   1.417   1.667   3.911 -0.4073  1.6416 -0.4154
 9526SOL    HW240215   1.549   1.681   3.855 -0.7697 -1.0224 -0.5636
 9527SOL     OW40216   3.322   1.717   3.466  0.2577  0.0003  0.1073
 9527SOL    HW140217   3.273   1.652   3.517 -0.2133 -0.0406 -0.3996
 9527SOL    HW240218   3.375   1.665   3.405 -0.8743 -2.9098  1.5816
 9528SOL     OW40219   4.340   2.131  14.101  0.2290 -0.0873 -0.1765
 9528SOL    HW140220   4.320   2.181  14.022 -1.6129  0.1111  0.4227
 9528SOL    HW240221   4.251   2.105  14.127 -0.2237 -0.2756 -1.9113
 9529SOL     OW40222   2.549   1.323  11.647 -0.8180 -0.1158  0.5958
 9529SOL    HW140223   2.575   1.369  11.727  0.5272 -2.8031  1.6848
 9529SOL    HW240224   2.461   1.296  11.674  0.1413 -2.6118  1.2107
 9530SOL     OW40225   4.260   0.837   4.119 -0.4774 -0.6176  0.2791
 9530SOL    HW140226   4.240   0.745   4.102  0.9167 -0.8449 -0.0663
 9530SOL    HW240227   4.206   0.859   4.195  2.1212 -1.0870  2.2594
 9531SOL     OW40228   3.713   2.703  15.521  0.0380  0.5341 -1.0945
 9531SOL    HW140229   3.617   2.709  15.521  0.0769  1.2125 -1.5929
 9531SOL    HW240230   3.725   2.701  15.426  0.1827 -0.0674 -1.0614
 9532SOL     OW40231   1.499   4.731   1.936 -0.4318 -0.2039  0.4217
 9532SOL    HW140232   1.491   0.070   1.984  0.9786  0.0241  0.2879
 9532SOL    HW240233   1.591   4.736   1.910 -0.1870 -0.0778  1.3242
 9533SOL     OW40234   0.782   1.658   5.503 -0.1118  0.2770 -0.2560
 9533SOL    HW140235   0.698   1.626   5.534  0.0276  0.8574  0.7321
 9533SOL    HW240236   0.771   1.752   5.517  0.4552  0.3903 -0.5782
 9534SOL     OW40237   4.490   3.066  13.384  0.4121  0.6018  0.1178
 9534SOL    HW140238   4.461   3.129  13.450 -1.8499 -0.1301 -0.1596
 9534SOL    HW240239   4.552   3.021  13.441 -0.1277 -1.3952 -0.8897
 9535SOL     OW40240   1.663   2.295   7.146  0.3388  0.3371 -0.7114
 9535SOL    HW140241   1.685   2.233   7.076 -1.2246  2.7345 -3.3410
 9535SOL    HW240242   1.583   2.252   7.177 -0.2124  1.0915 -1.0887
 9536SOL     OW40243   0.372   3.218  13.088 -1.2683 -0.2523  0.7167
 9536SOL    HW140244   0.312   3.195  13.017 -1.4668  0.3051  0.7089
 9536SOL    HW240245   0.314   3.212  13.164  1.2277 -0.9868  2.5949
 9537SOL     OW40246   1.910   1.141   5.034 -0.1017 -0.5602 -0.3299
 9537SOL    HW140247   1.886   1.059   5.078 -2.1028 -0.3186 -0.9665
 9537SOL    HW240248   2.005   1.138   5.029 -0.0461  1.8855 -0.4011
 9538SOL     OW40249   2.919   2.055   4.236 -0.1618  0.1942  0.4316
 9538SOL    HW140250   2.984   2.078   4.302 -3.3499  1.4206  3.1128
 9538SOL    HW240251   2.896   1.966   4.266 -0.8478  0.2586  0.0962
 9539SOL     OW40252   0.913   1.834   2.935 -0.2021  0.2867  0.2183
 9539SOL    HW140253   0.832   1.803   2.894 -0.8502  1.5985  0.5131
 9539SOL    HW240254   0.970   1.858   2.861 -0.0506 -1.8172 -0.3423
 9540SOL     OW40255   4.038   1.150  13.348  0.2129 -0.4254 -0.5202
 9540SOL    HW140256   3.996   1.104  13.276  0.5414 -0.0124 -0.9807
 9540SOL    HW240257   4.102   1.203  13.300 -1.4710  1.4369 -0.7295
 9541SOL     OW40258   0.283   1.761  11.857  0.1838 -0.0163  0.2476
 9541SOL    HW140259   0.228   1.779  11.933 -0.2874  1.6930 -0.4891
 9541SOL    HW240260   0.359   1.727  11.903  0.8379  0.7573 -0.2641
 9542SOL     OW40261   2.888   3.035   0.429  0.0430  0.0015  0.0330
 9542SOL    HW140262   2.983   3.047   0.422  0.0842 -0.2919  0.1021
 9542SOL    HW240263   2.887   2.945   0.396 -0.8442 -0.1013  0.3523
 9543SOL     OW40264   2.913   1.072  13.690 -0.3131 -0.5005  0.0352
 9543SOL    HW140265   2.898   1.016  13.766  1.6930  0.4521  1.1290
 9543SOL    HW240266   2.979   1.027  13.637 -2.3049 -1.7676 -1.3443
 9544SOL     OW40267   1.393   1.561   9.354 -0.4471  0.0972  0.5260
 9544SOL    HW140268   1.445   1.496   9.401 -2.0903 -0.0148  2.2345
 9544SOL    HW240269   1.459   1.628   9.336  0.3153 -0.5950  0.7591
 9545SOL     OW40270   3.826   1.344   9.030 -0.3819 -0.4955 -0.0186
 9545SOL    HW140271   3.816   1.430   8.989 -3.3882 -0.7714  0.1426
 9545SOL    HW240272   3.814   1.294   8.949  1.7642 -1.5816  0.3233
 9546SOL     OW40273   1.093   1.091   2.662 -0.3449 -0.0848 -0.0916
 9546SOL    HW140274   1.092   0.996   2.649 -1.1792 -0.5678  3.4831
 9546SOL    HW240275   1.002   1.114   2.642 -0.4750  0.6013  1.2588
 9547SOL     OW40276   3.218   4.289   5.549 -0.0936  0.3618 -0.1445
 9547SOL    HW140277   3.304   4.326   5.571 -1.0004  2.0243  0.5898
 9547SOL    HW240278   3.239   4.263   5.459 -2.3023 -1.2216 -0.1955
 9548SOL     OW40279   2.346   0.588  13.722  0.3417  0.0057  0.1640
 9548SOL    HW140280   2.385   0.659  13.772  3.6999 -0.7492 -1.3469
 9548SOL    HW240281   2.387   0.616  13.640  0.3035 -1.4158 -0.3376
 9549SOL     OW40282   2.034   0.668   1.609  0.0965  0.3386  0.1267
 9549SOL    HW140283   2.113   0.639   1.654  0.2732 -0.8958 -0.9981
 9549SOL    HW240284   2.062   0.662   1.518 -0.2749 -2.1545  0.1648
 9550SOL     OW40285   3.409   1.213   8.417 -0.7843 -0.8457  0.7730
 9550SOL    HW140286   3.373   1.230   8.331  2.3911 -0.1428 -0.4190
 9550SOL    HW240287   3.453   1.293   8.446 -2.3778  0.0855  0.5731
 9551SOL     OW40288   3.272   1.158   6.808  0.4676 -0.7346 -0.1257
 9551SOL    HW140289   3.214   1.112   6.747 -0.5337 -1.0859  1.0956
 9551SOL    HW240290   3.251   1.247   6.781 -2.3639 -1.7177 -1.1809
 9552SOL     OW40291   3.533   1.331   5.209 -0.4321 -0.7844  0.0699
 9552SOL    HW140292   3.628   1.328   5.198 -0.3988 -2.4958  0.8409
 9552SOL    HW240293   3.518   1.237   5.204 -0.5786 -0.7119 -0.7910
 9553SOL     OW40294   0.498   3.317   7.415  0.1219  0.5891  0.1558
 9553SOL    HW140295   0.498   3.411   7.434 -2.5352  0.5836  0.1289
 9553SOL    HW240296   0.424   3.312   7.354  0.5507  0.8331 -0.3909
 9554SOL     OW40297   3.097   1.985   5.500 -0.3916  0.2718  0.2420
 9554SOL    HW140298   3.183   1.999   5.537 -0.8280  0.3845  1.2054
 9554SOL    HW240299   3.116   1.916   5.437  2.4356  0.6803  0.6728
 9555SOL     OW40300   2.753   4.304   5.511  0.6035 -0.1578  0.1208
 9555SOL    HW140301   2.819   4.368   5.538 -0.0320  0.6961 -0.3517
 9555SOL    HW240302   2.805   4.233   5.474 -0.6934 -0.9117 -0.2539
 9556SOL     OW40303   4.482   4.455  17.706  0.4700 -0.2172  0.6066
 9556SOL    HW140304   4.432   4.535  17.691  0.6404 -0.1981  0.1487
 9556SOL    HW240305   4.470   4.402  17.627 -0.5931  1.2712 -0.2411
 9557SOL     OW40306   1.132   3.707  12.237  0.0785 -0.4881  0.9130
 9557SOL    HW140307   1.073   3.643  12.198 -0.8884  0.2482  1.1599
 9557SOL    HW240308   1.215   3.659  12.239  0.8793  0.8110 -1.4646
 9558SOL     OW40309   4.676   0.908   3.058 -0.1701 -0.1188 -0.1002
 9558SOL    HW140310   4.702   0.996   3.032 -0.4744 -0.2966 -1.0003
 9558SOL    HW240311   4.723   0.891   3.140 -0.5229 -1.9358 -0.2818
 9559SOL     OW40312   3.357   0.308   3.063 -0.1953 -0.4540  0.3717
 9559SOL    HW140313   3.444   0.267   3.060  0.2593  0.6326 -1.2696
 9559SOL    HW240314   3.369   0.372   3.132 -0.7826  0.7046 -0.6017
 9560SOL     OW40315   3.368   2.462  11.089  0.4267  0.0303  0.4728
 9560SOL    HW140316   3.427   2.490  11.159 -0.0331  2.3650 -0.0834
 9560SOL    HW240317   3.350   2.551  11.058 -1.6895  0.2194  2.2802
 9561SOL     OW40318   1.709   2.878   5.876  0.1982 -0.3852  0.1769
 9561SOL    HW140319   1.716   2.783   5.879  2.8652 -0.2250 -1.1168
 9561SOL    HW240320   1.734   2.913   5.791 -1.0531  0.1147  0.0173
 9562SOL     OW40321   0.016   3.344   8.747 -1.1953  0.1205 -0.2455
 9562SOL    HW140322   4.675   3.304   8.767 -0.6073  0.0455  2.1373
 9562SOL    HW240323   0.069   3.266   8.729  0.1811  0.8065  0.7608
 9563SOL     OW40324   1.559   0.033  10.372 -0.0222  0.1750 -0.2611
 9563SOL    HW140325   1.604   0.115  10.355 -1.7720  0.8752 -1.5987
 9563SOL    HW240326   1.596   4.709  10.315  0.0863  0.1123 -0.1170
 9564SOL     OW40327   0.199   2.342   8.938  0.2711 -0.2908  0.0413
 9564SOL    HW140328   0.150   2.406   8.887 -0.4968  0.1321  1.2871
 9564SOL    HW240329   0.230   2.385   9.018 -1.1843  1.9976 -0.6235
 9565SOL     OW40330   1.173   2.454   3.119  0.2395  0.4902 -0.1815
 9565SOL    HW140331   1.127   2.376   3.087  0.4748 -0.6663  2.2999
 9565SOL    HW240332   1.095   2.509   3.130  0.7272  1.1780 -0.1345
 9566SOL     OW40333   4.031   4.697   5.893 -0.4023 -0.3138  0.7310
 9566SOL    HW140334   4.056   0.032   5.942  2.5819  0.2289 -1.7308
 9566SOL    HW240335   4.019   4.627   5.957  1.8581 -0.7697  0.6623
 9567SOL     OW40336   3.646   2.402   3.663 -0.5765  0.6626  0.0242
 9567SOL    HW140337   3.617   2.349   3.737  1.4271 -1.4932 -0.7335
 9567SOL    HW240338   3.560   2.407   3.621  0.4606 -0.4716 -2.2253
 9568SOL     OW40339   0.569   2.340   8.169 -0.6387  0.0764  0.0765
 9568SOL    HW140340   0.600   2.403   8.104  0.9355 -0.9813 -0.1941
 9568SOL    HW240341   0.571   2.257   8.122 -1.8250 -0.1051  0.3375
 9569SOL     OW40342   4.330   4.445  15.694  0.5651  0.2580  0.6066
 9569SOL    HW140343   4.396   4.446  15.764 -0.5271  1.2125  1.6128
 9569SOL    HW240344   4.252   4.426  15.746 -0.9797  0.8460 -1.4928
   4.74315   4.74315  17.76940
