Membrane in water
40344
    1TMC1    C1    1   1.829   1.158  11.341  0.2404  0.7183  0.3604
    1TMC1    C2    2   1.935   1.184  11.257 -0.4971  0.5943 -0.0852
    1TMC1    C3    3   1.970   1.311  11.243 -0.4720 -0.2129 -0.7616
    1TMC1    C4    4   1.747   1.251  11.395 -0.0803 -0.2438 -0.0554
    1TMC1    C5    5   1.793   1.381  11.378  0.5903 -0.6026 -0.2719
    1TMC1    C6    6   1.894   1.412  11.299  0.7163 -0.1623 -0.1805
    1TMC1     C    7   1.804   1.015  11.375  0.4492 -0.0055  0.1909
    1TMC1     O    8   1.690   0.986  11.408 -0.0366  0.1661 -0.5224
    1TMC1     H    9   1.977   1.107  11.193 -2.0208 -0.1171 -0.2204
    1TMC1    H1   10   1.672   1.226  11.469  1.5001  1.4008  2.0927
    1TMC1    H2   11   1.929   1.513  11.284 -0.2170  0.2114  0.1554
    1TMC1    C7   12   1.741   1.478  11.475  0.2386  0.0029  0.7108
    1TMC1    C8   13   2.078   1.343  11.147 -1.1820 -0.1691 -0.0992
    1TMC1    O1   14   1.666   1.451  11.562  0.1235  0.2570 -0.4282
    1TMC1    O2   15   2.085   1.453  11.091 -0.7728 -0.3530 -0.3572
    1TMC1    O3   16   1.798   1.596  11.466 -0.0418 -0.4530  0.0993
    1TMC1    H3   17   1.834   1.615  11.376  1.1558  2.7310  1.2763
    1TMC1    O5   18   2.186   1.271  11.188 -0.5660 -0.4048 -0.1195
    1TMC1    H5   19   2.167   1.194  11.245 -0.2379 -0.1945  0.2758
    2MPD2     C   20   1.959   0.518  11.392  0.2006 -0.1271 -0.0214
    2MPD2    C1   21   1.842   0.583  11.435  0.1571  0.4212 -0.4163
    2MPD2    C2   22   1.827   0.724  11.427  0.1475 -0.3293 -0.3823
    2MPD2    C3   23   1.930   0.795  11.376  0.2071  0.7591  0.6249
    2MPD2    C4   24   2.043   0.731  11.330  0.2783 -0.9477 -0.4727
    2MPD2    C5   25   2.057   0.598  11.342  0.2564 -0.3302 -0.3478
    2MPD2     H   26   1.733   0.769  11.458  0.5516  0.7572 -0.7568
    2MPD2    H1   27   2.128   0.794  11.306 -0.9588  0.3349 -1.4272
    2MPD2    H2   28   1.976   0.411  11.391 -2.6338 -0.5810 -0.3119
    2MPD2    H3   29   2.145   0.544  11.310  1.6257  1.1555  0.9023
    2MPD2     N   30   1.916   0.933  11.363  0.3811  0.1248 -0.2836
    2MPD2    H5   31   2.003   0.973  11.328 -0.4252  3.5155  1.6198
    2MPD2    N1   32   1.729   0.519  11.489  0.3608 -0.0322 -0.2326
    2MPD2    H7   33   1.649   0.578  11.510  0.3100 -0.1630 -0.0567
    3TMC1    C1   34   4.517   1.658   9.792 -0.3813  0.0555  0.3212
    3TMC1    C2   35   4.593   1.760   9.732  0.1577 -0.2276  0.3843
    3TMC1    C3   36   4.559   1.804   9.607 -0.0430  0.5651  0.1461
    3TMC1    C4   37   4.414   1.599   9.713  0.6327  0.6117  1.0561
    3TMC1    C5   38   4.374   1.667   9.600  0.4345  0.2549 -0.3714
    3TMC1    C6   39   4.441   1.770   9.544 -0.0118  0.4123 -0.1154
    3TMC1     C   40   4.596   1.581   9.887  0.5986  0.6176  0.4765
    3TMC1     O   41   4.573   1.465   9.887  0.1679 -0.2963  0.1918
    3TMC1     H   42   4.682   1.801   9.778 -1.0175  0.8437  1.7092
    3TMC1    H1   43   4.348   1.527   9.760  0.8401 -0.9663 -1.0579
    3TMC1    H2   44   4.411   1.810   9.448  0.6038 -0.5829 -0.7224
    3TMC1    C7   45   4.267   1.624   9.517 -0.1010  0.4525  0.1625
    3TMC1    C8   46   4.612   1.933   9.582 -1.0203 -0.3647  0.2058
    3TMC1    O1   47   4.247   1.655   9.401  0.1112 -0.3844 -0.3542
    3TMC1    O2   48   4.725   1.976   9.610 -0.5864  0.6776  0.7067
    3TMC1    O3   49   4.158   1.587   9.593  0.2779 -0.5195  0.3302
    3TMC1    H3   50   4.190   1.564   9.683 -1.6134 -1.3318  0.8126
    3TMC1    O5   51   4.500   2.005   9.579  0.1761  0.1105  0.0739
    3TMC1    H5   52   4.417   1.956   9.599  0.4469 -0.2252  0.3653
    4MPD2     C   53   0.180   1.531  10.277 -0.4260  0.5913  0.0524
    4MPD2    C1   54   0.136   1.662  10.273  0.1814 -0.0075  0.2989
    4MPD2    C2   55   0.052   1.704  10.173  1.1550 -0.0538 -0.0241
    4MPD2    C3   56   0.009   1.610  10.076  0.3876  0.7868  0.0113
    4MPD2    C4   57   0.048   1.475  10.087  0.3504 -0.0664  0.1063
    4MPD2    C5   58   0.136   1.440  10.190  0.1846 -0.2151  0.2765
    4MPD2     H   59   0.033   1.808  10.152  1.9256 -0.1037 -0.9913
    4MPD2    H1   60   0.004   1.395  10.028  1.4197 -0.3755 -0.2770
    4MPD2    H2   61   0.250   1.503  10.355  0.0555 -1.7085 -1.2295
    4MPD2    H3   62   0.169   1.337  10.198  2.0173  0.1917 -1.9772
    4MPD2     N   63   4.659   1.662   9.973  0.0478 -0.4463  0.2527
    4MPD2    H5   64   4.632   1.759   9.976  0.2532 -0.3584 -0.7127
    4MPD2    N1   65   0.188   1.762  10.355 -0.3888  0.0799  0.9870
    4MPD2    H7   66   0.158   1.859  10.342  0.4774 -0.2407 -3.5369
    5TCq1    O1   67   2.437   2.829  11.760 -0.1561  0.1464  0.4930
    5TCq1    C1   68   2.374   2.836  11.882 -0.2908 -0.0018  0.2949
    5TCq1    O2   69   2.429   2.855  11.990  0.6483  0.3063  0.3011
    5TCq1    C2   70   2.227   2.836  11.871  0.6238  0.1804  0.3698
    5TCq1    C3   71   2.155   2.812  11.983  0.7209 -0.2403  0.0632
    5TCq1    C4   72   2.018   2.832  11.971  0.4352  1.1982 -1.0047
    5TCq1    C5   73   1.958   2.887  11.860 -0.0012  0.5188 -0.5893
    5TCq1    C6   74   2.043   2.917  11.749  0.0077  0.5940  0.0262
    5TCq1    C7   75   2.176   2.893  11.760  0.8167  0.0766 -0.2352
    5TCq1    C8   76   1.975   2.949  11.624  0.6112  0.2574  0.2515
    5TCq1    O4   77   2.026   2.909  11.523  0.2211 -0.1698 -0.6243
    5TCq1    C9   78   1.934   2.797  12.088  0.7313  0.2671 -0.4623
    5TCq1    O5   79   1.994   2.749  12.188 -0.2093  0.8490  0.1634
    5TCq1    O6   80   1.814   2.794  12.063 -0.1876 -0.3574 -0.0684
    5TCq1    H1   81   2.379   2.806  11.684 -1.7275  1.8604  1.1815
    5TCq1    H2   82   2.204   2.763  12.066  1.1833  0.3440  0.1346
    5TCq1    H3   83   1.850   2.901  11.860 -0.3854 -2.3262 -2.0164
    5TCq1    H4   84   2.249   2.929  11.688  1.2559  0.1200  0.2323
    6MPD2     C   85   1.685   3.178  11.608 -0.0280 -0.0571  0.3638
    6MPD2    C1   86   1.768   3.076  11.559 -0.1527 -0.8529  0.0451
    6MPD2    C2   87   1.759   3.038  11.430 -1.3141 -0.1867 -0.1466
    6MPD2    C3   88   1.670   3.095  11.344  0.3858  0.2628 -0.0526
    6MPD2    C4   89   1.586   3.187  11.392  0.2458 -0.5215 -0.3368
    6MPD2    C5   90   1.601   3.233  11.518  0.0905  0.8632  0.8959
    6MPD2     H   91   1.815   2.951  11.398 -0.8743 -0.1480  0.5129
    6MPD2    H1   92   1.514   3.244  11.335  0.5828  0.0544 -0.1876
    6MPD2    H2   93   1.694   3.210  11.712 -0.8694  1.2158  0.0321
    6MPD2    H3   94   1.532   3.306  11.559 -1.1416 -1.5595  3.1092
    6MPD2     N   95   1.662   3.049  11.209  0.0272 -0.1414 -0.6540
    6MPD2    H5   96   1.712   2.963  11.189 -0.9102 -0.6329 -0.8908
    6MPD2    N1   97   1.873   3.034  11.647  0.0947 -0.0072  0.3525
    6MPD2    H7   98   1.868   3.078  11.738  0.8190  0.9054 -0.0502
    7TCq1    O1   99   2.758   2.609  12.165 -0.6031 -0.4154 -0.2519
    7TCq1    C1  100   2.891   2.616  12.193 -0.1808 -0.2430  0.0854
    7TCq1    O2  101   2.969   2.527  12.226 -0.0044 -0.2316  0.6615
    7TCq1    C2  102   2.932   2.752  12.218 -0.8055  1.0461  1.0829
    7TCq1    C3  103   2.918   2.840  12.113 -0.1340 -0.0521  0.0145
    7TCq1    C4  104   3.006   2.946  12.112  0.4705  0.6011 -0.7426
    7TCq1    C5  105   3.100   2.964  12.205  0.8812 -0.0404  0.3231
    7TCq1    C6  106   3.118   2.869  12.299 -0.6882 -0.5721 -1.3788
    7TCq1    C7  107   3.026   2.767  12.319  0.0415  0.1522 -0.3718
    7TCq1    C8  108   3.194   2.894  12.418 -0.0986  0.0204 -0.0641
    7TCq1    O4  109   3.225   2.799  12.492  0.7455 -0.7918 -0.0209
    7TCq1    C9  110   2.983   3.038  12.011 -0.1527  0.0548  0.1392
    7TCq1    O5  111   2.885   3.019  11.936  0.3733 -0.4030 -0.3950
    7TCq1    O6  112   3.062   3.139  12.005  0.2080  0.7776 -0.7890
    7TCq1    H1  113   2.716   2.697  12.159 -0.2198 -0.2194 -0.0736
    7TCq1    H2  114   2.860   2.816  12.025  0.3835 -0.0036 -0.3402
    7TCq1    H3  115   3.151   3.059  12.213 -0.3423  0.7428 -1.2614
    7TCq1    H4  116   3.027   2.699  12.403 -0.1541  0.5778 -0.0253
    8MPD2     C  117   3.478   3.205  12.703  0.5518 -0.1632 -0.4223
    8MPD2    C1  118   3.506   3.070  12.663  0.1129 -0.4747  0.9917
    8MPD2    C2  119   3.409   3.011  12.579  1.1527 -0.2168  0.0813
    8MPD2    C3  120   3.297   3.084  12.538 -0.2203 -0.7760  0.0666
    8MPD2    C4  121   3.286   3.219  12.564  0.0788 -0.5789 -0.4002
    8MPD2    C5  122   3.371   3.274  12.652  0.7029  0.0832 -0.0969
    8MPD2     H  123   3.407   2.903  12.565 -0.6003 -0.3077  0.9850
    8MPD2    H1  124   3.209   3.278  12.516  1.1075  0.3056 -0.9708
    8MPD2    H2  125   3.544   3.267  12.763  1.1847 -1.2482  0.0004
    8MPD2    H3  126   3.353   3.379  12.674 -1.4412 -0.1933 -0.5839
    8MPD2     N  127   3.194   3.026  12.462 -0.1994  0.2238  0.5443
    8MPD2    H5  128   3.118   3.082  12.424 -0.5056  0.7600  1.9620
    8MPD2    N1  129   3.626   3.009  12.702 -0.5726  0.0373 -0.2430
    8MPD2    H7  130   3.686   3.072  12.755 -4.5242  1.4840  2.5512
    9TMC1    C1  131   0.903   1.862  10.989 -0.0003  0.5122  0.0021
    9TMC1    C2  132   1.013   1.900  10.929  0.4071 -0.5347  0.6606
    9TMC1    C3  133   1.047   2.031  10.964 -0.7327 -0.3283 -0.1353
    9TMC1    C4  134   0.832   1.927  11.087 -0.3020 -0.7826  0.0021
    9TMC1    C5  135   0.866   2.061  11.109  0.3480  0.1597  0.0011
    9TMC1    C6  136   0.976   2.112  11.045  0.0614  0.6891 -0.0239
    9TMC1     C  137   0.873   1.724  10.972  1.0421  0.5292  0.0602
    9TMC1     O  138   0.892   1.671  10.865 -0.5230 -0.4546  0.1176
    9TMC1     H  139   1.060   1.837  10.854 -1.0783 -0.8274 -0.0292
    9TMC1    H1  140   0.749   1.880  11.140  1.7478 -1.7660  2.3169
    9TMC1    H2  141   1.010   2.214  11.060  0.6908  0.8352 -2.4302
    9TMC1    C7  142   0.798   2.136  11.206 -0.3324 -0.7544 -0.1242
    9TMC1    C8  143   1.139   2.105  10.877  0.9146  0.5878  0.9388
    9TMC1    O1  144   0.737   2.086  11.302 -0.2133 -0.5753  0.2252
    9TMC1    O2  145   1.113   2.220  10.852  0.3263 -0.4285 -0.1058
    9TMC1    O3  146   0.775   2.254  11.149 -0.1785 -0.1032  0.2122
    9TMC1    H3  147   0.816   2.251  11.060  2.1581 -0.8979  1.3321
    9TMC1    O5  148   1.194   2.019  10.794 -0.0934 -0.3652 -0.1079
    9TMC1    H5  149   1.240   1.944  10.837  0.2970 -0.0077  0.1023
   10MPD2     C  150   0.779   1.455  11.025 -0.0142  0.3176  0.1745
   10MPD2    C1  151   0.808   1.537  11.127 -0.3944 -0.1517  0.5880
   10MPD2    C2  152   0.809   1.491  11.254  0.5218  0.2225  0.8905
   10MPD2    C3  153   0.780   1.358  11.280 -0.3969 -0.2285  0.7056
   10MPD2    C4  154   0.759   1.269  11.175  0.6491 -0.0644  0.9090
   10MPD2    C5  155   0.759   1.322  11.054 -0.4559 -0.0312 -0.7411
   10MPD2     H  156   0.829   1.564  11.331 -0.7022 -0.1346  1.5476
   10MPD2    H1  157   0.747   1.163  11.192  0.6764 -0.4091 -1.1704
   10MPD2    H2  158   0.773   1.474  10.919 -0.9985 -1.7350 -0.1446
   10MPD2    H3  159   0.740   1.252  10.973 -0.7390 -0.4342 -0.3269
   10MPD2     N  160   0.785   1.299  11.411 -0.1746 -0.2810  0.2361
   10MPD2    H5  161   0.770   1.199  11.415 -1.7525  0.0059  1.3481
   10MPD2    N1  162   0.842   1.673  11.096 -0.2514 -0.4321  0.3503
   10MPD2    H7  163   0.858   1.727  11.181  0.1661  0.2479 -0.1702
   11TCq1    O1  164   1.524   1.687  13.195 -1.0702 -0.3895  0.5899
   11TCq1    C1  165   1.429   1.590  13.177 -1.1305  0.4665 -0.1267
   11TCq1    O2  166   1.344   1.592  13.092  0.4340 -0.2701  0.6136
   11TCq1    C2  167   1.453   1.469  13.255  0.0365  0.4620  0.0067
   11TCq1    C3  168   1.559   1.462  13.338 -0.0090  0.4482  0.4217
   11TCq1    C4  169   1.576   1.351  13.418 -0.2984 -0.1700 -0.8525
   11TCq1    C5  170   1.483   1.258  13.424  0.0823  0.3046 -0.0679
   11TCq1    C6  171   1.375   1.281  13.342 -0.0428  0.4125  0.5433
   11TCq1    C7  172   1.352   1.387  13.260 -0.0057 -0.0897  0.4758
   11TCq1    C8  173   1.274   1.178  13.343  0.0590 -0.6584  0.4815
   11TCq1    O4  174   1.159   1.205  13.313  0.5161  0.0743 -0.2207
   11TCq1    C9  175   1.681   1.343  13.511 -0.1342  0.4285  0.0527
   11TCq1    O5  176   1.774   1.425  13.496 -0.0263  0.3153 -0.0865
   11TCq1    O6  177   1.676   1.250  13.591  0.5404  0.6376 -0.2475
   11TCq1    H1  178   1.589   1.666  13.265  0.7804 -1.6506 -1.5461
   11TCq1    H2  179   1.636   1.537  13.334  0.1408  0.3246  1.1154
   11TCq1    H3  180   1.487   1.170  13.487 -0.8694  0.5519  0.3282
   11TCq1    H4  181   1.259   1.398  13.205  0.9128 -3.2178 -1.6794
   12MPD2     C  182   1.131   0.901  13.341  0.7708 -0.2396 -0.3415
   12MPD2    C1  183   1.265   0.926  13.335 -0.1049 -0.0702 -0.5693
   12MPD2    C2  184   1.351   0.816  13.343 -0.2150 -0.4709 -0.5621
   12MPD2    C3  185   1.313   0.682  13.338  0.6823  0.0773  0.2220
   12MPD2    C4  186   1.180   0.665  13.329  0.7476 -0.1880  0.0803
   12MPD2    C5  187   1.096   0.771  13.341 -0.0798 -0.0743 -0.3073
   12MPD2     H  188   1.452   0.834  13.376 -1.0794 -0.3261  1.9941
   12MPD2    H1  189   1.138   0.566  13.344 -1.6053  0.7709 -0.2622
   12MPD2    H2  190   1.063   0.983  13.363 -0.3445 -1.3595  0.3557
   12MPD2    H3  191   0.990   0.751  13.345  0.1368 -0.8104  1.5203
   12MPD2     N  192   1.404   0.578  13.349 -0.7590 -0.2415  0.6086
   12MPD2    H5  193   1.360   0.488  13.366  2.3517 -1.5190  1.9394
   12MPD2    N1  194   1.327   1.051  13.346  0.1944 -0.1145  0.1543
   12MPD2    H7  195   1.427   1.056  13.329  0.0306  1.1277 -0.4723
   13TCq1    O1  196   0.965   2.068  10.176 -0.1118 -0.4433  0.1162
   13TCq1    C1  197   1.001   2.027  10.052 -0.0300 -0.6225  0.4258
   13TCq1    O2  198   1.113   2.001  10.012 -0.1089  0.6531 -0.1588
   13TCq1    C2  199   0.888   1.955  10.002  0.1574  0.3741 -0.2185
   13TCq1    C3  200   0.901   1.913   9.872  0.3099 -0.2532  0.5074
   13TCq1    C4  201   0.804   1.825   9.837  0.6982 -0.4394  0.1765
   13TCq1    C5  202   0.720   1.756   9.923  0.1788 -0.5985  0.5003
   13TCq1    C6  203   0.711   1.797  10.053 -0.2946 -0.2775  0.0203
   13TCq1    C7  204   0.798   1.895  10.090  0.8065 -0.2188 -0.0344
   13TCq1    C8  205   0.650   1.706  10.160 -0.1932 -0.0399  0.5355
   13TCq1    O4  206   0.644   1.756  10.273  0.3169  1.0537 -0.1116
   13TCq1    C9  207   0.813   1.774   9.703 -0.1423 -0.2384  0.6807
   13TCq1    O5  208   0.920   1.799   9.641  0.0852 -0.3083  0.2509
   13TCq1    O6  209   0.717   1.710   9.653  0.1229 -0.3701  0.8285
   13TCq1    H1  210   0.867   2.067  10.179 -0.1245  2.1269  0.7800
   13TCq1    H2  211   0.984   1.947   9.811 -0.8110 -0.6204 -1.2330
   13TCq1    H3  212   0.665   1.670   9.886 -0.2203 -0.0800 -0.1099
   13TCq1    H4  213   0.804   1.918  10.196 -1.4790  1.4805 -0.2808
   14MPD2     C  214   0.516   1.370  10.132 -0.5152 -0.8691  0.2423
   14MPD2    C1  215   0.565   1.475  10.201  0.0096 -0.3880  0.3020
   14MPD2    C2  216   0.567   1.475  10.338 -0.0488 -0.4483 -0.0493
   14MPD2    C3  217   0.507   1.375  10.405  0.1036  0.0218  0.5160
   14MPD2    C4  218   0.462   1.261  10.338  0.2196 -0.2050 -0.0478
   14MPD2    C5  219   0.472   1.264  10.199  0.5636  0.5042  0.0209
   14MPD2     H  220   0.599   1.556  10.402 -0.2789 -1.3417  1.1862
   14MPD2    H1  221   0.423   1.171  10.385  3.1018 -1.4575 -0.0987
   14MPD2    H2  222   0.513   1.375  10.024 -1.0640  0.4596  0.3117
   14MPD2    H3  223   0.456   1.174  10.140  0.1610  0.7718 -0.2740
   14MPD2     N  224   0.498   1.389  10.543  0.1280 -0.0475 -0.0450
   14MPD2    H5  225   0.528   1.477  10.583 -1.1854  0.6011 -0.4761
   14MPD2    N1  226   0.614   1.579  10.119 -0.0090 -0.5534 -0.2961
   14MPD2    H7  227   0.606   1.562  10.019  1.7754 -2.9347 -0.0291
   15TCq1    O1  228   4.000   0.966   1.204  0.3037  0.2550  0.3826
   15TCq1    C1  229   4.068   1.049   1.117  0.2962 -0.6639 -0.3521
   15TCq1    O2  230   4.188   1.062   1.105  0.0335 -0.4510  0.0366
   15TCq1    C2  231   3.981   1.094   1.010 -0.3182  0.1635 -0.2303
   15TCq1    C3  232   4.006   1.219   0.961  0.0477  0.4580  0.8990
   15TCq1    C4  233   3.931   1.262   0.858 -0.1433  0.3016  0.2282
   15TCq1    C5  234   3.848   1.172   0.800 -0.5382  0.0227  0.6490
   15TCq1    C6  235   3.828   1.052   0.854 -0.5469  0.2561  0.3241
   15TCq1    C7  236   3.888   1.010   0.968 -0.3975  0.3681  0.6515
   15TCq1    C8  237   3.742   0.955   0.787  0.2978 -0.4427  1.0893
   15TCq1    O4  238   3.758   0.839   0.823 -0.2899 -0.2275  0.0678
   15TCq1    C9  239   3.941   1.410   0.831  0.3672  0.9224 -0.1571
   15TCq1    O5  240   3.965   1.489   0.926 -0.1132  0.5360 -0.3970
   15TCq1    O6  241   3.882   1.445   0.722 -0.4806  0.5039 -0.1829
   15TCq1    H1  242   3.905   0.983   1.187  0.3004 -1.0140 -0.9385
   15TCq1    H2  243   4.058   1.291   1.024  3.4899 -0.3900 -0.9892
   15TCq1    H3  244   3.802   1.200   0.707  0.5348 -2.8013 -0.7286
   15TCq1    H4  245   3.877   0.910   1.008  0.1038  1.3392  3.2475
   16MPD2     C  246   3.443   0.979   0.548 -0.1079  0.0637 -0.3434
   16MPD2    C1  247   3.555   0.925   0.613  0.1597  0.1890 -0.3649
   16MPD2    C2  248   3.589   0.798   0.587  0.7041 -0.4186  0.1546
   16MPD2    C3  249   3.509   0.719   0.503 -0.8272 -0.0531 -0.0976
   16MPD2    C4  250   3.405   0.774   0.445  0.0715 -0.0602 -0.0958
   16MPD2    C5  251   3.366   0.904   0.470 -0.0768  0.0831 -0.5619
   16MPD2     H  252   3.674   0.749   0.633  0.1050 -0.5680  1.0851
   16MPD2    H1  253   3.341   0.730   0.369  0.8473 -2.9771  0.9587
   16MPD2    H2  254   3.416   1.082   0.569  4.0118  1.2728 -0.8375
   16MPD2    H3  255   3.283   0.941   0.411 -0.1874  0.3849 -0.2126
   16MPD2     N  256   3.545   0.589   0.492  0.1500 -0.3083 -0.3361
   16MPD2    H5  257   3.629   0.558   0.540 -0.5379  0.5035  1.3937
   16MPD2    N1  258   3.637   1.004   0.705 -0.1751 -0.2130 -0.4322
   16MPD2    H7  259   3.606   1.098   0.725  0.1821 -0.2040  0.0854
   17TMC1    C1  260   1.184   1.072  10.889 -0.0123  0.1688  0.2112
   17TMC1    C2  261   1.104   1.103  10.782  0.0239 -0.2369 -0.0753
   17TMC1    C3  262   1.053   1.231  10.776  0.5056 -0.0382  0.5921
   17TMC1    C4  263   1.189   1.146  11.001 -0.1291 -0.2478 -0.3031
   17TMC1    C5  264   1.121   1.265  10.998 -0.5005 -0.1274 -0.4967
   17TMC1    C6  265   1.054   1.308  10.890 -0.0538 -0.6082  0.1841
   17TMC1     C  266   1.243   0.936  10.905 -0.1022 -0.3419  0.5323
   17TMC1     O  267   1.276   0.900  11.018 -0.3394 -0.3674 -0.5201
   17TMC1     H  268   1.096   1.045  10.691 -0.4703  1.4175 -1.0913
   17TMC1    H1  269   1.242   1.123  11.093  2.6271  1.0548 -1.5573
   17TMC1    H2  270   0.997   1.400  10.899 -1.0236 -1.0252 -1.8387
   17TMC1    C7  271   1.138   1.348  11.114 -0.8546 -0.1224 -0.2986
   17TMC1    C8  272   0.944   1.269  10.686  0.4578 -0.4592  0.0499
   17TMC1    O1  273   1.150   1.306  11.227  0.4920  0.5641 -0.0603
   17TMC1    O2  274   0.943   1.386  10.644 -0.6760 -0.0932 -0.2044
   17TMC1    O3  275   1.151   1.476  11.079  0.0992  0.4956  0.4536
   17TMC1    H3  276   1.154   1.480  10.981  0.3650  1.3425  0.4948
   17TMC1    O5  277   0.835   1.213  10.739 -0.2672  0.0792 -0.2308
   17TMC1    H5  278   0.858   1.141  10.802  2.3291  0.5228 -0.6751
   18MPD2     C  279   1.408   0.708  10.850 -0.2221  0.1031  0.3733
   18MPD2    C1  280   1.356   0.781  10.749  0.5549 -0.2268 -0.5721
   18MPD2    C2  281   1.378   0.752  10.616 -0.2461  0.1736 -0.4480
   18MPD2    C3  282   1.460   0.645  10.575 -0.7601  0.3538 -0.0043
   18MPD2    C4  283   1.525   0.576  10.680  0.0232  0.2340  0.6612
   18MPD2    C5  284   1.493   0.612  10.809 -0.1189 -0.4489  0.0831
   18MPD2     H  285   1.332   0.812  10.539 -0.7181 -0.2727 -0.5123
   18MPD2    H1  286   1.602   0.500  10.672  1.3537  1.9138 -2.6997
   18MPD2    H2  287   1.394   0.720  10.957 -3.5625  0.2882 -0.0703
   18MPD2    H3  288   1.547   0.557  10.885  0.6588  0.3218  0.0821
   18MPD2     N  289   1.478   0.604  10.441 -0.7344 -0.1427 -0.2947
   18MPD2    H5  290   1.543   0.526  10.432  1.0639  1.4729 -1.3757
   18MPD2    N1  291   1.284   0.893  10.780  0.2389 -0.4022 -0.6416
   18MPD2    H7  292   1.263   0.959  10.706 -0.1402 -0.1004 -0.2627
   19TMC2    C1  293   2.320   1.640  13.732 -0.6316  0.3101 -0.3698
   19TMC2    C2  294   2.187   1.666  13.744 -0.2987  0.0042  0.1810
   19TMC2    C3  295   2.098   1.587  13.681  0.0778 -0.8491 -1.0032
   19TMC2    C4  296   2.362   1.529  13.658  0.2069 -0.1407 -0.3106
   19TMC2    C5  297   2.269   1.451  13.593  0.3168 -0.8368  0.9625
   19TMC2    C6  298   2.139   1.477  13.598  0.9255  0.5243 -0.4288
   19TMC2     C  299   2.418   1.741  13.774 -0.1873  0.6152  0.0845
   19TMC2     O  300   2.371   1.852  13.773 -0.1576 -0.3459 -0.4303
   19TMC2     H  301   2.143   1.741  13.808 -0.8457  0.9893 -1.3594
   19TMC2    H1  302   2.467   1.505  13.648  0.0519 -0.5251 -0.9994
   19TMC2    H2  303   2.058   1.414  13.562 -1.6232  2.0263  2.6331
   19TMC2    C7  304   2.322   1.335  13.519  0.4235  0.0573 -0.2366
   19TMC2    C8  305   1.962   1.629  13.671  0.1815  0.2512  0.6521
   19TMC2    O1  306   2.441   1.309  13.532  0.8642 -0.4950  0.0722
   19TMC2    O2  307   1.944   1.746  13.700 -0.3173 -0.4495 -0.3128
   19TMC2    O5  308   1.887   1.525  13.702  0.5283  0.7582 -0.0792
   19TMC2    H5  309   1.856   1.473  13.625  1.7049 -0.7322  0.4463
   20MPD2     C  310   2.629   1.893  13.910  0.7676  0.7696 -0.3945
   20MPD2    C1  311   2.644   1.761  13.869 -0.0574  0.1929  0.0931
   20MPD2    C2  312   2.762   1.685  13.908  0.2853  0.0810  0.4311
   20MPD2    C3  313   2.854   1.753  13.986 -0.5875  0.0608  0.3225
   20MPD2    C4  314   2.842   1.889  14.019  0.0938 -0.2180 -0.3180
   20MPD2    C5  315   2.732   1.957  13.971  0.7918  0.4993  0.0244
   20MPD2     H  316   2.766   1.578  13.897  3.2075  0.2021  0.3114
   20MPD2    H1  317   2.907   1.938  14.090  0.2621 -0.0788 -0.5696
   20MPD2    H2  318   2.541   1.953  13.889  1.2107  0.8358 -2.0537
   20MPD2    H3  319   2.716   2.064  13.986  0.4875  0.2994  1.1481
   20MPD2     N  320   2.977   1.693  14.029  0.2062  0.2083 -0.2614
   20MPD2    H5  321   3.031   1.758  14.085  1.1273 -1.8817  1.2755
   20MPD2    N1  322   2.540   1.693  13.807 -0.2852  0.4462  0.8311
   20MPD2    H7  323   2.552   1.592  13.801  0.5853  0.5142  1.3487
   21TMC2    C1  324   0.440   1.577  14.322  0.1882 -0.1328 -0.6785
   21TMC2    C2  325   0.458   1.443  14.333  0.7718  0.7198 -0.3720
   21TMC2    C3  326   0.360   1.370  14.397 -0.7607 -0.5653 -0.2713
   21TMC2    C4  327   0.336   1.643  14.380  0.5893  1.2389  0.1201
   21TMC2    C5  328   0.244   1.561  14.450  0.0197  0.3938  0.8868
   21TMC2    C6  329   0.255   1.422  14.464 -0.2523  0.7201  0.0804
   21TMC2     C  330   0.539   1.656  14.257  0.6073  0.7043 -0.3090
   21TMC2     O  331   0.647   1.600  14.237 -0.0793  0.4106 -0.4549
   21TMC2     H  332   0.541   1.384  14.296  0.0319 -2.0788  2.4329
   21TMC2    H1  333   0.328   1.751  14.391  1.0244  1.3323 -0.5244
   21TMC2    H2  334   0.203   1.362  14.538 -1.5529  1.0469 -0.5744
   21TMC2    C7  335   0.152   1.629  14.543  0.3177 -0.2786 -0.4561
   21TMC2    C8  336   0.375   1.227  14.407 -0.1942 -0.0422 -0.6869
   21TMC2    O1  337   0.121   1.575  14.649 -0.2275  0.0007 -0.4056
   21TMC2    O2  338   0.484   1.174  14.381  0.7311  0.7532  0.1656
   21TMC2    O5  339   0.251   1.186  14.383  0.4646  1.2137  0.3533
   21TMC2    H5  340   0.190   1.255  14.349  0.1559  0.5455 -0.4632
   22MPD2     C  341   0.762   2.101  14.088 -0.2870 -0.1681  0.6007
   22MPD2    C1  342   0.804   1.968  14.100  0.1174  0.7791  0.2553
   22MPD2    C2  343   0.724   1.870  14.147  0.2277 -0.1530 -0.3488
   22MPD2    C3  344   0.597   1.892  14.202 -0.7332  0.0899  0.0089
   22MPD2    C4  345   0.548   2.022  14.182  0.0521  0.4713  0.0988
   22MPD2    C5  346   0.630   2.122  14.127 -0.2856  0.4597 -0.0896
   22MPD2     H  347   0.764   1.770  14.159  0.2436  0.0365  1.1558
   22MPD2    H1  348   0.442   2.040  14.194  0.4194  0.8929  2.9154
   22MPD2    H2  349   0.818   2.174  14.030 -0.9320 -0.0714  0.0992
   22MPD2    H3  350   0.591   2.223  14.116  0.9635  0.7468 -1.8442
   22MPD2     N  351   0.512   1.790  14.240 -0.1748  0.2596 -0.1498
   22MPD2    H5  352   0.425   1.834  14.267  0.9243  1.6298  1.1177
   22MPD2    N1  353   0.923   1.928  14.045 -0.1290 -0.2809  0.2946
   22MPD2    H7  354   0.945   1.829  14.039 -0.0410 -0.2834  0.6765
   23TMC2    C1  355   1.479   2.892  14.446 -0.3432  0.8190  0.2701
   23TMC2    C2  356   1.457   3.030  14.425 -0.3534  0.6428 -0.5736
   23TMC2    C3  357   1.355   3.061  14.344 -0.3255 -0.1032  0.6565
   23TMC2    C4  358   1.403   2.795  14.394  0.0156 -0.3526 -0.0005
   23TMC2    C5  359   1.302   2.826  14.309  0.1577 -0.6927  0.3561
   23TMC2    C6  360   1.281   2.958  14.281 -0.2658 -0.4119  0.4838
   23TMC2     C  361   1.566   2.856  14.555 -0.1491  0.3287  0.3001
   23TMC2     O  362   1.539   2.765  14.634  0.4648  0.0420  0.2254
   23TMC2     H  363   1.514   3.106  14.477 -2.0908  1.2235  0.4629
   23TMC2    H1  364   1.423   2.691  14.418  3.4851  0.4909  0.7105
   23TMC2    H2  365   1.199   2.982  14.213 -0.6353 -0.8746  0.7628
   23TMC2    C7  366   1.231   2.715  14.248 -0.2509 -0.1271  0.0256
   23TMC2    C8  367   1.330   3.199  14.320 -1.0850  0.7099  0.4868
   23TMC2    O1  368   1.278   2.601  14.267  0.3536 -0.1567 -0.0012
   23TMC2    O2  369   1.417   3.282  14.340 -0.9164  0.0365 -0.1254
   23TMC2    O5  370   1.210   3.214  14.263  0.6251 -0.3204 -0.3091
   23TMC2    H5  371   1.147   3.140  14.278 -0.6211  0.8255  0.0882
   24MPD2     C  372   1.952   2.991  14.869 -0.3668 -0.1762  0.8190
   24MPD2    C1  373   1.851   2.897  14.882 -0.1058  0.1053 -0.0937
   24MPD2    C2  374   1.760   2.878  14.781 -0.0822  0.2053 -0.0600
   24MPD2    C3  375   1.770   2.950  14.663 -0.5999 -0.1682 -0.0495
   24MPD2    C4  376   1.869   3.038  14.648 -0.5478 -0.5417 -0.4094
   24MPD2    C5  377   1.957   3.062  14.751 -0.5896  0.4187  0.4953
   24MPD2     H  378   1.687   2.798  14.784 -1.3806  1.4322  1.5944
   24MPD2    H1  379   1.874   3.099  14.559 -0.1672  1.5533  1.0485
   24MPD2    H2  380   2.036   3.007  14.936  0.5655  1.3681 -0.7366
   24MPD2    H3  381   2.035   3.134  14.734  2.0084 -2.5102  0.0452
   24MPD2     N  382   1.671   2.947  14.559  0.4799  0.3025  0.3238
   24MPD2    H5  383   1.685   2.994  14.470  1.6990 -1.2338 -0.2941
   24MPD2    N1  384   1.844   2.818  15.001 -0.5275  0.0901 -0.6784
   24MPD2    H7  385   1.787   2.735  15.002  0.5593 -0.5935  2.4529
   25TMC2    C1  386   0.637   0.107  11.175 -0.2477 -0.1078 -1.3705
   25TMC2    C2  387   0.698   0.191  11.093 -0.4502 -0.0826 -0.6033
   25TMC2    C3  388   0.628   0.307  11.074  0.3667 -0.5651  0.3028
   25TMC2    C4  389   0.514   0.129  11.238 -0.2295  0.5589 -0.4734
   25TMC2    C5  390   0.453   0.252  11.209  0.5509  0.4884  0.4166
   25TMC2    C6  391   0.516   0.347  11.138  0.1504  0.0820 -0.0502
   25TMC2     C  392   0.678   4.708  11.167 -0.2003 -0.1518  0.4625
   25TMC2     O  393   0.794   4.674  11.159  0.1820 -0.8370  0.9454
   25TMC2     H  394   0.804   0.176  11.077 -0.2353  2.4602 -1.6302
   25TMC2    H1  395   0.470   0.069  11.317  1.3421  0.7266  0.5392
   25TMC2    H2  396   0.464   0.439  11.115  1.4067  1.0028  0.8459
   25TMC2    C7  397   0.373   0.297  11.318  0.3184 -0.1790  0.5803
   25TMC2    C8  398   0.685   0.407  10.988  1.6302  0.6641 -1.0308
   25TMC2    O1  399   0.298   0.217  11.373  0.6361  0.3324 -0.0026
   25TMC2    O2  400   0.655   0.528  10.991 -0.3265  0.0784  0.0904
   25TMC2    O5  401   0.714   0.332  10.877 -0.1404  0.4517  0.8478
   25TMC2    H5  402   0.709   0.234  10.887 -0.4433  0.2191 -1.5103
   26MPD2     C  403   0.569   4.228  11.035  0.0228  0.3998  0.1229
   26MPD2    C1  404   0.450   4.300  11.035  0.1807 -0.2992 -1.3433
   26MPD2    C2  405   0.458   4.422  11.094 -0.4647  0.7720  0.0013
   26MPD2    C3  406   0.578   4.491  11.114 -0.6891  0.1129 -0.1701
   26MPD2    C4  407   0.694   4.424  11.090 -0.2331 -0.1403  0.4743
   26MPD2    C5  408   0.688   4.291  11.055 -0.3059 -0.3795  0.2266
   26MPD2     H  409   0.366   4.480  11.100  0.4661  2.2859 -0.4761
   26MPD2    H1  410   0.790   4.473  11.099 -0.1903 -0.1085 -0.1417
   26MPD2    H2  411   0.569   4.124  11.006 -1.1426  0.4607 -0.0901
   26MPD2    H3  412   0.773   4.227  11.036  0.7433  0.2780  2.7032
   26MPD2     N  413   0.568   4.629  11.149 -0.5099 -0.9166 -0.7156
   26MPD2    H5  414   0.473   4.665  11.155  0.9322  3.0455 -1.5635
   26MPD2    N1  415   0.328   4.233  11.009 -0.3468 -0.2477 -0.1195
   26MPD2    H7  416   0.337   4.147  10.956 -0.0279 -0.5849  0.4817
   27TMC2    C1  417   4.424   1.928  11.765  1.0981  1.1016  0.2182
   27TMC2    C2  418   4.382   2.039  11.695 -0.5116  0.3759  0.0240
   27TMC2    C3  419   4.405   2.159  11.754  0.0285 -0.0170 -0.3342
   27TMC2    C4  420   4.480   1.951  11.890  0.2288  0.3019  0.5548
   27TMC2    C5  421   4.472   2.076  11.950 -0.1624 -0.6566 -0.7275
   27TMC2    C6  422   4.449   2.189  11.879  0.1187  0.2314  0.1263
   27TMC2     C  423   4.335   1.815  11.767 -0.1921  0.1978 -0.4583
   27TMC2     O  424   4.383   1.702  11.763  0.3989 -0.0737 -0.1029
   27TMC2     H  425   4.335   2.032  11.597 -1.3534 -0.5180  0.4857
   27TMC2    H1  426   4.493   1.859  11.946  2.4041 -0.5096 -1.3160
   27TMC2    H2  427   4.457   2.287  11.924 -1.4790 -0.0908  1.1320
   27TMC2    C7  428   4.436   2.073  12.085  0.0891  0.0272  0.1391
   27TMC2    C8  429   4.395   2.261  11.654  0.6870 -0.3544  0.3796
   27TMC2    O1  430   4.467   1.974  12.154  0.1938 -0.4265 -0.5205
   27TMC2    O2  431   4.330   2.250  11.549  0.3153  0.2505  0.2188
   27TMC2    O5  432   4.480   2.361  11.680 -0.5350 -0.3287 -0.0816
   27TMC2    H5  433   4.520   2.361  11.770  3.0625  0.1472 -1.6993
   28MPD2     C  434   3.986   1.647  12.097  0.0163  0.7631 -0.0898
   28MPD2    C1  435   3.973   1.782  12.102  0.2495  0.5620  0.3540
   28MPD2    C2  436   4.043   1.853  12.004  0.2627 -0.1013 -0.3529
   28MPD2    C3  437   4.137   1.791  11.923  0.1487 -0.7902  0.5061
   28MPD2    C4  438   4.153   1.648  11.931  0.3087  0.4745 -0.4695
   28MPD2    C5  439   4.073   1.580  12.014  0.3064 -0.4185  0.5285
   28MPD2     H  440   4.036   1.961  12.000  1.6262 -0.0808 -1.8259
   28MPD2    H1  441   4.213   1.587  11.865  1.5491 -1.3814  2.3657
   28MPD2    H2  442   3.926   1.584  12.161 -2.4067  0.6676 -2.4416
   28MPD2    H3  443   4.065   1.472  12.011  0.8607 -0.4823  1.4195
   28MPD2     N  444   4.227   1.866  11.832 -0.0674  0.1733 -0.2834
   28MPD2    H5  445   4.226   1.966  11.851 -1.1996 -0.8897  5.2278
   28MPD2    N1  446   3.886   1.840  12.197  0.2419 -0.6352  0.5381
   28MPD2    H7  447   3.865   1.781  12.277  1.9063  0.8242  2.0587
   29TMC2    C1  448   3.595   0.009  14.025  0.6232  0.0415 -0.2336
   29TMC2    C2  449   3.478   0.028  13.964  0.0147 -0.2184 -0.6478
   29TMC2    C3  450   3.444   0.156  13.935 -0.3709  0.6479 -0.5898
   29TMC2    C4  451   3.670   0.119  14.065  0.2424  1.0478 -0.7176
   29TMC2    C5  452   3.639   0.241  14.019  0.6982  0.3560  0.5576
   29TMC2    C6  453   3.516   0.266  13.957 -0.2758 -0.6072  0.4949
   29TMC2     C  454   3.623   4.611  14.070 -0.4951  0.5621  0.1915
   29TMC2     O  455   3.522   4.544  14.089  0.6731  0.1542  0.5187
   29TMC2     H  456   3.409   4.685  13.934 -1.2278 -0.2812  2.3567
   29TMC2    H1  457   3.766   0.110  14.113  0.8353  0.0892 -2.1090
   29TMC2    H2  458   3.485   0.362  13.918  2.6197  0.5265  1.0133
   29TMC2    C7  459   3.746   0.344  14.021  0.8522  0.3684 -0.2475
   29TMC2    C8  460   3.300   0.174  13.909 -0.3507 -0.1567  0.0987
   29TMC2    O1  461   3.853   0.310  14.067 -0.1547 -0.3456 -0.3374
   29TMC2    O2  462   3.232   0.085  13.862  0.3480 -0.0272 -0.5171
   29TMC2    O5  463   3.260   0.287  13.974 -0.2929  0.1727 -0.0099
   29TMC2    H5  464   3.333   0.328  14.026 -0.4857 -1.3351  1.4480
   30MPD2     C  465   3.907   4.191  14.002 -0.1837  0.1479  0.0195
   30MPD2    C1  466   3.776   4.200  14.050 -0.6412 -0.5805 -0.6453
   30MPD2    C2  467   3.715   4.325  14.053  0.1824 -0.5464  0.6397
   30MPD2    C3  468   3.791   4.439  14.034  0.9875  0.2464  0.1813
   30MPD2    C4  469   3.925   4.422  13.998  0.0788 -0.0806  0.7247
   30MPD2    C5  470   3.984   4.299  13.981  0.3532  0.0458 -1.1323
   30MPD2     H  471   3.611   4.333  14.084  0.8212  1.4981  2.2421
   30MPD2    H1  472   3.985   4.511  13.982 -3.7776  2.1622 -1.5986
   30MPD2    H2  473   3.956   4.096  13.983 -2.1602 -1.3491  2.4338
   30MPD2    H3  474   4.088   4.289  13.952  0.6332  0.1995 -0.1764
   30MPD2     N  475   3.752   4.575  14.042  0.0402 -0.1355  0.1427
   30MPD2    H5  476   3.817   4.642  14.002  0.5188  1.2586  3.3066
   30MPD2    N1  477   3.701   4.086  14.086 -0.0787 -0.4566 -0.0431
   30MPD2    H7  478   3.627   4.088  14.156 -1.1745 -0.9598 -1.1927
   31TMC2    C1  479   1.127   3.337  15.217 -0.2212  0.5319 -0.1162
   31TMC2    C2  480   1.002   3.384  15.226 -0.3615  0.1763  0.4269
   31TMC2    C3  481   0.945   3.414  15.345  0.3481  0.7080  0.3726
   31TMC2    C4  482   1.193   3.325  15.339 -0.0868  0.0805  0.0724
   31TMC2    C5  483   1.134   3.350  15.456 -0.3267 -0.2500  0.8726
   31TMC2    C6  484   1.011   3.394  15.469 -0.0878  1.1253  0.4144
   31TMC2     C  485   1.193   3.334  15.087 -0.0351  0.5090 -0.9650
   31TMC2     O  486   1.152   3.410  15.001  0.2000 -0.2171  0.3694
   31TMC2     H  487   0.941   3.384  15.136 -1.3514  0.3695  1.1048
   31TMC2    H1  488   1.288   3.274  15.335 -0.4764 -0.4945 -2.0881
   31TMC2    H2  489   0.956   3.399  15.562 -3.0696 -2.4903 -1.1760
   31TMC2    C7  490   1.219   3.318  15.569  0.5831  0.7817 -0.2556
   31TMC2    C8  491   0.806   3.390  15.365  1.1742 -0.9146 -0.2724
   31TMC2    O1  492   1.296   3.220  15.559  0.1169  0.0244  0.0338
   31TMC2    O2  493   0.762   3.293  15.427  0.2239 -0.4610  0.3581
   31TMC2    O5  494   0.744   3.457  15.260 -0.7042 -0.2732  0.7317
   31TMC2    H5  495   0.812   3.516  15.221 -1.8745 -0.7441 -2.0513
   32MPD2     C  496   1.610   3.251  14.784  0.1125 -0.9785 -0.0760
   32MPD2    C1  497   1.492   3.330  14.765 -0.2798  0.1135 -0.5874
   32MPD2    C2  498   1.397   3.332  14.863  0.1811  0.4053  0.6275
   32MPD2    C3  499   1.401   3.242  14.968  0.0469 -0.2153  0.2780
   32MPD2    C4  500   1.513   3.157  14.986  0.4610  0.2366 -0.7342
   32MPD2    C5  501   1.611   3.170  14.894 -0.5314 -0.5892  0.1448
   32MPD2     H  502   1.317   3.405  14.860 -0.1896 -0.0721 -1.1586
   32MPD2    H1  503   1.522   3.078  15.059 -1.8938  1.3456  0.7854
   32MPD2    H2  504   1.683   3.245  14.705  0.0049 -1.0013 -0.1726
   32MPD2    H3  505   1.689   3.095  14.896  0.1082  0.1058  0.9826
   32MPD2     N  506   1.307   3.247  15.078  0.3527 -0.1848 -0.5225
   32MPD2    H5  507   1.321   3.182  15.155  0.2062  0.0517 -0.2976
   32MPD2    N1  508   1.489   3.417  14.650 -0.4650  0.1205  0.4404
   32MPD2    H7  509   1.571   3.422  14.590 -0.7644 -3.9425 -0.2822
   33TMC2    C1  510   1.187   1.126   9.335  0.3679  0.0229 -0.6413
   33TMC2    C2  511   1.059   1.091   9.295 -0.5603  0.6315 -0.7167
   33TMC2    C3  512   0.974   1.181   9.239  1.0688 -0.4316  0.3861
   33TMC2    C4  513   1.228   1.257   9.306  0.1442 -0.5225  0.2064
   33TMC2    C5  514   1.140   1.340   9.245 -0.5399 -0.2274 -0.3312
   33TMC2    C6  515   1.009   1.310   9.223  0.5031  0.0224 -0.2572
   33TMC2     C  516   1.267   1.049   9.431  0.0083 -0.0409  0.4415
   33TMC2     O  517   1.226   0.935   9.438 -0.0965  0.2020  0.0202
   33TMC2     H  518   1.023   0.990   9.311 -1.6033  0.7611 -2.2950
   33TMC2    H1  519   1.332   1.286   9.321 -0.6433  3.2321 -1.6001
   33TMC2    H2  520   0.950   1.395   9.189 -0.2783  0.8720  3.1838
   33TMC2    C7  521   1.190   1.481   9.234 -0.6519  0.2977  0.8891
   33TMC2    C8  522   0.856   1.129   9.175  0.1195  0.0819 -0.4105
   33TMC2    O1  523   1.272   1.517   9.317 -0.1665  0.0011 -0.0612
   33TMC2    O2  524   0.855   1.014   9.134 -0.4888 -0.0042  0.0037
   33TMC2    O5  525   0.769   1.230   9.153 -0.1175 -0.0285 -0.0777
   33TMC2    H5  526   0.764   1.295   9.225  3.5988  0.6610 -0.4171
   34MPD2     C  527   1.628   1.004   9.786  0.4085 -0.1764  0.1693
   34MPD2    C1  528   1.518   0.927   9.769 -0.2462  0.2253 -0.8921
   34MPD2    C2  529   1.428   0.953   9.671  0.1371  0.2064 -0.0235
   34MPD2    C3  530   1.444   1.076   9.599 -0.3885 -0.4304  0.3738
   34MPD2    C4  531   1.553   1.158   9.626 -1.2418  0.2952  0.6286
   34MPD2    C5  532   1.647   1.118   9.712  0.1140 -0.5634 -0.0987
   34MPD2     H  533   1.344   0.886   9.662  0.5358 -0.2680 -0.1915
   34MPD2    H1  534   1.567   1.248   9.567  2.0384 -0.4346  0.2626
   34MPD2    H2  535   1.707   0.974   9.854 -0.5614 -0.4847  1.1730
   34MPD2    H3  536   1.731   1.185   9.719 -1.1946  0.8615  2.1071
   34MPD2     N  537   1.362   1.119   9.493  0.0349  0.1750 -0.4338
   34MPD2    H5  538   1.390   1.211   9.459  2.1247 -0.6392 -0.8569
   34MPD2    N1  539   1.505   0.819   9.860 -0.6092 -0.0205  0.0171
   34MPD2    H7  540   1.578   0.811   9.930 -1.8211 -1.9588  1.0303
   35TMC2    C1  541   3.400   2.413  11.161  0.3871 -0.5874 -0.5650
   35TMC2    C2  542   3.475   2.469  11.056  0.4612  0.0768 -0.6234
   35TMC2    C3  543   3.437   2.438  10.928 -0.7670 -0.1745 -0.1684
   35TMC2    C4  544   3.284   2.340  11.136 -0.4638 -0.5615 -0.6951
   35TMC2    C5  545   3.251   2.323  11.003 -0.6657 -0.7729  0.4217
   35TMC2    C6  546   3.331   2.364  10.902  0.6079 -0.3341  0.0818
   35TMC2     C  547   3.438   2.442  11.300 -0.0593  0.4845  0.4173
   35TMC2     O  548   3.531   2.518  11.309 -0.1823  0.0423 -0.0058
   35TMC2     H  549   3.558   2.535  11.079  0.3056  0.3588 -0.8700
   35TMC2    H1  550   3.229   2.299  11.220 -0.7501  1.5112  0.1390
   35TMC2    H2  551   3.310   2.344  10.797 -0.0295  2.5274 -0.3310
   35TMC2    C7  552   3.140   2.231  10.972 -0.7719  0.2118  0.0961
   35TMC2    C8  553   3.519   2.464  10.815 -0.5900 -0.4953  0.2738
   35TMC2    O1  554   3.091   2.150  11.049 -0.7760  0.2043  0.0897
   35TMC2    O2  555   3.473   2.509  10.712 -0.0757 -0.0019 -0.5440
   35TMC2    O5  556   3.643   2.479  10.857  0.5974 -0.6998  0.3879
   35TMC2    H5  557   3.682   2.430  10.933  0.3149  1.7069  2.1109
   36MPD2     C  558   3.390   2.431  11.808  0.2426 -0.1516  0.0864
   36MPD2    C1  559   3.285   2.358  11.756 -0.5785 -0.6264 -0.6561
   36MPD2    C2  560   3.281   2.349  11.619  0.8177  0.1303 -0.2991
   36MPD2    C3  561   3.371   2.413  11.537 -0.1491 -0.3479  1.0730
   36MPD2    C4  562   3.474   2.480  11.592  0.0819 -0.1345  0.6680
   36MPD2    C5  563   3.475   2.498  11.724 -0.3769  0.2285 -0.0811
   36MPD2     H  564   3.202   2.294  11.569  0.7936 -1.7756  1.8146
   36MPD2    H1  565   3.543   2.539  11.533  0.6199 -0.8252  0.6090
   36MPD2    H2  566   3.414   2.435  11.913 -0.4864  1.2015  0.2018
   36MPD2    H3  567   3.548   2.566  11.768 -1.2550  1.3175 -0.2971
   36MPD2     N  568   3.360   2.387  11.398 -0.5217 -0.0186  0.7947
   36MPD2    H5  569   3.291   2.320  11.364 -1.0270  1.5211 -1.1844
   36MPD2    N1  570   3.202   2.291  11.847  1.0068 -0.0143  0.7049
   36MPD2    H7  571   3.218   2.292  11.948 -1.3807 -1.2319  1.0926
   37TMC2    C1  572   0.873   2.073  11.883 -0.3372 -0.5758  0.3074
   37TMC2    C2  573   0.995   2.033  11.932  0.2915  0.1867 -0.1363
   37TMC2    C3  574   1.109   2.044  11.862  0.1952 -0.3354  0.0344
   37TMC2    C4  575   0.869   2.116  11.756  0.2462 -0.5067 -0.0589
   37TMC2    C5  576   0.982   2.111  11.675 -0.5684  0.3259 -0.2475
   37TMC2    C6  577   1.103   2.079  11.729  0.2627  0.2234 -0.4604
   37TMC2     C  578   0.755   2.091  11.971 -0.0049  0.1413  0.9855
   37TMC2     O  579   0.646   2.109  11.914  0.3137 -0.3511 -0.1609
   37TMC2     H  580   0.999   1.987  12.030 -2.0820  2.2412  0.9204
   37TMC2    H1  581   0.777   2.156  11.714  0.6122 -1.0165 -1.3438
   37TMC2    H2  582   1.195   2.097  11.674  1.6626  0.1211  1.8274
   37TMC2    C7  583   0.973   2.190  11.552 -0.1578  0.1752  0.1635
   37TMC2    C8  584   1.243   2.006  11.916  0.4736 -0.2081  0.3735
   37TMC2    O1  585   0.875   2.259  11.542 -0.1991 -0.3402 -0.5250
   37TMC2    O2  586   1.254   1.896  11.975 -0.2353 -0.1289  0.1110
   37TMC2    O5  587   1.285   2.122  11.967 -0.3736  0.3049  0.2333
   37TMC2    H5  588   1.246   2.194  11.913 -2.4941 -1.7952 -1.1103
   38MPD2     C  589   0.527   2.137  12.426 -0.1761 -0.1951  0.8302
   38MPD2    C1  590   0.659   2.105  12.440 -0.0518 -0.2671  0.4163
   38MPD2    C2  591   0.745   2.087  12.335 -0.0259  0.3960 -1.0730
   38MPD2    C3  592   0.694   2.108  12.207  0.0642  0.6865 -0.3421
   38MPD2    C4  593   0.565   2.142  12.190 -0.4432 -0.0530  0.0136
   38MPD2    C5  594   0.478   2.140  12.299 -0.3615 -0.0160 -0.0327
   38MPD2     H  595   0.850   2.069  12.352 -1.1272 -0.8811  4.4473
   38MPD2    H1  596   0.520   2.161  12.094  1.3018 -1.4033 -1.0763
   38MPD2    H2  597   0.459   2.136  12.510  0.4165 -2.6019  1.2797
   38MPD2    H3  598   0.376   2.168  12.276  0.0584  3.1681  2.0381
   38MPD2     N  599   0.785   2.087  12.099  0.1034 -0.0167  0.1964
   38MPD2    H5  600   0.881   2.098  12.130  1.5588 -3.8361 -2.9926
   38MPD2    N1  601   0.716   2.079  12.567 -0.4571  0.4698 -0.1756
   38MPD2    H7  602   0.815   2.060  12.570 -0.1501  1.8322 -1.6184
   39TMC2    C1  603   3.677   4.518   0.858  0.7505 -0.0923 -0.4675
   39TMC2    C2  604   3.675   4.398   0.799 -0.3786 -0.4501  0.0529
   39TMC2    C3  605   3.734   4.291   0.851 -0.9064  0.4492  0.1863
   39TMC2    C4  606   3.742   4.545   0.974 -0.0625  0.3004 -0.6105
   39TMC2    C5  607   3.813   4.439   1.025 -0.3084 -0.1859  0.0272
   39TMC2    C6  608   3.803   4.313   0.970  0.1511  0.4697 -0.1219
   39TMC2     C  609   3.596   4.617   0.797 -0.3499  0.1329  0.4606
   39TMC2     O  610   3.523   4.575   0.707 -0.4388  0.1215  0.5766
   39TMC2     H  611   3.634   4.396   0.698 -1.5633 -4.2571  0.6256
   39TMC2    H1  612   3.715   4.633   1.032  1.2432  1.3995 -1.6868
   39TMC2    H2  613   3.858   4.226   1.006  0.6949  0.9122  0.1086
   39TMC2    C7  614   3.858   4.455   1.158  0.6168 -0.4664 -0.5986
   39TMC2    C8  615   3.741   4.165   0.780  0.0429 -0.3995  0.2968
   39TMC2    O1  616   3.828   4.367   1.238 -0.0354 -0.3327 -0.2846
   39TMC2    O2  617   3.831   4.084   0.801 -0.0001 -0.1349 -0.3601
   39TMC2    O5  618   3.612   4.143   0.755 -0.2662  0.1946 -0.0104
   39TMC2    H5  619   3.550   4.212   0.787 -1.2694 -1.1316  0.9510
   40MPD2     C  620   3.582   0.251   0.826 -0.2980 -0.5210  0.0378
   40MPD2    C1  621   3.533   0.119   0.818  0.1569  0.0688  0.9274
   40MPD2    C2  622   3.396   0.101   0.787  0.2311 -0.0931  0.2153
   40MPD2    C3  623   3.311   0.217   0.780 -0.2333  0.1611 -0.5347
   40MPD2    C4  624   3.362   0.346   0.800 -0.2758 -0.0692  0.5689
   40MPD2    C5  625   3.498   0.359   0.823  0.3153 -0.4587  0.1690
   40MPD2     H  626   3.361   4.734   0.776  2.2188 -1.0206  2.4954
   40MPD2    H1  627   3.309   0.440   0.813 -0.1844 -0.0899  1.1327
   40MPD2    H2  628   3.686   0.274   0.850 -0.2400  1.4037 -2.0754
   40MPD2    H3  629   3.530   0.462   0.836 -0.8719 -0.0179 -0.4016
   40MPD2     N  630   3.171   0.208   0.757  0.0001  0.6315  0.2107
   40MPD2    H5  631   3.121   0.296   0.749 -1.4433 -0.3162 -1.1724
   40MPD2    N1  632   3.622   0.011   0.831 -0.9730 -0.0648 -0.4815
   40MPD2    H7  633   3.710   0.030   0.878 -0.6384 -1.3894 -0.5727
   41TMC2    C1  634   2.370   2.724  13.100 -0.2172  0.4536  1.1539
   41TMC2    C2  635   2.257   2.702  13.178  0.0121  0.0463  0.2972
   41TMC2    C3  636   2.141   2.681  13.108 -0.3539  0.0477  0.3086
   41TMC2    C4  637   2.370   2.726  12.967  0.3500  0.1398 -0.0823
   41TMC2    C5  638   2.249   2.717  12.906 -0.5299  0.1546 -0.6591
   41TMC2    C6  639   2.135   2.687  12.972 -0.5403  0.0159 -0.0213
   41TMC2     C  640   2.500   2.720  13.156 -0.5388 -0.1180 -0.2890
   41TMC2     O  641   2.598   2.724  13.081 -0.2403 -0.1283  0.1762
   41TMC2     H  642   2.249   2.710  13.286  0.5547 -1.3073  0.4337
   41TMC2    H1  643   2.453   2.761  12.907  0.8508  0.3961  0.7525
   41TMC2    H2  644   2.049   2.665  12.910 -1.9575  2.4746  1.0632
   41TMC2    C7  645   2.254   2.700  12.758  0.2050 -0.1243 -0.3946
   41TMC2    C8  646   2.016   2.680  13.189 -0.1410 -0.0644 -0.0033
   41TMC2    O1  647   2.157   2.759  12.706  0.8866  0.2645 -0.0111
   41TMC2    O2  648   1.977   2.773  13.259  0.1097  0.0260  0.4521
   41TMC2    O5  649   1.935   2.608  13.115 -0.3571 -0.3185 -0.0157
   41TMC2    H5  650   1.988   2.538  13.073 -0.0709 -1.5835  2.4340
   42MPD2     C  651   2.742   2.682  13.333  0.2140  0.5797  0.8761
   42MPD2    C1  652   2.620   2.725  13.380 -0.4648  0.0967 -0.0645
   42MPD2    C2  653   2.604   2.742  13.515 -0.2577 -0.4866 -0.3064
   42MPD2    C3  654   2.716   2.743  13.599  0.6201  0.5601 -0.6043
   42MPD2    C4  655   2.841   2.717  13.545  0.0592  0.3119  0.1937
   42MPD2    C5  656   2.855   2.673  13.420  0.0213 -0.6362  0.2146
   42MPD2     H  657   2.502   2.767  13.542  0.4554  1.2790  0.8273
   42MPD2    H1  658   2.929   2.743  13.602 -1.4869  0.0812  2.7194
   42MPD2    H2  659   2.757   2.656  13.229 -2.4655 -0.7533  0.8348
   42MPD2    H3  660   2.956   2.668  13.380  0.4079  2.9809  0.7137
   42MPD2     N  661   2.718   2.791  13.733  0.0079  0.3201  0.2200
   42MPD2    H5  662   2.812   2.791  13.771 -0.9652  1.7461  2.6183
   42MPD2    N1  663   2.508   2.733  13.292 -0.6906  0.0157 -0.3870
   42MPD2    H7  664   2.419   2.749  13.338 -0.2894  3.0837 -0.6931
   43TMC2    C1  665   3.813   1.174   0.344  0.9511  0.4784 -0.3717
   43TMC2    C2  666   3.705   1.207   0.416 -0.4845  0.7272  0.4175
   43TMC2    C3  667   3.696   1.339   0.451 -0.1722  0.0563  1.0365
   43TMC2    C4  668   3.926   1.253   0.328 -0.6069 -1.1161 -0.4829
   43TMC2    C5  669   3.925   1.373   0.393  0.2360  0.0427  0.2649
   43TMC2    C6  670   3.805   1.421   0.448 -0.2559 -0.2566 -0.3493
   43TMC2     C  671   3.832   1.031   0.310 -0.6564  0.4425  0.5310
   43TMC2     O  672   3.945   0.992   0.289 -0.2298  0.4099 -0.2106
   43TMC2     H  673   3.614   1.148   0.427 -0.6284  0.3180 -2.9888
   43TMC2    H1  674   4.021   1.219   0.290 -0.3549 -0.9278 -0.0138
   43TMC2    H2  675   3.799   1.518   0.496  1.9507  0.6744 -1.9720
   43TMC2    C7  676   4.046   1.453   0.402 -0.8409  0.2309  0.0811
   43TMC2    C8  677   3.588   1.373   0.537 -0.1442  0.0619 -0.5540
   43TMC2    O1  678   4.121   1.458   0.303  0.1805  0.0791 -0.2636
   43TMC2    O2  679   3.472   1.348   0.515 -0.3591  0.0801 -0.0391
   43TMC2    O5  680   3.640   1.426   0.652 -0.5131 -0.2975  0.2024
   43TMC2    H5  681   3.737   1.416   0.662 -0.7932 -1.7481  1.5137
   44MPD2     C  682   3.650   0.580   0.120  0.5602 -0.3795  0.5080
   44MPD2    C1  683   3.769   0.613   0.188  0.8265 -0.0757 -0.2092
   44MPD2    C2  684   3.786   0.740   0.234  0.1218 -1.1452 -0.3639
   44MPD2    C3  685   3.691   0.845   0.217  0.2067 -0.4032  0.4818
   44MPD2    C4  686   3.580   0.808   0.153 -0.4136  0.3208  0.2008
   44MPD2    C5  687   3.556   0.677   0.113 -0.5026  0.3600  0.0033
   44MPD2     H  688   3.885   0.746   0.276 -0.4667  2.0648  0.5412
   44MPD2    H1  689   3.492   0.867   0.129  0.1147  1.4010  0.9053
   44MPD2    H2  690   3.630   0.486   0.069  1.0724 -0.5493  0.6186
   44MPD2    H3  691   3.464   0.656   0.061 -1.0323  0.2484  0.9909
   44MPD2     N  692   3.712   0.976   0.263 -0.3520 -0.1564 -0.0108
   44MPD2    H5  693   3.625   1.030   0.265 -0.2750 -0.0629  0.6865
   44MPD2    N1  694   3.872   0.511   0.202 -0.0333 -0.0018  0.5204
   44MPD2    H7  695   3.960   0.542   0.244  1.5926 -1.1645 -2.0554
   45TMC2    C1  696   3.792   2.903   9.353 -0.6879  0.5238  0.0258
   45TMC2    C2  697   3.681   2.960   9.399 -0.7710  0.7508 -0.2508
   45TMC2    C3  698   3.693   3.072   9.476 -0.1927  0.0007 -0.5101
   45TMC2    C4  699   3.914   2.961   9.371 -0.0276 -1.0059 -0.2256
   45TMC2    C5  700   3.918   3.084   9.433 -0.1964  0.9236 -0.6877
   45TMC2    C6  701   3.811   3.144   9.490 -0.4368  0.0001 -0.0799
   45TMC2     C  702   3.784   2.774   9.278  0.1316  0.2725 -0.4009
   45TMC2     O  703   3.896   2.722   9.264 -0.3558 -0.1480  0.3550
   45TMC2     H  704   3.583   2.915   9.396 -0.7444  0.7806 -1.8003
   45TMC2    H1  705   4.004   2.923   9.324  1.7362  0.4777  2.0282
   45TMC2    H2  706   3.812   3.239   9.542 -2.6234  0.8316 -1.5519
   45TMC2    C7  707   4.047   3.137   9.469 -0.0252 -0.1407  0.6090
   45TMC2    C8  708   3.569   3.125   9.536 -0.5992  0.5879 -0.5350
   45TMC2    O1  709   4.039   3.211   9.563 -0.3381 -0.3663  0.1948
   45TMC2    O2  710   3.458   3.098   9.499  0.1834 -0.2951  0.0119
   45TMC2    O5  711   3.596   3.216   9.627  0.1390  0.1012  0.3539
   45TMC2    H5  712   3.685   3.207   9.667  0.1706 -1.6926 -0.1111
   46MPD2     C  713   3.701   2.510   9.160 -0.4115 -0.1886 -0.5262
   46MPD2    C1  714   3.607   2.601   9.213  0.3940 -0.4287  0.0082
   46MPD2    C2  715   3.474   2.570   9.222  0.1593 -0.6928  0.0913
   46MPD2    C3  716   3.421   2.461   9.154  0.6641  0.4305  0.4009
   46MPD2    C4  717   3.514   2.379   9.087 -0.1918 -0.0706  0.7562
   46MPD2    C5  718   3.651   2.405   9.095 -0.1737 -0.7613  0.0047
   46MPD2     H  719   3.415   2.645   9.273 -0.9497 -1.1247 -0.5686
   46MPD2    H1  720   3.474   2.295   9.032 -1.1915  1.1509 -0.3898
   46MPD2    H2  721   3.810   2.517   9.159 -0.5449  1.7884 -1.1565
   46MPD2    H3  722   3.714   2.326   9.056  1.5808 -0.4599  2.2254
   46MPD2     N  723   3.284   2.438   9.171 -0.2517  0.2355 -0.0551
   46MPD2    H5  724   3.231   2.499   9.233  0.4395 -0.6230  1.3832
   46MPD2    N1  725   3.657   2.727   9.258 -0.0298  0.2496  0.2127
   46MPD2    H7  726   3.584   2.795   9.277  0.1983  0.2009  1.2570
   47TMC2    C1  727   1.411   3.745   9.323 -0.1281 -0.0933 -0.3365
   47TMC2    C2  728   1.340   3.819   9.415 -0.0930 -0.2491 -0.0587
   47TMC2    C3  729   1.222   3.767   9.464 -0.9357 -0.1852  0.3698
   47TMC2    C4  730   1.364   3.619   9.283 -0.4798  0.3169  0.0629
   47TMC2    C5  731   1.250   3.572   9.335  0.4832  0.1018 -0.9047
   47TMC2    C6  732   1.180   3.639   9.436 -0.4276  0.4185 -0.4591
   47TMC2     C  733   1.553   3.768   9.331  0.0365 -0.1430 -0.2051
   47TMC2     O  734   1.591   3.888   9.326 -1.4013 -0.4098 -0.3195
   47TMC2     H  735   1.378   3.909   9.462  0.0967 -1.1696  1.5525
   47TMC2    H1  736   1.421   3.574   9.203 -3.3049 -1.7488 -0.7743
   47TMC2    H2  737   1.083   3.603   9.468 -0.9068  3.1838  1.1989
   47TMC2    C7  738   1.182   3.462   9.268 -0.6442 -0.0924 -0.3747
   47TMC2    C8  739   1.170   3.843   9.577 -0.4284 -0.3143  0.5253
   47TMC2    O1  740   1.136   3.379   9.343  0.5247  0.5203  0.2395
   47TMC2    O2  741   1.173   3.960   9.594  0.1899  0.2004 -0.2242
   47TMC2    O5  742   1.155   3.753   9.676 -0.3066 -0.0873  0.0304
   47TMC2    H5  743   1.155   3.659   9.648  0.3975  0.2485 -1.1081
   48MPD2     C  744   1.828   3.744   9.437 -0.1986  0.0063  0.1802
   48MPD2    C1  745   1.761   3.643   9.379 -0.0870 -0.5208 -0.3674
   48MPD2    C2  746   1.824   3.526   9.353  0.0794 -0.0124 -0.6868
   48MPD2    C3  747   1.957   3.511   9.379 -0.4399  0.6412 -0.1134
   48MPD2    C4  748   2.024   3.618   9.442  0.4407 -0.2158 -0.1081
   48MPD2    C5  749   1.962   3.730   9.467 -0.0802  0.7648  0.1998
   48MPD2     H  750   1.763   3.447   9.311  0.1393 -0.4076 -0.0299
   48MPD2    H1  751   2.126   3.609   9.477  0.2224 -1.0541  0.3086
   48MPD2    H2  752   1.778   3.837   9.458 -1.8059 -0.6747 -0.6131
   48MPD2    H3  753   2.015   3.807   9.521  1.6275 -0.2238 -0.0671
   48MPD2     N  754   2.030   3.396   9.337 -0.8129 -0.2158 -0.2243
   48MPD2    H5  755   1.969   3.325   9.299  1.3438 -1.9117 -0.5586
   48MPD2    N1  756   1.620   3.651   9.351 -0.1601 -0.8067 -0.2380
   48MPD2    H7  757   1.576   3.561   9.335  0.3126 -0.7879 -1.6324
   49TMC2    C1  758   0.894   0.818  11.049  0.3516  0.1347 -0.1697
   49TMC2    C2  759   0.939   0.916  11.141  0.0601 -0.0149 -0.3065
   49TMC2    C3  760   1.009   0.868  11.246  0.0238 -0.2740 -0.1267
   49TMC2    C4  761   0.921   0.687  11.058 -0.0024 -0.7252  0.2139
   49TMC2    C5  762   1.005   0.648  11.165 -1.1288  0.1031 -0.1332
   49TMC2    C6  763   1.046   0.740  11.261 -0.3782  0.0873 -0.2466
   49TMC2     C  764   0.830   0.869  10.938  0.0100 -0.2125  0.4146
   49TMC2     O  765   0.856   0.984  10.900 -0.4624 -0.3454  0.9977
   49TMC2     H  766   0.911   1.020  11.130  3.1165  0.5988 -2.2558
   49TMC2    H1  767   0.881   0.621  10.981  1.1130 -0.1057 -0.9025
   49TMC2    H2  768   1.111   0.708  11.342 -0.5336  0.5156  0.0487
   49TMC2    C7  769   1.040   0.507  11.171 -0.5041 -1.1298  0.4807
   49TMC2    C8  770   1.062   0.964  11.332  0.3759  0.5476 -0.7000
   49TMC2    O1  771   0.951   0.430  11.132  0.1069 -0.5136  1.1638
   49TMC2    O2  772   1.163   0.951  11.395  0.2903 -0.2118 -0.0505
   49TMC2    O5  773   0.959   1.024  11.383  0.2790 -0.3122 -0.0715
   49TMC2    H5  774   0.871   0.999  11.346  1.0505 -0.5754 -1.6758
   50MPD2     C  775   0.685   0.907  10.672  0.2227  0.5032 -0.3124
   50MPD2    C1  776   0.661   0.807  10.761  0.0499 -0.6242 -0.0526
   50MPD2    C2  777   0.554   0.718  10.735 -0.0271 -0.1998  0.6397
   50MPD2    C3  778   0.464   0.740  10.631 -0.6107  0.2766  0.2414
   50MPD2    C4  779   0.500   0.831  10.539 -0.4019 -0.0412  0.3104
   50MPD2    C5  780   0.601   0.919  10.564 -0.3183 -0.3046  0.0078
   50MPD2     H  781   0.525   0.653  10.817 -0.3839 -1.3294 -0.3834
   50MPD2    H1  782   0.441   0.844  10.449 -0.6235  2.5768  0.8411
   50MPD2    H2  783   0.764   0.981  10.680  0.7938  0.1382 -2.6001
   50MPD2    H3  784   0.610   1.001  10.493 -1.1032 -0.6349 -0.4677
   50MPD2     N  785   0.333   0.689  10.615 -0.0043  0.5268  0.1964
   50MPD2    H5  786   0.287   0.732  10.534 -1.2424 -3.4616 -1.2013
   50MPD2    N1  787   0.734   0.789  10.879 -0.3111 -0.6725  0.2317
   50MPD2    H7  788   0.712   0.709  10.938 -2.4528  0.7644  1.3459
   51TMC2    C1  789   2.168   4.195   1.526 -0.3074  0.4906  0.1484
   51TMC2    C2  790   2.249   4.185   1.639 -0.1010 -0.1198 -0.7191
   51TMC2    C3  791   2.250   4.296   1.719  0.3111  0.1782 -0.2678
   51TMC2    C4  792   2.084   4.302   1.509 -0.1202 -0.0624  0.3570
   51TMC2    C5  793   2.086   4.408   1.593  0.1272  0.0205  0.5389
   51TMC2    C6  794   2.182   4.412   1.691 -0.6227  0.0063 -1.0990
   51TMC2     C  795   2.147   4.075   1.451  0.3215 -0.1795 -0.1338
   51TMC2     O  796   2.086   4.085   1.344 -0.3607 -0.3853  0.9717
   51TMC2     H  797   2.319   4.104   1.654  0.2496  0.3163 -0.0469
   51TMC2    H1  798   2.045   4.315   1.409  0.4391  1.5544  0.3570
   51TMC2    H2  799   2.187   4.501   1.753  0.4434 -0.9219  0.1394
   51TMC2    C7  800   2.018   4.528   1.552 -0.1706 -0.1383 -0.6341
   51TMC2    C8  801   2.385   4.309   1.779 -0.1591  0.5399  0.2476
   51TMC2    O1  802   2.072   4.628   1.600 -0.4638  0.5399  0.1726
   51TMC2    O2  803   2.486   4.256   1.734 -0.5038  0.1520  0.2518
   51TMC2    O5  804   2.383   4.382   1.891 -0.5807 -0.2209  0.2901
   51TMC2    H5  805   2.291   4.382   1.923 -0.3553 -0.2392  0.9249
   52MPD2     C  806   2.263   3.593   1.359 -0.5119  0.7029  0.4377
   52MPD2    C1  807   2.233   3.697   1.271 -0.0445  0.7518 -0.4186
   52MPD2    C2  808   2.212   3.819   1.319  0.1953  0.5217  0.0068
   52MPD2    C3  809   2.215   3.838   1.457  0.1867 -0.2318  0.5315
   52MPD2    C4  810   2.272   3.742   1.538  0.3970  0.2499 -0.6726
   52MPD2    C5  811   2.296   3.618   1.489  0.1041 -0.4395 -0.2472
   52MPD2     H  812   2.191   3.903   1.253 -1.6665  0.0276 -0.0227
   52MPD2    H1  813   2.278   3.757   1.645  0.3812 -0.2072 -0.6081
   52MPD2    H2  814   2.299   3.500   1.316 -2.1092  0.2603  0.0635
   52MPD2    H3  815   2.349   3.541   1.545 -1.7181 -1.0715  0.6106
   52MPD2     N  816   2.193   3.961   1.515 -0.2950 -0.2073 -0.4567
   52MPD2    H5  817   2.203   3.971   1.616  1.1249 -2.0793 -0.4000
   52MPD2    N1  818   2.214   3.685   1.133  0.0515 -0.3025  0.0734
   52MPD2    H7  819   2.208   3.771   1.079  0.8275 -0.6829 -0.6198
   53TMC2    C1  820   1.004   2.770  11.102 -0.3636 -0.3630  0.2684
   53TMC2    C2  821   0.925   2.823  11.004 -0.2905 -0.3127  0.3562
   53TMC2    C3  822   0.839   2.932  11.038  0.6627  0.3852  0.8863
   53TMC2    C4  823   0.993   2.811  11.230  0.3151  0.5521  0.7169
   53TMC2    C5  824   0.905   2.913  11.264  1.0393 -0.0584 -0.4075
   53TMC2    C6  825   0.825   2.974  11.164 -0.0527 -0.6829 -0.5138
   53TMC2     C  826   1.062   2.638  11.074 -0.3008 -0.4019 -0.3627
   53TMC2     O  827   1.123   2.607  10.972 -0.1778 -0.1905  0.4053
   53TMC2     H  828   0.933   2.782  10.904  1.5052  1.7803 -0.3599
   53TMC2    H1  829   1.053   2.767  11.309 -1.4737 -1.2819  1.0466
   53TMC2    H2  830   0.766   3.062  11.188 -0.5198 -1.1022 -0.1323
   53TMC2    C7  831   0.877   2.953  11.403 -0.1237  0.2512 -0.2188
   53TMC2    C8  832   0.779   2.999  10.923 -0.0648 -0.3844 -0.0868
   53TMC2    O1  833   0.776   3.014  11.430  0.1494 -0.6649  0.1271
   53TMC2    O2  834   0.769   2.941  10.816 -0.2468 -1.1130 -0.0157
   53TMC2    O5  835   0.801   3.133  10.930 -0.0766  0.5166  0.1145
   53TMC2    H5  836   0.813   3.149  11.026 -0.7473  0.3282  0.2359
   54MPD2     C  837   1.203   2.384  11.138  0.6881  0.7350  0.5022
   54MPD2    C1  838   1.087   2.429  11.203  0.5883 -0.6037  0.9359
   54MPD2    C2  839   1.049   2.360  11.319 -0.1677  0.0045  0.7189
   54MPD2    C3  840   1.115   2.248  11.351  0.1882  0.0797 -0.6509
   54MPD2    C4  841   1.219   2.201  11.278 -0.7933 -0.4689  0.1259
   54MPD2    C5  842   1.266   2.276  11.178  0.2874 -0.3258 -0.1245
   54MPD2     H  843   0.964   2.391  11.378  0.0533 -0.9067  1.5182
   54MPD2    H1  844   1.275   2.111  11.297 -1.1565 -1.4759 -3.4490
   54MPD2    H2  845   1.248   2.434  11.053 -0.6011  1.1029  0.0289
   54MPD2    H3  846   1.362   2.248  11.135  1.2566  2.0544  0.4833
   54MPD2     N  847   1.081   2.173  11.463 -0.2440 -0.0190 -0.4965
   54MPD2    H5  848   1.145   2.096  11.483 -1.5367 -0.2909  2.5050
   54MPD2    N1  849   1.020   2.551  11.172 -0.2647  0.8089  0.5632
   54MPD2    H7  850   0.941   2.583  11.227 -0.7235 -0.0877  0.4224
   55TMC2    C1  851   2.332   1.500  17.701 -0.3848 -0.0247 -0.4953
   55TMC2    C2  852   2.421   1.591  17.735  0.6911 -0.1039  0.5895
   55TMC2    C3  853   2.531   1.561   0.075  0.4642  0.3986  0.6387
   55TMC2    C4  854   2.347   1.373   0.014  0.0072 -0.4677 -0.2774
   55TMC2    C5  855   2.466   1.336   0.075 -0.2067 -0.7669  0.5558
   55TMC2    C6  856   2.557   1.428   0.114 -0.1390 -0.4268 -0.2364
   55TMC2     C  857   2.209   1.538  17.631 -0.4015 -0.0455  0.0619
   55TMC2     O  858   2.099   1.486  17.662  0.3265  0.0008  0.8827
   55TMC2     H  859   2.397   1.696  17.727  1.5452  0.0835  0.4358
   55TMC2    H1  860   2.269   1.307  17.718  0.0274 -0.6166 -0.0470
   55TMC2    H2  861   2.625   1.411   0.196  0.6203  2.1764 -0.3176
   55TMC2    C7  862   2.475   1.208   0.142  0.4313  0.3328  0.3241
   55TMC2    C8  863   2.630   1.665   0.114  0.0111 -0.4263  0.1478
   55TMC2    O1  864   2.587   1.185   0.185 -0.1663 -0.1727 -0.4677
   55TMC2    O2  865   2.697   1.651   0.216 -0.2590 -0.2092  0.0699
   55TMC2    O5  866   2.603   1.779   0.057 -0.0681 -0.1237 -0.0675
   55TMC2    H5  867   2.564   1.775  17.706  0.3677  1.2636 -0.3246
   56MPD2     C  868   2.155   1.813  17.392  0.3408 -0.0319  0.1816
   56MPD2    C1  869   2.127   1.730  17.496 -0.1129  0.2035 -0.6147
   56MPD2    C2  870   1.992   1.729  17.535 -0.2173  0.0195  0.3456
   56MPD2    C3  871   1.887   1.787  17.461 -0.4574 -0.4150  0.0708
   56MPD2    C4  872   1.925   1.870  17.356 -0.0168 -0.0570  0.0602
   56MPD2    C5  873   2.059   1.876  17.320 -0.1733 -0.3570  0.1334
   56MPD2     H  874   1.967   1.664  17.618  0.9160 -1.0592 -0.1556
   56MPD2    H1  875   1.851   1.918  17.293 -0.0584  0.1430  0.2596
   56MPD2    H2  876   2.257   1.818  17.355 -0.9681 -2.1793 -3.6612
   56MPD2    H3  877   2.081   1.911  17.220 -1.3426  1.4139  0.4992
   56MPD2     N  878   1.754   1.745  17.502 -0.1830  0.0716  0.8070
   56MPD2    H5  879   1.753   1.679  17.579 -2.5664  0.1282  0.8370
   56MPD2    N1  880   2.231   1.650  17.553  0.1621  0.6163  0.4710
   56MPD2    H7  881   2.325   1.675  17.524  0.2035 -0.1975 -0.0848
   57TMC2    C1  882   0.807   1.097  13.131  0.3405  0.1700 -0.3868
   57TMC2    C2  883   0.925   1.160  13.100 -0.1191 -0.1207  0.4338
   57TMC2    C3  884   1.017   1.087  13.033  0.1615  0.1483  0.3211
   57TMC2    C4  885   0.789   0.963  13.110  0.0864  0.6088 -0.0135
   57TMC2    C5  886   0.881   0.896  13.035 -0.1294 -0.3541 -0.2298
   57TMC2    C6  887   1.004   0.959  12.998  0.6641 -0.1621 -0.7341
   57TMC2     C  888   0.747   1.159  13.242  1.3855  0.8252 -0.0440
   57TMC2     O  889   0.741   1.279  13.231  0.2248 -0.3989  0.2060
   57TMC2     H  890   0.945   1.261  13.132  1.4316  0.0657 -1.0918
   57TMC2    H1  891   0.688   0.929  13.130  1.8058 -3.0607  2.4360
   57TMC2    H2  892   1.093   0.910  12.962 -0.4044 -1.9564 -0.9259
   57TMC2    C7  893   0.849   0.768  12.978  0.1553  0.4607  0.0009
   57TMC2    C8  894   1.147   1.144  13.009  0.0852  0.5102  0.3153
   57TMC2    O1  895   0.731   0.736  12.977 -0.1464  0.7130 -0.7361
   57TMC2    O2  896   1.241   1.078  12.971  0.0827  0.9551  0.5704
   57TMC2    O5  897   1.126   1.276  12.984  0.1292 -0.5820 -0.0722
   57TMC2    H5  898   1.030   1.295  12.985  0.3646  0.6586 -1.4003
   58MPD2     C  899   0.574   1.195  13.726  0.4647  0.1372 -0.3605
   58MPD2    C1  900   0.633   1.284  13.646  0.0618 -0.3796  0.6575
   58MPD2    C2  901   0.687   1.242  13.523  0.6340  0.1384 -0.6327
   58MPD2    C3  902   0.669   1.117  13.471  0.1887 -0.0799 -0.4646
   58MPD2    C4  903   0.584   1.035  13.543  0.1754 -0.2559  0.1637
   58MPD2    C5  904   0.546   1.070  13.672  0.0456 -0.3882  0.0554
   58MPD2     H  905   0.762   1.306  13.478 -2.1849  1.5914 -3.3058
   58MPD2    H1  906   0.559   0.938  13.500  1.0108 -0.9206  1.1674
   58MPD2    H2  907   0.541   1.221  13.826  0.0411 -0.0003 -0.4620
   58MPD2    H3  908   0.486   1.000  13.729  1.4890 -2.9356 -1.5694
   58MPD2     N  909   0.718   1.075  13.342 -0.3256 -0.3442  0.4385
   58MPD2    H5  910   0.708   0.977  13.320 -1.3100  0.0686 -0.9243
   58MPD2    N1  911   0.668   1.417  13.684 -0.0762  0.0702  0.2527
   58MPD2    H7  912   0.707   1.479  13.613 -0.7049 -0.1468 -0.2866
   59TMC2    C1  913   3.681   1.467  12.724 -0.6304 -0.2783  0.2043
   59TMC2    C2  914   3.794   1.548  12.701  0.1319  0.4539  0.3914
   59TMC2    C3  915   3.805   1.591  12.576 -0.2157 -0.0483  0.1930
   59TMC2    C4  916   3.601   1.415  12.627  0.1608  0.0197 -0.3982
   59TMC2    C5  917   3.630   1.458  12.501  0.2127 -0.3912  0.0896
   59TMC2    C6  918   3.726   1.554  12.473  1.4253  0.2098 -0.1023
   59TMC2     C  919   3.639   1.434  12.857  0.0064  0.1492  0.4020
   59TMC2     O  920   3.526   1.395  12.876 -0.3011  0.0820  0.1741
   59TMC2     H  921   3.872   1.575  12.770  0.9666 -0.3683 -0.2186
   59TMC2    H1  922   3.509   1.364  12.651  1.1320 -1.2504  0.6246
   59TMC2    H2  923   3.748   1.579  12.370  0.3831  0.7831 -0.1898
   59TMC2    C7  924   3.562   1.406  12.388  0.8126  0.1610  0.1561
   59TMC2    C8  925   3.928   1.643  12.532  0.3156  0.2573  0.1835
   59TMC2    O1  926   3.536   1.287  12.402 -0.2776 -0.9880 -0.1989
   59TMC2    O2  927   3.931   1.723  12.436 -0.0405  0.0986 -0.6767
   59TMC2    O5  928   4.013   1.541  12.551  0.4420 -0.1651 -0.1041
   59TMC2    H5  929   3.975   1.459  12.590 -0.1358  0.5691  0.8900
   60MPD2     C  930   3.604   1.508  13.143  0.8265  0.3131 -0.1508
   60MPD2    C1  931   3.730   1.496  13.081 -0.5084 -0.5012 -1.3130
   60MPD2    C2  932   3.850   1.507  13.148  0.5907  0.3351 -0.1408
   60MPD2    C3  933   3.840   1.563  13.277 -0.5279  0.4099  1.2296
   60MPD2    C4  934   3.718   1.595  13.329  0.0542  0.0859 -0.2355
   60MPD2    C5  935   3.605   1.556  13.265  0.4502 -0.2448  0.3903
   60MPD2     H  936   3.945   1.487  13.099  0.2581  0.9106 -1.0262
   60MPD2    H1  937   3.714   1.639  13.428  0.2600  0.2898 -0.3197
   60MPD2    H2  938   3.506   1.492  13.098  1.1188 -1.5522 -0.0932
   60MPD2    H3  939   3.505   1.565  13.307  0.8854  1.7530  0.9579
   60MPD2     N  940   3.957   1.595  13.350 -0.8177 -0.1022  0.6638
   60MPD2    H5  941   3.934   1.631  13.442  1.5379  0.7849  0.9113
   60MPD2    N1  942   3.739   1.476  12.943 -0.3657  0.0886 -0.2079
   60MPD2    H7  943   3.832   1.483  12.902 -0.5666  1.6247 -0.4004
   61TMC2    C1  944   2.832   3.557  15.806 -0.2277  0.1062 -0.1444
   61TMC2    C2  945   2.747   3.539  15.903 -0.8570 -0.3282  0.1294
   61TMC2    C3  946   2.631   3.611  15.896  1.0511  0.3985 -0.3071
   61TMC2    C4  947   2.816   3.652  15.708  0.7130  0.2377  0.1582
   61TMC2    C5  948   2.698   3.723  15.695  0.6587 -0.5236  0.0241
   61TMC2    C6  949   2.603   3.692  15.786 -0.1980  0.0695 -0.6632
   61TMC2     C  950   2.920   3.454  15.783  0.0063 -0.0778 -0.0162
   61TMC2     O  951   2.955   3.388  15.882  0.3251  0.2676 -0.2487
   61TMC2     H  952   2.739   3.452  15.968 -1.4555 -0.0448  0.4342
   61TMC2    H1  953   2.898   3.680  15.642 -0.5048 -0.4192 -1.6380
   61TMC2    H2  954   2.516   3.755  15.801  0.4757  0.8336  0.0386
   61TMC2    C7  955   2.683   3.820  15.594  0.6172  0.7478 -0.2124
   61TMC2    C8  956   2.507   3.560  15.958 -0.2436 -0.2059 -0.2351
   61TMC2    O1  957   2.775   3.829  15.517 -0.2664 -0.7494 -0.1281
   61TMC2    O2  958   2.425   3.624  16.019  0.3276  0.7099  0.1242
   61TMC2    O5  959   2.473   3.452  15.886 -0.5332  0.0216  0.2135
   61TMC2    H5  960   2.541   3.426  15.821 -1.5906 -1.3739 -0.3456
   62MPD2     C  961   3.114   3.259  15.681 -0.2911  0.6007  0.0040
   62MPD2    C1  962   3.034   3.339  15.600  0.6711 -0.0454  0.5079
   62MPD2    C2  963   3.040   3.324  15.466 -1.2388 -0.4439 -0.4258
   62MPD2    C3  964   3.105   3.218  15.408 -0.4082 -0.1532  0.5285
   62MPD2    C4  965   3.175   3.135  15.491 -0.6353 -0.6769  0.1119
   62MPD2    C5  966   3.188   3.158  15.621 -0.1590  0.0121 -1.0581
   62MPD2     H  967   2.982   3.394  15.405  0.5753 -0.1113 -1.7828
   62MPD2    H1  968   3.229   3.046  15.460  2.1077  1.0376 -0.0760
   62MPD2    H2  969   3.128   3.265  15.788  0.7074 -0.2182 -0.0759
   62MPD2    H3  970   3.244   3.090  15.684 -2.1489 -0.4461  0.2068
   62MPD2     N  971   3.124   3.193  15.264 -0.7868  0.4970 -0.8787
   62MPD2    H5  972   3.156   3.098  15.251 -0.2752  0.3550  1.3278
   62MPD2    N1  973   2.945   3.437  15.647  0.3996 -0.5213  0.4582
   62MPD2    H7  974   2.878   3.476  15.581  0.3046 -1.9381 -0.2710
   63TMC2    C1  975   2.101   3.173  10.176  0.2979 -0.0846  0.3344
   63TMC2    C2  976   2.137   3.119  10.299  0.1902  0.7474  0.0078
   63TMC2    C3  977   2.213   3.194  10.385 -0.0348 -1.2215  0.5089
   63TMC2    C4  978   2.139   3.301  10.141  0.1538  0.1671  0.2919
   63TMC2    C5  979   2.216   3.366  10.232  0.2991  0.1257  0.9354
   63TMC2    C6  980   2.246   3.322  10.357  0.6484  0.0064 -0.1640
   63TMC2     C  981   2.027   3.099  10.074 -0.5708  0.9260  0.3310
   63TMC2     O  982   1.978   3.157   9.976  0.1945 -0.4053 -0.4456
   63TMC2     H  983   2.107   3.021  10.333  1.7727  1.1630  2.6130
   63TMC2    H1  984   2.108   3.342  10.046  1.3265  0.4996  0.0543
   63TMC2    H2  985   2.302   3.383  10.427  1.7592 -0.2572 -0.8191
   63TMC2    C7  986   2.231   3.506  10.207  0.0500 -0.4871 -0.2292
   63TMC2    C8  987   2.273   3.136  10.506 -0.1895 -0.1539 -0.1604
   63TMC2    O1  988   2.228   3.533  10.088 -0.2401 -0.5933 -0.2446
   63TMC2    O2  989   2.255   3.019  10.523 -0.3746  0.0104 -0.0171
   63TMC2    O5  990   2.385   3.204  10.556  0.1886 -0.2669  0.3105
   63TMC2    H5  991   2.413   3.272  10.491 -0.7216  0.5544  0.7868
   64MPD2     C  992   1.833   2.683   9.843  0.4750  0.9196  0.4321
   64MPD2    C1  993   1.915   2.638   9.944 -0.3700 -0.7104 -0.2989
   64MPD2    C2  994   1.976   2.727  10.031 -0.3780  0.0585 -0.3416
   64MPD2    C3  995   1.956   2.866  10.012 -0.4016 -0.9065  0.1123
   64MPD2    C4  996   1.860   2.907   9.919 -0.4348 -0.2910  0.1970
   64MPD2    C5  997   1.794   2.811   9.841 -0.8326  0.5358  0.3522
   64MPD2     H  998   2.036   2.691  10.113 -0.8931 -1.0566 -0.4636
   64MPD2    H1  999   1.828   3.010   9.911  0.9333  0.1650  0.7577
   64MPD2    H2 1000   1.775   2.618   9.778  1.3173  2.6566 -2.0391
   64MPD2    H3 1001   1.710   2.839   9.778 -0.6006  0.5199  0.0366
   64MPD2     N 1002   2.024   2.960  10.095  0.0196  0.4726  0.2630
   64MPD2    H5 1003   2.079   2.922  10.170  1.9099  0.7466 -0.9836
   64MPD2    N1 1004   1.954   2.504   9.961  0.1729  0.0619 -0.3981
   64MPD2    H7 1005   2.024   2.480  10.030 -2.5438 -1.5463  1.8408
   65TMC2    C1 1006   3.534   3.012  15.317  0.5531 -0.2068  0.1694
   65TMC2    C2 1007   3.566   2.952  15.196 -0.0142  0.1184  0.4655
   65TMC2    C3 1008   3.549   3.032  15.086  0.4325 -1.3814  0.0365
   65TMC2    C4 1009   3.477   3.143  15.330  0.0438  0.8427  1.1333
   65TMC2    C5 1010   3.478   3.217  15.215  0.2714 -0.1202 -0.1222
   65TMC2    C6 1011   3.509   3.164  15.092 -0.4254 -0.3835  0.3174
   65TMC2     C 1012   3.539   2.929  15.438  0.0580 -1.1133  0.2655
   65TMC2     O 1013   3.507   2.986  15.542 -0.6097  0.2712  0.7014
   65TMC2     H 1014   3.627   2.864  15.185 -0.0285 -0.1587  2.4644
   65TMC2    H1 1015   3.437   3.170  15.427 -1.8504 -1.6535  1.0348
   65TMC2    H2 1016   3.502   3.228  15.005  1.2865 -1.7350 -0.8353
   65TMC2    C7 1017   3.448   3.356  15.212  0.8250 -0.5274  0.7227
   65TMC2    C8 1018   3.554   2.970  14.957 -0.1766  0.0756 -0.5238
   65TMC2    O1 1019   3.477   3.412  15.105 -0.1204  0.0457  0.1214
   65TMC2    O2 1020   3.550   2.848  14.943  0.3568  0.0853 -0.0593
   65TMC2    O5 1021   3.608   3.056  14.859 -0.1473 -0.6065 -0.2017
   65TMC2    H5 1022   3.657   3.136  14.886 -1.0398  0.2804 -1.2521
   66MPD2     C 1023   3.562   2.704  15.635  0.1977 -0.2747  0.9347
   66MPD2    C1 1024   3.543   2.693  15.499  0.1993 -0.0691  0.7574
   66MPD2    C2 1025   3.528   2.566  15.440 -0.5440  0.3143 -0.5056
   66MPD2    C3 1026   3.534   2.445  15.517  0.1841  0.3153 -0.2903
   66MPD2    C4 1027   3.554   2.463  15.652  0.6476  0.3660  0.0099
   66MPD2    C5 1028   3.576   2.588  15.707  0.2765  0.3468  0.8052
   66MPD2     H 1029   3.517   2.573  15.333  0.6236  1.0828 -0.5757
   66MPD2    H1 1030   3.552   2.377  15.719  0.2928  0.3290 -0.0499
   66MPD2    H2 1031   3.583   2.797  15.688 -0.6534  0.3917  0.1009
   66MPD2    H3 1032   3.597   2.594  15.813 -0.0300 -1.0865  0.9426
   66MPD2     N 1033   3.518   2.313  15.460 -0.2258  0.0775  1.0796
   66MPD2    H5 1034   3.527   2.239  15.529  0.4315 -1.3151 -0.5048
   66MPD2    N1 1035   3.544   2.799  15.406  0.0387  0.4465 -0.2379
   66MPD2    H7 1036   3.548   2.775  15.307  1.4717  1.5448 -0.4555
   67TMC2    C1 1037   3.927   2.167  14.003  0.1439  0.7778 -0.0908
   67TMC2    C2 1038   3.860   2.275  14.042  1.1713 -0.1777  0.4753
   67TMC2    C3 1039   3.890   2.324  14.164 -0.1204 -0.6004  0.1604
   67TMC2    C4 1040   4.018   2.098  14.083 -0.1750  0.0550 -0.2140
   67TMC2    C5 1041   4.036   2.142  14.214 -0.2487 -0.0330  0.2579
   67TMC2    C6 1042   3.983   2.264  14.245  0.0840 -0.0635 -0.1765
   67TMC2     C 1043   3.875   2.104  13.884 -0.5538  0.3854 -0.6626
   67TMC2     O 1044   3.951   2.014  13.846 -0.4875  0.2213  0.6559
   67TMC2     H 1045   3.795   2.329  13.974 -0.4631 -1.4528  1.0304
   67TMC2    H1 1046   4.054   1.999  14.058  0.1260 -0.5941  2.7553
   67TMC2    H2 1047   4.011   2.302  14.342  0.5384 -1.7572  0.3684
   67TMC2    C7 1048   4.104   2.054  14.308  0.4423  0.4866  0.5860
   67TMC2    C8 1049   3.790   2.417  14.214  0.3794  0.3923  0.1842
   67TMC2    O1 1050   4.207   2.007  14.263 -0.6571 -1.0422 -0.2522
   67TMC2    O2 1051   3.686   2.439  14.154  0.3609  0.2715 -0.7674
   67TMC2    O5 1052   3.854   2.507  14.290 -0.1621 -0.4151 -0.2790
   67TMC2    H5 1053   3.948   2.488  14.311 -1.0176 -2.1093  1.9261
   68MPD2     C 1054   3.745   2.028  13.623  0.0637 -0.0638  0.1411
   68MPD2    C1 1055   3.702   2.127  13.709 -0.3739  0.4108 -0.5984
   68MPD2    C2 1056   3.574   2.168  13.713  0.3596 -0.8996 -0.4980
   68MPD2    C3 1057   3.492   2.142  13.605  0.5814 -0.2341  0.0436
   68MPD2    C4 1058   3.533   2.039  13.520 -0.5327 -0.2328 -0.3630
   68MPD2    C5 1059   3.654   1.981  13.535 -0.8753 -0.1635 -0.4110
   68MPD2     H 1060   3.540   2.231  13.794  3.8984 -0.3574  0.5687
   68MPD2    H1 1061   3.464   2.006  13.443  0.3851 -0.0083 -1.2820
   68MPD2    H2 1062   3.841   1.979  13.630 -0.7559 -1.9273 -1.7026
   68MPD2    H3 1063   3.672   1.901  13.465  1.5835  0.4946 -0.5123
   68MPD2     N 1064   3.371   2.202  13.581  0.0709  0.2476  0.0382
   68MPD2    H5 1065   3.318   2.153  13.510 -0.8379  0.8068  0.3230
   68MPD2    N1 1066   3.779   2.172  13.820  0.9250  0.4697  0.1853
   68MPD2    H7 1067   3.732   2.241  13.878 -1.4757 -1.3729  0.4473
   69TMC2    C1 1068   0.788   2.478  12.067 -0.2739  0.3841 -0.2290
   69TMC2    C2 1069   0.683   2.509  11.980 -0.3441  0.1808 -0.0070
   69TMC2    C3 1070   0.708   2.506  11.840 -0.4924 -0.0740  0.8157
   69TMC2    C4 1071   0.905   2.435  12.020 -0.1859  0.4396 -0.0413
   69TMC2    C5 1072   0.925   2.443  11.883  0.5113 -0.3101  0.1549
   69TMC2    C6 1073   0.833   2.472  11.787  0.6733 -0.2029 -0.0223
   69TMC2     C 1074   0.744   2.485  12.213 -0.1737  0.0121  0.0141
   69TMC2     O 1075   0.639   2.543  12.238 -0.0630 -0.2391  0.0984
   69TMC2     H 1076   0.581   2.528  12.012 -0.6991  1.2206 -1.7261
   69TMC2    H1 1077   0.994   2.420  12.080  0.5199  1.2272 -0.8719
   69TMC2    H2 1078   0.838   2.460  11.680 -1.6784  2.2524 -0.4241
   69TMC2    C7 1079   1.056   2.419  11.837  0.5327 -0.0712 -0.2539
   69TMC2    C8 1080   0.612   2.552  11.743 -0.3353 -0.5727  0.0412
   69TMC2    O1 1081   1.130   2.338  11.900 -0.3123 -0.4158  0.1375
   69TMC2    O2 1082   0.642   2.577  11.624  0.0086 -0.0079 -0.0053
   69TMC2    O5 1083   0.497   2.588  11.805 -0.2054  0.0961  0.0655
   69TMC2    H5 1084   0.470   2.542  11.887 -1.1053  1.2708  0.4150
   70MPD2     C 1085   0.973   2.366  12.482  0.0219 -0.9832  0.3896
   70MPD2    C1 1086   0.862   2.435  12.434  0.0945 -0.3267 -0.0666
   70MPD2    C2 1087   0.778   2.507  12.516 -0.2548  0.0150  0.2520
   70MPD2    C3 1088   0.806   2.515  12.650 -0.0552  0.1687 -0.1653
   70MPD2    C4 1089   0.919   2.445  12.696  0.8568 -0.4515 -0.5261
   70MPD2    C5 1090   1.003   2.385  12.610 -0.0585  0.6527 -0.0664
   70MPD2     H 1091   0.690   2.555  12.474  0.5512  1.9146  0.7090
   70MPD2    H1 1092   0.943   2.445  12.802  1.0973 -0.7097 -0.5846
   70MPD2    H2 1093   1.025   2.297  12.417 -1.4150 -1.2456 -0.4883
   70MPD2    H3 1094   1.088   2.329  12.649 -0.3085 -0.5831 -1.2659
   70MPD2     N 1095   0.733   2.581  12.742 -0.3145 -0.6500 -0.2279
   70MPD2    H5 1096   0.761   2.581  12.840 -4.1022 -1.9496  0.8491
   70MPD2    N1 1097   0.844   2.434  12.293  0.0156  0.0205  0.3277
   70MPD2    H7 1098   0.925   2.390  12.250 -0.0531  2.3088 -2.1803
   71TMC2    C1 1099   3.506   3.883   0.954  0.4902 -0.2787  0.3260
   71TMC2    C2 1100   3.641   3.841   0.958  0.5776 -0.5371 -0.4926
   71TMC2    C3 1101   3.726   3.875   1.060 -0.1936  0.0995  0.0724
   71TMC2    C4 1102   3.465   3.971   1.048 -0.0424  0.1361 -0.0326
   71TMC2    C5 1103   3.556   4.006   1.151  0.0796 -0.1970 -0.0687
   71TMC2    C6 1104   3.687   3.969   1.153 -0.0736 -0.4241  0.6861
   71TMC2     C 1105   3.413   3.848   0.850 -0.5703  0.5367 -0.7284
   71TMC2     O 1106   3.300   3.898   0.852 -0.0493  0.1037  0.0989
   71TMC2     H 1107   3.685   3.772   0.887  0.0413 -0.2968 -1.0627
   71TMC2    H1 1108   3.365   4.007   1.030 -0.2550 -0.4412 -0.0266
   71TMC2    H2 1109   3.747   3.999   1.238 -0.2553  0.4135  0.5135
   71TMC2    C7 1110   3.509   4.091   1.255  0.3784 -0.7008  0.0860
   71TMC2    C8 1111   3.870   3.826   1.045 -0.2163  0.2849  0.3361
   71TMC2    O1 1112   3.586   4.144   1.332  0.4310 -0.0172  0.0119
   71TMC2    O2 1113   3.899   3.741   0.958  0.6776 -0.5579  0.4719
   71TMC2    O5 1114   3.948   3.932   1.067  0.3113 -0.1761 -0.3383
   71TMC2    H5 1115   3.902   3.987   1.135  1.0906 -1.2700  1.0627
   72MPD2     C 1116   3.211   3.627   0.442 -0.4255  0.8228  0.6755
   72MPD2    C1 1117   3.231   3.763   0.471  0.3902 -0.1612 -0.2284
   72MPD2    C2 1118   3.309   3.795   0.579  0.7956 -0.3731  0.2458
   72MPD2    C3 1119   3.369   3.698   0.662 -0.4085 -0.6451  0.2039
   72MPD2    C4 1120   3.353   3.564   0.629  0.5697  0.0069 -0.2401
   72MPD2    C5 1121   3.273   3.538   0.523 -0.2697 -0.4530  0.0313
   72MPD2     H 1122   3.312   3.902   0.599  0.9100 -0.4660  0.7121
   72MPD2    H1 1123   3.406   3.489   0.686  0.5384  1.9146  2.2644
   72MPD2    H2 1124   3.150   3.595   0.358 -0.9548 -0.1980  1.4406
   72MPD2    H3 1125   3.277   3.435   0.488  0.7911 -0.2723 -0.3729
   72MPD2     N 1126   3.447   3.739   0.770  0.7600 -0.2182  0.4144
   72MPD2    H5 1127   3.518   3.673   0.800  0.4810  0.2160  2.0175
   72MPD2    N1 1128   3.170   3.872   0.397  0.3657 -0.0504  0.3023
   72MPD2    H7 1129   3.195   3.967   0.423 -0.3985  0.1397  0.3191
   73TMC2    C1 1130   2.550   1.027  13.677 -0.4680  0.0028  0.5055
   73TMC2    C2 1131   2.443   1.063  13.754 -0.5244  0.1193 -1.1908
   73TMC2    C3 1132   2.376   0.962  13.804  0.2740  0.0167  0.8647
   73TMC2    C4 1133   2.583   0.891  13.655  0.3636 -0.3649 -0.1219
   73TMC2    C5 1134   2.507   0.788  13.708 -0.0952 -0.6376  0.2168
   73TMC2    C6 1135   2.400   0.824  13.786  0.3939 -0.0453  0.8163
   73TMC2     C 1136   2.673   1.095  13.704  0.1550 -0.0511 -0.2698
   73TMC2     O 1137   2.759   1.020  13.753 -0.1342  0.1643 -0.2146
   73TMC2     H 1138   2.423   1.169  13.766 -0.4401  0.1907 -1.6795
   73TMC2    H1 1139   2.665   0.867  13.589 -2.4064 -1.8849 -3.0293
   73TMC2    H2 1140   2.336   0.754  13.837 -1.9635  1.3855 -0.1713
   73TMC2    C7 1141   2.593   0.680  13.757  0.0291  0.1371  0.1623
   73TMC2    C8 1142   2.278   1.001  13.900 -0.7966 -0.2158 -0.5518
   73TMC2    O1 1143   2.550   0.568  13.741 -0.1623 -0.0532 -0.1328
   73TMC2    O2 1144   2.227   1.109  13.906 -0.0627  0.0489  0.0542
   73TMC2    O5 1145   2.271   0.912  13.999 -0.3479  0.1291  0.2472
   73TMC2    H5 1146   2.341   0.844  13.992  1.8509  2.3702  0.2961
   74MPD2     C 1147   2.998   1.484  13.640  0.0287  0.5025 -0.2692
   74MPD2    C1 1148   3.007   1.365  13.709 -0.0900  0.3282 -0.0545
   74MPD2    C2 1149   2.893   1.277  13.712  0.2940 -0.3617 -0.6852
   74MPD2    C3 1150   2.778   1.314  13.657  0.1621 -1.1461  0.4992
   74MPD2    C4 1151   2.771   1.439  13.605 -0.0042  1.2094  0.2414
   74MPD2    C5 1152   2.876   1.521  13.594 -0.2025 -0.1434  0.4400
   74MPD2     H 1153   2.909   1.178  13.751 -0.1650  1.0365  3.0257
   74MPD2    H1 1154   2.676   1.468  13.561  0.1792  1.5491  0.0594
   74MPD2    H2 1155   3.085   1.547  13.629 -0.4210  1.1577 -0.0889
   74MPD2    H3 1156   2.862   1.619  13.550 -1.1315 -0.6830 -0.4478
   74MPD2     N 1157   2.666   1.222  13.659 -0.1797 -0.1744 -0.4981
   74MPD2    H5 1158   2.581   1.247  13.609 -0.0297 -4.4095 -2.8807
   74MPD2    N1 1159   3.137   1.319  13.745 -0.6840  0.0768 -0.1984
   74MPD2    H7 1160   3.212   1.386  13.729  0.9627 -1.0357  2.9018
   75TMC2    C1 1161   3.172   2.336  13.636 -0.0538 -0.5914  0.6646
   75TMC2    C2 1162   3.118   2.417  13.731  0.2543 -0.0228 -0.5027
   75TMC2    C3 1163   2.981   2.447  13.711 -0.9612 -0.2900 -0.1370
   75TMC2    C4 1164   3.100   2.287  13.528  0.9829 -0.3044  0.6905
   75TMC2    C5 1165   2.969   2.326  13.521  0.3605 -0.3365  0.4147
   75TMC2    C6 1166   2.904   2.402  13.615 -0.0228  0.0251 -0.1991
   75TMC2     C 1167   3.316   2.310  13.655 -0.5001 -0.0194 -0.2969
   75TMC2     O 1168   3.373   2.392  13.723 -0.3796 -1.2158  0.0932
   75TMC2     H 1169   3.166   2.463  13.817  0.7361  1.4924 -1.5686
   75TMC2    H1 1170   3.145   2.243  13.440 -1.3291  1.1042 -1.2130
   75TMC2    H2 1171   2.809   2.452  13.609 -0.0064  0.1412  0.5400
   75TMC2    C7 1172   2.898   2.300  13.398  0.1256  0.0252 -0.1943
   75TMC2    C8 1173   2.918   2.516  13.823  0.1989  0.1714  0.1339
   75TMC2    O1 1174   2.965   2.251  13.308 -0.5487  0.4635 -0.2706
   75TMC2    O2 1175   2.800   2.511  13.841 -0.3253  0.4740  0.7277
   75TMC2    O5 1176   2.988   2.632  13.817 -0.1925 -0.1769  0.5558
   75TMC2    H5 1177   3.063   2.645  13.756 -0.5842 -0.1107  0.0846
   76TMC2    C1 1178   2.212   1.482  12.055  0.0528 -0.1433  0.0891
   76TMC2    C2 1179   2.132   1.370  12.069 -0.9129  0.0070  0.1458
   76TMC2    C3 1180   2.188   1.255  12.108  0.2592  0.7740  0.1794
   76TMC2    C4 1181   2.343   1.478  12.092  0.0651  0.1040  0.7175
   76TMC2    C5 1182   2.394   1.361  12.139 -0.7721  0.0449  0.6326
   76TMC2    C6 1183   2.317   1.247  12.149  0.7400 -0.3083 -0.9393
   76TMC2     C 1184   2.172   1.595  11.963  0.3789 -0.2052  0.1441
   76TMC2     O 1185   2.070   1.571  11.897 -0.4233 -0.1970 -0.0559
   76TMC2     H 1186   2.032   1.378  12.027 -0.1610 -0.8450 -1.8438
   76TMC2    H1 1187   2.404   1.562  12.064 -1.3321  0.4634 -1.2589
   76TMC2    H2 1188   2.367   1.162  12.193  1.0215  0.1547 -0.3693
   76TMC2    C7 1189   2.532   1.343  12.161  0.1605  0.6487 -0.0891
   76TMC2    C8 1190   2.111   1.135  12.076  0.3676 -0.4155  0.0591
   76TMC2    O1 1191   2.579   1.233  12.134  0.1430  0.4177  0.5227
   76TMC2    O2 1192   2.017   1.132  11.999  0.4638 -0.2063 -1.0533
   76TMC2    O5 1193   2.160   1.040  12.168  0.0158  0.8562 -0.1765
   76TMC2    H5 1194   2.195   1.081  12.250  2.9085 -1.5546 -0.1946
   77MPD2     C 1195   2.150   2.076  11.790  0.3573 -0.9870 -0.8165
   77MPD2    C1 1196   2.058   1.974  11.787  0.0803 -0.4328 -0.3612
   77MPD2    C2 1197   2.085   1.858  11.855  0.6305 -0.1830 -0.2352
   77MPD2    C3 1198   2.200   1.836  11.928  0.5533 -0.3281 -0.1910
   77MPD2    C4 1199   2.288   1.938  11.926  0.0695  0.3292 -0.3713
   77MPD2    C5 1200   2.262   2.052  11.862 -0.4028  0.7055 -0.2432
   77MPD2     H 1201   2.010   1.780  11.857 -1.7833  2.1763  1.4235
   77MPD2    H1 1202   2.392   1.926  11.956 -0.8960  0.0166  2.8053
   77MPD2    H2 1203   2.134   2.174  11.746 -0.6490 -0.3354  0.9631
   77MPD2    H3 1204   2.340   2.127  11.856  0.9878 -0.7290 -0.1020
   77MPD2     N 1205   2.240   1.712  11.979  0.0093  0.1080 -0.5190
   77MPD2    H5 1206   2.326   1.715  12.034 -0.7881 -2.1948  0.8610
   77MPD2    N1 1207   1.938   1.980  11.711 -0.4156 -0.3199  0.5271
   77MPD2    H7 1208   1.881   1.895  11.711 -0.5460 -0.2292  1.9692
   78TMC2    C1 1209   4.354   4.629   1.514 -0.2041 -0.5019  0.5859
   78TMC2    C2 1210   4.272   4.589   1.613 -0.2148 -0.5790  0.2690
   78TMC2    C3 1211   4.218   4.462   1.614  0.4306 -0.3858  0.3544
   78TMC2    C4 1212   4.358   4.554   1.401 -0.1514 -0.7246  0.1803
   78TMC2    C5 1213   4.312   4.428   1.412  0.3352  0.7470  0.8015
   78TMC2    C6 1214   4.229   4.384   1.508 -0.3872  0.0650  0.6927
   78TMC2     C 1215   4.381   0.036   1.521 -0.0680  0.5694  0.9017
   78TMC2     O 1216   4.357   0.100   1.627  0.5727  0.1635 -0.2830
   78TMC2     H 1217   4.282   4.640   1.708 -1.2646 -0.7872  0.4895
   78TMC2    H1 1218   4.420   4.581   1.316 -2.1415  0.9649 -0.7438
   78TMC2    H2 1219   4.192   4.282   1.514 -2.6566  0.7946 -0.7519
   78TMC2    C7 1220   4.338   4.334   1.306 -0.3462 -0.9767 -0.9077
   78TMC2    C8 1221   4.199   4.397   1.746 -0.1303  0.6793  1.0966
   78TMC2    O1 1222   4.244   4.260   1.281  0.0885 -0.0897 -0.4152
   78TMC2    O2 1223   4.232   4.455   1.848 -0.4686 -0.6131 -0.3452
   78TMC2    O5 1224   4.125   4.289   1.739  0.6400 -0.1010 -0.2602
   78TMC2    H5 1225   4.083   4.269   1.653 -0.1873 -0.0554  0.1327
   79MPD1     C 1226   4.486   0.494   1.282  0.4648  0.8653  0.1887
   79MPD1    C1 1227   4.472   0.454   1.416 -0.7312 -0.0500 -0.2734
   79MPD1    C2 1228   4.455   0.325   1.450 -0.5278 -0.5169  0.1359
   79MPD1    C3 1229   4.446   0.219   1.360  0.5374 -0.7554 -0.4722
   79MPD1    C4 1230   4.463   0.255   1.227  0.2548 -0.6394  0.5246
   79MPD1    C5 1231   4.477   0.389   1.193 -0.6595 -0.4599  0.7075
   79MPD1     H 1232   4.459   0.308   1.557  0.8501 -0.4132  0.0929
   79MPD1    H1 1233   4.449   0.182   1.148 -0.8859  0.2513 -0.0912
   79MPD1    H2 1234   4.503   0.599   1.262 -1.2420  0.9275 -0.9200
   79MPD1    H3 1235   4.485   0.413   1.088 -1.9290  1.4614  1.0526
   79MPD1     N 1236   4.415   0.085   1.394  0.1273  1.0407 -0.6594
   79MPD1    H5 1237   4.408   0.014   1.322  0.5392 -1.4620  1.7783
   79MPD1    N1 1238   4.487   0.551   1.514 -0.1678 -0.0268 -0.1704
   79MPD1    H6 1239   4.489   0.647   1.482 -1.0371  0.5694  1.5090
   79MPD1    H7 1240   4.415   0.544   1.586  2.1577 -3.6249  1.7878
   80TMC2    C1 1241   0.937   1.635  12.007 -1.5030 -0.0892 -0.1379
   80TMC2    C2 1242   0.964   1.692  11.886 -0.0993 -0.2888  0.2115
   80TMC2    C3 1243   0.871   1.689  11.790 -0.4926  0.6497 -0.0474
   80TMC2    C4 1244   0.816   1.577  12.032 -0.5028  0.3033 -0.1885
   80TMC2    C5 1245   0.726   1.577  11.933  0.5658 -0.3204 -0.6834
   80TMC2    C6 1246   0.749   1.641  11.815 -0.9397  0.3090  0.4845
   80TMC2     C 1247   1.054   1.631  12.091  0.5119 -0.1389 -1.3380
   80TMC2     O 1248   1.155   1.602  12.032 -0.2562  0.2459 -0.0615
   80TMC2     H 1249   1.057   1.747  11.876  1.6868 -3.4067 -0.2382
   80TMC2    H1 1250   0.811   1.517  12.123 -1.1426 -0.0859 -0.4833
   80TMC2    H2 1251   0.684   1.641  11.727 -1.4414  0.4652  0.8523
   80TMC2    C7 1252   0.619   1.473  11.934  0.3048  0.2929  0.0445
   80TMC2    C8 1253   0.892   1.776  11.677 -0.1400 -0.1264 -0.3566
   80TMC2    O1 1254   0.551   1.459  11.836 -0.2424  0.2095  0.0721
   80TMC2    O2 1255   0.813   1.860  11.627 -0.1748 -0.1496 -0.3355
   80TMC2    O5 1256   1.024   1.770  11.645 -0.1917  0.7767  0.3577
   80TMC2    H5 1257   1.065   1.694  11.693 -2.2021 -1.1248 -0.9375
   81MPD2     C 1258   1.232   1.606  12.342  0.4854  0.5111  0.5433
   81MPD2    C1 1259   1.113   1.671  12.331 -0.5519  0.1084 -0.6071
   81MPD2    C2 1260   1.071   1.726  12.449 -0.1567  0.2211 -0.2257
   81MPD2    C3 1261   1.146   1.731  12.567 -0.2546  0.1416 -0.1583
   81MPD2    C4 1262   1.255   1.653  12.572  0.1424 -0.1846  0.1575
   81MPD2    C5 1263   1.300   1.597  12.455 -0.2846 -0.9233  0.7056
   81MPD2     H 1264   0.970   1.767  12.447 -0.1306  0.4245  2.4137
   81MPD2    H1 1265   1.311   1.661  12.664 -1.3841  1.7305  0.9170
   81MPD2    H2 1266   1.281   1.578  12.249  0.7930 -1.2899  1.2610
   81MPD2    H3 1267   1.392   1.539  12.461 -0.8980 -1.9869 -0.4459
   81MPD2     N 1268   1.097   1.793  12.682 -0.9498  0.0998 -0.0290
   81MPD2    H5 1269   1.139   1.765  12.770  0.5808 -1.4941 -1.2648
   81MPD2    N1 1270   1.026   1.671  12.221 -0.2698 -0.1058  0.1561
   81MPD2    H7 1271   0.934   1.705  12.248 -0.2970 -1.4707  1.7678
   82TMC2    C1 1272   3.920   1.316  10.730  0.0361  1.5423  0.2406
   82TMC2    C2 1273   4.042   1.373  10.697 -0.2978 -0.3828 -0.1814
   82TMC2    C3 1274   4.154   1.317  10.747 -0.0588  0.1673 -0.0944
   82TMC2    C4 1275   3.911   1.228  10.832 -0.0637  0.1880  0.1061
   82TMC2    C5 1276   4.026   1.174  10.874  0.0360  0.0794  0.2122
   82TMC2    C6 1277   4.147   1.212  10.837  0.2656 -0.1879  0.9286
   82TMC2     C 1278   3.800   1.385  10.696  0.2090 -0.0004  0.2617
   82TMC2     O 1279   3.694   1.327  10.712 -0.0785 -0.6896  0.3922
   82TMC2     H 1280   4.063   1.453  10.626 -1.4806  0.8533  0.8591
   82TMC2    H1 1281   3.812   1.205  10.869 -1.5582  2.2249 -2.5569
   82TMC2    H2 1282   4.228   1.145  10.863  0.9089  0.4845  0.6290
   82TMC2    C7 1283   4.016   1.109  11.004  0.1858  0.3591 -0.2912
   82TMC2    C8 1284   4.275   1.343  10.670 -0.6777  0.0504 -0.5788
   82TMC2    O1 1285   3.926   1.028  11.017  0.2318  0.3262  0.2417
   82TMC2    O2 1286   4.263   1.366  10.551  0.2056 -0.0762 -0.2803
   82TMC2    O5 1287   4.380   1.278  10.723  0.1160  0.0442 -0.4497
   82TMC2    H5 1288   4.371   1.284  10.821  0.3913 -2.7542 -0.2411
   83MPD2     C 1289   3.568   1.761  10.446  0.3046 -0.0101 -0.1773
   83MPD2    C1 1290   3.519   1.639  10.483 -0.0938  0.5166  0.0257
   83MPD2    C2 1291   3.601   1.556  10.555  0.2104  0.0981 -0.0194
   83MPD2    C3 1292   3.736   1.594  10.579  0.0295  0.3106 -0.1801
   83MPD2    C4 1293   3.784   1.717  10.537  0.5126 -0.0242 -0.7644
   83MPD2    C5 1294   3.701   1.794  10.463 -0.0808  0.8152  0.2414
   83MPD2     H 1295   3.568   1.459  10.589 -1.3805  0.4394 -0.6166
   83MPD2    H1 1296   3.888   1.745  10.554  0.4738 -0.6867  0.5133
   83MPD2    H2 1297   3.508   1.829  10.387 -0.9266 -0.8783  0.0905
   83MPD2    H3 1298   3.742   1.891  10.437 -2.3303  1.3972 -1.1082
   83MPD2     N 1299   3.829   1.508  10.642  0.0578 -0.0226 -0.3667
   83MPD2    H5 1300   3.919   1.551  10.660 -0.0254 -0.3507  0.8164
   83MPD2    N1 1301   3.392   1.625  10.445  0.3321 -0.0321  0.2515
   83MPD2    H7 1302   3.347   1.706  10.404 -4.2289 -1.4605  2.4292
   84TMC2    C1 1303   4.694   0.809  10.714 -0.1194  0.2464 -0.5198
   84TMC2    C2 1304   4.603   0.733  10.788  0.2587 -0.0860 -0.0066
   84TMC2    C3 1305   4.636   0.601  10.794  0.1833  0.7689  0.0060
   84TMC2    C4 1306   0.074   0.766  10.668  0.3990 -0.0411 -0.0152
   84TMC2    C5 1307   0.115   0.641  10.691  0.7197  0.3587 -0.0258
   84TMC2    C6 1308   0.031   0.558  10.755  0.9287  0.4715  0.8345
   84TMC2     C 1309   4.685   0.952  10.753 -0.3891  0.4699 -0.2513
   84TMC2     O 1310   4.619   0.973  10.854 -0.5083  0.0939  0.2108
   84TMC2     H 1311   4.504   0.768  10.813  0.2567  0.4355 -0.7622
   84TMC2    H1 1312   0.133   0.846  10.624 -2.5318  0.9785 -2.0586
   84TMC2    H2 1313   0.071   0.462  10.786 -2.2715 -1.4063 -0.7898
   84TMC2    C7 1314   0.254   0.622  10.710  0.0244  0.3752  0.3817
   84TMC2    C8 1315   4.564   0.516  10.881 -0.4012  0.0154 -0.3364
   84TMC2    O1 1316   0.299   0.568  10.806 -0.4664  0.1911 -0.1693
   84TMC2    O2 1317   4.479   0.556  10.959  0.0727 -0.6051 -0.1707
   84TMC2    O5 1318   4.577   0.390  10.846  0.4264 -0.3531 -0.5368
   84TMC2    H5 1319   4.638   0.378  10.770  1.4196 -1.5276  0.4475
   85TMC2    C1 1320   0.884   3.968  15.339  0.1901 -0.4948  1.1712
   85TMC2    C2 1321   0.756   4.001  15.296  0.8324 -0.2903  0.1995
   85TMC2    C3 1322   0.751   4.098  15.206  0.4237 -0.2272  0.5795
   85TMC2    C4 1323   1.001   4.009  15.285 -0.0708  0.4909  0.3347
   85TMC2    C5 1324   0.987   4.111  15.199  0.4460  0.5857  1.2262
   85TMC2    C6 1325   0.861   4.151  15.152 -0.2543 -0.4020 -0.6084
   85TMC2     C 1326   0.891   3.894  15.457  0.1791  0.1094  0.2850
   85TMC2     O 1327   1.000   3.889  15.516 -0.7932  0.0677 -0.0164
   85TMC2     H 1328   0.668   3.970  15.351 -0.2496  1.4456 -0.5559
   85TMC2    H1 1329   1.100   3.970  15.307 -0.0323  0.3109 -0.1482
   85TMC2    H2 1330   0.846   4.238  15.089 -0.9693  0.9330  1.4135
   85TMC2    C7 1331   1.102   4.121  15.109 -0.4700  0.3694  1.2182
   85TMC2    C8 1332   0.634   4.173  15.174 -0.2640  0.1214  0.3030
   85TMC2    O1 1333   1.214   4.105  15.158  0.2375 -0.0423 -0.1370
   85TMC2    O2 1334   0.608   4.232  15.074  0.1712 -0.4808 -0.4336
   85TMC2    O5 1335   0.553   4.172  15.278  0.4979 -0.0955 -0.1568
   85TMC2    H5 1336   0.598   4.154  15.363 -0.3176 -0.4479  0.2102
   86MPD2     C 1337   0.689   3.601  15.831  1.0517  0.2036  0.4909
   86MPD2    C1 1338   0.632   3.563  15.708  0.4008 -0.7505  0.3988
   86MPD2    C2 1339   0.677   3.622  15.589  0.0982  0.1314 -0.8100
   86MPD2    C3 1340   0.762   3.730  15.592  0.5169 -0.0498  0.2929
   86MPD2    C4 1341   0.801   3.774  15.715 -0.0815  0.0462 -0.8448
   86MPD2    C5 1342   0.784   3.701  15.832  0.3790 -1.3279 -0.0422
   86MPD2     H 1343   0.642   3.583  15.494 -0.0446  0.9481 -1.0951
   86MPD2    H1 1344   0.866   3.859  15.729  0.8903 -0.8612  0.1641
   86MPD2    H2 1345   0.680   3.550  15.926  1.9246 -1.2116 -0.1819
   86MPD2    H3 1346   0.841   3.731  15.919  1.6150 -0.0920 -1.2676
   86MPD2     N 1347   0.787   3.797  15.471  0.2082 -0.5251  1.4203
   86MPD2    H5 1348   0.726   3.775  15.392 -0.0426 -1.6482  1.9184
   86MPD2    N1 1349   0.552   3.446  15.705 -0.5280 -0.1033  0.4662
   86MPD2    H7 1350   0.524   3.428  15.609  2.3347 -0.3192 -0.3187
   87TMC2    C1 1351   3.257   2.658   0.336 -0.3147  0.1028  0.3735
   87TMC2    C2 1352   3.177   2.755   0.270  0.1116 -0.7654  0.3687
   87TMC2    C3 1353   3.144   2.865   0.348  0.1191  0.2588 -0.2032
   87TMC2    C4 1354   3.300   2.677   0.467 -0.4694  0.4197 -0.0510
   87TMC2    C5 1355   3.252   2.790   0.536  0.4534 -0.3204 -0.3713
   87TMC2    C6 1356   3.176   2.882   0.477  0.0906 -0.1933 -0.3663
   87TMC2     C 1357   3.283   2.530   0.265  0.1782  0.1321  0.3932
   87TMC2     O 1358   3.229   2.510   0.157 -0.3173 -0.3230  0.1920
   87TMC2     H 1359   3.131   2.741   0.174 -0.5807 -2.1927  0.9034
   87TMC2    H1 1360   3.350   2.595   0.517 -2.5321 -1.0387 -0.3460
   87TMC2    H2 1361   3.149   2.973   0.529  1.2937 -1.0717  1.8221
   87TMC2    C7 1362   3.319   2.824   0.658 -0.1247 -0.6410  0.5036
   87TMC2    C8 1363   3.079   2.972   0.277 -0.6712 -0.2595 -0.0833
   87TMC2    O1 1364   3.269   2.918   0.724 -0.2086  0.0940  0.4272
   87TMC2    O2 1365   3.016   3.059   0.334  0.7202  0.2281 -0.5600
   87TMC2    O5 1366   3.091   2.958   0.141  0.4708  0.1432  0.0110
   87TMC2    H5 1367   3.168   2.898   0.126 -0.0689 -0.2331 -1.1959
   88MPD2     C 1368   3.629   2.673   0.809  0.1729 -0.2109  0.3001
   88MPD2    C1 1369   3.525   2.762   0.793  0.0640  0.1037  0.3711
   88MPD2    C2 1370   3.510   2.863   0.884  0.3953  0.8588  0.5065
   88MPD2    C3 1371   3.613   2.892   0.972 -0.1019  0.6549 -0.1718
   88MPD2    C4 1372   3.725   2.808   0.984 -0.3352 -0.1438 -0.3209
   88MPD2    C5 1373   3.727   2.696   0.906  0.3124 -0.2856  0.4558
   88MPD2     H 1374   3.429   2.934   0.878 -0.6334 -0.3291  0.3406
   88MPD2    H1 1375   3.804   2.825   1.058 -1.9243  2.0217  0.8651
   88MPD2    H2 1376   3.634   2.581   0.752 -1.1109 -0.1839  0.1455
   88MPD2    H3 1377   3.800   2.619   0.929  1.1543  0.4828  0.3593
   88MPD2     N 1378   3.623   3.009   1.048  0.1047  0.1230 -0.0517
   88MPD2    H5 1379   3.697   3.025   1.116  1.1257 -1.3240 -0.8263
   88MPD2    N1 1380   3.428   2.745   0.690 -0.6649  0.2770 -0.0862
   88MPD2    H7 1381   3.442   2.658   0.640 -0.0194  1.0896 -1.3175
   89TMC2    C1 1382   4.108   0.480   1.376 -0.8723 -0.3769  0.2452
   89TMC2    C2 1383   4.134   0.585   1.461  0.0142 -0.0345 -0.2019
   89TMC2    C3 1384   4.170   0.700   1.399  0.1996 -0.8188 -0.1769
   89TMC2    C4 1385   4.130   0.490   1.239  0.4925  0.2602 -0.5338
   89TMC2    C5 1386   4.186   0.605   1.188 -0.3810  0.6790 -0.1308
   89TMC2    C6 1387   4.189   0.724   1.266  0.3438 -0.7745  0.0306
   89TMC2     C 1388   4.093   0.354   1.441 -0.4947  0.3061 -0.5521
   89TMC2     O 1389   4.108   0.352   1.565  0.0990 -0.6754  0.4780
   89TMC2     H 1390   4.127   0.577   1.569 -1.1758 -2.0820 -0.4406
   89TMC2    H1 1391   4.145   0.398   1.184 -1.3461 -0.1718 -0.3363
   89TMC2    H2 1392   4.214   0.823   1.230  1.0088 -0.9505  0.0136
   89TMC2    C7 1393   4.149   0.614   1.044 -0.7543 -0.5746  0.0550
   89TMC2    C8 1394   4.191   0.819   1.479  0.3869 -0.9024 -0.0120
   89TMC2    O1 1395   4.050   0.552   1.015  0.0646  0.0393  0.5419
   89TMC2    O2 1396   4.268   0.910   1.462  0.0583  0.2309 -0.3098
   89TMC2    O5 1397   4.097   0.818   1.576 -0.1768  0.0492  0.2674
   89TMC2    H5 1398   4.031   0.746   1.566  0.6613 -0.8373  1.1426
   90MPD2     C 1399   3.941   4.604   1.420 -0.0281 -0.7900  0.4354
   90MPD2    C1 1400   3.956   4.646   1.292  0.4081 -0.6848  0.5298
   90MPD2    C2 1401   4.003   0.038   1.277  0.5637  0.7176 -0.0043
   90MPD2    C3 1402   4.039   0.117   1.384 -0.1248 -0.6003 -0.4630
   90MPD2    C4 1403   4.036   0.065   1.519 -1.3035 -0.2902 -0.1556
   90MPD2    C5 1404   3.971   4.684   1.529 -0.0365 -0.0189  0.1670
   90MPD2     H 1405   4.021   0.079   1.179  2.2318 -3.2619 -1.3589
   90MPD2    H1 1406   4.064   0.127   1.604 -0.6828 -1.2103  0.3214
   90MPD2    H2 1407   3.887   4.514   1.449  1.8649 -1.7033  1.1364
   90MPD2    H3 1408   3.949   4.646   1.628 -3.3886  0.8778 -0.2186
   90MPD2     N 1409   4.051   0.252   1.352  0.4582 -0.1817 -0.0239
   90MPD2    H5 1410   4.035   0.286   1.257 -0.2304  1.1458  0.5605
   90MPD2    N1 1411   3.915   4.577   1.174 -0.2584 -0.0321 -0.5401
   90MPD2    H7 1412   3.943   4.626   1.089  1.6808  2.3602  1.5000
   91TMC2    C1 1413   0.658   4.380  16.222  0.2388 -0.1289 -0.1032
   91TMC2    C2 1414   0.729   4.307  16.314 -0.4219 -0.1620 -0.8786
   91TMC2    C3 1415   0.665   4.203  16.376  1.0138  0.5899 -0.1454
   91TMC2    C4 1416   0.525   4.368  16.208 -0.7166 -0.5616  0.5645
   91TMC2    C5 1417   0.470   4.252  16.254 -0.6248 -0.2348  0.4752
   91TMC2    C6 1418   0.538   4.167  16.337  0.3811  0.9007 -0.5640
   91TMC2     C 1419   0.696   4.521  16.213 -0.3806  0.3525 -1.3004
   91TMC2     O 1420   0.609   4.607  16.206  0.6267 -0.0347 -0.1983
   91TMC2     H 1421   0.828   4.334  16.350 -0.6898  1.5857 -1.4431
   91TMC2    H1 1422   0.470   4.436  16.144  1.0163  0.1894 -0.1407
   91TMC2    H2 1423   0.486   4.081  16.378  2.4832  0.5731  1.4529
   91TMC2    C7 1424   0.329   4.216  16.207 -0.0338  0.6133 -0.2083
   91TMC2    C8 1425   0.726   4.151  16.500  0.0460 -1.0351  0.2838
   91TMC2    O1 1426   0.272   4.136  16.279 -0.2896  0.5553 -0.9736
   91TMC2    O2 1427   0.799   4.229  16.553  0.2550 -0.1816 -0.3762
   91TMC2    O5 1428   0.648   4.055  16.559  0.0829 -0.0307 -0.1275
   91TMC2    H5 1429   0.580   4.002  16.513  0.1867 -0.9600  0.7995
   92MPD2     C 1430   0.851   0.018  16.291  0.1482 -0.1285  0.0714
   92MPD2    C1 1431   0.908   4.646  16.230  0.1549 -0.4379 -0.0680
   92MPD2    C2 1432   1.034   4.648  16.185 -0.0072 -0.1919  0.6123
   92MPD2    C3 1433   1.116   0.019  16.225 -0.2139  0.3164 -0.3149
   92MPD2    C4 1434   1.062   0.124  16.302 -0.2859  0.3506  0.4188
   92MPD2    C5 1435   0.926   0.123  16.329 -0.7843  0.4446 -0.7422
   92MPD2     H 1436   1.070   4.565  16.124 -0.0228 -1.0886  1.8267
   92MPD2    H1 1437   1.115   0.215  16.325 -0.7504  0.6903  0.1459
   92MPD2    H2 1438   0.744   0.032  16.304  0.2434  0.3925  0.2798
   92MPD2    H3 1439   0.876   0.209  16.373 -0.3980  1.4359 -2.2359
   92MPD2     N 1440   1.255   0.005  16.197  0.1512 -0.2662 -0.4635
   92MPD2    H5 1441   1.283   4.662  16.138 -0.4535  0.0087 -1.1081
   92MPD2    N1 1442   0.830   4.528  16.199  0.2614 -0.5349  0.5777
   92MPD2    H7 1443   0.876   4.448  16.159  1.1452 -0.7099  1.9642
   93TMC2    C1 1444   2.939   3.902  13.573 -0.5301 -0.3206 -1.1480
   93TMC2    C2 1445   2.940   3.832  13.458  0.1781  0.1039 -0.0570
   93TMC2    C3 1446   3.047   3.849  13.379  0.7433  0.1603  0.1833
   93TMC2    C4 1447   3.036   3.993  13.608 -0.7137  0.5425 -0.0944
   93TMC2    C5 1448   3.145   4.003  13.528 -0.1739 -0.5092  0.9000
   93TMC2    C6 1449   3.149   3.933  13.411 -0.2239 -0.8366 -0.3850
   93TMC2     C 1450   2.818   3.910  13.652 -0.6828 -0.4119 -0.0933
   93TMC2     O 1451   2.833   3.945  13.768 -0.4438 -0.0081  0.7703
   93TMC2     H 1452   2.861   3.762  13.430  0.0548 -0.1303  0.8621
   93TMC2    H1 1453   3.020   4.061  13.691 -1.5836  1.4873 -1.0388
   93TMC2    H2 1454   3.217   3.964  13.332  0.0075  0.3549  0.2781
   93TMC2    C7 1455   3.237   4.112  13.553  0.4322  0.0548  0.2752
   93TMC2    C8 1456   3.060   3.782  13.251  0.2188  0.8632 -0.6521
   93TMC2    O1 1457   3.348   4.094  13.503 -0.3852 -0.4005 -0.2523
   93TMC2    O2 1458   3.167   3.765  13.198 -0.1659 -0.2531  0.1109
   93TMC2    O5 1459   2.940   3.766  13.194 -0.5792  0.2530  0.5247
   93TMC2    H5 1460   2.873   3.824  13.235  0.4888  0.9959  1.2109
   94MPD2     C 1461   2.535   3.955  13.751 -0.0703 -0.0679  0.2590
   94MPD2    C1 1462   2.571   3.950  13.619 -0.6457  0.5728 -0.1701
   94MPD2    C2 1463   2.474   3.991  13.527 -0.3498 -1.0675 -0.1880
   94MPD2    C3 1464   2.353   4.040  13.574  0.0597 -0.4999 -0.7258
   94MPD2    C4 1465   2.317   4.027  13.708  0.3733  0.5139  0.3234
   94MPD2    C5 1466   2.409   3.981  13.790  0.5003 -0.2346 -0.0693
   94MPD2     H 1467   2.497   3.977  13.422  0.7052  1.7705 -0.3188
   94MPD2    H1 1468   2.226   4.073  13.745 -1.1019 -0.7249 -1.7482
   94MPD2    H2 1469   2.602   3.919  13.828 -1.4303 -2.0001  0.5334
   94MPD2    H3 1470   2.389   3.983  13.897 -0.8626  1.4057 -0.3622
   94MPD2     N 1471   2.260   4.112  13.493  0.1689 -0.4531 -0.8074
   94MPD2    H5 1472   2.173   4.145  13.533  0.9384 -2.1951  2.3298
   94MPD2    N1 1473   2.701   3.911  13.575 -0.0414 -0.0133  0.1975
   94MPD2    H7 1474   2.719   3.920  13.476 -0.1069  3.1054  0.4690
   95TMC2    C1 1475   2.754   1.782  15.965  0.3872  0.0067 -0.0589
   95TMC2    C2 1476   2.628   1.711  15.962  0.0216  0.6572  0.3300
   95TMC2    C3 1477   2.579   1.693  16.090 -0.6610  0.3249  0.2627
   95TMC2    C4 1478   2.808   1.839  16.079 -0.0534 -0.0604 -0.5806
   95TMC2    C5 1479   2.741   1.817  16.199 -0.0838 -0.0885  0.3163
   95TMC2    C6 1480   2.626   1.749  16.204 -0.4672  0.0501 -0.4104
   95TMC2     C 1481   2.833   1.792  15.842  0.2348 -0.2173 -0.2472
   95TMC2     O 1482   2.912   1.884  15.830 -0.0893 -0.2614 -0.3005
   95TMC2     H 1483   2.585   1.669  15.872 -0.0540 -0.1237  0.7279
   95TMC2    H1 1484   2.901   1.894  16.068  0.6761 -0.6873  2.5252
   95TMC2    H2 1485   2.573   1.741  16.299  1.6681  1.8581  0.9130
   95TMC2    C7 1486   2.754   1.908  16.312 -0.3898  0.2633  0.0946
   95TMC2    C8 1487   2.451   1.629  16.088  0.6820  0.0711 -0.8495
   95TMC2    O1 1488   2.718   1.852  16.415 -0.1929 -0.0432 -0.1899
   95TMC2    O2 1489   2.414   1.538  16.009  0.0626  0.0542  0.6306
   95TMC2    O5 1490   2.368   1.719  16.141 -0.0705  0.4622 -0.0101
   95TMC2    H5 1491   2.411   1.803  16.167 -1.0376  0.8664  0.2986
   96MPD2     C 1492   3.026   1.629  15.396  0.9216 -0.1786 -0.7276
   96MPD2    C1 1493   3.059   1.739  15.473  0.6049  0.0735 -0.1844
   96MPD2    C2 1494   2.986   1.754  15.594  0.3895 -0.7141  0.0030
   96MPD2    C3 1495   2.888   1.668  15.638  0.1413  0.1469 -0.6606
   96MPD2    C4 1496   2.859   1.558  15.559  0.3726  0.1174 -0.1417
   96MPD2    C5 1497   2.925   1.541  15.440 -0.6391 -0.2166 -0.3259
   96MPD2     H 1498   3.001   1.849  15.644  0.2409 -1.9115  2.3076
   96MPD2    H1 1499   2.773   1.496  15.579  1.3037 -1.3333 -0.6427
   96MPD2    H2 1500   3.071   1.615  15.299  0.1150 -1.7572 -0.8746
   96MPD2    H3 1501   2.895   1.458  15.378 -3.2804 -1.7978  3.0811
   96MPD2     N 1502   2.813   1.687  15.758  0.4528  0.6316  0.3728
   96MPD2    H5 1503   2.736   1.622  15.772  1.4874 -0.4829  0.9410
   96MPD2    N1 1504   3.142   1.831  15.412  0.2026  1.0147  0.1310
   96MPD2    H7 1505   3.175   1.796  15.323  1.7900 -2.5582  2.1102
   97TMC2    C1 1506   0.226   4.517  17.271  0.6968  0.0752 -0.0217
   97TMC2    C2 1507   0.179   4.464  17.156 -0.0386 -0.6811  0.8335
   97TMC2    C3 1508   0.142   4.554  17.060  0.2639  0.1914  0.4533
   97TMC2    C4 1509   0.245   4.655  17.294 -0.8168 -0.1047 -0.4086
   97TMC2    C5 1510   0.211   0.003  17.189 -0.2325 -0.3801 -0.8605
   97TMC2    C6 1511   0.153   4.689  17.070  0.1236  0.4988 -0.3891
   97TMC2     C 1512   0.259   4.419  17.372  0.1888 -0.8934  1.0113
   97TMC2     O 1513   0.236   4.303  17.345  0.5109 -0.0576  0.5484
   97TMC2     H 1514   0.170   4.357  17.138  0.8446 -0.1435 -2.8746
   97TMC2    H1 1515   0.274   4.676  17.396  1.6003 -1.0111 -0.9076
   97TMC2    H2 1516   0.129   0.024  16.990 -0.6230 -3.7119 -3.8886
   97TMC2    C7 1517   0.260   0.143  17.198 -0.3983  0.0132  0.0338
   97TMC2    C8 1518   0.049   4.507  16.955  0.2200  0.1887  0.1182
   97TMC2    O1 1519   0.286   0.182  17.313  0.0189  0.3605 -0.3073
   97TMC2    O2 1520   4.714   4.409  16.969  0.0619  0.0857  0.2530
   97TMC2    O5 1521   0.060   4.583  16.843 -0.6930  0.2026 -0.1670
   97TMC2    H5 1522   0.138   4.642  16.842 -1.0721  0.6724 -1.4037
   98MPD2     C 1523   0.463   4.249   0.070 -0.8812 -0.0425 -0.2987
   98MPD2    C1 1524   0.397   4.178  17.710  0.5872 -0.2829  0.0056
   98MPD2    C2 1525   0.366   4.248  17.595 -0.4414 -0.6752  0.2209
   98MPD2    C3 1526   0.396   4.381  17.568  0.1353  0.0092  0.5731
   98MPD2    C4 1527   0.467   4.442  17.671  0.4708 -0.2053 -0.8206
   98MPD2    C5 1528   0.501   4.379   0.046 -0.1272  0.5817 -0.2698
   98MPD2     H 1529   0.309   4.191  17.522 -2.9458  1.6069  0.3828
   98MPD2    H1 1530   0.489   4.547  17.674  2.0288 -0.5228 -1.4175
   98MPD2    H2 1531   0.485   4.210   0.169 -0.8642 -0.0150 -0.2915
   98MPD2    H3 1532   0.549   4.438   0.122 -2.4821  0.9743  0.9199
   98MPD2     N 1533   0.355   4.459  17.461 -0.1688 -0.0667  0.5271
   98MPD2    H5 1534   0.390   4.555  17.462  1.3158 -0.6252  2.9767
   98MPD2    N1 1535   0.363   4.046  17.737 -0.5842  0.0582 -0.3410
   98MPD2    H7 1536   0.388   4.012   0.090  1.7987  1.1275 -0.6014
   99TMC2    C1 1537   4.290   1.923   1.048  0.1240  0.5238  0.4680
   99TMC2    C2 1538   4.401   1.957   1.117 -0.0242  0.3866 -0.4374
   99TMC2    C3 1539   4.408   1.942   1.253 -0.7243 -0.1113 -0.1468
   99TMC2    C4 1540   4.174   1.897   1.109  0.2781  0.6816 -0.1778
   99TMC2    C5 1541   4.174   1.898   1.245  0.3303 -0.6088  0.3943
   99TMC2    C6 1542   4.289   1.916   1.319  0.2180 -0.1271 -0.3211
   99TMC2     C 1543   4.317   1.915   0.906 -0.1214  0.6664 -0.0134
   99TMC2     O 1544   4.393   1.997   0.857  0.3490  0.4642  0.4908
   99TMC2     H 1545   4.493   1.969   1.060  0.9912  0.5249  1.2458
   99TMC2    H1 1546   4.078   1.881   1.062  0.2870 -0.1195  0.0687
   99TMC2    H2 1547   4.278   1.910   1.427 -1.1239  4.3708 -0.1916
   99TMC2    C7 1548   4.043   1.905   1.321 -0.0706  0.2597 -0.2825
   99TMC2    C8 1549   4.513   2.028   1.313  0.8357 -0.3433  0.1474
   99TMC2    O1 1550   4.048   1.928   1.444  0.8449 -0.1247 -0.3297
   99TMC2    O2 1551   4.490   2.127   1.379  0.6597 -0.3843  0.1783
   99TMC2    O5 1552   4.637   1.984   1.277 -0.1652 -0.0021 -0.1610
   99TMC2    H5 1553   4.637   1.891   1.246 -1.1241  0.2148 -0.8051
  100MPD2     C 1554   4.362   1.780   0.650 -0.0101 -0.3341  0.3906
  100MPD2    C1 1555   4.247   1.761   0.722  0.4759  0.0893  0.0126
  100MPD2    C2 1556   4.151   1.674   0.675  0.5261  0.5974  0.1347
  100MPD2    C3 1557   4.164   1.614   0.550 -0.4574 -0.1540 -0.2792
  100MPD2    C4 1558   4.281   1.633   0.478  0.1760  0.0086  0.6055
  100MPD2    C5 1559   4.380   1.710   0.533  0.0593 -0.4505  0.0638
  100MPD2     H 1560   4.068   1.656   0.742 -0.0357  3.4814  0.2147
  100MPD2    H1 1561   4.309   1.591   0.382  2.3893  0.1456  1.1917
  100MPD2    H2 1562   4.439   1.851   0.680 -0.7533  1.0669 -1.0269
  100MPD2    H3 1563   4.467   1.726   0.471  0.0300 -0.5651 -0.0063
  100MPD2     N 1564   4.062   1.523   0.521 -0.1494  0.0127 -0.2600
  100MPD2    H5 1565   3.999   1.502   0.598 -0.2612  0.8222 -0.1251
  100MPD2    N1 1566   4.228   1.828   0.846 -0.2142 -0.7887 -0.4827
  100MPD2    H7 1567   4.152   1.798   0.907 -1.1730  1.0624 -0.7523
  101TMC2    C1 1568   4.427   2.184  12.709  0.4610  0.2052 -0.1654
  101TMC2    C2 1569   4.316   2.263  12.730 -0.1166  0.0898 -0.0327
  101TMC2    C3 1570   4.314   2.376  12.646 -0.4702 -0.1859  0.1740
  101TMC2    C4 1571   4.535   2.216  12.629  0.7103 -0.0325  0.5579
  101TMC2    C5 1572   4.522   2.335  12.560 -0.7316 -0.6919 -0.6251
  101TMC2    C6 1573   4.407   2.412  12.556  0.9305 -0.1253  0.1200
  101TMC2     C 1574   4.437   2.071  12.801 -0.5207  0.0901 -1.1108
  101TMC2     O 1575   4.341   2.054  12.879  0.3032 -0.2571  0.1894
  101TMC2     H 1576   4.227   2.238  12.786 -0.9866  3.9437  0.2596
  101TMC2    H1 1577   4.623   2.154  12.621  0.1344 -1.1643  2.9531
  101TMC2    H2 1578   4.400   2.495  12.486 -1.7749  0.5434  1.1540
  101TMC2    C7 1579   4.632   2.382  12.487 -0.0684 -0.3065  0.1899
  101TMC2    C8 1580   4.193   2.460  12.661 -0.2243 -0.5763  0.7147
  101TMC2    O1 1581   4.615   2.469  12.402  0.0792 -0.2558 -0.2256
  101TMC2    O2 1582   4.154   2.520  12.563 -0.1247  0.7229 -0.1510
  101TMC2    O5 1583   4.155   2.471  12.789  0.2119  0.3090  0.1930
  101TMC2    H5 1584   4.217   2.423  12.848  0.3778 -0.6602 -0.7633
  102MPD2     C 1585   4.684   1.811  12.823 -0.0227  0.1289 -1.0347
  102MPD2    C1 1586   4.573   1.880  12.863  0.4628 -0.1774  0.1306
  102MPD2    C2 1587   4.497   1.846  12.971 -0.0655 -0.1167 -0.4930
  102MPD2    C3 1588   4.540   1.739  13.043 -0.1300  0.0284  0.2446
  102MPD2    C4 1589   4.643   1.667  12.997  0.0301 -0.8520  0.1108
  102MPD2    C5 1590   4.713   1.696  12.882 -0.0445 -0.1633 -0.6340
  102MPD2     H 1591   4.426   1.910  13.022  1.0781 -1.7870  3.1750
  102MPD2    H1 1592   4.667   1.572  13.043 -1.3309  0.1443  2.8587
  102MPD2    H2 1593   0.003   1.836  12.733 -1.6663 -2.1710 -2.6533
  102MPD2    H3 1594   0.056   1.636  12.836 -1.0652 -1.9939  0.0759
  102MPD2     N 1595   4.470   1.709  13.164 -0.2264  0.1305  0.0184
  102MPD2    H5 1596   4.394   1.771  13.191  1.2119  0.3567  3.5096
  102MPD2    N1 1597   4.551   2.000  12.784  0.6338  0.4881 -0.2551
  102MPD2    H7 1598   4.617   2.026  12.711 -0.0223 -0.0084 -1.0270
  103TMC2    C1 1599   2.868   2.045  12.328 -0.0932 -0.5881  0.2640
  103TMC2    C2 1600   3.003   2.070  12.306 -0.3275  0.4637 -0.4079
  103TMC2    C3 1601   3.045   2.190  12.354  0.3040 -0.2531 -0.2097
  103TMC2    C4 1602   2.775   2.136  12.374  0.2629 -0.0482 -0.2822
  103TMC2    C5 1603   2.827   2.264  12.403  0.2568  0.8565  0.2079
  103TMC2    C6 1604   2.960   2.292  12.390  0.2526  1.1223  0.3911
  103TMC2     C 1605   2.806   1.908  12.297 -0.9477 -0.8908  0.2571
  103TMC2     O 1606   2.686   1.907  12.273  0.3992 -0.5574  0.6312
  103TMC2     H 1607   3.070   1.995  12.265 -2.2244 -1.4716  0.0219
  103TMC2    H1 1608   2.672   2.108  12.387  1.0963 -1.3821  3.3829
  103TMC2    H2 1609   2.995   2.393  12.407  2.0458  0.1922  2.2750
  103TMC2    C7 1610   2.746   2.343  12.485  0.1669  0.2410 -0.1743
  103TMC2    C8 1611   3.164   2.233  12.285  0.0961  0.5176 -0.0515
  103TMC2    O1 1612   2.767   2.350  12.606  0.6127  0.0497 -0.4222
  103TMC2    O2 1613   3.251   2.147  12.260  0.1529  0.0147 -0.7086
  103TMC2    O5 1614   3.101   2.299  12.190 -0.5110 -0.2414 -0.0068
  103TMC2    H5 1615   3.033   2.364  12.216  0.0777  1.2753 -2.2121
  104MPD2     C 1616   2.981   1.582  12.270 -0.1556 -0.4062 -0.0538
  104MPD2    C1 1617   2.879   1.672  12.274  0.3199  0.3191  0.3795
  104MPD2    C2 1618   2.749   1.625  12.264 -0.1125  0.2391 -0.0266
  104MPD2    C3 1619   2.719   1.492  12.223  0.2922 -0.6421  0.3046
  104MPD2    C4 1620   2.825   1.413  12.197 -0.0368 -0.2491 -0.4983
  104MPD2    C5 1621   2.953   1.452  12.226 -0.1207 -0.2485 -0.4899
  104MPD2     H 1622   2.663   1.690  12.269  0.9582  1.7323 -0.8229
  104MPD2    H1 1623   2.809   1.310  12.166 -2.0287  0.3917 -1.5871
  104MPD2    H2 1624   3.084   1.603  12.297  0.2463 -0.9255 -1.1769
  104MPD2    H3 1625   3.031   1.378  12.211 -0.1799 -0.3088 -0.5009
  104MPD2     N 1626   2.584   1.460  12.202  0.2885  0.7562 -0.5747
  104MPD2    H5 1627   2.525   1.542  12.212 -0.1800  0.5901 -1.9290
  104MPD2    N1 1628   2.904   1.811  12.284  0.4741  0.6789  0.1737
  104MPD2    H7 1629   3.002   1.833  12.295  0.8634  0.0149 -1.8594
  105TMC2    C1 1630   3.217   1.679  17.525  0.0579  0.0321  1.2153
  105TMC2    C2 1631   3.082   1.695  17.535 -0.3058  0.1837  0.3063
  105TMC2    C3 1632   3.053   1.804  17.614  0.4627  0.3105  0.8391
  105TMC2    C4 1633   3.315   1.744  17.594  0.9660  0.0070 -0.4864
  105TMC2    C5 1634   3.273   1.849  17.665  0.2965  0.5059  0.2923
  105TMC2    C6 1635   3.144   1.885  17.673  0.7545 -0.0030  0.0078
  105TMC2     C 1636   3.256   1.577  17.428 -0.1533  0.3558 -0.1507
  105TMC2     O 1637   3.184   1.478  17.425  0.1006 -0.0334  0.4627
  105TMC2     H 1638   3.015   1.628  17.482  0.3292  1.0058 -1.5539
  105TMC2    H1 1639   3.420   1.720  17.584  0.6521 -1.6968  0.3168
  105TMC2    H2 1640   3.109   1.955   0.009  0.6847 -0.4685  0.4055
  105TMC2    C7 1641   3.383   1.926  17.726  0.4543 -0.1849 -0.7164
  105TMC2    C8 1642   2.913   1.833  17.654  0.2441 -0.2115 -0.8053
  105TMC2    O1 1643   3.494   1.872  17.733 -0.4669 -0.0682 -0.1401
  105TMC2    O2 1644   2.874   1.930  17.712 -0.1828 -0.3215 -0.3871
  105TMC2    O5 1645   2.831   1.754  17.587 -0.1608  0.2322 -0.1842
  105TMC2    H5 1646   2.872   1.666  17.573  0.7700  0.6630 -0.2014
  106MPD2     C 1647   3.532   1.452  17.023 -0.0261 -0.4094 -0.2869
  106MPD2    C1 1648   3.566   1.581  17.056 -0.2246 -0.1131 -0.1374
  106MPD2    C2 1649   3.486   1.642  17.151 -0.2450  0.1225 -0.4647
  106MPD2    C3 1650   3.405   1.575  17.233 -0.3177  0.4539 -0.1456
  106MPD2    C4 1651   3.393   1.439  17.205 -0.1787  0.2160  0.0003
  106MPD2    C5 1652   3.446   1.377  17.099 -0.6023 -0.9140  0.2034
  106MPD2     H 1653   3.487   1.750  17.152  0.4139  0.1249 -1.2500
  106MPD2    H1 1654   3.334   1.376  17.271  1.8813 -1.0289  0.6553
  106MPD2    H2 1655   3.590   1.392  16.954 -0.5270  2.4120 -3.2138
  106MPD2    H3 1656   3.447   1.269  17.094  0.2516 -0.8674 -0.6089
  106MPD2     N 1657   3.350   1.641  17.347  0.2251 -0.4808 -0.1872
  106MPD2    H5 1658   3.370   1.739  17.359  0.6884 -0.2262 -3.0151
  106MPD2    N1 1659   3.663   1.664  16.994  0.1841 -0.1432  0.4928
  106MPD2    H7 1660   3.669   1.757  17.035 -1.6209 -0.4683  1.5123
  107TMC2    C1 1661   0.063   1.531  11.346 -0.6564  0.6000  0.4982
  107TMC2    C2 1662   0.135   1.640  11.382 -0.0127 -0.1021 -0.1178
  107TMC2    C3 1663   0.174   1.725  11.286 -0.6066  0.4251  0.2801
  107TMC2    C4 1664   0.033   1.499  11.222 -0.6950 -0.5920  0.1693
  107TMC2    C5 1665   0.065   1.596  11.133  0.0068 -0.5024 -0.3505
  107TMC2    C6 1666   0.133   1.708  11.157  0.0072 -0.2640 -0.6265
  107TMC2     C 1667   0.018   1.453  11.457 -0.3254 -0.0338 -0.1668
  107TMC2     O 1668   4.734   1.520  11.557 -0.0447 -0.0987  0.2794
  107TMC2     H 1669   0.171   1.662  11.482 -0.4328  1.2277 -0.2631
  107TMC2    H1 1670   4.685   1.435  11.196 -0.1084 -2.1458  2.2139
  107TMC2    H2 1671   0.166   1.776  11.079  0.1582 -0.1374 -0.4516
  107TMC2    C7 1672   0.061   1.563  10.992 -0.0255 -0.3908 -0.5769
  107TMC2    C8 1673   0.264   1.838  11.317 -0.8315  0.3365 -0.4229
  107TMC2    O1 1674   0.058   1.664  10.919  0.2222 -0.4597 -0.2190
  107TMC2    O2 1675   0.271   1.887  11.429 -0.3398  0.1000 -0.0925
  107TMC2    O5 1676   0.316   1.884  11.208  0.0123 -0.2036  0.0768
  107TMC2    H5 1677   0.345   1.807  11.154  1.2862 -0.4850  1.1417
  108MPD2     C 1678   4.618   1.117  11.481 -0.1528  0.2330 -0.2426
  108MPD2    C1 1679   4.654   1.240  11.527  0.5809 -0.6904 -0.8418
  108MPD2    C2 1680   4.630   1.273  11.661  0.3612 -0.2457  0.3099
  108MPD2    C3 1681   4.601   1.175  11.749 -0.5702  0.8197  0.4133
  108MPD2    C4 1682   4.600   1.043  11.708 -0.1384 -0.2900 -0.2362
  108MPD2    C5 1683   4.597   1.018  11.571 -0.0926 -0.1824  0.8492
  108MPD2     H 1684   4.634   1.375  11.700  0.3412 -0.2844  0.4137
  108MPD2    H1 1685   4.605   0.958  11.775  0.2516  0.9932  1.3524
  108MPD2    H2 1686   4.611   1.102  11.374  0.3787 -0.4354 -0.1899
  108MPD2    H3 1687   4.596   0.915  11.536  0.2270 -0.3864  1.4349
  108MPD2     N 1688   4.578   1.215  11.885 -0.0710 -0.3030  0.5710
  108MPD2    H5 1689   4.561   1.312  11.908 -1.0187 -0.9595  2.6611
  108MPD2    N1 1690   4.717   1.324  11.431  0.5948  0.0594 -0.2167
  108MPD2    H7 1691   4.728   1.283  11.338 -0.1705  1.4743 -0.9326
  109TMC2    C1 1692   3.817   3.631   0.029  0.3976  0.6066 -0.3432
  109TMC2    C2 1693   3.732   3.542  17.714 -0.2531  0.4306 -0.1719
  109TMC2    C3 1694   3.784   3.445  17.634  0.6240 -0.1870 -0.2632
  109TMC2    C4 1695   3.948   3.640   0.003 -0.7091  0.5070  0.2386
  109TMC2    C5 1696   3.996   3.547  17.650 -0.2549  0.0708  0.2719
  109TMC2    C6 1697   3.918   3.447  17.601  0.2146  0.3056 -0.2367
  109TMC2     C 1698   3.774   3.710   0.138  0.0301  0.5225 -0.3113
  109TMC2     O 1699   3.654   3.738   0.130  0.3622 -0.3302 -0.3021
  109TMC2     H 1700   3.628   3.546   0.004 -0.2583  1.2588 -0.3115
  109TMC2    H1 1701   4.005   3.726   0.035  0.7385  0.2672 -1.6777
  109TMC2    H2 1702   3.951   3.364  17.539 -2.2781  0.6555 -2.0522
  109TMC2    C7 1703   4.138   3.530  17.644 -0.3211 -0.7143 -0.5048
  109TMC2    C8 1704   3.717   3.322  17.631 -0.7657  0.2863 -0.1748
  109TMC2    O1 1705   4.196   3.606  17.726 -0.1205 -0.0320  0.4363
  109TMC2    O2 1706   3.788   3.223  17.622 -0.2192  0.2596 -0.2674
  109TMC2    O5 1707   3.597   3.335  17.577 -0.2957 -0.4344  0.1097
  109TMC2    H5 1708   3.567   3.428  17.583 -0.8300 -0.7563  2.6230
  110MPD2     C 1709   3.802   3.825   0.628 -0.1689 -0.2561 -0.9484
  110MPD2    C1 1710   3.906   3.737   0.597 -0.6153  0.1361 -0.3729
  110MPD2    C2 1711   3.935   3.715   0.465  0.5901 -0.5566  0.2047
  110MPD2    C3 1712   3.839   3.747   0.374  0.5043 -0.1422  0.5088
  110MPD2    C4 1713   3.726   3.823   0.405 -0.1709 -0.5216 -0.8409
  110MPD2    C5 1714   3.714   3.865   0.535  0.0268  0.3152  0.0203
  110MPD2     H 1715   4.019   3.652   0.439  0.0054 -0.4392 -1.9212
  110MPD2    H1 1716   3.659   3.872   0.336 -1.4540 -0.1382  0.6855
  110MPD2    H2 1717   3.775   3.858   0.728 -1.1359  0.5768 -1.4774
  110MPD2    H3 1718   3.637   3.930   0.575 -0.8104 -1.4634  1.3030
  110MPD2     N 1719   3.863   3.703   0.239  0.3609 -0.1415  0.1885
  110MPD2    H5 1720   3.945   3.646   0.221  0.5999  0.2834 -0.0880
  110MPD2    N1 1721   3.991   3.692   0.700 -0.1720  0.3743  0.2293
  110MPD2    H7 1722   3.952   3.701   0.793  0.2787  0.7456  0.3822
  111TMC2    C1 1723   4.314   3.071  11.697  0.5341  0.3937 -0.2347
  111TMC2    C2 1724   4.235   3.030  11.796 -0.0139 -0.0521 -1.2549
  111TMC2    C3 1725   4.239   3.094  11.912 -0.4298 -0.1795 -0.2746
  111TMC2    C4 1726   4.384   3.189  11.704 -0.8258  0.5733  0.5450
  111TMC2    C5 1727   4.381   3.254  11.826  0.5404 -0.2067 -0.2101
  111TMC2    C6 1728   4.304   3.204  11.928  0.6520 -0.3801  0.2154
  111TMC2     C 1729   4.303   3.003  11.568 -0.5504  0.1744  0.0647
  111TMC2     O 1730   4.332   3.068  11.473  0.2601 -0.2289 -0.2758
  111TMC2     H 1731   4.172   2.944  11.782 -2.1475  1.1130  1.3328
  111TMC2    H1 1732   4.448   3.213  11.621 -0.2091 -1.2264  0.4964
  111TMC2    H2 1733   4.306   3.256  12.024  3.0729  0.1623 -0.1204
  111TMC2    C7 1734   4.504   3.324  11.870 -0.5063 -0.8057  0.1280
  111TMC2    C8 1735   4.118   3.082  11.999 -0.5373  0.3794  0.3300
  111TMC2    O1 1736   4.542   3.310  11.988  0.4886  0.9112 -0.5089
  111TMC2    O2 1737   4.013   3.063  11.938  0.2279 -0.2138  0.1518
  111TMC2    O5 1738   4.144   3.080  12.130  0.0738  0.1966 -0.0773
  111TMC2    H5 1739   4.237   3.077  12.161 -0.3707  1.5284  1.3895
  112MPD2     C 1740   4.219   2.602  11.260  0.1877  0.3078  0.5533
  112MPD2    C1 1741   4.202   2.736  11.236  0.3877 -0.3412  0.1784
  112MPD2    C2 1742   4.222   2.823  11.342 -0.3475 -0.2570  0.6185
  112MPD2    C3 1743   4.263   2.779  11.464  0.0256  0.0041  0.2982
  112MPD2    C4 1744   4.269   2.642  11.488 -0.3327  0.3966  0.2810
  112MPD2    C5 1745   4.252   2.553  11.387 -0.5102  0.0763  0.4411
  112MPD2     H 1746   4.212   2.929  11.321  2.6572  0.1802  1.4018
  112MPD2    H1 1747   4.289   2.594  11.583 -1.2754 -1.0678 -0.2604
  112MPD2    H2 1748   4.195   2.533  11.180  0.5571 -2.4258  2.7855
  112MPD2    H3 1749   4.232   2.447  11.403  2.2536 -0.3481  1.1231
  112MPD2     N 1750   4.284   2.866  11.576  0.6223 -0.3194  0.8497
  112MPD2    H5 1751   4.309   2.826  11.666 -1.5388 -1.7978  0.8001
  112MPD2    N1 1752   4.171   2.772  11.104  0.2609  0.2245  0.1398
  112MPD2    H7 1753   4.160   2.703  11.030  0.7728 -0.1730  0.4361
  113TMC2    C1 1754   2.609   2.179   0.483 -0.0197  0.6139  0.6408
  113TMC2    C2 1755   2.580   2.309   0.480 -0.3229 -0.4728  0.4329
  113TMC2    C3 1756   2.467   2.343   0.404  0.1169  0.3312 -0.6806
  113TMC2    C4 1757   2.536   2.086   0.418  0.1417 -0.7012  0.2762
  113TMC2    C5 1758   2.427   2.125   0.352  0.7366 -0.1915 -0.2095
  113TMC2    C6 1759   2.388   2.255   0.338  0.3725 -0.7807 -0.3325
  113TMC2     C 1760   2.739   2.155   0.545 -0.2601  0.4482 -0.2207
  113TMC2     O 1761   2.778   2.237   0.624 -0.3455  0.3603  0.3995
  113TMC2     H 1762   2.645   2.386   0.521 -1.2350  0.2737  0.4689
  113TMC2    H1 1763   2.558   1.980   0.420  1.1294 -0.5031 -0.0262
  113TMC2    H2 1764   2.300   2.281   0.280  1.6365  1.2554 -1.3218
  113TMC2    C7 1765   2.352   2.029   0.267  0.2918  0.2382  0.0037
  113TMC2    C8 1766   2.441   2.483   0.407  0.1775 -0.3331 -0.2112
  113TMC2    O1 1767   2.264   2.078   0.193 -0.5253  0.4670 -0.8933
  113TMC2    O2 1768   2.480   2.549   0.501 -0.1726  0.2376 -0.1873
  113TMC2    O5 1769   2.431   2.519   0.273 -0.9816  0.0755  0.0106
  113TMC2    H5 1770   2.423   2.439   0.217  1.0647  0.1467 -0.3652
  114MPD2     C 1771   3.103   1.821   0.693  0.9512 -0.0603 -0.1921
  114MPD2    C1 1772   3.068   1.943   0.740 -0.8153 -0.1189 -0.0166
  114MPD2    C2 1773   2.961   2.008   0.690  0.4087  0.1497 -0.1434
  114MPD2    C3 1774   2.893   1.959   0.581 -0.1395 -0.3338 -0.7348
  114MPD2    C4 1775   2.931   1.836   0.531 -0.6988 -0.0918 -0.1465
  114MPD2    C5 1776   3.035   1.775   0.582  0.5975 -0.3128 -0.0476
  114MPD2     H 1777   2.944   2.107   0.729 -0.4042 -0.2884  0.6283
  114MPD2    H1 1778   2.891   1.796   0.439 -0.0789  0.3510 -0.6035
  114MPD2    H2 1779   3.174   1.749   0.730 -0.2224  0.4920  3.0860
  114MPD2    H3 1780   3.074   1.685   0.534  2.6964  0.1839  0.7443
  114MPD2     N 1781   2.786   2.026   0.512  0.0657  0.5384  0.2563
  114MPD2    H5 1782   2.749   1.980   0.429  0.0936  0.6320  0.1924
  114MPD2    N1 1783   3.133   2.012   0.850  0.0412  0.3011 -0.4183
  114MPD2    H7 1784   3.110   2.104   0.887 -3.4494 -1.2059  1.2199
  115TMC2    C1 1785   3.571   4.025  17.413  0.5365 -0.0418 -0.4940
  115TMC2    C2 1786   3.679   3.997  17.328  0.0250 -0.1997  0.3554
  115TMC2    C3 1787   3.752   4.100  17.285 -0.1070 -0.1692 -0.5131
  115TMC2    C4 1788   3.550   4.155  17.452  0.5382  0.4928  0.3790
  115TMC2    C5 1789   3.621   4.256  17.396 -0.3517  1.0228  0.0562
  115TMC2    C6 1790   3.728   4.230  17.314 -0.2527 -0.3750  0.0187
  115TMC2     C 1791   3.476   3.915  17.432  0.1583 -0.3881  0.4533
  115TMC2     O 1792   3.519   3.801  17.403 -0.2493  0.0141 -0.7166
  115TMC2     H 1793   3.706   3.896  17.299  1.5339 -0.2127  1.7548
  115TMC2    H1 1794   3.462   4.170  17.514 -0.5428 -1.3597 -0.6956
  115TMC2    H2 1795   3.794   4.306  17.272 -0.2690  0.8688  2.2297
  115TMC2    C7 1796   3.597   4.399  17.435  0.0886  0.1257  0.0183
  115TMC2    C8 1797   3.875   4.071  17.220  0.1816 -0.0181  0.0216
  115TMC2    O1 1798   3.574   4.420  17.553 -0.3263  0.2328 -0.0410
  115TMC2    O2 1799   3.977   4.135  17.243 -0.0861  0.2131 -0.2126
  115TMC2    O5 1800   3.830   4.062  17.095 -0.4393  0.2985 -0.3108
  115TMC2    H5 1801   3.751   4.008  17.074 -1.6158  1.0085  2.2204
  116MPD2     C 1802   2.983   3.758  17.410  0.7536 -0.2028  0.5519
  116MPD2    C1 1803   3.100   3.691  17.380 -0.4530 -0.1760 -0.2374
  116MPD2    C2 1804   3.224   3.751  17.405  0.0508  0.6866  0.6310
  116MPD2    C3 1805   3.226   3.882  17.448  0.0590  0.3278  0.0631
  116MPD2    C4 1806   3.111   3.955  17.459  0.1514  0.5985 -0.2329
  116MPD2    C5 1807   2.988   3.892  17.450 -0.6248  0.0825 -0.3502
  116MPD2     H 1808   3.313   3.689  17.411 -0.3728 -0.1267 -1.5674
  116MPD2    H1 1809   3.113   4.061  17.482 -1.8181  0.9307 -1.5651
  116MPD2    H2 1810   2.880   3.725  17.405  0.9534 -0.6608 -0.5575
  116MPD2    H3 1811   2.896   3.946  17.470  0.0881  2.2424 -2.8414
  116MPD2     N 1812   3.347   3.960  17.458 -0.8130 -0.5213 -0.4136
  116MPD2    H5 1813   3.330   4.059  17.471 -0.4019 -0.4119 -0.7178
  116MPD2    N1 1814   3.085   3.561  17.331  0.2707  0.1882  0.2243
  116MPD2    H7 1815   2.993   3.529  17.301  0.6262 -1.6195  1.0302
  117TMC2    C1 1816   2.681   0.559  13.420 -0.7645  0.0406  0.4420
  117TMC2    C2 1817   2.816   0.563  13.447 -0.8649 -0.2564 -0.5061
  117TMC2    C3 1818   2.888   0.672  13.415 -0.5221 -0.0123  0.1900
  117TMC2    C4 1819   2.617   0.671  13.368  0.2359  0.1861  0.2583
  117TMC2    C5 1820   2.694   0.781  13.335 -0.3749 -0.9393  0.1717
  117TMC2    C6 1821   2.826   0.785  13.366  0.5452 -0.1951 -0.0709
  117TMC2     C 1822   2.620   0.428  13.406  1.0676 -0.6423  0.4362
  117TMC2     O 1823   2.703   0.338  13.378 -0.0082 -0.5683 -0.1693
  117TMC2     H 1824   2.872   0.479  13.487 -1.0335  0.7376  1.8219
  117TMC2    H1 1825   2.512   0.673  13.340  0.6337 -3.3239 -1.5874
  117TMC2    H2 1826   2.893   0.858  13.322 -1.9120  1.4687 -1.0033
  117TMC2    C7 1827   2.623   0.912  13.314 -0.2612  0.5128 -0.2310
  117TMC2    C8 1828   3.035   0.659  13.409 -0.4459 -0.4895  0.7222
  117TMC2    O1 1829   2.674   1.008  13.371 -0.1190  0.2553 -0.0986
  117TMC2    O2 1830   3.095   0.556  13.414  0.7477  0.3858 -0.2606
  117TMC2    O5 1831   3.081   0.780  13.463 -0.3072  0.9417 -0.2805
  117TMC2    H5 1832   3.013   0.849  13.475 -3.2698 -1.6123 -2.2412
  118MPD2     C 1833   2.316   0.981  13.138  0.7509 -0.6444  0.5617
  118MPD2    C1 1834   2.404   1.004  13.237  0.3252  0.9790 -0.1194
  118MPD2    C2 1835   2.383   1.096  13.336  0.2620 -0.4258  0.7605
  118MPD2    C3 1836   2.270   1.175  13.331  0.0894 -0.1359 -0.9690
  118MPD2    C4 1837   2.175   1.147  13.234 -0.7910 -0.1088 -0.2982
  118MPD2    C5 1838   2.202   1.053  13.135 -0.2370 -0.0916  0.0496
  118MPD2     H 1839   2.448   1.100  13.423  0.4374  0.6976  0.5778
  118MPD2    H1 1840   2.077   1.192  13.235 -0.6982  0.0659  1.5140
  118MPD2    H2 1841   2.342   0.909  13.061 -0.0271  1.2089 -1.4564
  118MPD2    H3 1842   2.137   1.042  13.049 -0.4974 -0.5036  0.3006
  118MPD2     N 1843   2.240   1.288  13.417 -0.3407  0.0635 -0.2759
  118MPD2    H5 1844   2.160   1.344  13.391 -1.1428  0.1166  2.3566
  118MPD2    N1 1845   2.503   0.901  13.243 -0.4298 -0.0128 -0.3260
  118MPD2    H7 1846   2.489   0.818  13.185 -0.0116 -0.2542 -0.0825
  119TMC2    C1 1847   0.413   1.416  13.367  0.0441  0.1097 -0.4551
  119TMC2    C2 1848   0.444   1.308  13.284  1.2924 -0.6969 -0.8386
  119TMC2    C3 1849   0.380   1.193  13.318  0.4575  0.4424  0.1545
  119TMC2    C4 1850   0.342   1.405  13.484  0.5533  0.0526  0.1480
  119TMC2    C5 1851   0.289   1.280  13.512 -0.0535  0.5965  0.0564
  119TMC2    C6 1852   0.308   1.173  13.433 -0.3620  0.0196 -0.3891
  119TMC2     C 1853   0.492   1.534  13.364 -0.6441 -0.0588  0.9320
  119TMC2     O 1854   0.446   1.632  13.421  0.2865  0.0343 -0.2024
  119TMC2     H 1855   0.481   1.323  13.184  1.9949 -2.5976 -0.8635
  119TMC2    H1 1856   0.336   1.480  13.562  1.4951  0.6750 -0.3841
  119TMC2    H2 1857   0.243   1.088  13.452 -2.7251  1.6484 -1.2775
  119TMC2    C7 1858   0.192   1.263  13.612  0.3671  0.5418  0.1744
  119TMC2    C8 1859   0.389   1.078  13.227 -0.3846  0.1931  0.6933
  119TMC2    O1 1860   0.179   1.154  13.664 -0.4329 -0.2918  0.5873
  119TMC2    O2 1861   0.485   1.002  13.221  0.5481 -0.3042 -0.3068
  119TMC2    O5 1862   0.264   1.047  13.193  0.2196  0.1462 -0.4771
  119TMC2    H5 1863   0.210   1.127  13.209  1.2784  0.8687 -0.4721
  120MPD2     C 1864   0.956   1.740  13.358  0.4744  0.2687 -0.0060
  120MPD2    C1 1865   0.849   1.766  13.438 -0.0711  0.5543 -0.3023
  120MPD2    C2 1866   0.726   1.703  13.411 -0.0269  0.8744  0.0948
  120MPD2    C3 1867   0.724   1.603  13.316 -0.1695  1.2953 -0.0300
  120MPD2    C4 1868   0.825   1.586  13.226  0.5663  0.0691  0.1237
  120MPD2    C5 1869   0.945   1.655  13.255 -0.2912 -0.8166 -0.6327
  120MPD2     H 1870   0.641   1.747  13.462  0.2128  0.0925  1.1726
  120MPD2    H1 1871   0.813   1.513  13.148 -1.7781  0.3172  0.2535
  120MPD2    H2 1872   1.049   1.796  13.356 -0.6575  2.1049 -0.4263
  120MPD2    H3 1873   1.027   1.642  13.185 -2.7984  0.4354 -3.7838
  120MPD2     N 1874   0.613   1.515  13.299 -0.3183  0.7983 -0.6783
  120MPD2    H5 1875   0.635   1.428  13.253 -1.3846  0.6240 -0.8581
  120MPD2    N1 1876   0.869   1.869  13.530  0.0836  0.1732  0.2142
  120MPD2    H7 1877   0.962   1.908  13.522  0.1161 -0.1105 -0.7093
  121TMC2    C1 1878   1.609   3.522  13.986  0.0779 -0.2450  0.4181
  121TMC2    C2 1879   1.668   3.524  14.107 -0.7703  0.4808 -0.5110
  121TMC2    C3 1880   1.662   3.408  14.181 -0.3950  0.2542 -0.2162
  121TMC2    C4 1881   1.543   3.407  13.939  0.4913  0.0329 -0.0524
  121TMC2    C5 1882   1.556   3.289  14.006 -0.7425 -0.3988 -0.1347
  121TMC2    C6 1883   1.613   3.288  14.129  0.4552 -0.1733 -0.4085
  121TMC2     C 1884   1.611   3.648  13.918 -0.0016 -0.2309 -0.7438
  121TMC2     O 1885   1.609   3.750  13.987  0.5704  1.0743 -0.2216
  121TMC2     H 1886   1.723   3.607  14.150 -0.7470 -0.7983  1.9606
  121TMC2    H1 1887   1.496   3.410  13.841 -1.6970  0.5348  1.0217
  121TMC2    H2 1888   1.629   3.202  14.192  0.4618 -1.1681 -1.7715
  121TMC2    C7 1889   1.468   3.181  13.986 -0.0706 -0.0073  0.1310
  121TMC2    C8 1890   1.748   3.395  14.289 -0.5815 -0.0399 -0.1359
  121TMC2    O1 1891   1.471   3.089  14.064 -0.3752 -0.0763 -0.6947
  121TMC2    O2 1892   1.827   3.487  14.316  0.0977  0.6907  0.1396
  121TMC2    O5 1893   1.669   3.332  14.382 -0.1479  0.2297  0.2173
  121TMC2    H5 1894   1.586   3.290  14.352 -2.0291  3.4571  0.9313
  122MPD2     C 1895   1.634   3.872  13.733  0.1539  0.3374 -0.5583
  122MPD2    C1 1896   1.613   3.744  13.687 -0.0795  0.3230 -0.1169
  122MPD2    C2 1897   1.621   3.729  13.547  0.0160 -0.1823 -0.1126
  122MPD2    C3 1898   1.642   3.834  13.464  0.4146  0.2402 -0.3207
  122MPD2    C4 1899   1.640   3.960  13.515 -0.0391 -0.4576 -0.2069
  122MPD2    C5 1900   1.644   3.974  13.648 -0.1094  0.2926  0.7386
  122MPD2     H 1901   1.610   3.629  13.507 -0.2925  0.5849 -1.9507
  122MPD2    H1 1902   1.668   4.050  13.461 -1.7930 -0.5049 -1.1671
  122MPD2    H2 1903   1.640   3.893  13.839  0.9471  0.9921 -0.7311
  122MPD2    H3 1904   1.659   4.069  13.697  1.3201  1.4116 -1.8537
  122MPD2     N 1905   1.680   3.816  13.328 -0.2464  0.0998  0.0050
  122MPD2    H5 1906   1.715   3.899  13.282  1.1865  0.6116  2.0477
  122MPD2    N1 1907   1.603   3.631  13.780 -0.3588  0.3768 -0.2066
  122MPD2    H7 1908   1.601   3.535  13.745 -1.7049  0.7612 -1.1830
  123TMC2    C1 1909   0.163   1.147   9.474  0.6494  1.1495  0.0439
  123TMC2    C2 1910   0.176   1.260   9.401  0.2462  0.1194 -0.5090
  123TMC2    C3 1911   0.291   1.333   9.408 -0.4378  0.0079  0.1176
  123TMC2    C4 1912   0.268   1.090   9.538  0.2007  0.4217 -0.2287
  123TMC2    C5 1913   0.377   1.170   9.551  0.6350  0.0574 -0.0831
  123TMC2    C6 1914   0.397   1.291   9.478  0.4887  0.0453  0.9743
  123TMC2     C 1915   0.059   1.044   9.445  0.6566 -0.4781  0.3510
  123TMC2     O 1916   0.085   0.929   9.483  0.0136 -0.5260  0.3089
  123TMC2     H 1917   0.095   1.294   9.337  0.3346  2.1872  0.4699
  123TMC2    H1 1918   0.246   1.023   9.621 -2.1375  1.3979 -0.0477
  123TMC2    H2 1919   0.493   1.340   9.486  0.1627  1.0917 -1.4958
  123TMC2    C7 1920   0.469   1.137   9.657  0.8418 -0.1509 -0.1424
  123TMC2    C8 1921   0.304   1.447   9.317 -0.2341  0.1811  0.0080
  123TMC2    O1 1922   0.497   1.022   9.686 -0.4491  0.6955  0.4627
  123TMC2    O2 1923   0.220   1.461   9.226  0.0609 -0.5206  0.3263
  123TMC2    O5 1924   0.389   1.542   9.355 -0.4268 -0.2172  0.1433
  123TMC2    H5 1925   0.441   1.535   9.438  0.6851 -1.2361 -0.6515
  124MPD2     C 1926   4.330   0.904   9.348 -0.1346  0.2773 -0.3306
  124MPD2    C1 1927   4.331   1.043   9.337  0.0271  0.1847  0.1350
  124MPD2    C2 1928   4.445   1.102   9.359 -0.6010 -0.2880  0.0965
  124MPD2    C3 1929   4.561   1.029   9.380 -0.2129 -0.6533  0.3749
  124MPD2    C4 1930   4.561   0.890   9.381 -0.1648 -0.3952 -0.9445
  124MPD2    C5 1931   4.441   0.829   9.373 -0.3956 -0.8787  0.1285
  124MPD2     H 1932   4.455   1.209   9.349  0.6466 -0.1077  3.1524
  124MPD2    H1 1933   4.643   0.825   9.409 -0.9583 -0.4077  1.3395
  124MPD2    H2 1934   4.236   0.851   9.343 -1.0422  1.7688  0.7490
  124MPD2    H3 1935   4.433   0.727   9.407  0.7518 -0.8609  0.4297
  124MPD2     N 1936   4.675   1.103   9.410  0.2210 -0.8096 -0.4422
  124MPD2    H5 1937   4.679   1.203   9.396 -0.0159 -1.0011 -1.8856
  124MPD2    N1 1938   4.212   1.117   9.311 -0.0321 -0.0417  0.3146
  124MPD2    H7 1939   4.129   1.059   9.300 -0.6316  0.7841  0.5430
  125TMC2    C1 1940   0.659   2.793   9.177  0.1128  0.5183  0.1296
  125TMC2    C2 1941   0.676   2.658   9.159  0.2946  0.5915  0.0507
  125TMC2    C3 1942   0.772   2.620   9.071 -0.7711  0.1302  0.4993
  125TMC2    C4 1943   0.742   2.883   9.124 -0.1564 -0.1583 -0.8154
  125TMC2    C5 1944   0.854   2.841   9.047  0.1068  0.8751 -0.1269
  125TMC2    C6 1945   0.869   2.709   9.019  0.2712 -0.2045  0.2871
  125TMC2     C 1946   0.533   2.848   9.216  0.2622 -0.0820  0.5538
  125TMC2     O 1947   0.533   2.964   9.246  0.5148  0.4932  0.0027
  125TMC2     H 1948   0.606   2.592   9.208  2.5695 -2.3418 -0.6823
  125TMC2    H1 1949   0.721   2.988   9.140 -0.5904 -0.1728 -1.3092
  125TMC2    H2 1950   0.948   2.664   8.960  1.2282  2.2568 -0.2940
  125TMC2    C7 1951   0.941   2.931   8.976 -0.3187  0.2544 -0.4677
  125TMC2    C8 1952   0.802   2.473   9.069 -0.2841 -0.0223 -0.0682
  125TMC2    O1 1953   0.997   2.887   8.875 -0.2764 -0.6160 -0.3875
  125TMC2    O2 1954   0.752   2.398   9.148 -0.4610  0.3889  0.7949
  125TMC2    O5 1955   0.858   2.443   8.946 -0.3980  0.6827  0.7108
  125TMC2    H5 1956   0.850   2.511   8.876  1.1357  0.4855  0.3363
  126MPD1     C 1957   0.021   2.882   9.226 -0.0480  0.1331 -0.3723
  126MPD1    C1 1958   0.054   2.771   9.147 -0.6566  0.5097 -0.2688
  126MPD1    C2 1959   0.189   2.739   9.132 -0.4324  0.3226 -0.5591
  126MPD1    C3 1960   0.291   2.805   9.198 -0.2879  0.2942 -0.1810
  126MPD1    C4 1961   0.255   2.906   9.281 -1.0904  0.8987  0.5145
  126MPD1    C5 1962   0.124   2.938   9.295 -0.5200 -0.2453 -0.6467
  126MPD1     H 1963   0.209   2.665   9.055  0.2148 -0.7792  0.6616
  126MPD1    H1 1964   0.335   2.952   9.339  0.8594 -1.3322 -0.4071
  126MPD1    H2 1965   4.657   2.926   9.231  1.1721  2.6968  0.7489
  126MPD1    H3 1966   0.087   3.017   9.360  0.2014 -1.6159  1.4382
  126MPD1     N 1967   0.425   2.766   9.179  0.1246  0.0812  0.4387
  126MPD1    H5 1968   0.445   2.686   9.120 -2.8717 -1.5395  1.6238
  126MPD1    N1 1969   4.696   2.703   9.066  0.3789 -0.8159 -0.2845
  126MPD1    H6 1970   4.729   2.612   9.034  0.6285  0.4888 -3.7927
  126MPD1    H7 1971   4.602   2.699   9.103 -0.0243 -2.3841 -1.4441
  127TMC2    C1 1972   1.806   2.194   9.244 -1.1346 -0.4225  0.5421
  127TMC2    C2 1973   1.831   2.140   9.365  0.4103  0.0335  0.0909
  127TMC2    C3 1974   1.739   2.054   9.414  0.1762  0.5672 -0.7078
  127TMC2    C4 1975   1.697   2.161   9.164  0.0758  0.0783 -0.3026
  127TMC2    C5 1976   1.606   2.075   9.223  0.0777  0.3511  0.4514
  127TMC2    C6 1977   1.628   2.012   9.344  1.0417 -0.1830 -0.1941
  127TMC2     C 1978   1.895   2.311   9.216  0.3833  0.3472  0.5795
  127TMC2     O 1979   1.951   2.359   9.310  0.2916 -0.1485 -0.1859
  127TMC2     H 1980   1.919   2.158   9.426 -0.1944  2.5624  0.2039
  127TMC2    H1 1981   1.674   2.215   9.073 -0.6577  0.6245  0.1963
  127TMC2    H2 1982   1.556   1.952   9.399 -1.1419  1.0613 -1.6596
  127TMC2    C7 1983   1.494   2.036   9.131  0.2256 -0.0653 -0.3288
  127TMC2    C8 1984   1.781   1.976   9.527 -0.4338 -0.1785 -0.4912
  127TMC2    O1 1985   1.495   2.083   9.018  0.3677 -0.0129 -0.0003
  127TMC2    O2 1986   1.838   1.867   9.516  0.2032  0.0491  0.3280
  127TMC2    O5 1987   1.805   2.062   9.628  0.0986  0.5318 -0.8043
  127TMC2    H5 1988   1.761   2.149   9.616  0.9083  0.8698 -1.3736
  128MPD2     C 1989   1.933   2.514   8.902  0.0108 -0.1357 -0.6498
  128MPD2    C1 1990   1.940   2.486   9.038  0.2295 -0.3333 -1.0213
  128MPD2    C2 1991   1.999   2.584   9.124 -0.0408  0.1645  0.7611
  128MPD2    C3 1992   2.035   2.710   9.074  0.5480  0.7563  0.9037
  128MPD2    C4 1993   2.026   2.735   8.939 -0.2245  0.0672 -0.0851
  128MPD2    C5 1994   1.969   2.640   8.859  0.4632 -0.0983  0.7668
  128MPD2     H 1995   2.004   2.555   9.228 -4.5306  1.4778  1.3487
  128MPD2    H1 1996   2.065   2.825   8.895  1.2074 -0.3312  0.3646
  128MPD2    H2 1997   1.898   2.442   8.829  0.7990 -1.1547 -0.0267
  128MPD2    H3 1998   1.955   2.664   8.755  0.1620 -1.2407  0.5468
  128MPD2     N 1999   2.078   2.813   9.159  0.0397 -0.2962 -0.2301
  128MPD2    H5 2000   2.098   2.788   9.255 -1.8577  0.1251  0.2629
  128MPD2    N1 2001   1.887   2.364   9.087 -0.1932  0.6354 -0.1732
  128MPD2    H7 2002   1.857   2.298   9.016 -2.3539 -0.0223  1.3509
  129TMC2    C1 2003   1.414   2.990   0.779 -0.2390 -0.8219  0.2068
  129TMC2    C2 2004   1.370   3.116   0.821 -0.1538 -0.2254 -0.0042
  129TMC2    C3 2005   1.241   3.122   0.860 -0.3349  0.5272  0.3204
  129TMC2    C4 2006   1.339   2.881   0.782 -0.4823  0.0234  0.3923
  129TMC2    C5 2007   1.218   2.891   0.846 -0.3006 -0.3765 -0.4005
  129TMC2    C6 2008   1.158   3.019   0.876 -0.3101 -0.4866 -0.2596
  129TMC2     C 2009   1.534   2.967   0.701  0.2114 -0.1148 -0.1288
  129TMC2     O 2010   1.536   2.886   0.611 -0.2622  0.5986 -0.0767
  129TMC2     H 2011   1.431   3.203   0.798  0.5820 -0.4094  1.2541
  129TMC2    H1 2012   1.387   2.788   0.755  0.8966  1.3007 -1.5543
  129TMC2    H2 2013   1.063   3.032   0.926 -0.3743 -2.3210  0.0929
  129TMC2    C7 2014   1.138   2.775   0.839  0.7922  0.5508 -0.8452
  129TMC2    C8 2015   1.182   3.260   0.882  0.1912 -0.4020 -0.0449
  129TMC2    O1 2016   1.019   2.789   0.808 -0.1396  0.3786 -0.5785
  129TMC2    O2 2017   1.060   3.276   0.889  0.2692  0.1209 -0.4686
  129TMC2    O5 2018   1.286   3.334   0.931 -0.7259 -0.4752 -0.3039
  129TMC2    H5 2019   1.364   3.276   0.947 -0.7127 -0.1934  0.6026
  130MPD2     C 2020   1.773   3.031   0.532  0.2848  0.1272  0.0456
  130MPD2    C1 2021   1.742   3.095   0.652  1.1702 -0.5007 -1.1741
  130MPD2    C2 2022   1.822   3.198   0.703 -0.4660 -0.8983  0.5090
  130MPD2    C3 2023   1.935   3.236   0.637  0.7566  0.2605  0.1376
  130MPD2    C4 2024   1.961   3.184   0.510 -0.0281 -0.5347  0.4161
  130MPD2    C5 2025   1.879   3.084   0.461 -0.2571  0.1727 -0.0422
  130MPD2     H 2026   1.797   3.246   0.797 -0.8148  0.1271 -0.1107
  130MPD2    H1 2027   2.045   3.211   0.447  0.4643  0.0256  1.3095
  130MPD2    H2 2028   1.714   2.955   0.482  0.4881  0.1732 -0.2658
  130MPD2    H3 2029   1.900   3.040   0.364  1.2055  1.7328 -0.4362
  130MPD2     N 2030   2.010   3.342   0.696 -0.1277  0.0793  0.0781
  130MPD2    H5 2031   1.963   3.387   0.774 -0.1519 -0.8307  0.5932
  130MPD2    N1 2032   1.625   3.067   0.725 -0.5876 -0.1618  0.1629
  130MPD2    H7 2033   1.619   3.119   0.813  1.3204 -0.5488  0.5070
  131TMC2    C1 2034   4.445   2.154   9.305 -0.1238  0.3042 -0.3175
  131TMC2    C2 2035   4.579   2.128   9.283  0.1966 -0.5647  0.2534
  131TMC2    C3 2036   4.675   2.224   9.317 -0.2859  0.1462  0.1523
  131TMC2    C4 2037   4.399   2.266   9.366 -0.0150  0.3927 -0.2041
  131TMC2    C5 2038   4.496   2.354   9.407 -0.3887 -0.7126  0.4914
  131TMC2    C6 2039   4.631   2.341   9.383  0.4075 -0.4613  0.2213
  131TMC2     C 2040   4.353   2.057   9.262  0.1870 -0.7093  0.2623
  131TMC2     O 2041   4.396   1.945   9.254  0.0184 -0.3992 -0.3361
  131TMC2     H 2042   4.609   2.040   9.228 -0.4659 -1.2586  0.9934
  131TMC2    H1 2043   4.301   2.269   9.413 -0.0198  0.8651 -0.2493
  131TMC2    H2 2044   4.702   2.422   9.399 -0.8554  0.8518 -0.8147
  131TMC2    C7 2045   4.451   2.477   9.479 -0.1563  0.0974  0.0726
  131TMC2    C8 2046   0.080   2.199   9.307  0.0220  0.3915 -0.1321
  131TMC2    O1 2047   4.338   2.521   9.471 -0.5648 -0.1047  0.0940
  131TMC2    O2 2048   0.134   2.136   9.220 -0.4381  0.4895 -0.3701
  131TMC2    O5 2049   0.134   2.236   9.425  0.1018  0.1520  0.3208
  131TMC2    H5 2050   0.075   2.287   9.484  0.3781  0.5991  0.2060
  132MPD2     C 2051   4.006   2.093   9.134 -0.0549 -0.1649 -0.3588
  132MPD2    C1 2052   4.116   2.029   9.188  0.5848 -0.9935 -0.0141
  132MPD2    C2 2053   4.103   1.897   9.232  0.2702 -0.2146 -0.3426
  132MPD2    C3 2054   3.981   1.833   9.232  0.4731 -0.4811  0.0218
  132MPD2    C4 2055   3.876   1.888   9.167  0.2094 -0.7729 -0.4140
  132MPD2    C5 2056   3.885   2.020   9.126  0.2759  0.4396  0.3926
  132MPD2     H 2057   4.193   1.855   9.276 -0.7535  1.1305  3.0360
  132MPD2    H1 2058   3.777   1.847   9.181 -0.2599  0.9054  1.2359
  132MPD2    H2 2059   4.010   2.196   9.101 -1.5731  0.7275  2.2379
  132MPD2    H3 2060   3.797   2.071   9.089  2.6538  1.8974 -3.1882
  132MPD2     N 2061   3.975   1.704   9.299 -0.5552 -0.0915  0.1845
  132MPD2    H5 2062   4.068   1.678   9.330 -1.8312 -0.0084  4.1650
  132MPD2    N1 2063   4.232   2.109   9.219  0.2205  0.1465 -0.7953
  132MPD2    H7 2064   4.233   2.207   9.195 -0.1542  0.0535 -1.1798
  133TMC2    C1 2065   2.228   1.755   8.942 -0.4638 -0.0696  0.6758
  133TMC2    C2 2066   2.261   1.642   9.013  0.2574  0.4580  0.4765
  133TMC2    C3 2067   2.186   1.536   8.989  0.3101 -0.5825 -0.4992
  133TMC2    C4 2068   2.125   1.763   8.853 -0.3249 -0.0111 -0.0917
  133TMC2    C5 2069   2.054   1.646   8.838  0.2783  0.0537 -0.5180
  133TMC2    C6 2070   2.086   1.531   8.901  0.4557 -0.1516  0.0117
  133TMC2     C 2071   2.328   1.860   8.958  0.1008  0.4252 -0.2154
  133TMC2     O 2072   2.396   1.847   9.063  0.4684 -0.3640  0.4604
  133TMC2     H 2073   2.333   1.637   9.093 -0.0781  0.1804  0.7637
  133TMC2    H1 2074   2.094   1.858   8.813 -2.3230 -0.0092  1.4618
  133TMC2    H2 2075   2.041   1.434   8.887 -0.5590  0.3628 -0.3141
  133TMC2    C7 2076   1.932   1.648   8.761 -0.2383  0.0108 -0.1198
  133TMC2    C8 2077   2.235   1.410   9.046 -0.0318 -0.0868 -0.1351
  133TMC2    O1 2078   1.921   1.748   8.688  0.3297 -0.4390 -0.2206
  133TMC2    O2 2079   2.161   1.324   9.092 -0.2231 -0.1107  0.0407
  133TMC2    O5 2080   2.368   1.391   9.023  0.4452 -0.6637 -0.0499
  133TMC2    H5 2081   2.412   1.463   8.973  1.0158 -0.3064  0.9697
  134MPD2     C 2082   2.471   2.095   8.714 -0.6236 -0.3147  0.2238
  134MPD2    C1 2083   2.476   2.019   8.830  0.0497  0.2807  0.1078
  134MPD2    C2 2084   2.582   2.035   8.912 -0.1345  0.6148 -0.3597
  134MPD2    C3 2085   2.670   2.138   8.894  0.6013  0.3890 -0.7777
  134MPD2    C4 2086   2.660   2.214   8.779 -1.1677  0.8563  0.9939
  134MPD2    C5 2087   2.567   2.182   8.683  0.1407  0.1353 -0.1102
  134MPD2     H 2088   2.591   1.980   9.004  0.0289  1.7664  0.3169
  134MPD2    H1 2089   2.724   2.296   8.749  0.0407 -0.2422  0.5506
  134MPD2    H2 2090   2.388   2.078   8.647  0.2764 -2.6435 -0.3268
  134MPD2    H3 2091   2.556   2.249   8.598  1.7273  2.2070  1.2909
  134MPD2     N 2092   2.765   2.183   8.990  0.6486  0.0260  0.3108
  134MPD2    H5 2093   2.839   2.246   8.961  0.4780 -0.1610 -0.5372
  134MPD2    N1 2094   2.367   1.929   8.846  0.5766  0.4369 -0.1170
  134MPD2    H7 2095   2.307   1.917   8.765  0.2316 -1.5128  0.4211
  135TMC2    C1 2096   1.580   4.269   9.093 -0.2968  0.0185 -0.1958
  135TMC2    C2 2097   1.537   4.394   9.061 -0.2945  1.0473 -0.3727
  135TMC2    C3 2098   1.405   4.410   9.047  0.2813  0.8224 -0.0694
  135TMC2    C4 2099   1.496   4.163   9.108  0.2801  0.5453  0.1904
  135TMC2    C5 2100   1.366   4.178   9.088 -0.8509  0.6221 -0.0452
  135TMC2    C6 2101   1.316   4.302   9.053 -0.0636 -0.1668 -0.7482
  135TMC2     C 2102   1.722   4.256   9.121 -0.1441 -0.0685  0.2087
  135TMC2     O 2103   1.788   4.358   9.142  0.2600  0.3086 -0.0573
  135TMC2     H 2104   1.610   4.474   9.061  0.4780  0.3464 -0.7990
  135TMC2    H1 2105   1.529   4.069   9.151 -0.3904 -0.1153 -0.7430
  135TMC2    H2 2106   1.210   4.315   9.039 -0.2005 -0.6632 -0.1320
  135TMC2    C7 2107   1.274   4.062   9.075  0.5480  0.3510  0.0460
  135TMC2    C8 2108   1.347   4.540   9.016  0.2348  0.1638  0.3858
  135TMC2    O1 2109   1.325   3.950   9.055 -0.6281  0.0626  0.2860
  135TMC2    O2 2110   1.266   4.562   8.926 -0.2747 -0.8661 -0.1208
  135TMC2    O5 2111   1.438   4.632   9.065 -0.3200 -0.0245 -0.1582
  135TMC2    H5 2112   1.478   4.603   9.149  2.0467  0.8799 -0.9748
  136MPD2     C 2113   1.986   4.147   9.217 -0.5382  0.1951 -0.2028
  136MPD2    C1 2114   1.891   4.084   9.126  0.7119 -0.1981  0.0530
  136MPD2    C2 2115   1.925   3.970   9.060  0.1868  0.1508 -0.8641
  136MPD2    C3 2116   2.053   3.917   9.084 -0.7445 -0.1839  0.0320
  136MPD2    C4 2117   2.133   3.970   9.180 -0.1893 -0.6149 -0.7706
  136MPD2    C5 2118   2.097   4.081   9.249  0.6203 -0.2231 -0.1404
  136MPD2     H 2119   1.857   3.916   8.996 -1.3740 -0.9181  1.6967
  136MPD2    H1 2120   2.225   3.920   9.208  0.2538  0.6537  0.0168
  136MPD2    H2 2121   1.966   4.244   9.261 -0.3353 -1.2200  3.0515
  136MPD2    H3 2122   2.157   4.122   9.330 -0.5316  1.4699 -0.1309
  136MPD2     N 2123   2.100   3.796   9.028 -0.0752  0.0230  0.6824
  136MPD2    H5 2124   2.190   3.762   9.061 -0.7974 -0.4136  2.2155
  136MPD2    N1 2125   1.761   4.130   9.101  0.0328 -0.3918 -0.9615
  136MPD2    H7 2126   1.698   4.064   9.058 -0.8384 -0.1597 -0.0304
  137TMC2    C1 2127   1.471   3.155   9.278  0.1177 -0.2255 -0.0063
  137TMC2    C2 2128   1.490   3.166   9.142 -0.0187 -0.0665  0.0689
  137TMC2    C3 2129   1.458   3.063   9.056 -0.5758  0.9811  0.4556
  137TMC2    C4 2130   1.414   3.035   9.329  0.2969 -0.2692  0.0305
  137TMC2    C5 2131   1.362   2.942   9.234  0.5598 -0.1980 -0.1630
  137TMC2    C6 2132   1.390   2.951   9.100  0.3185  0.5491 -0.4608
  137TMC2     C 2133   1.514   3.254   9.373  0.6758  0.0880  0.2932
  137TMC2     O 2134   1.522   3.371   9.342  0.6492 -0.4855  0.1558
  137TMC2     H 2135   1.504   3.271   9.116  2.1252  0.1176  1.9237
  137TMC2    H1 2136   1.380   3.026   9.432  0.8299 -1.3647  0.1053
  137TMC2    H2 2137   1.362   2.871   9.032  2.0538 -1.1402  0.8283
  137TMC2    C7 2138   1.277   2.830   9.271  0.8149 -0.6668  0.2330
  137TMC2    C8 2139   1.464   3.091   8.913  0.5839  0.9642  0.9518
  137TMC2    O1 2140   1.284   2.731   9.202  0.5535 -0.0236  0.2383
  137TMC2    O2 2141   1.408   3.008   8.841 -0.6474  0.1324 -0.0833
  137TMC2    O5 2142   1.496   3.214   8.876 -0.7163  0.1074  0.0036
  137TMC2    H5 2143   1.529   3.276   8.944  1.0434  0.5300 -1.2534
  138MPD2     C 2144   1.651   3.193   9.696  0.0856  0.0196 -0.5688
  138MPD2    C1 2145   1.600   3.274   9.598 -0.4639  0.5887 -0.0886
  138MPD2    C2 2146   1.579   3.407   9.620  0.1769 -0.4225 -0.3836
  138MPD2    C3 2147   1.598   3.465   9.744  0.7686 -0.1114 -0.1121
  138MPD2    C4 2148   1.644   3.385   9.850  0.0372  0.1054  0.1492
  138MPD2    C5 2149   1.675   3.251   9.820  0.1791  0.3037  0.5632
  138MPD2     H 2150   1.541   3.469   9.539 -3.6083  0.5092  2.1007
  138MPD2    H1 2151   1.672   3.426   9.946  0.7956  0.2273 -0.1271
  138MPD2    H2 2152   1.675   3.089   9.677  2.3852  0.4639 -0.1987
  138MPD2    H3 2153   1.714   3.183   9.895  3.0367  0.9818 -0.2923
  138MPD2     N 2154   1.583   3.609   9.757  0.0666  0.0235 -0.1867
  138MPD2    H5 2155   1.556   3.665   9.677 -0.0804 -3.3259 -2.5117
  138MPD2    N1 2156   1.560   3.201   9.485 -0.2526 -0.8958  0.2208
  138MPD2    H7 2157   1.564   3.100   9.488 -0.6331 -0.9162  0.0048
  139TMC2    C1 2158   2.997   1.187  13.229  0.3576  0.4800  0.1233
  139TMC2    C2 2159   3.105   1.264  13.246  0.5013  0.3540 -0.3529
  139TMC2    C3 2160   3.083   1.400  13.272  0.2319 -0.1498 -0.4620
  139TMC2    C4 2161   2.868   1.235  13.218 -0.4375  0.1901  0.1812
  139TMC2    C5 2162   2.858   1.369  13.240  0.5851 -0.1274  0.2533
  139TMC2    C6 2163   2.954   1.455  13.269 -0.1776  0.5087  0.2829
  139TMC2     C 2164   3.004   1.059  13.150 -0.2123 -0.0230 -0.3053
  139TMC2     O 2165   2.912   1.049  13.071 -0.0124  0.5860  0.7410
  139TMC2     H 2166   3.204   1.223  13.231  0.2814 -0.4597  0.3510
  139TMC2    H1 2167   2.777   1.176  13.212  0.3925 -1.1540  0.8328
  139TMC2    H2 2168   2.932   1.558  13.294  2.0909  1.7518 -2.7919
  139TMC2    C7 2169   2.721   1.419  13.243 -0.1443  0.0639  0.1259
  139TMC2    C8 2170   3.180   1.492  13.316  0.4589 -0.1622 -0.0494
  139TMC2    O1 2171   2.695   1.520  13.304 -0.8248  0.0439 -0.5012
  139TMC2    O2 2172   3.151   1.609  13.332 -0.2584 -0.2658 -0.1919
  139TMC2    O5 2173   3.306   1.432  13.339 -0.1736  0.1357 -0.2456
  139TMC2    H5 2174   3.323   1.335  13.333  0.0112  0.1423  0.1626
  140MPD2     C 2175   3.235   0.781  13.130  0.1378  0.1751 -0.0421
  140MPD2    C1 2176   3.118   0.849  13.119  0.2448  0.2876  0.0567
  140MPD2    C2 2177   3.010   0.779  13.062 -0.4896  0.0284  0.2858
  140MPD2    C3 2178   3.014   0.657  13.008 -0.4378  0.2313 -1.2337
  140MPD2    C4 2179   3.138   0.594  13.011 -0.7176  0.3008  0.0510
  140MPD2    C5 2180   3.241   0.658  13.072  0.4924  0.4375 -0.3923
  140MPD2     H 2181   2.915   0.827  13.082  0.8552  1.8265  2.2744
  140MPD2    H1 2182   3.155   0.494  12.971 -0.6422  0.2317  0.2545
  140MPD2    H2 2183   3.330   0.821  13.163  0.5820  0.0991 -1.2394
  140MPD2    H3 2184   3.336   0.605  13.079 -0.7980 -1.9665 -1.1830
  140MPD2     N 2185   2.890   0.594  12.959 -0.5190 -0.1492 -0.1720
  140MPD2    H5 2186   2.806   0.652  12.956  0.9180  1.8290 -2.0453
  140MPD2    N1 2187   3.103   0.974  13.175  0.6388  0.4135  0.3688
  140MPD2    H7 2188   3.186   1.004  13.226  0.9904 -1.2311  0.7438
  141TMC2    C1 2189   2.646   2.874  13.932  0.0984 -0.7672 -0.1627
  141TMC2    C2 2190   2.553   2.946  13.992 -0.2789  0.2125  0.1902
  141TMC2    C3 2191   2.572   2.974  14.126 -0.0103  0.2468 -1.0181
  141TMC2    C4 2192   2.746   2.810  14.000  0.5581 -1.0451 -0.3065
  141TMC2    C5 2193   2.756   2.842  14.132 -0.8107 -0.6242  0.2035
  141TMC2    C6 2194   2.670   2.919  14.201 -0.3532 -0.1488 -0.2745
  141TMC2     C 2195   2.609   2.833  13.803  0.3454 -0.5651  0.9626
  141TMC2     O 2196   2.494   2.852  13.761  0.2145 -0.1008  0.0644
  141TMC2     H 2197   2.471   2.986  13.933 -0.7049 -0.9431 -0.0051
  141TMC2    H1 2198   2.814   2.739  13.954  2.5503 -0.5069  1.8053
  141TMC2    H2 2199   2.665   2.937  14.307 -0.3886 -1.5705 -0.0445
  141TMC2    C7 2200   2.856   2.765  14.211  0.4174  0.1627 -0.7709
  141TMC2    C8 2201   2.454   3.017  14.195  1.2495  0.3140  0.1204
  141TMC2    O1 2202   2.902   2.659  14.170 -0.0259 -0.6522  0.3187
  141TMC2    O2 2203   2.398   2.942  14.275  0.3406  0.0542  0.3845
  141TMC2    O5 2204   2.409   3.132  14.149  0.0395  0.3482  0.5276
  141TMC2    H5 2205   2.467   3.166  14.076 -1.2401 -1.9990 -1.5882
  142TMC2    C1 2206   0.763   0.595  10.245  0.7163 -0.3667  0.4501
  142TMC2    C2 2207   0.847   0.624  10.345  0.0167 -0.0692  0.3999
  142TMC2    C3 2208   0.906   0.746  10.351  0.7213  0.5874  0.1920
  142TMC2    C4 2209   0.762   0.683  10.135 -0.7020 -0.0396 -0.2246
  142TMC2    C5 2210   0.807   0.813  10.150 -0.3812  0.2709 -0.3249
  142TMC2    C6 2211   0.888   0.844  10.253 -0.2532 -0.1929  0.0261
  142TMC2     C 2212   0.671   0.484  10.250 -0.1691 -0.1194 -0.5276
  142TMC2     O 2213   0.569   0.501  10.184 -0.3609 -0.2000 -0.4985
  142TMC2     H 2214   0.874   0.551  10.420 -2.3916 -2.5853 -1.2024
  142TMC2    H1 2215   0.721   0.652  10.039 -0.4160 -0.3077 -0.2624
  142TMC2    H2 2216   0.936   0.940  10.265 -0.7910 -0.0852  1.2684
  142TMC2    C7 2217   0.761   0.917  10.051  0.0196 -0.3317 -0.8825
  142TMC2    C8 2218   1.001   0.756  10.464 -0.4952  0.1295 -0.7814
  142TMC2    O1 2219   0.700   0.862   9.963  0.4321 -0.1609  0.3287
  142TMC2    O2 2220   1.029   0.662  10.537 -0.1814  0.3825  0.2386
  142TMC2    O5 2221   1.003   0.880  10.515 -0.0045  0.0712 -0.1566
  142TMC2    H5 2222   0.949   0.945  10.466 -0.4297 -0.4409 -0.3695
  143MPD2     C 2223   0.576   4.729  10.321 -0.0841  0.1696  0.5034
  143MPD2    C1 2224   0.535   0.084  10.220  0.1118 -0.1919  0.1510
  143MPD2    C2 2225   0.582   0.209  10.203 -0.1865  0.3009  0.2138
  143MPD2    C3 2226   0.673   0.250  10.301 -0.0634  0.2409 -0.5398
  143MPD2    C4 2227   0.720   0.162  10.397 -0.1062 -0.3077 -0.1037
  143MPD2    C5 2228   0.673   0.037  10.406  0.1057 -0.5434  0.2985
  143MPD2     H 2229   0.553   0.280  10.126  0.1243  0.8975  0.6526
  143MPD2    H1 2230   0.799   0.194  10.465  1.3586 -0.3369 -1.7794
  143MPD2    H2 2231   0.536   4.630  10.336  0.1468 -0.2853 -1.7699
  143MPD2    H3 2232   0.723   4.701  10.471  2.5000  0.2878 -0.5983
  143MPD2     N 2233   0.730   0.376  10.305  0.5995  0.0953  0.2652
  143MPD2    H5 2234   0.815   0.381  10.359 -0.6867  0.5424  2.2612
  143MPD2    N1 2235   0.430   0.039  10.134  0.4437 -0.0347  0.4265
  143MPD2    H7 2236   0.379   4.693  10.166  1.3129 -0.8315 -0.1846
  144TMC2    C1 2237   2.861   0.688   0.373  0.3997  0.6324 -0.2414
  144TMC2    C2 2238   2.932   0.580   0.419 -0.1204  0.1398 -0.5145
  144TMC2    C3 2239   3.030   0.609   0.509  0.6847  0.0129  0.2195
  144TMC2    C4 2240   2.873   0.815   0.417  0.2996  0.4772 -1.3012
  144TMC2    C5 2241   2.981   0.838   0.500  0.2178 -0.3440 -0.2024
  144TMC2    C6 2242   3.067   0.736   0.544 -0.1599  0.6430 -0.3133
  144TMC2     C 2243   2.766   0.662   0.256  0.3774  0.0632  0.7597
  144TMC2     O 2244   2.743   0.544   0.241 -0.2599 -0.4674  0.0495
  144TMC2     H 2245   2.921   0.480   0.379 -0.1233 -0.4945  1.0464
  144TMC2    H1 2246   2.792   0.887   0.407 -1.0497 -0.7564  0.7640
  144TMC2    H2 2247   3.156   0.760   0.602  0.3814 -0.0797 -0.8293
  144TMC2    C7 2248   3.012   0.967   0.560 -0.5456 -0.9499 -0.0065
  144TMC2    C8 2249   3.113   0.499   0.548 -0.1957  0.7222  0.3067
  144TMC2    O1 2250   3.100   0.976   0.643 -0.4636  0.1042  0.2663
  144TMC2    O2 2251   3.103   0.385   0.506 -0.0671  0.2456 -0.1434
  144TMC2    O5 2252   3.098   0.523   0.685 -0.3804  0.2145  0.0502
  144TMC2    H5 2253   3.102   0.617   0.715 -0.7233  0.4270 -0.5622
  145MPD2     C 2254   2.502   0.762  17.558 -0.2566  0.1766 -0.6348
  145MPD2    C1 2255   2.541   0.640  17.621  0.0168 -0.4943 -0.1793
  145MPD2    C2 2256   2.615   0.646   0.002  0.3878 -0.5597  0.9108
  145MPD2    C3 2257   2.650   0.759   0.061  0.5974  0.6472  0.1230
  145MPD2    C4 2258   2.623   0.878  17.734 -0.3257  0.2338 -0.8151
  145MPD2    C5 2259   2.547   0.878  17.617  0.3008 -0.0810  0.8226
  145MPD2     H 2260   2.636   0.546   0.039  1.3673 -1.1536 -1.2354
  145MPD2    H1 2261   2.651   0.965   0.053 -0.8441  1.8746 -3.0432
  145MPD2    H2 2262   2.440   0.758  17.469 -0.9014  0.1142 -0.1804
  145MPD2    H3 2263   2.515   0.973  17.577  3.2712  0.1783 -0.9768
  145MPD2     N 2264   2.732   0.772   0.179 -0.3329  0.0313  0.2841
  145MPD2    H5 2265   2.761   0.868   0.197  0.9783 -0.3574  0.2265
  145MPD2    N1 2266   2.506   0.519  17.566 -0.0577  0.6036  1.0075
  145MPD2    H7 2267   2.538   0.432  17.607  1.4840 -1.1022 -3.7601
  146TMC2    C1 2268   0.021   3.752  11.819  0.5579  0.1482 -0.3706
  146TMC2    C2 2269   0.001   3.816  11.698  0.1964  0.4810 -0.4905
  146TMC2    C3 2270   0.097   3.792  11.601 -0.6107 -0.1874 -0.1237
  146TMC2    C4 2271   0.135   3.679  11.844 -0.4522 -0.7719  0.4534
  146TMC2    C5 2272   0.228   3.668  11.740  0.0071  0.2519  0.1377
  146TMC2    C6 2273   0.213   3.718  11.615 -0.6143 -0.7997 -0.6812
  146TMC2     C 2274   4.666   3.781  11.925  0.1476  0.3449  0.2084
  146TMC2     O 2275   4.623   3.895  11.912  0.4421  0.0210 -0.5495
  146TMC2     H 2276   4.645   3.869  11.676 -1.7995 -2.3355  0.9011
  146TMC2    H1 2277   0.169   3.649  11.943 -0.9160  1.4532  1.2939
  146TMC2    H2 2278   0.285   3.706  11.535  1.3101 -2.5494  1.3210
  146TMC2    C7 2279   0.354   3.605  11.767  0.0695 -0.3934 -0.3984
  146TMC2    C8 2280   0.104   3.890  11.496  0.6474  0.4770 -0.3568
  146TMC2    O1 2281   0.438   3.631  11.683  0.2731 -0.3297 -0.0582
  146TMC2    O2 2282   0.008   3.956  11.454  0.3573  0.0128  0.5365
  146TMC2    O5 2283   0.216   3.949  11.538 -0.1748  0.1253 -0.3727
  146TMC2    H5 2284   0.254   3.917  11.623  0.6963  1.8789 -0.1069
  147MPD2     C 2285   0.668   3.234  11.945  0.3382  0.2527 -0.1612
  147MPD2    C1 2286   0.564   3.255  12.033  0.5908  0.2716  0.1258
  147MPD2    C2 2287   0.461   3.346  12.002  0.8562 -0.0248  0.2300
  147MPD2    C3 2288   0.466   3.422  11.887  0.5728 -0.1572  0.4293
  147MPD2    C4 2289   0.580   3.415  11.812 -0.2777 -0.3187 -0.0004
  147MPD2    C5 2290   0.673   3.319  11.835 -0.4847  0.2461 -0.2654
  147MPD2     H 2291   0.370   3.349  12.061  0.5642 -2.7145 -0.0789
  147MPD2    H1 2292   0.600   3.475  11.724 -2.6057 -0.3998 -0.5599
  147MPD2    H2 2293   0.749   3.162  11.956  0.7517  1.0612  2.1681
  147MPD2    H3 2294   0.755   3.296  11.767 -1.4767  0.2744 -1.4693
  147MPD2     N 2295   0.363   3.515  11.870 -0.5953  0.4401 -0.2991
  147MPD2    H5 2296   0.272   3.494  11.909  0.4420 -0.7733  1.4897
  147MPD2    N1 2297   0.573   3.192  12.159 -0.4639  0.5257 -0.1029
  147MPD2    H7 2298   0.659   3.142  12.180 -0.3815  0.1720 -1.2627
  148TMC2    C1 2299   4.372   2.397  10.261 -0.1761  0.2985  0.3291
  148TMC2    C2 2300   4.479   2.468  10.297 -0.5569 -0.1794  0.1111
  148TMC2    C3 2301   4.591   2.394  10.335  0.6962 -0.0892  0.3605
  148TMC2    C4 2302   4.363   2.261  10.276  0.4633 -0.2662 -0.0875
  148TMC2    C5 2303   4.478   2.194  10.320  0.4489 -0.2532 -0.4546
  148TMC2    C6 2304   4.594   2.260  10.356 -0.0431 -0.5072  0.4047
  148TMC2     C 2305   4.248   2.472  10.242  0.2420  0.1524 -0.6078
  148TMC2     O 2306   4.254   2.584  10.294 -0.6284 -0.3490 -0.2156
  148TMC2     H 2307   4.490   2.575  10.290 -1.0570  0.1187  3.7971
  148TMC2    H1 2308   4.271   2.207  10.259  1.3232 -1.6463 -0.3077
  148TMC2    H2 2309   4.675   2.208  10.406 -0.2171 -0.5313  0.6597
  148TMC2    C7 2310   4.468   2.043  10.327 -0.9640  0.3691  0.0506
  148TMC2    C8 2311   4.724   2.461  10.368  0.0755 -0.6570 -0.2539
  148TMC2    O1 2312   4.399   1.985  10.242  0.3400 -0.4009  0.2749
  148TMC2    O2 2313   4.726   2.581  10.397 -0.0159 -0.6565  0.6077
  148TMC2    O5 2314   0.087   2.383  10.311  0.2161  0.8350  0.3174
  148TMC2    H5 2315   0.180   2.415  10.315 -0.5106  2.5829  3.7323
  149MPD2     C 2316   3.988   2.585  10.150 -0.4609 -0.3383  0.1184
  149MPD2    C1 2317   4.040   2.473  10.091  0.0197 -0.2336 -0.2687
  149MPD2    C2 2318   3.969   2.411   9.990  0.7037  0.6090 -0.1070
  149MPD2    C3 2319   3.836   2.440   9.966  0.4540  0.2385 -0.4477
  149MPD2    C4 2320   3.788   2.555  10.028 -0.0883  1.3964 -0.2333
  149MPD2    C5 2321   3.861   2.632  10.119  0.0015  0.4412  0.2082
  149MPD2     H 2322   4.002   2.313   9.959  1.1578  0.0743  2.0784
  149MPD2    H1 2323   3.698   2.607   9.998  0.5104  4.0721  2.6572
  149MPD2    H2 2324   4.038   2.630  10.235  1.3557 -1.0204 -0.5979
  149MPD2    H3 2325   3.816   2.722  10.158 -1.7179  0.0702 -0.9168
  149MPD2     N 2326   3.748   2.354   9.894  0.2050  0.0537 -0.6316
  149MPD2    H5 2327   3.648   2.368   9.909  0.5699  1.3965  0.4984
  149MPD2    N1 2328   4.161   2.416  10.141  0.0195 -0.3205  0.2533
  149MPD2    H7 2329   4.186   2.325  10.104  0.5303 -0.0323 -0.1114
  150TMC2    C1 2330   1.708   1.483  12.151  0.2645 -0.3810  0.6295
  150TMC2    C2 2331   1.663   1.544  12.036  0.3304  0.3034  0.6709
  150TMC2    C3 2332   1.727   1.661  11.986  0.0729  0.0168  0.4040
  150TMC2    C4 2333   1.811   1.533  12.218  0.4807 -0.2011  0.8807
  150TMC2    C5 2334   1.879   1.642  12.164 -0.6441  0.4171  0.0309
  150TMC2    C6 2335   1.835   1.707  12.052 -0.1579 -0.3392 -0.1178
  150TMC2     C 2336   1.635   1.365  12.196  0.1302  0.4168  0.1416
  150TMC2     O 2337   1.681   1.304  12.289 -0.4842 -0.7296 -1.0500
  150TMC2     H 2338   1.585   1.506  11.971  1.1739 -2.2998  1.1525
  150TMC2    H1 2339   1.827   1.480  12.311  0.9744 -0.2724  0.7523
  150TMC2    H2 2340   1.893   1.791  12.014  0.6500 -1.2121 -0.7894
  150TMC2    C7 2341   1.997   1.694  12.232  0.4192 -0.5499  0.5371
  150TMC2    C8 2342   1.700   1.715  11.851  0.3890 -0.7038 -0.0342
  150TMC2    O1 2343   2.031   1.812  12.201 -0.4618 -0.1669  0.1264
  150TMC2    O2 2344   1.784   1.754  11.771 -0.2727 -0.0997  0.2662
  150TMC2    O5 2345   1.567   1.731  11.836 -0.2068  0.0065  0.2261
  150TMC2    H5 2346   1.517   1.707  11.917  0.3428  0.2848  0.6426
  151MPD2     C 2347   1.205   1.077  12.204 -0.1126 -0.3027  0.3045
  151MPD2    C1 2348   1.195   1.160  12.094 -0.1990  0.2133 -0.2213
  151MPD2    C2 2349   1.302   1.242  12.064  0.0992 -0.5138  0.0215
  151MPD2    C3 2350   1.412   1.247  12.148 -0.2221  0.8268 -0.4649
  151MPD2    C4 2351   1.421   1.173  12.261 -0.9004 -0.0058 -0.9212
  151MPD2    C5 2352   1.322   1.077  12.288 -0.1917  0.5948 -0.0148
  151MPD2     H 2353   1.310   1.299  11.972 -0.1834  1.5897  1.3081
  151MPD2    H1 2354   1.508   1.158  12.324 -3.2057 -1.5289  1.9307
  151MPD2    H2 2355   1.126   1.006  12.226 -1.0027  0.6105  0.0517
  151MPD2    H3 2356   1.330   1.004  12.368 -1.3327 -0.3319 -0.7312
  151MPD2     N 2357   1.521   1.332  12.121 -0.1130  0.2356 -0.1958
  151MPD2    H5 2358   1.509   1.391  12.039 -0.8475  1.7768  1.0255
  151MPD2    N1 2359   1.072   1.148  12.013 -0.0721  0.2288  0.0763
  151MPD2    H7 2360   0.999   1.080  12.032 -0.9166  0.7433 -1.3444
  152TMC2    C1 2361   1.567   1.238  12.696  0.0967 -0.6203  0.0485
  152TMC2    C2 2362   1.645   1.186  12.801 -0.2725  0.2000  0.2299
  152TMC2    C3 2363   1.748   1.261  12.847 -0.4412  0.1217  0.4609
  152TMC2    C4 2364   1.610   1.350  12.623  0.2451 -0.0943 -0.9133
  152TMC2    C5 2365   1.720   1.420  12.674 -0.2867 -0.6373  0.1670
  152TMC2    C6 2366   1.790   1.382  12.790  0.0297 -0.3895  0.5940
  152TMC2     C 2367   1.440   1.176  12.659  0.0441 -0.8262  0.2325
  152TMC2     O 2368   1.348   1.241  12.621 -0.5284 -0.3399  0.3216
  152TMC2     H 2369   1.611   1.108  12.868  1.0581 -0.7827 -0.2476
  152TMC2    H1 2370   1.568   1.383  12.529 -0.6517  0.2773 -0.3755
  152TMC2    H2 2371   1.873   1.441  12.827  0.7990 -0.3092 -1.2658
  152TMC2    C7 2372   1.724   1.557  12.636 -0.4149 -0.1542  0.6053
  152TMC2    C8 2373   1.812   1.221  12.973 -0.0406  0.4620  0.1729
  152TMC2    O1 2374   1.621   1.611  12.604 -0.1972 -0.0616 -0.1235
  152TMC2    O2 2375   1.840   1.103  12.992 -0.1713 -0.3667 -0.1718
  152TMC2    O5 2376   1.838   1.325  13.049 -0.6827  0.4031 -0.0475
  152TMC2    H5 2377   1.806   1.408  13.008  2.2512  0.8993 -1.3221
  153MPD2     C 2378   1.380   0.807  12.670  0.0127  0.3887 -0.2176
  153MPD2    C1 2379   1.347   0.940  12.667  0.6650  0.3759 -0.2738
  153MPD2    C2 2380   1.212   0.972  12.669 -0.3781 -0.1674  0.3308
  153MPD2    C3 2381   1.113   0.877  12.660 -0.1984  0.9419 -0.1263
  153MPD2    C4 2382   1.151   0.739  12.662 -0.0681  0.0370 -0.6531
  153MPD2    C5 2383   1.288   0.706  12.667 -0.1602  0.1105  0.0058
  153MPD2     H 2384   1.180   1.074  12.684  0.7961  0.2259  0.2274
  153MPD2    H1 2385   1.081   0.657  12.673 -0.3402  0.6894  2.4922
  153MPD2    H2 2386   1.485   0.780  12.670 -0.7740 -2.6738 -1.1496
  153MPD2    H3 2387   1.322   0.603  12.677 -1.9545 -0.3084  1.6909
  153MPD2     N 2388   0.977   0.915  12.654 -0.0799  0.0448 -0.0690
  153MPD2    H5 2389   0.962   1.015  12.665 -0.6059 -0.3713  2.8182
  153MPD2    N1 2390   1.448   1.036  12.675  0.0412 -0.2727  0.3956
  153MPD2    H7 2391   1.543   0.999  12.678  0.5669  1.0503 -0.1865
  154TMC2    C1 2392   3.256   2.163   0.560  0.6754  1.1198  0.1693
  154TMC2    C2 2393   3.356   2.195   0.649  0.4020 -0.4700 -0.0838
  154TMC2    C3 2394   3.463   2.112   0.657 -0.3180  0.0751 -0.0071
  154TMC2    C4 2395   3.253   2.052   0.479  0.0059  0.2581 -0.0646
  154TMC2    C5 2396   3.356   1.962   0.502 -0.1989  0.3727 -0.2256
  154TMC2    C6 2397   3.461   1.993   0.584  0.2849  0.0451  0.0997
  154TMC2     C 2398   3.149   2.267   0.541  0.9247 -0.2281  0.5108
  154TMC2     O 2399   3.167   2.364   0.616 -0.1907  0.2028 -0.2091
  154TMC2     H 2400   3.345   2.274   0.722 -1.5127 -1.9543  1.2606
  154TMC2    H1 2401   3.160   2.021   0.433 -0.7055  2.2576  0.0384
  154TMC2    H2 2402   3.535   1.915   0.596 -0.2090 -0.6629 -1.4068
  154TMC2    C7 2403   3.372   1.844   0.415  0.0229 -0.3784 -0.2249
  154TMC2    C8 2404   3.572   2.151   0.734 -0.8133  0.2395  0.0135
  154TMC2    O1 2405   3.467   1.769   0.429 -0.5058  0.4756  0.1676
  154TMC2    O2 2406   3.594   2.257   0.788  0.2831 -0.1786  0.0671
  154TMC2    O5 2407   3.621   2.033   0.782  0.2156 -0.2342 -0.5444
  154TMC2    H5 2408   3.567   1.958   0.750 -0.7553 -0.8487  2.5258
  155MPD2     C 2409   2.926   2.348   0.263  0.3492  0.3208  0.2234
  155MPD2    C1 2410   2.987   2.370   0.384 -0.7384  0.3217  0.4368
  155MPD2    C2 2411   2.951   2.481   0.461 -0.0947 -0.4038  0.7353
  155MPD2    C3 2412   2.868   2.578   0.399 -0.1538 -0.0904  0.5930
  155MPD2    C4 2413   2.834   2.567   0.267  0.1734  0.1904 -0.0336
  155MPD2    C5 2414   2.859   2.445   0.203  0.4612 -0.1130 -0.1266
  155MPD2     H 2415   2.986   2.485   0.563 -1.2564  0.2763  1.1132
  155MPD2    H1 2416   2.776   2.644   0.217 -2.4681 -2.0524 -0.4283
  155MPD2    H2 2417   2.956   2.260   0.207 -1.3615  0.5704 -1.0815
  155MPD2    H3 2418   2.824   2.430   0.102 -0.4217  0.4113  0.0933
  155MPD2     N 2419   2.814   2.678   0.480 -0.8664 -0.4723  0.1393
  155MPD2    H5 2420   2.825   2.664   0.580 -1.8816  0.9288  0.4527
  155MPD2    N1 2421   3.075   2.262   0.425  0.1240 -0.2778  0.2119
  155MPD2    H7 2422   3.081   2.176   0.371 -0.0209 -0.6866  0.8383
  156TMC2    C1 2423   1.935   3.408  11.390 -0.5935  0.7811  0.6393
  156TMC2    C2 2424   1.945   3.295  11.317  0.6422 -0.3318 -0.4641
  156TMC2    C3 2425   1.919   3.312  11.182  0.4956  0.2125  0.9723
  156TMC2    C4 2426   1.867   3.520  11.349 -0.1590  0.1410  0.2230
  156TMC2    C5 2427   1.821   3.521  11.218 -0.0633  0.4034 -0.1297
  156TMC2    C6 2428   1.853   3.415  11.135 -0.1747 -0.7293  0.2073
  156TMC2     C 2429   1.935   3.402  11.531  1.1888  0.4914  0.0282
  156TMC2     O 2430   1.859   3.476  11.594 -0.3867  0.5949  1.0044
  156TMC2     H 2431   1.988   3.203  11.358  1.0166  0.5431  1.1217
  156TMC2    H1 2432   1.872   3.608  11.412 -1.3178  0.0409  0.4635
  156TMC2    H2 2433   1.832   3.416  11.029 -1.7361  3.6905  0.5358
  156TMC2    C7 2434   1.711   3.611  11.195  0.4405  0.5533 -0.0992
  156TMC2    C8 2435   1.925   3.197  11.086  0.6685 -0.1443  0.1899
  156TMC2    O1 2436   1.680   3.695  11.279 -0.0311 -0.0910  0.7233
  156TMC2    O2 2437   1.856   3.195  10.988  0.1760  0.1232 -0.1784
  156TMC2    O5 2438   1.979   3.084  11.141  0.0401 -0.5398  0.2388
  156TMC2    H5 2439   2.050   3.102  11.207  0.2079 -1.0893  0.2123
  157MPD2     C 2440   2.188   3.244  11.746  0.1548 -0.0929  0.3659
  157MPD2    C1 2441   2.065   3.301  11.716 -0.7242  0.8390 -0.1859
  157MPD2    C2 2442   1.966   3.310  11.814  0.2096  0.0266 -0.4823
  157MPD2    C3 2443   1.986   3.263  11.942  0.5109 -1.1267  0.8454
  157MPD2    C4 2444   2.109   3.215  11.968  0.1641  0.0786 -0.0984
  157MPD2    C5 2445   2.209   3.200  11.875  0.3283  0.7760 -0.0677
  157MPD2     H 2446   1.869   3.354  11.792 -0.4233 -0.3835  1.4924
  157MPD2    H1 2447   2.125   3.184  12.071 -1.4812  2.6071  0.9070
  157MPD2    H2 2448   2.264   3.235  11.669 -0.9391  1.0092 -0.8543
  157MPD2    H3 2449   2.304   3.155  11.902  0.2005  1.6806  1.8460
  157MPD2     N 2450   1.877   3.242  12.027 -0.7024  0.2360  0.5453
  157MPD2    H5 2451   1.781   3.256  11.997  0.7656  3.3398 -2.5728
  157MPD2    N1 2452   2.036   3.326  11.583 -0.0001 -0.3884  0.2703
  157MPD2    H7 2453   2.105   3.296  11.515 -0.5009  1.5856 -1.1024
  158TMC2    C1 2454   1.103   2.483  13.331 -0.1457  0.3863  0.4340
  158TMC2    C2 2455   0.981   2.511  13.379  0.2386  0.2639  0.4303
  158TMC2    C3 2456   0.909   2.418  13.447 -0.0095  0.2619 -0.7184
  158TMC2    C4 2457   1.159   2.365  13.360  0.0942  0.0425  0.3453
  158TMC2    C5 2458   1.093   2.271  13.432 -0.6335 -0.1519 -0.8242
  158TMC2    C6 2459   0.958   2.291  13.461  0.2112 -0.1502 -0.8721
  158TMC2     C 2460   1.190   2.594  13.302  0.6379 -0.1386  0.4057
  158TMC2     O 2461   1.142   2.694  13.257 -0.4572 -0.1275 -0.2208
  158TMC2     H 2462   0.935   2.609  13.373 -0.0409  0.1374  0.4825
  158TMC2    H1 2463   1.244   2.331  13.302  0.9703  2.9396 -0.0353
  158TMC2    H2 2464   0.907   2.220  13.524  1.5149 -2.1242 -2.0408
  158TMC2    C7 2465   1.150   2.140  13.462 -0.0271 -0.1787  0.0450
  158TMC2    C8 2466   0.769   2.440  13.464  0.4758  0.1287  0.0236
  158TMC2    O1 2467   1.075   2.045  13.470  0.1277  0.0241  0.2151
  158TMC2    O2 2468   0.710   2.531  13.410  0.1934 -0.0553  0.0112
  158TMC2    O5 2469   0.724   2.390  13.579  0.2965  0.3717  1.0126
  158TMC2    H5 2470   0.802   2.341  13.614 -0.1292 -0.1940  1.1695
  159MPD2     C 2471   1.654   2.798  13.256  0.0459 -0.1414  0.4622
  159MPD2    C1 2472   1.637   2.731  13.374  0.5187 -0.0910 -0.2286
  159MPD2    C2 2473   1.525   2.659  13.402  0.5822  0.5345 -0.3170
  159MPD2    C3 2474   1.418   2.661  13.315  0.4405  0.3881  0.0506
  159MPD2    C4 2475   1.422   2.732  13.198 -0.2581  0.3423  0.1216
  159MPD2    C5 2476   1.545   2.800  13.173 -0.0648  0.4733 -0.2989
  159MPD2     H 2477   1.529   2.594  13.489 -0.2889  1.8254  0.6864
  159MPD2    H1 2478   1.349   2.739  13.119 -1.1961  0.5671  1.0172
  159MPD2    H2 2479   1.741   2.861  13.239  0.1083 -0.0429  1.1809
  159MPD2    H3 2480   1.547   2.866  13.087  0.1971  0.9184  0.0472
  159MPD2     N 2481   1.314   2.578  13.348  0.0264  0.4143 -0.2255
  159MPD2    H5 2482   1.335   2.511  13.422  1.2436 -1.0384 -1.8896
  159MPD2    N1 2483   1.745   2.741  13.470  0.4274  0.3924 -0.3598
  159MPD2    H7 2484   1.832   2.779  13.435  1.0973  0.8550  1.7876
  160TMC2    C1 2485   2.150   1.195   0.994 -0.1278 -0.4129  0.2155
  160TMC2    C2 2486   2.235   1.211   1.101  0.0651 -0.3055  0.8812
  160TMC2    C3 2487   2.335   1.305   1.091 -0.0368 -0.3916  0.3043
  160TMC2    C4 2488   2.167   1.275   0.880 -0.4970  0.2105  0.3192
  160TMC2    C5 2489   2.261   1.378   0.884  0.1797  0.6475  0.1692
  160TMC2    C6 2490   2.349   1.391   0.984 -0.2751  0.6962 -0.7942
  160TMC2     C 2491   2.022   1.145   1.028 -0.3150  0.0798 -0.3097
  160TMC2     O 2492   2.002   1.082   1.131 -0.5878  0.3143 -0.7097
  160TMC2     H 2493   2.229   1.158   1.196  0.9958 -2.0994 -0.0589
  160TMC2    H1 2494   2.095   1.270   0.799  1.3029 -1.7539 -1.1745
  160TMC2    H2 2495   2.440   1.450   0.976  0.2382 -0.1168 -1.0309
  160TMC2    C7 2496   2.244   1.488   0.790  0.0044  0.6494  0.4146
  160TMC2    C8 2497   2.443   1.305   1.187  0.0929  0.0077  0.3173
  160TMC2    O1 2498   2.166   1.459   0.701 -0.5882 -0.3296  0.3227
  160TMC2    O2 2499   2.437   1.223   1.278 -0.1016  0.2288 -0.5880
  160TMC2    O5 2500   2.484   1.431   1.198  0.2595 -0.1122  0.5039
  160TMC2    H5 2501   2.445   1.497   1.137 -0.1779 -0.9149 -0.0866
  161MPD2     C 2502   1.752   1.032   0.986 -0.0232 -0.2075  0.1730
  161MPD2    C1 2503   1.801   1.137   0.917  0.1336  0.0398  0.1390
  161MPD2    C2 2504   1.719   1.219   0.842 -0.0796 -0.6355  0.5095
  161MPD2    C3 2505   1.587   1.191   0.832  0.0022 -0.2233 -0.1903
  161MPD2    C4 2506   1.534   1.086   0.890 -0.5099 -0.1056 -0.5819
  161MPD2    C5 2507   1.615   1.012   0.967  0.0920  0.1923  0.5512
  161MPD2     H 2508   1.774   1.298   0.793 -0.6578 -1.5613 -1.6538
  161MPD2    H1 2509   1.428   1.071   0.875 -1.2767  2.0325  2.5816
  161MPD2    H2 2510   1.803   0.966   1.056 -0.3425 -1.1354 -0.4668
  161MPD2    H3 2511   1.568   0.919   0.997  1.0024  0.2042  2.0050
  161MPD2     N 2512   1.507   1.288   0.759  0.3340 -0.0871  0.7445
  161MPD2    H5 2513   1.414   1.253   0.739  0.0385  1.8598 -1.2056
  161MPD2    N1 2514   1.932   1.175   0.929 -0.6717 -0.0483  0.1827
  161MPD2    H7 2515   1.960   1.243   0.858 -0.3914  0.8901  1.1924
  162TMC2    C1 2516   4.425   2.994   0.926  0.0859 -0.1994 -0.4556
  162TMC2    C2 2517   4.376   3.112   0.979 -0.2834 -0.3448 -0.0637
  162TMC2    C3 2518   4.439   3.162   1.088 -0.3385  0.2519  0.7240
  162TMC2    C4 2519   4.536   2.934   0.971  0.3098 -0.0904 -0.2491
  162TMC2    C5 2520   4.599   2.987   1.083 -0.3590 -0.2986 -0.1116
  162TMC2    C6 2521   4.552   3.100   1.144 -0.5843  0.0869 -0.1712
  162TMC2     C 2522   4.381   2.956   0.795 -0.1722  0.0581  0.3676
  162TMC2     O 2523   4.395   2.838   0.754 -0.1791  0.3416 -0.2868
  162TMC2     H 2524   4.287   3.161   0.941 -0.6024 -1.0773 -0.2561
  162TMC2    H1 2525   4.581   2.849   0.922  1.0067  0.1525 -0.0368
  162TMC2    H2 2526   4.600   3.147   1.229 -2.1286  0.2663  0.6030
  162TMC2    C7 2527   0.010   2.986   1.084  0.8559 -0.1514  0.2399
  162TMC2    C8 2528   4.373   3.265   1.158 -0.2966  0.3921 -0.1695
  162TMC2    O1 2529   0.068   3.063   1.156 -0.2732  0.2980  0.4958
  162TMC2    O2 2530   4.375   3.384   1.122  0.5861 -0.1094 -0.3014
  162TMC2    O5 2531   4.395   3.238   1.290 -0.0354  0.2479  0.2686
  162TMC2    H5 2532   4.419   3.143   1.287 -1.1701 -0.0889  1.5043
  163MPD2     C 2533   4.272   3.122   0.324 -0.0964 -0.1348 -0.3344
  163MPD2    C1 2534   4.301   2.990   0.368  0.3796  0.2481 -0.0827
  163MPD2    C2 2535   4.303   2.963   0.503  0.3856  0.5335 -0.4716
  163MPD2    C3 2536   4.302   3.073   0.588  0.2942  0.4772 -0.0302
  163MPD2    C4 2537   4.289   3.202   0.539 -0.4949  0.0198  0.5229
  163MPD2    C5 2538   4.260   3.225   0.410  0.9415 -0.3496 -0.1948
  163MPD2     H 2539   4.322   2.861   0.533 -0.3638  0.4685 -0.2163
  163MPD2    H1 2540   4.284   3.289   0.604  0.1031  0.9257 -0.6387
  163MPD2    H2 2541   4.262   3.135   0.217 -0.4111 -0.3154 -0.3283
  163MPD2    H3 2542   4.253   3.326   0.371 -2.7132 -0.0792  1.1864
  163MPD2     N 2543   4.335   3.066   0.725  0.1297 -0.2503 -0.2646
  163MPD2    H5 2544   4.353   3.157   0.767 -3.8273  0.6001 -0.3382
  163MPD2    N1 2545   4.315   2.900   0.260  0.0094 -0.2023 -0.4120
  163MPD2    H7 2546   4.297   2.942   0.170 -0.7301  1.5863  0.5695
  164TMC2    C1 2547   0.318   1.869  10.506  0.2543  0.5593  0.1213
  164TMC2    C2 2548   0.443   1.919  10.476 -1.1063 -0.1882  0.3654
  164TMC2    C3 2549   0.454   2.056  10.480  0.5632  0.6212  0.3532
  164TMC2    C4 2550   0.217   1.951  10.544 -0.1246  0.1363 -0.8843
  164TMC2    C5 2551   0.239   2.077  10.579  0.0477 -0.2865 -0.2244
  164TMC2    C6 2552   0.350   2.137  10.530 -0.1969  0.1931 -0.1032
  164TMC2     C 2553   0.288   1.746  10.449  0.4122  0.8639 -0.4099
  164TMC2     O 2554   0.361   1.654  10.484 -0.4806  0.1790 -0.0519
  164TMC2     H 2555   0.519   1.848  10.447 -1.5711 -0.7101  0.4379
  164TMC2    H1 2556   0.124   1.902  10.572 -0.2772  0.7507 -0.3388
  164TMC2    H2 2557   0.364   2.244  10.538 -2.5780  0.4870  0.1634
  164TMC2    C7 2558   0.123   2.158  10.618  0.6000  0.3132 -0.7634
  164TMC2    C8 2559   0.557   2.126  10.397  0.6710 -0.6148 -0.2755
  164TMC2    O1 2560   0.016   2.105  10.608  0.2990  0.2627 -0.3359
  164TMC2    O2 2561   0.561   2.249  10.390 -0.3996  0.7117  0.3007
  164TMC2    O5 2562   0.643   2.043  10.336 -0.1120 -0.3366  0.3699
  164TMC2    H5 2563   0.625   1.949  10.354  1.4104 -0.6635  0.1703
  165TMC2    C1 2564   2.011   0.431   1.414  0.0002 -0.0218 -0.4114
  165TMC2    C2 2565   2.074   0.496   1.520  0.1784 -0.4650 -0.4356
  165TMC2    C3 2566   2.129   0.619   1.492 -0.7591 -0.3804 -0.5515
  165TMC2    C4 2567   2.012   0.485   1.288 -0.6661  0.0094 -0.0735
  165TMC2    C5 2568   2.079   0.603   1.270 -0.8376  0.0300 -0.2078
  165TMC2    C6 2569   2.120   0.680   1.374 -0.5950  0.6350  0.2811
  165TMC2     C 2570   1.964   0.298   1.438 -1.0036 -0.0985  0.0195
  165TMC2     O 2571   1.989   0.257   1.552  0.0721 -0.1570 -0.0608
  165TMC2     H 2572   2.058   0.460   1.621 -3.5658  0.4952 -0.6947
  165TMC2    H1 2573   1.989   0.421   1.203 -1.5889 -1.6863  1.4512
  165TMC2    H2 2574   2.189   0.762   1.358  0.9009 -0.9523 -1.3465
  165TMC2    C7 2575   2.096   0.660   1.138 -0.7789  0.0462  0.0702
  165TMC2    C8 2576   2.172   0.713   1.595 -0.3750  0.1910 -0.1627
  165TMC2    O1 2577   2.189   0.741   1.126  0.1420  0.0139  0.0235
  165TMC2    O2 2578   2.162   0.833   1.585 -0.2152  0.1368  0.3586
  165TMC2    O5 2579   2.282   0.651   1.643 -1.0961  0.6078 -0.3954
  165TMC2    H5 2580   2.284   0.554   1.630  2.3692  0.4691  1.1662
  166MPD2     C 2581   1.743   4.600   1.301 -0.6248 -0.3753  0.0176
  166MPD2    C1 2582   1.852   4.621   1.387 -0.6896  0.2978  0.3721
  166MPD2    C2 2583   1.895   0.019   1.395  0.5682 -0.1851 -0.5168
  166MPD2    C3 2584   1.824   0.121   1.334  0.2996  0.1941  0.6734
  166MPD2    C4 2585   1.721   0.092   1.253  0.3894 -0.0918  0.2637
  166MPD2    C5 2586   1.674   4.706   1.250 -0.0143  0.3020 -0.0734
  166MPD2     H 2587   1.988   0.033   1.448 -0.7341  3.6311  0.7422
  166MPD2    H1 2588   1.662   0.178   1.224  0.0771 -1.0557 -1.9810
  166MPD2    H2 2589   1.697   4.503   1.296 -0.1556 -0.6152  0.3240
  166MPD2    H3 2590   1.572   4.710   1.215  0.4080  0.6153 -1.2643
  166MPD2     N 2591   1.874   0.250   1.344 -0.1215  0.8227  0.0218
  166MPD2    H5 2592   1.847   0.306   1.263  0.2168  0.3232 -0.4395
  166MPD2    N1 2593   1.912   4.515   1.456  0.7480  0.6016 -0.6081
  166MPD2    H7 2594   1.873   4.423   1.439  0.3815  1.0812 -2.3079
  167TMC2    C1 2595   4.119   1.867  12.729  0.1884 -0.3899  0.1534
  167TMC2    C2 2596   4.083   1.891  12.856  0.0048 -0.1014  0.0597
  167TMC2    C3 2597   4.124   1.801  12.951  0.8303  0.0860  0.6590
  167TMC2    C4 2598   4.209   1.763  12.698 -0.5272  0.1098  0.3310
  167TMC2    C5 2599   4.249   1.682  12.796  0.0046  0.3676  0.1665
  167TMC2    C6 2600   4.210   1.702  12.928  0.5455 -0.1972  0.4669
  167TMC2     C 2601   4.110   1.988  12.644  0.3650  0.5163  0.7184
  167TMC2     O 2602   4.017   2.066  12.669  0.4550 -0.6683  0.2240
  167TMC2     H 2603   4.022   1.976  12.886 -1.7494 -1.5049  0.4600
  167TMC2    H1 2604   4.219   1.731  12.595 -0.6403 -0.8419  0.6141
  167TMC2    H2 2605   4.254   1.639  13.005 -0.6374 -0.0108  1.2904
  167TMC2    C7 2606   4.347   1.575  12.772 -0.2157  0.1268 -0.7987
  167TMC2    C8 2607   4.121   1.855  13.088  0.2501 -0.5830  0.4532
  167TMC2    O1 2608   4.369   1.490  12.860 -0.4561  0.6213  0.3427
  167TMC2    O2 2609   4.218   1.832  13.159 -0.7367 -0.6674 -0.0177
  167TMC2    O5 2610   3.992   1.845  13.128 -0.2658 -0.4888 -0.2297
  167TMC2    H5 2611   3.935   1.824  13.051 -0.1487 -0.1898 -0.3959
  168MPD2     C 2612   4.083   2.193  12.427 -0.3456 -0.3191 -0.3071
  168MPD2    C1 2613   4.184   2.099  12.435  0.2602 -0.6140  0.4172
  168MPD2    C2 2614   4.271   2.094  12.329 -0.4731 -1.0229  0.0958
  168MPD2    C3 2615   4.254   2.171  12.216  0.9218  0.1777  0.2201
  168MPD2    C4 2616   4.151   2.259  12.202  1.2904  0.3226  0.8335
  168MPD2    C5 2617   4.075   2.275  12.319 -0.6339  0.0142  0.5551
  168MPD2     H 2618   4.342   2.012  12.337  0.7663  0.1431  0.8886
  168MPD2    H1 2619   4.129   2.324  12.119  0.4700 -1.8873 -0.6690
  168MPD2    H2 2620   4.011   2.201  12.507  1.7426  0.6617  1.4951
  168MPD2    H3 2621   3.996   2.349  12.318  0.7569  1.5121  1.6935
  168MPD2     N 2622   4.339   2.171  12.105  0.6096  0.3568 -0.1687
  168MPD2    H5 2623   4.322   2.233  12.027 -1.4702 -0.3719 -0.3014
  168MPD2    N1 2624   4.194   2.004  12.540  0.4246  0.2910  0.6596
  168MPD2    H7 2625   4.267   1.934  12.534  0.7802  0.7183  0.0798
  169MPD1     C 2626   1.282   2.323   8.518 -0.3821  0.0041  0.0709
  169MPD1    C1 2627   1.356   2.352   8.624 -0.4687 -0.0291 -0.3640
  169MPD1    C2 2628   1.399   2.244   8.697  0.3003 -0.2976  0.3051
  169MPD1    C3 2629   1.372   2.114   8.668 -0.6550 -0.7426 -0.6730
  169MPD1    C4 2630   1.296   2.083   8.556 -0.2064 -0.6385  0.8240
  169MPD1    C5 2631   1.249   2.193   8.484  0.0310  0.3970  0.5418
  169MPD1     H 2632   1.433   2.272   8.797  0.6675 -1.9233  0.6286
  169MPD1    H1 2633   1.260   1.984   8.533 -0.5790 -0.3094  0.0003
  169MPD1    H2 2634   1.238   2.403   8.459  0.0705  0.4882  0.3864
  169MPD1    H3 2635   1.187   2.175   8.397  0.1998  0.7885  0.3366
  169MPD1     N 2636   1.415   2.014   8.763 -0.0318 -0.5965  0.0480
  169MPD1    H5 2637   1.453   2.041   8.853  1.6624 -3.7939  0.2871
  169MPD1    N1 2638   1.357   2.482   8.678  0.0380 -0.3468  0.2996
  169MPD1    H6 2639   1.427   2.495   8.751 -0.2603 -0.1704  0.5552
  169MPD1    H7 2640   1.364   2.554   8.606  0.9019 -2.6086 -1.8497
  170MPD1     C 2641   0.884   4.342  12.696  0.1969 -0.3402  0.0574
  170MPD1    C1 2642   0.894   4.342  12.829  0.6457 -0.5371  0.3101
  170MPD1    C2 2643   0.795   4.401  12.900 -0.7032 -0.6751 -0.3061
  170MPD1    C3 2644   0.676   4.446  12.842 -0.2133  0.3367 -0.1496
  170MPD1    C4 2645   0.664   4.436  12.710  0.2308 -0.2734  0.3556
  170MPD1    C5 2646   0.766   4.386  12.642  1.1422 -0.5815  0.0368
  170MPD1     H 2647   0.811   4.405  13.007 -0.3369 -0.2014 -0.3835
  170MPD1    H1 2648   0.589   4.469  12.639  1.5847 -1.1194 -1.4620
  170MPD1    H2 2649   0.965   4.315  12.629 -0.9187  2.8196 -2.5630
  170MPD1    H3 2650   0.752   4.384  12.535 -0.8580  2.7583  0.2243
  170MPD1     N 2651   0.589   4.516  12.933  0.4400 -0.0578 -0.2641
  170MPD1    H5 2652   0.624   4.527  13.028 -1.4562 -1.7090  0.6236
  170MPD1    N1 2653   1.007   4.301  12.898  0.3149 -0.2756 -0.2045
  170MPD1    H6 2654   0.981   4.234  12.971 -2.4438  0.3778 -0.6260
  170MPD1    H7 2655   1.076   4.254  12.839  0.9147  1.8035 -1.1566
  171MPD1     C 2656   3.477   0.924  14.673  0.1134  0.8362  0.3288
  171MPD1    C1 2657   3.395   0.970  14.773 -0.1904  0.0888  0.5624
  171MPD1    C2 2658   3.405   0.920  14.901  1.0196 -0.9253 -0.9643
  171MPD1    C3 2659   3.509   0.826  14.933 -0.3631 -0.1805 -0.2976
  171MPD1    C4 2660   3.593   0.788  14.831  1.4562  0.4425  0.3138
  171MPD1    C5 2661   3.575   0.829  14.704  0.3145 -0.4036 -0.2442
  171MPD1     H 2662   3.343   0.955  14.982  0.4814 -0.4862 -1.5602
  171MPD1    H1 2663   3.666   0.711  14.852  0.2509 -0.9245 -0.5030
  171MPD1    H2 2664   3.485   0.965  14.574  0.9759  0.3229  0.1819
  171MPD1    H3 2665   3.633   0.793  14.620 -1.1310 -0.4150 -1.2331
  171MPD1     N 2666   3.531   0.767  15.061  0.0031 -0.1051  0.3165
  171MPD1    H5 2667   3.596   0.691  15.069 -1.4418 -1.3386  0.3824
  171MPD1    N1 2668   3.292   1.056  14.743 -0.6182  0.4467  0.7957
  171MPD1    H6 2669   3.247   1.094  14.826  0.1963  0.0322  1.4267
  171MPD1    H7 2670   3.320   1.129  14.678  0.5124 -1.2941 -0.6571
  172MPD1     C 2671   3.099   0.017  17.474  0.1801 -0.4048 -0.3682
  172MPD1    C1 2672   3.063   0.099  17.365 -0.1092  0.3789  0.1492
  172MPD1    C2 2673   3.013   0.223  17.395 -0.1635  0.4947 -0.0093
  172MPD1    C3 2674   2.975   0.252  17.525 -0.8483 -0.6587  0.2348
  172MPD1    C4 2675   2.991   0.155  17.622 -0.0529 -0.6951 -0.9750
  172MPD1    C5 2676   3.054   0.038  17.599  0.0356  0.3686 -0.6064
  172MPD1     H 2677   2.991   0.296  17.317  2.1960  1.6089  0.3795
  172MPD1    H1 2678   2.971   0.168  17.728  1.2395  2.1195 -1.0902
  172MPD1    H2 2679   3.160   4.663  17.462  2.7569  1.3138 -0.2744
  172MPD1    H3 2680   3.081   4.706  17.680 -1.1128 -0.0472 -0.5549
  172MPD1     N 2681   2.931   0.377  17.569  0.5450  0.0237 -0.1127
  172MPD1    H5 2682   2.920   0.396  17.668 -1.2015  1.1623 -0.5217
  172MPD1    N1 2683   3.105   0.075  17.236 -0.1395 -0.3693 -0.2500
  172MPD1    H6 2684   3.106   4.709  17.220  0.8243 -0.4328  0.2017
  172MPD1    H7 2685   3.050   0.123  17.165 -0.6039  0.4338  0.6547
  173MPD1     C 2686   0.026   0.025  13.480  0.9665  0.1255 -0.6545
  173MPD1    C1 2687   4.633   0.053  13.508  0.5698 -0.4964 -0.2481
  173MPD1    C2 2688   4.578   0.006  13.621 -0.4415  0.4056 -0.5746
  173MPD1    C3 2689   4.656   4.685  13.724 -0.2801  0.1234 -0.0023
  173MPD1    C4 2690   0.058   4.668  13.697 -0.5665 -0.1110  0.5140
  173MPD1    C5 2691   0.111   4.708  13.580  0.0991 -0.6685  0.0197
  173MPD1     H 2692   4.470   0.015  13.630 -0.3625 -0.0496  0.9009
  173MPD1    H1 2693   0.132   4.620  13.760 -0.2782  0.6343  0.7395
  173MPD1    H2 2694   0.063   0.044  13.380  1.0964 -1.2088 -0.8703
  173MPD1    H3 2695   0.216   4.692  13.559 -0.3732 -4.2977  0.4306
  173MPD1     N 2696   4.597   4.652  13.851 -0.0753  0.3879  0.0437
  173MPD1    H5 2697   4.496   4.653  13.846 -0.0962  1.5320  0.9116
  173MPD1    N1 2698   4.543   0.093  13.407 -0.1331  0.1087  0.4341
  173MPD1    H6 2699   4.584   0.161  13.343 -2.0570  2.4591  1.6860
  173MPD1    H7 2700   4.459   0.139  13.442  0.7133  0.4938  1.9990
  174MPD1     C 2701   0.260   4.416  14.741 -0.4016 -0.6951 -0.0999
  174MPD1    C1 2702   0.137   4.356  14.748  0.3041 -0.6234 -0.5881
  174MPD1    C2 2703   0.051   4.380  14.643 -0.0409  0.4493  0.0623
  174MPD1    C3 2704   0.085   4.449  14.528  0.2857 -0.1076  0.1994
  174MPD1    C4 2705   0.210   4.499  14.519 -0.8975 -0.0072  0.1757
  174MPD1    C5 2706   0.291   4.480  14.624  0.0816 -0.0785  0.0017
  174MPD1     H 2707   4.691   4.328  14.650 -0.4019  0.9514 -1.2648
  174MPD1    H1 2708   0.236   4.564  14.436 -0.8466  0.6878  0.7333
  174MPD1    H2 2709   0.339   4.405  14.814 -0.2882 -1.7918 -0.3883
  174MPD1    H3 2710   0.395   4.509  14.610 -0.6190  1.5183 -1.9209
  174MPD1     N 2711   4.725   4.475  14.423  0.3293 -0.1719 -0.2941
  174MPD1    H5 2712   0.025   4.537  14.351  2.2738 -1.0893 -0.1509
  174MPD1    N1 2713   0.094   4.282  14.854  0.3068 -0.0764 -0.0492
  174MPD1    H6 2714   0.166   4.245  14.915  1.2208  0.7729 -0.6195
  174MPD1    H7 2715   0.028   4.207  14.830 -1.3614  1.1545  0.6709
  175MPD1     C 2716   2.799   1.758  14.883 -0.4188  0.2345 -0.4643
  175MPD1    C1 2717   2.854   1.636  14.917  0.3974 -1.0181  0.2627
  175MPD1    C2 2718   2.785   1.548  14.992  0.3791 -0.0820 -0.5415
  175MPD1    C3 2719   2.666   1.592  15.054 -0.2602  0.5301 -0.0748
  175MPD1    C4 2720   2.621   1.719  15.028  0.0760  0.5983 -0.1138
  175MPD1    C5 2721   2.684   1.802  14.943  1.1130  0.0913  0.7937
  175MPD1     H 2722   2.830   1.452  15.014  1.1647  0.6031  0.8404
  175MPD1    H1 2723   2.522   1.743  15.066 -0.1081 -0.0109 -0.2096
  175MPD1    H2 2724   2.847   1.823  14.810 -0.4506 -0.1774 -0.8534
  175MPD1    H3 2725   2.640   1.901  14.932  0.9323 -0.2759 -1.6840
  175MPD1     N 2726   2.582   1.510  15.130  0.4245 -0.3017  0.5170
  175MPD1    H5 2727   2.500   1.551  15.172  0.4545  0.6254 -0.3172
  175MPD1    N1 2728   2.975   1.597  14.853  0.1550 -0.0074  0.7864
  175MPD1    H6 2729   3.018   1.674  14.802 -2.4737  1.6222  0.9838
  175MPD1    H7 2730   3.040   1.533  14.897  0.6736  0.7850  1.1806
  176MPD1     C 2731   4.325   2.905  16.368 -0.3298 -0.2103 -0.9732
  176MPD1    C1 2732   4.281   3.033  16.335  0.2763  0.4410 -0.1509
  176MPD1    C2 2733   4.304   3.134  16.423 -0.2462  0.4792 -0.6430
  176MPD1    C3 2734   4.360   3.111  16.546 -0.5245  0.4629  0.6535
  176MPD1    C4 2735   4.402   2.989  16.581 -0.5455  0.0569 -0.2352
  176MPD1    C5 2736   4.387   2.882  16.490  0.4751 -0.0532 -0.3123
  176MPD1     H 2737   4.269   3.230  16.390 -1.8722 -0.3492 -1.3113
  176MPD1    H1 2738   4.465   2.970  16.667 -0.3916  0.0137 -0.3578
  176MPD1    H2 2739   4.310   2.818  16.305 -0.3677 -0.0523 -1.1802
  176MPD1    H3 2740   4.410   2.782  16.525  0.6984 -0.7019 -2.2744
  176MPD1     N 2741   4.377   3.221  16.634 -0.1894  0.2052 -0.6584
  176MPD1    H5 2742   4.337   3.306  16.594 -0.0371  1.0369  0.9378
  176MPD1    N1 2743   4.248   3.065  16.204  0.4330 -0.6965  0.2196
  176MPD1    H6 2744   4.193   3.151  16.196  1.0404 -0.3947 -0.7116
  176MPD1    H7 2745   4.186   2.997  16.160  0.6825 -0.2111 -0.8860
  177MPD1     C 2746   2.718   2.587   9.643 -0.4105  0.3852 -0.0576
  177MPD1    C1 2747   2.615   2.533   9.564 -0.3469  0.6482  0.1986
  177MPD1    C2 2748   2.520   2.623   9.515 -0.0317 -0.1847 -0.1909
  177MPD1    C3 2749   2.524   2.757   9.547 -0.3851  0.2362  0.1755
  177MPD1    C4 2750   2.625   2.807   9.632 -0.2472 -0.2721  0.5686
  177MPD1    C5 2751   2.717   2.723   9.673 -0.1079  0.3453 -0.4319
  177MPD1     H 2752   2.442   2.586   9.451  0.9345  0.4063 -1.7160
  177MPD1    H1 2753   2.632   2.912   9.654  2.3990 -0.2138 -0.4964
  177MPD1    H2 2754   2.803   2.527   9.673 -0.8725 -0.0050  0.4677
  177MPD1    H3 2755   2.795   2.754   9.741  0.7659 -0.6651 -0.9669
  177MPD1     N 2756   2.421   2.831   9.480  0.0706 -0.0364 -0.3515
  177MPD1    H5 2757   2.354   2.774   9.429 -1.3597  0.3449  1.0826
  177MPD1    N1 2758   2.611   2.395   9.525  0.0463 -0.1058 -0.1993
  177MPD1    H6 2759   2.520   2.352   9.508  0.1080 -1.2251  2.1972
  177MPD1    H7 2760   2.673   2.342   9.587 -0.8662 -0.6806  0.2178
  178MPD1     C 2761   1.074   3.374  16.699  0.3184 -0.1847  0.1141
  178MPD1    C1 2762   0.974   3.306  16.764  0.1256  0.3412 -0.1579
  178MPD1    C2 2763   0.880   3.372  16.838 -0.1186  0.2303 -0.0690
  178MPD1    C3 2764   0.899   3.506  16.862  0.4789  1.0961  0.0544
  178MPD1    C4 2765   1.009   3.571  16.814 -0.3340 -0.8337  0.2399
  178MPD1    C5 2766   1.097   3.504  16.733  0.3578  0.0581 -0.4928
  178MPD1     H 2767   0.788   3.327  16.872  0.4997 -0.5546  0.5662
  178MPD1    H1 2768   1.028   3.675  16.837  1.0700 -0.9651 -0.3243
  178MPD1    H2 2769   1.143   3.326  16.630 -0.8026  0.4338 -1.4339
  178MPD1    H3 2770   1.186   3.559  16.705  0.5630 -1.3249 -2.5077
  178MPD1     N 2771   0.799   3.587  16.921  0.0740  0.2245  1.0246
  178MPD1    H5 2772   0.822   3.685  16.932  1.6078  0.0523 -0.6474
  178MPD1    N1 2773   0.951   3.168  16.737 -0.2686 -0.3093 -0.1919
  178MPD1    H6 2774   1.042   3.122  16.737 -0.2190 -0.2135  0.6301
  178MPD1    H7 2775   0.893   3.123  16.807  0.0220  1.0226  0.9105
  179MPD1     C 2776   0.262   2.604  15.645 -0.3346  0.4427 -0.6125
  179MPD1    C1 2777   0.216   2.507  15.558 -0.7835  0.5403 -0.2226
  179MPD1    C2 2778   0.145   2.414  15.611 -0.9890  0.6192 -0.6290
  179MPD1    C3 2779   0.089   2.416  15.742 -0.2513 -0.4993 -1.0511
  179MPD1    C4 2780   0.111   2.523  15.816 -0.3216 -0.3072 -0.4201
  179MPD1    C5 2781   0.202   2.618  15.768  0.5093 -0.1320 -0.2506
  179MPD1     H 2782   0.122   2.328  15.550  2.4907 -0.0890 -0.9767
  179MPD1    H1 2783   0.059   2.522  15.911  1.6404  0.9428  0.6698
  179MPD1    H2 2784   0.333   2.680  15.615  1.4324 -1.5965 -1.6192
  179MPD1    H3 2785   0.228   2.710  15.819 -0.9356  1.2541 -2.0301
  179MPD1     N 2786   0.026   2.302  15.790  0.0693 -0.6314 -0.1379
  179MPD1    H5 2787   0.022   2.291  15.891  1.0288 -2.3783 -0.2761
  179MPD1    N1 2788   0.285   2.485  15.438  0.4238 -0.1576 -0.5993
  179MPD1    H6 2789   0.231   2.442  15.364  1.4193 -0.8285 -0.9373
  179MPD1    H7 2790   0.330   2.565  15.395  2.2695 -1.1513 -0.5152
  180MPD1     C 2791   4.014   3.726  14.662 -0.5332 -0.0488  0.5046
  180MPD1    C1 2792   4.145   3.697  14.638 -0.1577  0.8140 -0.1967
  180MPD1    C2 2793   4.170   3.602  14.540  0.7147  0.2878  0.5380
  180MPD1    C3 2794   4.073   3.532  14.471 -0.0176  0.2412 -0.3032
  180MPD1    C4 2795   3.942   3.563  14.498  0.3329  0.1393  0.0434
  180MPD1    C5 2796   3.915   3.665  14.587 -0.0914  0.6042  0.1943
  180MPD1     H 2797   4.273   3.580  14.512  0.2939 -0.7976 -0.1597
  180MPD1    H1 2798   3.861   3.510  14.449  0.8416 -1.0549  0.4670
  180MPD1    H2 2799   3.982   3.807  14.727  2.0816 -1.4346  3.5193
  180MPD1    H3 2800   3.809   3.683  14.600 -0.2551  1.5113 -2.2905
  180MPD1     N 2801   4.107   3.432  14.376 -0.0752 -0.6651 -0.2250
  180MPD1    H5 2802   4.207   3.416  14.367 -0.3094 -0.6375 -3.0442
  180MPD1    N1 2803   4.248   3.775  14.690 -0.3077 -0.3790 -0.2030
  180MPD1    H6 2804   4.222   3.775  14.789  2.2821 -1.9972  0.4881
  180MPD1    H7 2805   4.330   3.714  14.689  1.1257  1.5247  0.9141
  181MPD1     C 2806   1.204   4.585  10.012 -0.0251 -0.1416 -1.0628
  181MPD1    C1 2807   1.208   4.548   9.877  0.1623  0.6665 -0.1634
  181MPD1    C2 2808   1.288   4.624   9.800 -0.0349 -0.1405  0.1320
  181MPD1    C3 2809   1.352   0.005   9.845  0.3897  0.6599  0.3465
  181MPD1    C4 2810   1.321   0.050   9.972  0.8795  0.4270  0.1170
  181MPD1    C5 2811   1.258   4.701  10.061 -0.2439 -0.5206  0.1380
  181MPD1     H 2812   1.285   4.608   9.693  1.0333  0.2324  0.0515
  181MPD1    H1 2813   1.372   0.137  10.011  0.1621  0.1921  1.5653
  181MPD1    H2 2814   1.150   4.527  10.086 -0.1834  0.8528 -0.4013
  181MPD1    H3 2815   1.225   4.727  10.161 -1.9368  0.3115 -0.6523
  181MPD1     N 2816   1.446   0.081   9.770 -0.0599  0.2628  0.5722
  181MPD1    H5 2817   1.502   0.155   9.812 -1.7763  0.8969  1.7394
  181MPD1    N1 2818   1.161   4.425   9.824 -0.0176  0.6447  0.0997
  181MPD1    H6 2819   1.235   4.365   9.789  0.4277 -0.2966  2.6760
  181MPD1    H7 2820   1.097   4.372   9.882  1.8691 -1.1576  0.5121
  182MPD1     C 2821   2.487   4.594   0.971  0.0754 -0.4890 -0.4000
  182MPD1    C1 2822   2.389   4.695   0.982 -0.0314 -0.6662 -0.3046
  182MPD1    C2 2823   2.322   4.726   0.867  0.1915  0.0417 -0.2118
  182MPD1    C3 2824   2.333   4.654   0.751  0.5613  0.2612  0.4028
  182MPD1    C4 2825   2.420   4.542   0.746  0.7248 -0.3896  0.1058
  182MPD1    C5 2826   2.491   4.515   0.859 -0.5211  0.0591 -0.3340
  182MPD1     H 2827   2.251   0.073   0.862  0.1769 -0.0638 -1.7644
  182MPD1    H1 2828   2.435   4.481   0.658 -0.4836  1.1168 -1.1561
  182MPD1    H2 2829   2.542   4.566   1.060  0.6424  1.1064 -0.2610
  182MPD1    H3 2830   2.548   4.423   0.855  1.7432  1.4444  0.3600
  182MPD1     N 2831   2.255   4.679   0.630  0.2106 -0.1333 -0.1753
  182MPD1    H5 2832   2.267   4.609   0.558  0.0636  0.3137 -0.6351
  182MPD1    N1 2833   2.401   0.053   1.086 -0.3891 -0.0535  0.6164
  182MPD1    H6 2834   2.406   0.001   1.174  1.6942  0.3560  0.7581
  182MPD1    H7 2835   2.322   0.115   1.101 -0.7024 -0.7884  1.9852
  183MPD1     C 2836   3.106   4.321   8.646  1.0802 -0.6515 -0.0505
  183MPD1    C1 2837   3.108   4.318   8.782  0.5725 -0.6696 -0.2880
  183MPD1    C2 2838   3.102   4.431   8.861  0.3936 -0.0218  0.0767
  183MPD1    C3 2839   3.103   4.555   8.804 -0.2556  0.5138  0.0843
  183MPD1    C4 2840   3.117   4.558   8.663 -0.4122 -0.4988 -0.4400
  183MPD1    C5 2841   3.122   4.444   8.591  0.3115  0.4302 -0.3405
  183MPD1     H 2842   3.094   4.428   8.970  0.3219  3.1732  0.1554
  183MPD1    H1 2843   3.134   4.654   8.616  1.8764 -1.0334 -0.7141
  183MPD1    H2 2844   3.106   4.235   8.580  1.1931 -0.9416  0.3236
  183MPD1    H3 2845   3.132   4.452   8.484 -0.8321  1.1802 -0.3933
  183MPD1     N 2846   3.092   4.666   8.890  0.1381  0.0535 -1.0016
  183MPD1    H5 2847   3.070   4.651   8.988  2.1348 -1.1452 -0.7435
  183MPD1    N1 2848   3.129   4.197   8.839 -0.1574  1.1502  0.0234
  183MPD1    H6 2849   3.092   4.126   8.777 -1.5078 -0.3578  2.5520
  183MPD1    H7 2850   3.076   4.191   8.926 -0.3990  1.3831 -0.1084
  184MPD1     C 2851   1.145   2.082   9.384  0.5384 -0.3217  0.7209
  184MPD1    C1 2852   1.263   2.101   9.453  0.4335  0.1873  0.3667
  184MPD1    C2 2853   1.341   2.210   9.421 -0.1983 -0.0436 -0.4120
  184MPD1    C3 2854   1.314   2.282   9.307 -0.2342 -0.3738  0.0863
  184MPD1    C4 2855   1.199   2.254   9.232  0.0664  0.8534 -0.0006
  184MPD1    C5 2856   1.109   2.162   9.273 -0.5895  0.1588  0.2337
  184MPD1     H 2857   1.428   2.228   9.484 -0.3367 -0.9453  0.0376
  184MPD1    H1 2858   1.167   2.313   9.147  0.8490  1.7313  0.3142
  184MPD1    H2 2859   1.073   2.006   9.413 -1.4810  1.5756  0.7112
  184MPD1    H3 2860   1.017   2.146   9.219 -0.8738 -0.7354  0.9853
  184MPD1     N 2861   1.382   2.397   9.269  0.2913  0.0840  0.4160
  184MPD1    H5 2862   1.345   2.442   9.186  0.7445  1.0697  0.7574
  184MPD1    N1 2863   1.271   2.037   9.578 -0.0531 -0.3474 -0.0401
  184MPD1    H6 2864   1.369   2.015   9.599  0.0979 -0.7064 -1.1283
  184MPD1    H7 2865   1.218   1.950   9.574 -0.1077 -0.3277  0.2810
  185MPD1     C 2866   1.745   2.739   8.423  0.3760  0.3824  0.1396
  185MPD1    C1 2867   1.702   2.616   8.474  0.0611  0.2129 -0.0665
  185MPD1    C2 2868   1.653   2.621   8.605  0.5027  0.0171 -0.4116
  185MPD1    C3 2869   1.677   2.733   8.688 -0.0829  0.2443 -0.7399
  185MPD1    C4 2870   1.739   2.840   8.636  0.1251  0.1618 -0.4802
  185MPD1    C5 2871   1.775   2.843   8.509 -0.8282  0.2355 -0.3304
  185MPD1     H 2872   1.602   2.533   8.643 -0.7310  0.3059 -1.3811
  185MPD1    H1 2873   1.766   2.929   8.692  1.0644  0.2575 -1.0926
  185MPD1    H2 2874   1.766   2.743   8.317  1.1264 -1.4713  0.2159
  185MPD1    H3 2875   1.831   2.930   8.476  0.6552 -1.0548 -1.1973
  185MPD1     N 2876   1.651   2.726   8.833  0.2827  0.5435 -0.4110
  185MPD1    H5 2877   1.696   2.801   8.884 -0.2752  0.9230 -0.4884
  185MPD1    N1 2878   1.673   2.509   8.391 -0.5276 -0.3079  0.2842
  185MPD1    H6 2879   1.741   2.504   8.316  0.9795 -0.3271  1.6510
  185MPD1    H7 2880   1.677   2.420   8.440 -1.2929 -0.0760  0.7759
  186MPD1     C 2881   0.797   1.867  15.549 -0.0717  0.2377  0.4230
  186MPD1    C1 2882   0.731   1.835  15.662 -0.0048 -0.1824 -0.2023
  186MPD1    C2 2883   0.649   1.933  15.706 -0.2686  0.0919 -0.0486
  186MPD1    C3 2884   0.610   2.046  15.634  0.2167  0.6945  0.2633
  186MPD1    C4 2885   0.672   2.069  15.514 -0.5187 -0.1391 -0.2694
  186MPD1    C5 2886   0.773   1.982  15.475 -0.1742 -0.2618 -0.1227
  186MPD1     H 2887   0.618   1.913  15.808 -0.2361  1.3303  0.2055
  186MPD1    H1 2888   0.644   2.159  15.461 -0.6586  0.5496  0.9843
  186MPD1    H2 2889   0.879   1.809  15.506 -2.6605 -0.0756 -4.1436
  186MPD1    H3 2890   0.830   1.997  15.384 -0.9009  0.1476 -0.5131
  186MPD1     N 2891   0.517   2.144  15.688  0.4095  0.4530  0.3416
  186MPD1    H5 2892   0.496   2.235  15.648  0.9381  0.8762  1.0316
  186MPD1    N1 2893   0.768   1.740  15.748  0.7223 -0.7884  0.1292
  186MPD1    H6 2894   0.811   1.659  15.703  0.4520 -0.9033  0.0742
  186MPD1    H7 2895   0.699   1.707  15.815 -0.4310 -2.2141 -1.7435
  187MPD1     C 2896   4.691   3.968   0.011  0.1801 -0.3612 -0.7565
  187MPD1    C1 2897   4.566   3.930  17.701  1.4877 -0.4149  0.0440
  187MPD1    C2 2898   4.511   4.013  17.598  0.1764  0.8118  0.8623
  187MPD1    C3 2899   4.564   4.129  17.556 -0.2757  0.0860  0.0857
  187MPD1    C4 2900   4.694   4.158  17.607 -0.2339  0.3672  0.5618
  187MPD1    C5 2901   0.016   4.080  17.707  0.6599  0.0437  0.2024
  187MPD1     H 2902   4.421   3.974  17.554  0.0685  1.5815  0.4048
  187MPD1    H1 2903   0.009   4.246  17.569 -0.8765  0.5105  0.0319
  187MPD1    H2 2904   0.005   3.905   0.084 -1.1156 -0.7080 -0.1756
  187MPD1    H3 2905   0.110   4.114   0.009  1.7808 -2.2003 -0.5260
  187MPD1     N 2906   4.512   4.209  17.453  0.5265 -0.1793  0.1639
  187MPD1    H5 2907   4.563   4.293  17.426  1.1923  0.0325  2.0390
  187MPD1    N1 2908   4.523   3.799  17.727 -0.6972 -0.3566  0.1240
  187MPD1    H6 2909   4.544   3.762   0.081  0.6635  1.0316  0.3673
  187MPD1    H7 2910   4.426   3.780  17.705 -1.0219  1.8285 -0.2997
  188MPD1     C 2911   4.110   3.624  10.139  0.1263 -0.2521  0.4025
  188MPD1    C1 2912   4.202   3.609  10.039 -0.6488  0.0424 -0.2179
  188MPD1    C2 2913   4.195   3.489   9.968  0.6642 -0.2831 -0.7604
  188MPD1    C3 2914   4.085   3.405   9.972  0.4592  0.7118 -0.1872
  188MPD1    C4 2915   3.976   3.455  10.039 -0.0984  0.3537  0.2444
  188MPD1    C5 2916   3.996   3.544  10.134  0.9584 -0.8345  0.0895
  188MPD1     H 2917   4.278   3.461   9.904  1.0952  2.0048 -1.1665
  188MPD1    H1 2918   3.885   3.397  10.052  0.0304  0.2977  0.9038
  188MPD1    H2 2919   4.113   3.703  10.213 -0.3038  0.3829 -0.2587
  188MPD1    H3 2920   3.912   3.559  10.200  0.1140 -4.1482 -0.2052
  188MPD1     N 2921   4.077   3.274   9.923  0.6544 -0.4481  0.0675
  188MPD1    H5 2922   3.987   3.228   9.917  0.4823 -0.3698  2.0443
  188MPD1    N1 2923   4.311   3.693  10.037  0.0642 -0.0412 -0.5618
  188MPD1    H6 2924   4.338   3.707   9.940 -2.4516 -1.0252 -1.3919
  188MPD1    H7 2925   4.294   3.788  10.071 -0.7400 -0.3416 -0.1202
  189MPD1     C 2926   1.220   0.282   0.065  0.6232 -0.1927 -0.4293
  189MPD1    C1 2927   1.089   0.245   0.071 -0.3312  0.0765  0.4375
  189MPD1    C2 2928   0.990   0.338   0.033 -0.0920  0.0910  0.2643
  189MPD1    C3 2929   1.029   0.465  17.727 -0.0419 -0.6570 -0.1439
  189MPD1    C4 2930   1.161   0.493  17.713 -0.4495  0.0153 -0.0395
  189MPD1    C5 2931   1.252   0.400   0.013  0.1889 -1.2186  0.2630
  189MPD1     H 2932   0.886   0.310   0.034 -0.5022  1.6169  0.3905
  189MPD1    H1 2933   1.190   0.580  17.655  2.2291  0.5808  2.1388
  189MPD1    H2 2934   1.315   0.235   0.088  0.0111  0.0964  2.6531
  189MPD1    H3 2935   1.353   0.436  17.735  0.1430 -0.8973  0.6534
  189MPD1     N 2936   0.924   0.548  17.684  0.6113  0.2248  0.4036
  189MPD1    H5 2937   0.831   0.508  17.698  0.6539  0.3096  0.9562
  189MPD1    N1 2938   1.052   0.109   0.097 -0.1509 -0.4537 -0.0889
  189MPD1    H6 2939   1.130   0.052   0.128  1.3486  1.4497 -0.2925
  189MPD1    H7 2940   0.967   0.095   0.150  0.5364 -0.1415  1.1162
  190MPD1     C 2941   4.322   3.063  14.967  0.4665 -0.3375 -0.3928
  190MPD1    C1 2942   4.341   3.087  15.102 -0.3503 -0.4448  0.4694
  190MPD1    C2 2943   4.473   3.108  15.149  0.3514  0.9889 -1.0271
  190MPD1    C3 2944   4.578   3.112  15.064 -0.0945 -0.2215 -0.6396
  190MPD1    C4 2945   4.557   3.071  14.935 -0.5854  0.2273  0.0593
  190MPD1    C5 2946   4.432   3.056  14.887  0.0489  0.3648 -0.2789
  190MPD1     H 2947   4.507   3.110  15.252 -0.8887  1.1644 -0.6175
  190MPD1    H1 2948   4.637   3.074  14.862 -2.1915  1.0611 -1.6344
  190MPD1    H2 2949   4.229   3.042  14.916  0.1169  0.1401  0.0411
  190MPD1    H3 2950   4.409   3.025  14.786 -0.9148 -1.2364  0.4241
  190MPD1     N 2951   4.709   3.132  15.116  0.3182 -0.1764  0.1372
  190MPD1    H5 2952   4.727   3.131  15.216 -1.5609 -0.4155  0.4831
  190MPD1    N1 2953   4.230   3.069  15.187  0.2690 -0.0410  0.0494
  190MPD1    H6 2954   4.146   3.113  15.149 -0.1739 -1.2802 -0.3841
  190MPD1    H7 2955   4.253   3.121  15.272  0.1623  0.9623 -0.5304
  191MPD1     C 2956   3.863   0.410  12.436  0.5466 -0.1574  0.0274
  191MPD1    C1 2957   3.986   0.454  12.404 -0.4107 -0.0603 -0.1261
  191MPD1    C2 2958   4.034   0.426  12.278  0.0563 -0.9562  0.6691
  191MPD1    C3 2959   3.959   0.341  12.192 -0.1979  0.4316  0.7591
  191MPD1    C4 2960   3.843   0.294  12.234 -0.5195 -0.3709  0.2694
  191MPD1    C5 2961   3.796   0.326  12.358  0.2976 -0.2914 -0.7889
  191MPD1     H 2962   4.122   0.480  12.244  0.9388 -1.5765  1.9783
  191MPD1    H1 2963   3.775   0.232  12.177  1.7757 -0.5404 -2.2828
  191MPD1    H2 2964   3.815   0.430  12.531  0.8335  1.1379 -0.0996
  191MPD1    H3 2965   3.708   0.274  12.394  1.9719 -1.9283  0.9308
  191MPD1     N 2966   4.025   0.296  12.069  0.0096  0.6686  0.8381
  191MPD1    H5 2967   4.125   0.308  12.052 -0.3740  0.2417 -1.6221
  191MPD1    N1 2968   4.063   0.547  12.481  0.2586 -0.1141  0.5481
  191MPD1    H6 2969   4.061   0.526  12.581  1.1928 -2.7360  0.0208
  191MPD1    H7 2970   4.160   0.541  12.452  0.5543 -0.2682  1.5537
  192MPD1     C 2971   3.738   4.542  11.201  0.1786  0.1618 -0.4723
  192MPD1    C1 2972   3.809   4.659  11.181  0.0528  0.1115 -0.5507
  192MPD1    C2 2973   3.888   4.705  11.290 -0.1599 -0.2201 -0.2174
  192MPD1    C3 2974   3.885   4.641  11.415  0.0995  0.5005  0.0885
  192MPD1    C4 2975   3.789   4.539  11.431 -0.7976  0.0001  0.2349
  192MPD1    C5 2976   3.728   4.485  11.328 -0.2240 -0.2850 -0.2386
  192MPD1     H 2977   3.953   0.056  11.276  0.1817 -0.7706 -1.9670
  192MPD1    H1 2978   3.776   4.493  11.528 -2.2705  0.4460  0.2547
  192MPD1    H2 2979   3.686   4.502  11.115 -1.9116  0.6379  0.5600
  192MPD1    H3 2980   3.667   4.399  11.356 -0.3490  0.7650  2.6728
  192MPD1     N 2981   3.948   4.685  11.534  0.3641  0.1450  0.3366
  192MPD1    H5 2982   3.937   4.637  11.623 -0.8686  0.8509  0.5605
  192MPD1    N1 2983   3.814   4.715  11.054  0.1382  0.4732 -0.1556
  192MPD1    H6 2984   3.845   0.077  11.052 -2.0254  1.1277 -0.8854
  192MPD1    H7 2985   3.719   4.709  11.018 -0.1585 -0.0076  0.7122
  193MPD1     C 2986   3.405   0.519  15.755  0.4391  0.7285 -0.0669
  193MPD1    C1 2987   3.370   0.648  15.748  0.5141 -0.3477 -0.2053
  193MPD1    C2 2988   3.425   0.741  15.830 -0.4624  0.2919 -0.9084
  193MPD1    C3 2989   3.531   0.708  15.921  0.3004 -0.2174 -0.1553
  193MPD1    C4 2990   3.563   0.570  15.933  0.1615  0.1447 -0.1751
  193MPD1    C5 2991   3.500   0.484  15.840  0.6466  0.2722 -0.3359
  193MPD1     H 2992   3.401   0.846  15.819  2.3412  0.8372 -1.9537
  193MPD1    H1 2993   3.653   0.535  15.984 -1.4282 -0.0128  2.5196
  193MPD1    H2 2994   3.357   0.446  15.690  0.2218  0.4297  0.4266
  193MPD1    H3 2995   3.536   0.382  15.835 -0.1287 -0.0517  0.7037
  193MPD1     N 2996   3.605   0.807  15.989  0.3538  0.2801  0.1757
  193MPD1    H5 2997   3.685   0.777  16.045  0.0343  1.6755  1.3876
  193MPD1    N1 2998   3.269   0.683  15.658 -0.4447 -0.1096 -0.1358
  193MPD1    H6 2999   3.289   0.627  15.576 -0.5331  0.5509 -0.6116
  193MPD1    H7 3000   3.264   0.784  15.646  3.0148  0.1340  0.4483
  194MPD1     C 3001   1.461   3.146  16.492 -0.1330 -0.0951  0.1874
  194MPD1    C1 3002   1.482   3.119  16.626 -0.4361 -0.2306  0.7817
  194MPD1    C2 3003   1.529   2.996  16.667  0.7607  0.7055  0.1568
  194MPD1    C3 3004   1.546   2.894  16.575 -1.3368  0.3247 -0.1013
  194MPD1    C4 3005   1.512   2.916  16.443  0.2572  0.7773  0.2541
  194MPD1    C5 3006   1.488   3.048  16.404 -0.2936  0.1478 -0.1286
  194MPD1     H 3007   1.560   2.981  16.770  2.2521  0.0942 -0.3827
  194MPD1    H1 3008   1.515   2.839  16.367  0.3080 -1.0005  2.0694
  194MPD1    H2 3009   1.423   3.244  16.466  0.0511  0.7611  3.0473
  194MPD1    H3 3010   1.479   3.059  16.296 -1.1370  1.3975  0.0656
  194MPD1     N 3011   1.599   2.767  16.611  0.2779 -0.4245 -0.9117
  194MPD1    H5 3012   1.624   2.709  16.531  0.7895  0.1756 -1.1936
  194MPD1    N1 3013   1.490   3.226  16.718 -0.4055 -0.6650  0.1826
  194MPD1    H6 3014   1.444   3.309  16.680 -2.0165 -1.5180  0.2747
  194MPD1    H7 3015   1.445   3.200  16.805 -2.5995  2.7495  0.1094
  195MPD1     C 3016   4.122   4.669  17.081 -0.1760  0.6017 -0.2401
  195MPD1    C1 3017   4.126   4.713  17.210 -0.3332 -0.0558 -0.3133
  195MPD1    C2 3018   4.110   4.619  17.313 -0.0223 -0.7134  0.3982
  195MPD1    C3 3019   4.069   4.494  17.284  0.1621  0.5090  0.0589
  195MPD1    C4 3020   4.061   4.451  17.156 -0.1291  0.0002 -0.7159
  195MPD1    C5 3021   4.093   4.542  17.055  0.1158 -0.7948 -0.3952
  195MPD1     H 3022   4.133   4.643  17.416  2.0145  1.2672 -0.5290
  195MPD1    H1 3023   4.035   4.350  17.129 -0.0770 -0.2224  0.0707
  195MPD1    H2 3024   4.156   4.728  16.998  1.0833  1.6293  1.0185
  195MPD1    H3 3025   4.076   4.506  16.955 -0.0076  0.2224 -0.7380
  195MPD1     N 3026   4.043   4.395  17.387  0.2788  0.3125 -0.0639
  195MPD1    H5 3027   4.029   4.299  17.358  1.7124  0.5648 -1.5545
  195MPD1    N1 3028   4.184   0.107  17.233  0.2484  0.5877  0.4182
  195MPD1    H6 3029   4.140   0.159  17.309 -1.3772 -1.3242  0.7730
  195MPD1    H7 3030   4.188   0.165  17.150  2.2719 -0.9838 -0.5814
  196MPD1     C 3031   2.454   4.190  17.357  0.1959  0.5385 -0.0892
  196MPD1    C1 3032   2.461   4.070  17.432 -0.0571  0.4626 -0.3346
  196MPD1    C2 3033   2.561   4.052  17.519  0.5692 -0.6994  0.2432
  196MPD1    C3 3034   2.644   4.160  17.551 -0.7818  0.4604 -0.1129
  196MPD1    C4 3035   2.632   4.280  17.483  0.8369  0.3409  0.1150
  196MPD1    C5 3036   2.538   4.291  17.380  0.0115  0.3427 -0.3224
  196MPD1     H 3037   2.566   3.962  17.580  0.6309 -2.2078 -1.9959
  196MPD1    H1 3038   2.707   4.356  17.505  0.2819  1.1945 -0.9477
  196MPD1    H2 3039   2.377   4.196  17.281 -2.2347 -3.3906  2.0303
  196MPD1    H3 3040   2.539   4.375  17.311  0.9879  1.4809  1.0734
  196MPD1     N 3041   2.741   4.149  17.650 -0.2253  0.1504  0.3204
  196MPD1    H5 3042   2.802   4.229  17.660 -0.1909 -0.1960  2.8282
  196MPD1    N1 3043   2.379   3.961  17.396  0.6887 -0.3129 -0.7573
  196MPD1    H6 3044   2.371   3.891  17.469 -1.3980  1.1756  0.4233
  196MPD1    H7 3045   2.288   3.987  17.359  1.0891  1.4403 -0.4803
  197MPD1     C 3046   2.339   0.494  16.851 -0.0082  0.2198 -0.2189
  197MPD1    C1 3047   2.435   0.554  16.925  0.8234 -0.3600 -0.7466
  197MPD1    C2 3048   2.471   0.687  16.888  0.4863  0.1132 -0.1415
  197MPD1    C3 3049   2.417   0.748  16.773  0.0566  0.5630 -0.0515
  197MPD1    C4 3050   2.329   0.673  16.700 -0.0206 -0.5561  0.1203
  197MPD1    C5 3051   2.286   0.554  16.743  0.2536  1.1072  0.6750
  197MPD1     H 3052   2.545   0.739  16.947  0.4032  1.9107 -1.6226
  197MPD1    H1 3053   2.269   0.713  16.619  2.6087  0.1172 -1.4820
  197MPD1    H2 3054   2.310   0.393  16.877 -1.4204  0.1300 -2.0706
  197MPD1    H3 3055   2.205   0.504  16.692  1.6765 -3.3332  2.6808
  197MPD1     N 3056   2.454   0.880  16.726  0.3171 -0.7499 -0.5361
  197MPD1    H5 3057   2.407   0.904  16.639  1.6442 -1.9250 -1.5713
  197MPD1    N1 3058   2.461   0.502  17.053  0.1666 -0.3210 -0.0153
  197MPD1    H6 3059   2.474   0.401  17.053 -1.9644 -0.6019  0.7156
  197MPD1    H7 3060   2.545   0.548  17.086  1.5427 -2.1630 -0.9342
  198MPD1     C 3061   4.266   4.110  14.807  0.1791  0.2598 -0.1534
  198MPD1    C1 3062   4.377   4.179  14.758  0.5927  0.2002 -0.2853
  198MPD1    C2 3063   4.439   4.271  14.838  0.2448  0.2583  0.7687
  198MPD1    C3 3064   4.399   4.284  14.979  0.2570 -0.7573  0.0362
  198MPD1    C4 3065   4.295   4.211  15.023 -0.1167 -0.3407 -0.1659
  198MPD1    C5 3066   4.236   4.121  14.937  0.0482 -0.6422 -0.0277
  198MPD1     H 3067   4.520   4.325  14.790 -1.4361  1.5363 -0.6499
  198MPD1    H1 3068   4.271   4.196  15.128 -0.6223  1.3757 -0.0326
  198MPD1    H2 3069   4.220   4.031  14.748 -1.3710  0.1794  1.1849
  198MPD1    H3 3070   4.159   4.054  14.972 -0.0909 -0.5677 -0.1885
  198MPD1     N 3071   4.488   4.360  15.072 -0.4063 -0.3583  0.0641
  198MPD1    H5 3072   4.575   4.389  15.029  0.4198 -2.4707  0.3140
  198MPD1    N1 3073   4.425   4.136  14.631 -0.0837  0.2417  0.2618
  198MPD1    H6 3074   4.361   4.091  14.565 -1.5017 -0.8231  2.3526
  198MPD1    H7 3075   4.474   4.214  14.587 -2.2907  0.2754 -2.1477
  199MPD1     C 3076   2.538   1.020   9.426  0.4431  0.3827 -0.3313
  199MPD1    C1 3077   2.492   0.916   9.511 -0.4711 -0.1442  0.3180
  199MPD1    C2 3078   2.356   0.883   9.501  0.0867  0.3810 -0.8017
  199MPD1    C3 3079   2.272   0.944   9.415  0.4926 -0.1122 -0.1795
  199MPD1    C4 3080   2.321   1.038   9.328  0.1693 -0.1901  0.1193
  199MPD1    C5 3081   2.453   1.082   9.338  1.3461 -0.2591 -0.0743
  199MPD1     H 3082   2.307   0.824   9.578  1.5530 -0.3660 -0.4362
  199MPD1    H1 3083   2.262   1.058   9.240  0.4954  0.5918  0.0845
  199MPD1    H2 3084   2.638   1.062   9.433  0.3443  0.3351  1.4066
  199MPD1    H3 3085   2.500   1.149   9.268  1.6813 -0.6090 -0.1844
  199MPD1     N 3086   2.135   0.920   9.406 -0.9811  0.7965  0.5929
  199MPD1    H5 3087   2.083   0.983   9.345 -2.6611 -1.0759  0.1298
  199MPD1    N1 3088   2.572   0.861   9.620  0.1894 -0.7035  0.1299
  199MPD1    H6 3089   2.668   0.855   9.585  0.0714 -1.4193 -0.0667
  199MPD1    H7 3090   2.552   0.767   9.655  4.2684 -1.3923  0.6179
  200MPD1     C 3091   0.456   0.490  14.532  0.1711  0.0650 -0.3058
  200MPD1    C1 3092   0.476   0.628  14.565  0.3893 -0.8185 -0.2303
  200MPD1    C2 3093   0.584   0.692  14.505  0.1868 -0.3863 -0.4662
  200MPD1    C3 3094   0.664   0.636  14.411  0.3833 -0.2525  0.5172
  200MPD1    C4 3095   0.639   0.504  14.380 -0.1429 -0.3340 -0.1051
  200MPD1    C5 3096   0.533   0.433  14.435  0.2663  0.0295 -0.9663
  200MPD1     H 3097   0.620   0.789  14.538  0.1666 -0.5315 -0.0137
  200MPD1    H1 3098   0.701   0.452  14.307  0.8439  3.0694 -1.6602
  200MPD1    H2 3099   0.387   0.423  14.584 -0.2803  0.0437 -0.9294
  200MPD1    H3 3100   0.524   0.326  14.415  0.4984  0.1827 -1.9067
  200MPD1     N 3101   0.773   0.713  14.356  0.3453 -0.3729  0.2642
  200MPD1    H5 3102   0.793   0.804  14.396 -1.1166 -0.4068  1.0726
  200MPD1    N1 3103   0.410   0.692  14.668  0.2166  0.0968  0.1833
  200MPD1    H6 3104   0.410   0.794  14.672 -0.1768  0.0971  0.1667
  200MPD1    H7 3105   0.313   0.663  14.667  0.0418  0.6868  0.1995
  201MPD1     C 3106   4.184   0.084  12.475 -0.3797  0.4000  0.0309
  201MPD1    C1 3107   4.250   4.729  12.562  0.2977 -0.3758  0.1490
  201MPD1    C2 3108   4.184   4.610  12.598 -0.1776  0.7367  0.6795
  201MPD1    C3 3109   4.061   4.581  12.539 -0.2602  0.3239  0.5304
  201MPD1    C4 3110   4.006   4.665  12.446 -0.1437  0.8222 -0.4852
  201MPD1    C5 3111   4.074   0.046  12.412  0.7060 -0.1370  0.6734
  201MPD1     H 3112   4.230   4.548  12.674 -1.0300 -1.6288 -0.7102
  201MPD1    H1 3113   3.907   4.655  12.404 -1.0040 -0.1794  1.8371
  201MPD1    H2 3114   4.228   0.175  12.437  2.6978 -1.6531 -1.2919
  201MPD1    H3 3115   4.029   0.115  12.341 -0.7366 -1.3391  0.4295
  201MPD1     N 3116   4.004   4.459  12.586 -0.0871 -0.0875 -0.3585
  201MPD1    H5 3117   4.050   4.415  12.666  1.3998  2.1313  0.0168
  201MPD1    N1 3118   4.364   0.041  12.633 -0.0747  0.8264  0.0055
  201MPD1    H6 3119   4.415   0.108  12.576  2.0185 -0.5478  0.2788
  201MPD1    H7 3120   4.422   4.701  12.670 -0.3037  2.3426  3.4867
  202MPD1     C 3121   2.729   4.110   8.771 -0.2164  0.2747 -0.7753
  202MPD1    C1 3122   2.763   3.985   8.820 -0.7055  0.5513  0.4197
  202MPD1    C2 3123   2.843   3.979   8.935  0.2359 -0.3554 -0.4464
  202MPD1    C3 3124   2.863   4.086   9.021 -0.3257  0.0265  0.4652
  202MPD1    C4 3125   2.809   4.207   8.979  0.1346 -0.1153  0.6182
  202MPD1    C5 3126   2.754   4.220   8.850 -0.3337  0.3745  0.4426
  202MPD1     H 3127   2.888   3.885   8.964  0.4232 -0.8342 -2.3127
  202MPD1    H1 3128   2.799   4.288   9.050  2.1885  0.3737  0.3580
  202MPD1    H2 3129   2.683   4.122   8.673  0.7073  0.2579 -1.2040
  202MPD1    H3 3130   2.709   4.315   8.823 -1.9413  0.2708  2.7142
  202MPD1     N 3131   2.916   4.067   9.153 -0.1274  0.1869 -0.2151
  202MPD1    H5 3132   2.941   4.156   9.195  1.9496 -1.1535  1.4204
  202MPD1    N1 3133   2.767   3.877   8.728  0.0045  0.3744  0.2604
  202MPD1    H6 3134   2.681   3.887   8.674  0.3433 -0.0684 -0.3598
  202MPD1    H7 3135   2.792   3.786   8.764  1.3474  1.2074  1.4261
  203MPD1     C 3136   2.106   0.387  12.043  0.3643 -0.2169 -0.2979
  203MPD1    C1 3137   2.109   0.274  11.963  0.5530  0.1367  0.0887
  203MPD1    C2 3138   2.114   0.152  12.031  0.6889 -0.3044 -1.5519
  203MPD1    C3 3139   2.129   0.136  12.166 -0.0217  0.6138  0.9663
  203MPD1    C4 3140   2.107   0.254  12.241  0.7865  0.0575  0.3486
  203MPD1    C5 3141   2.094   0.376  12.181  0.4030  0.6475 -1.0294
  203MPD1     H 3142   2.109   0.061  11.972  0.1029 -1.7556  0.7071
  203MPD1    H1 3143   2.085   0.251  12.347 -1.8150 -0.0055 -0.1867
  203MPD1    H2 3144   2.096   0.489  12.008 -0.1995  0.0125  0.5348
  203MPD1    H3 3145   2.076   0.464  12.242  1.2132  0.0752  0.0378
  203MPD1     N 3146   2.155   0.011  12.227  0.5901  0.6197  0.2627
  203MPD1    H5 3147   2.164   4.665  12.166  2.4142  1.2995 -0.3620
  203MPD1    N1 3148   2.098   0.276  11.827  0.2401  0.0828  0.7480
  203MPD1    H6 3149   2.131   0.192  11.780 -2.8226 -0.3148 -0.6805
  203MPD1    H7 3150   2.146   0.357  11.789 -0.5168  0.7885  1.3041
  204MPD1     C 3151   2.449   1.371  17.401  0.3737 -0.2000  0.3575
  204MPD1    C1 3152   2.383   1.462  17.327  0.6372 -0.1546  0.2955
  204MPD1    C2 3153   2.252   1.433  17.286  0.3962  0.1041  0.0845
  204MPD1    C3 3154   2.203   1.306  17.291 -0.3520  0.2870 -0.1425
  204MPD1    C4 3155   2.283   1.212  17.357  0.1591  0.6039  0.2053
  204MPD1    C5 3156   2.400   1.246  17.419  0.5270  0.3069 -0.0195
  204MPD1     H 3157   2.189   1.498  17.226  1.2130  1.1798  0.3899
  204MPD1    H1 3158   2.255   1.108  17.366  3.1326 -0.0908  1.4421
  204MPD1    H2 3159   2.551   1.388  17.435  0.5468 -0.5274  0.0015
  204MPD1    H3 3160   2.463   1.171  17.465 -0.8653 -0.5523  0.4746
  204MPD1     N 3161   2.076   1.272  17.237 -0.1383  0.2733 -0.0762
  204MPD1    H5 3162   2.026   1.351  17.198  1.0902  0.5857 -0.9820
  204MPD1    N1 3163   2.439   1.593  17.300  0.5628 -0.5064 -0.0382
  204MPD1    H6 3164   2.538   1.611  17.315  0.2290  1.2745  0.0447
  204MPD1    H7 3165   2.410   1.620  17.207 -0.3088  1.9119  0.9410
  205MPD1     C 3166   2.196   0.102  16.787 -0.0404  0.0599  0.0932
  205MPD1    C1 3167   2.135   0.002  16.854 -0.2287  0.1884 -0.0542
  205MPD1    C2 3168   2.001   0.015  16.893 -0.1433  0.9542  0.5181
  205MPD1    C3 3169   1.929   0.119  16.853  0.2054  0.6262 -0.1764
  205MPD1    C4 3170   1.984   0.207  16.767  0.4073  0.0979  0.6582
  205MPD1    C5 3171   2.121   0.198  16.740  1.0689  0.0272  0.0860
  205MPD1     H 3172   1.957   4.664  16.940 -0.1452  0.2032 -0.8498
  205MPD1    H1 3173   1.928   0.297  16.743 -0.4626 -0.8056 -0.7616
  205MPD1    H2 3174   2.301   0.097  16.764 -0.3823 -0.6782 -1.3249
  205MPD1    H3 3175   2.177   0.264  16.675  2.8131  0.6379  2.2206
  205MPD1     N 3176   1.794   0.140  16.904 -0.5162 -0.4804 -0.3099
  205MPD1    H5 3177   1.751   0.230  16.883 -0.0807 -0.9007 -3.0336
  205MPD1    N1 3178   2.212   4.641  16.921 -0.2792  0.2378 -0.1682
  205MPD1    H6 3179   2.160   4.553  16.923 -0.2496  0.3089  4.1293
  205MPD1    H7 3180   2.301   4.618  16.878 -1.1022  1.7198 -2.6750
  206MPD1     C 3181   2.258   3.258  16.702 -0.0343 -0.4322 -0.3957
  206MPD1    C1 3182   2.296   3.148  16.621  0.3016 -0.0011  0.1958
  206MPD1    C2 3183   2.208   3.112  16.515  0.0123  0.5038  0.1158
  206MPD1    C3 3184   2.105   3.194  16.476  0.7767 -0.0395  0.0708
  206MPD1    C4 3185   2.087   3.314  16.549  0.1600  0.0701  0.6924
  206MPD1    C5 3186   2.161   3.338  16.662 -0.1900  0.1021  0.0071
  206MPD1     H 3187   2.218   3.024  16.453  1.8803 -0.2487  1.4704
  206MPD1    H1 3188   2.010   3.385  16.523  2.0971  1.6025 -0.8511
  206MPD1    H2 3189   2.316   3.289  16.789 -0.3856  0.7751 -0.5980
  206MPD1    H3 3190   2.137   3.429  16.714 -1.1626 -2.1202  3.4355
  206MPD1     N 3191   2.011   3.167  16.377 -0.0759 -0.0358  0.0703
  206MPD1    H5 3192   1.923   3.217  16.379  0.3581  0.7201  0.0423
  206MPD1    N1 3193   2.398   3.064  16.656  0.4003 -0.5283 -1.0803
  206MPD1    H6 3194   2.480   3.110  16.696 -0.9128  2.7029 -2.1091
  206MPD1    H7 3195   2.426   3.011  16.574 -1.1721 -3.2970  0.1627
  207MPD1     C 3196   0.036   0.049   9.105 -0.3298 -0.7099 -0.0630
  207MPD1    C1 3197   0.101   0.136   9.172 -0.0648 -0.2433 -0.0464
  207MPD1    C2 3198   0.122   0.110   9.304 -0.0313  0.1487  0.5513
  207MPD1    C3 3199   0.067   0.007   9.377 -0.7990 -0.1303  0.5542
  207MPD1    C4 3200   4.721   4.657   9.312 -0.1131  1.2002  0.6874
  207MPD1    C5 3201   4.715   4.676   9.171 -0.8971 -0.4710  0.2297
  207MPD1     H 3202   0.185   0.177   9.362 -0.1528  0.4290  0.3607
  207MPD1    H1 3203   4.663   4.578   9.359  1.9960 -0.8601 -0.1965
  207MPD1    H2 3204   0.035   0.043   8.997  0.7906  0.1124 -0.1178
  207MPD1    H3 3205   4.661   4.605   9.109 -0.4203 -0.0478 -0.6836
  207MPD1     N 3206   0.091   4.726   9.517 -0.1137 -0.1659  0.0532
  207MPD1    H5 3207   0.066   4.633   9.549  0.5949 -1.1598 -2.2732
  207MPD1    N1 3208   0.180   0.228   9.108 -0.2963  0.5508 -0.5389
  207MPD1    H6 3209   0.205   0.303   9.172  0.5816  0.6829 -1.0411
  207MPD1    H7 3210   0.119   0.260   9.032 -0.4149  0.8096 -0.3347
  208MPD1     C 3211   1.551   3.226   0.101 -0.6537  0.3264 -0.2883
  208MPD1    C1 3212   1.661   3.310   0.120 -0.3134 -0.1283 -0.0147
  208MPD1    C2 3213   1.648   3.451   0.094 -0.2161  0.2189 -0.1886
  208MPD1    C3 3214   1.532   3.510   0.055 -0.2211 -0.1052  0.3430
  208MPD1    C4 3215   1.422   3.430   0.043  0.3898  0.2813 -0.1363
  208MPD1    C5 3216   1.432   3.292   0.065  0.4299  0.2848 -0.3003
  208MPD1     H 3217   1.730   3.522   0.100 -0.1698  0.2566 -1.3182
  208MPD1    H1 3218   1.329   3.461  17.736 -0.1314  1.0014  1.4114
  208MPD1    H2 3219   1.549   3.121   0.128 -0.2490 -0.0729 -1.8540
  208MPD1    H3 3220   1.344   3.234   0.041  0.3193  0.5420 -0.5243
  208MPD1     N 3221   1.532   3.649   0.040  0.0605  0.0432 -0.3172
  208MPD1    H5 3222   1.614   3.702   0.066 -2.3369  2.7805  1.7779
  208MPD1    N1 3223   1.791   3.262   0.163  0.8286  0.4721 -0.8366
  208MPD1    H6 3224   1.859   3.296   0.095  1.9404  1.2709  0.6682
  208MPD1    H7 3225   1.782   3.163   0.143  0.1166  0.3163  0.2420
  209MPD1     C 3226   3.807   3.607  10.710  0.2519 -0.2445  0.0674
  209MPD1    C1 3227   3.802   3.727  10.780  0.5462 -0.4471 -0.0818
  209MPD1    C2 3228   3.889   3.830  10.753 -0.3760  0.4282 -0.0744
  209MPD1    C3 3229   3.999   3.810  10.664 -0.1424 -0.9115 -0.7497
  209MPD1    C4 3230   4.004   3.684  10.602 -0.6325 -0.5223  0.0182
  209MPD1    C5 3231   3.912   3.584  10.627  0.1981  0.1983 -0.2394
  209MPD1     H 3232   3.874   3.928  10.797  0.0427  0.5644 -0.2310
  209MPD1    H1 3233   4.091   3.659  10.542  0.3423  0.7746  0.8738
  209MPD1    H2 3234   3.751   3.516  10.730 -0.8383  0.0517 -1.5504
  209MPD1    H3 3235   3.926   3.484  10.587 -0.9697 -0.5099  1.1149
  209MPD1     N 3236   4.106   3.906  10.651  0.5311 -0.2909 -0.7377
  209MPD1    H5 3237   4.112   3.977  10.724 -2.4793  0.5467 -1.3227
  209MPD1    N1 3238   3.687   3.758  10.852  0.1333 -0.3153  0.5870
  209MPD1    H6 3239   3.695   3.829  10.924  0.5106  1.2030 -0.9609
  209MPD1    H7 3240   3.643   3.678  10.898  1.0926 -1.2891 -0.1847
  210MPD1     C 3241   4.522   4.304  11.335  0.0335 -0.0223 -0.1948
  210MPD1    C1 3242   4.585   4.371  11.235 -0.3665  0.2779 -0.7320
  210MPD1    C2 3243   4.544   4.342  11.106 -0.4855  0.0408 -0.3998
  210MPD1    C3 3244   4.450   4.244  11.073 -0.6386  0.0112  0.5472
  210MPD1    C4 3245   4.400   4.176  11.179  0.6643  0.0746 -0.6792
  210MPD1    C5 3246   4.431   4.208  11.308  0.1331 -0.5085 -0.3892
  210MPD1     H 3247   4.596   4.389  11.023 -0.0340  0.1902 -0.0270
  210MPD1    H1 3248   4.320   4.104  11.165  0.4217  0.1725  0.2218
  210MPD1    H2 3249   4.550   4.327  11.437  0.7316  0.0873 -0.4134
  210MPD1    H3 3250   4.386   4.164  11.397  1.4166 -1.8685 -0.4286
  210MPD1     N 3251   4.406   4.202  10.943  0.3077  0.1029  0.2456
  210MPD1    H5 3252   4.355   4.115  10.947  0.4562 -0.0841 -2.3911
  210MPD1    N1 3253   4.677   4.477  11.260  0.1101 -1.0178 -0.3562
  210MPD1    H6 3254   0.001   4.467  11.342  1.5932  1.4006 -1.1274
  210MPD1    H7 3255   0.009   4.480  11.184 -0.1138 -1.4187 -0.5672
  211MPD1     C 3256   1.577   4.233  15.623 -0.2499 -0.0742  0.3349
  211MPD1    C1 3257   1.482   4.230  15.721  0.5836 -0.5182 -0.2894
  211MPD1    C2 3258   1.487   4.327  15.823 -0.7017  0.7982  0.4477
  211MPD1    C3 3259   1.589   4.425  15.825 -0.3536  0.4489  0.1598
  211MPD1    C4 3260   1.684   4.417  15.728  0.6116 -0.2899 -0.7051
  211MPD1    C5 3261   1.668   4.333  15.623  0.4734 -0.5262 -0.2730
  211MPD1     H 3262   1.417   4.336  15.905 -1.2445 -1.8877  0.2673
  211MPD1    H1 3263   1.754   4.498  15.708  0.4916  0.1535  0.6581
  211MPD1    H2 3264   1.582   4.160  15.543  3.6244 -0.8782  1.3275
  211MPD1    H3 3265   1.747   4.337  15.549  0.1019 -0.2224 -0.6530
  211MPD1     N 3266   1.583   4.524  15.924  0.5886  0.3302 -0.2527
  211MPD1    H5 3267   1.519   4.496  15.997  1.4998 -0.0178  0.4254
  211MPD1    N1 3268   1.398   4.121  15.730 -0.6689  0.1322 -0.6683
  211MPD1    H6 3269   1.378   4.070  15.645 -0.6847 -0.4190 -0.3304
  211MPD1    H7 3270   1.311   4.136  15.781  0.2026 -0.6691  1.0322
  212MPD1     C 3271   1.319   2.947  15.919 -0.6300  0.0443 -0.2162
  212MPD1    C1 3272   1.209   3.017  15.960 -0.7434 -0.1572 -0.1318
  212MPD1    C2 3273   1.145   2.977  16.077 -0.3639  0.0817 -0.0176
  212MPD1    C3 3274   1.194   2.871  16.155 -0.2418 -0.4829 -0.4231
  212MPD1    C4 3275   1.307   2.807  16.117 -0.5175  0.5414 -0.0568
  212MPD1    C5 3276   1.365   2.846  16.002 -0.5089  0.0527 -0.5761
  212MPD1     H 3277   1.060   3.035  16.111 -0.3123  1.3006 -1.9427
  212MPD1    H1 3278   1.352   2.730  16.179 -1.5728  0.9544  1.2127
  212MPD1    H2 3279   1.370   2.973  15.826 -1.7352  2.4421 -0.1662
  212MPD1    H3 3280   1.459   2.799  15.972 -0.9402 -1.7172  0.8590
  212MPD1     N 3281   1.131   2.821  16.274 -0.6437 -0.7979  0.2392
  212MPD1    H5 3282   1.177   2.743  16.319  1.8939 -0.1085 -1.1702
  212MPD1    N1 3283   1.151   3.120  15.880 -0.1840  0.4143  0.1083
  212MPD1    H6 3284   1.083   3.183  15.923  0.1408  1.6209 -1.1543
  212MPD1    H7 3285   1.219   3.171  15.825  1.5694 -0.8456  1.1137
  213MPD1     C 3286   4.281   3.298  15.388 -0.2682  0.9741  0.1805
  213MPD1    C1 3287   4.160   3.264  15.437  0.4492  0.0100  0.2020
  213MPD1    C2 3288   4.061   3.318  15.362  0.1851 -0.3952  0.5172
  213MPD1    C3 3289   4.075   3.429  15.280 -0.2522 -0.6865 -0.7339
  213MPD1    C4 3290   4.194   3.491  15.278 -0.4453 -0.4200 -0.3560
  213MPD1    C5 3291   4.304   3.422  15.324 -0.3163  0.7181  0.2784
  213MPD1     H 3292   3.961   3.282  15.381 -0.0096  0.7202  1.6363
  213MPD1    H1 3293   4.207   3.590  15.236 -2.4829 -0.4614 -1.0914
  213MPD1    H2 3294   4.368   3.244  15.423  0.8440  0.6970 -3.0433
  213MPD1    H3 3295   4.403   3.466  15.313  0.1893 -0.2074  1.0722
  213MPD1     N 3296   3.964   3.480  15.203  0.2578 -0.1357 -0.5418
  213MPD1    H5 3297   3.877   3.428  15.203  0.3958 -0.3671 -0.4704
  213MPD1    N1 3298   4.133   3.129  15.476 -0.5100 -0.1489 -0.0100
  213MPD1    H6 3299   4.202   3.105  15.546 -1.8646  1.8593  2.0225
  213MPD1    H7 3300   4.039   3.112  15.513 -0.2291 -4.1706 -1.2488
  214MPD1     C 3301   3.547   3.221  14.342  0.0560  0.2208  0.5445
  214MPD1    C1 3302   3.598   3.146  14.450  0.3457  0.1357  0.0622
  214MPD1    C2 3303   3.637   3.222  14.562  0.1320 -1.2048  0.5688
  214MPD1    C3 3304   3.629   3.360  14.571 -0.1922 -0.5835 -0.8658
  214MPD1    C4 3305   3.587   3.428  14.459  0.1569 -0.2272 -0.1044
  214MPD1    C5 3306   3.552   3.359  14.346  0.1309 -0.5035 -0.8639
  214MPD1     H 3307   3.663   3.172  14.654  0.3850  0.4058  1.3816
  214MPD1    H1 3308   3.573   3.534  14.442 -1.9864 -0.7457 -1.5735
  214MPD1    H2 3309   3.509   3.169  14.255  1.7808 -0.7088  0.3534
  214MPD1    H3 3310   3.533   3.412  14.253  0.9191 -0.0673 -0.7748
  214MPD1     N 3311   3.652   3.431  14.686  0.6330  0.2555 -0.1946
  214MPD1    H5 3312   3.631   3.530  14.680  0.6974  0.2296 -0.8526
  214MPD1    N1 3313   3.609   2.999  14.449 -0.2439 -0.5136 -0.0333
  214MPD1    H6 3314   3.645   2.968  14.359  0.4409  0.3282 -0.0460
  214MPD1    H7 3315   3.682   2.964  14.511 -1.3981 -2.1737  0.3732
  215MPD1     C 3316   3.911   4.157  10.375 -0.4453 -0.3069  0.5748
  215MPD1    C1 3317   4.019   4.249  10.362 -0.3374  0.9318 -0.7604
  215MPD1    C2 3318   4.067   4.302  10.478 -0.1295 -0.8550 -0.2656
  215MPD1    C3 3319   4.015   4.284  10.606  0.4754  0.0769  0.8383
  215MPD1    C4 3320   3.923   4.188  10.617  0.3978  0.2740 -0.2257
  215MPD1    C5 3321   3.867   4.126  10.502  0.3456 -0.5406  0.0966
  215MPD1     H 3322   4.153   4.368  10.473 -0.7610 -0.0074  0.0509
  215MPD1    H1 3323   3.867   4.171  10.708  1.1976  0.4540  0.3017
  215MPD1    H2 3324   3.868   4.104  10.291  0.2824  2.3664 -1.4828
  215MPD1    H3 3325   3.788   4.055  10.525 -0.8584  0.8758  0.3122
  215MPD1     N 3326   4.071   4.344  10.715 -0.7660  0.8654  0.3688
  215MPD1    H5 3327   4.143   4.412  10.693  2.1330 -2.4732 -0.5767
  215MPD1    N1 3328   4.095   4.266  10.243  0.1657  0.5247  0.6352
  215MPD1    H6 3329   4.031   4.249  10.165  0.4573  1.8636  0.1117
  215MPD1    H7 3330   4.126   4.362  10.236  1.5102  0.0149 -0.4189
  216MPD1     C 3331   1.124   3.972  17.145  0.2074 -0.5238 -0.3934
  216MPD1    C1 3332   1.241   3.951  17.207  0.3093  0.2926 -0.0387
  216MPD1    C2 3333   1.268   3.822  17.247 -0.1726 -0.2584  0.1808
  216MPD1    C3 3334   1.169   3.719  17.251  0.4884 -0.1310 -0.6666
  216MPD1    C4 3335   1.046   3.758  17.200  0.0139  0.6761  0.0427
  216MPD1    C5 3336   1.025   3.884  17.149 -0.5372 -0.4462 -0.0381
  216MPD1     H 3337   1.369   3.792  17.273  0.4360 -0.6301 -2.6231
  216MPD1    H1 3338   0.967   3.685  17.192 -0.3905  1.2537 -1.1503
  216MPD1    H2 3339   1.092   4.063  17.095 -1.6029 -0.3318  1.0945
  216MPD1    H3 3340   0.928   3.905  17.105 -0.8880 -1.7677  0.0952
  216MPD1     N 3341   1.214   3.591  17.288 -0.0112  0.9036  0.1397
  216MPD1    H5 3342   1.313   3.571  17.296  0.6292  3.9224 -0.1615
  216MPD1    N1 3343   1.342   4.052  17.205  0.2516 -0.7797 -0.8574
  216MPD1    H6 3344   1.416   4.033  17.272  0.0159  0.4595 -0.2622
  216MPD1    H7 3345   1.305   4.145  17.225  2.5605  0.2156 -1.3122
  217MPD1     C 3346   2.426   3.227   8.168 -0.0043  0.6577 -0.3436
  217MPD1    C1 3347   2.302   3.285   8.169  0.1322  0.9006 -0.0199
  217MPD1    C2 3348   2.246   3.313   8.294  0.3361 -0.4200 -0.2499
  217MPD1    C3 3349   2.324   3.307   8.413 -0.0326 -0.6127 -0.7377
  217MPD1    C4 3350   2.450   3.250   8.396 -0.5522  0.4522 -0.0263
  217MPD1    C5 3351   2.499   3.205   8.277 -0.5741  0.3080  0.0098
  217MPD1     H 3352   2.139   3.330   8.302  0.5148  0.2838  0.6352
  217MPD1    H1 3353   2.525   3.242   8.474  0.7236  2.0040 -1.1162
  217MPD1    H2 3354   2.470   3.197   8.074  0.1273  3.3631 -1.1422
  217MPD1    H3 3355   2.601   3.169   8.265 -0.4945  0.1933  1.0322
  217MPD1     N 3356   2.281   3.348   8.538 -0.1320 -0.5488 -0.3162
  217MPD1    H5 3357   2.337   3.329   8.621  1.0651 -1.1263 -1.2608
  217MPD1    N1 3358   2.227   3.271   8.054 -0.2471 -0.1009  0.7674
  217MPD1    H6 3359   2.155   3.343   8.045 -0.4576 -0.4307 -0.1916
  217MPD1    H7 3360   2.288   3.288   7.975 -0.2391 -2.3358  0.2876
  218MPD1     C 3361   4.292   4.009  12.682  0.4753  0.2254 -0.1590
  218MPD1    C1 3362   4.374   4.113  12.650  0.8899  0.2649  1.0210
  218MPD1    C2 3363   4.350   4.182  12.538  0.7237  0.0227 -0.1659
  218MPD1    C3 3364   4.241   4.154  12.453  1.0225 -0.5846 -0.3481
  218MPD1    C4 3365   4.160   4.051  12.494  0.1936  0.1549 -0.2238
  218MPD1    C5 3366   4.192   3.970  12.597  0.5244 -0.5691 -0.9726
  218MPD1     H 3367   4.419   4.259  12.504  1.0501 -0.5159 -0.7288
  218MPD1    H1 3368   4.072   4.016  12.441 -0.4190  1.2074  0.0994
  218MPD1    H2 3369   4.308   3.958  12.777 -0.6472 -0.2649 -0.2285
  218MPD1    H3 3370   4.121   3.895  12.630 -1.3359  1.4944 -0.2442
  218MPD1     N 3371   4.207   4.243  12.349 -0.0548  0.3909  0.5999
  218MPD1    H5 3372   4.272   4.318  12.331  0.6846 -0.1863  0.8731
  218MPD1    N1 3373   4.487   4.143  12.733  0.3737  0.0938 -0.4559
  218MPD1    H6 3374   4.561   4.191  12.681 -0.2010  0.3091 -1.0681
  218MPD1    H7 3375   4.527   4.059  12.776  1.8241  0.2788 -1.4421
  219MPD1     C 3376   3.629   4.163  11.602  0.4463 -0.5863 -0.5174
  219MPD1    C1 3377   3.745   4.233  11.555 -0.0403 -0.6139 -0.4194
  219MPD1    C2 3378   3.821   4.293  11.656  0.5716  0.2725 -0.2755
  219MPD1    C3 3379   3.771   4.314  11.781  0.5097 -0.0653 -0.0052
  219MPD1    C4 3380   3.659   4.241  11.819  0.2609  0.0905  0.0235
  219MPD1    C5 3381   3.589   4.170  11.731 -0.2671 -0.0592  0.4322
  219MPD1     H 3382   3.918   4.329  11.623  1.2258 -1.0060  0.2535
  219MPD1    H1 3383   3.631   4.233  11.924  1.0108 -0.3546  0.1872
  219MPD1    H2 3384   3.565   4.110  11.533  0.3622  1.9267 -2.3607
  219MPD1    H3 3385   3.501   4.112  11.759 -1.1445  0.2901 -1.6091
  219MPD1     N 3386   3.847   4.372  11.882 -0.1112  0.3525  0.1134
  219MPD1    H5 3387   3.828   4.341  11.977 -1.2956  0.3499 -0.1291
  219MPD1    N1 3388   3.805   4.205  11.429  0.1000  0.1875 -0.0708
  219MPD1    H6 3389   3.879   4.270  11.402  0.7934 -1.5248 -2.2590
  219MPD1    H7 3390   3.733   4.191  11.359 -0.6532  1.7609  0.3816
  220MPD1     C 3391   4.012   0.879   9.729  0.2857 -0.1518  0.0929
  220MPD1    C1 3392   4.078   0.875   9.847  1.0017 -0.2478  0.1134
  220MPD1    C2 3393   4.020   0.788   9.942 -0.4750 -0.0629  0.0204
  220MPD1    C3 3394   3.917   0.705   9.904  0.0395  0.1845 -0.0033
  220MPD1    C4 3395   3.855   0.706   9.780 -0.2123  0.7725  0.3019
  220MPD1    C5 3396   3.903   0.799   9.694  0.2451 -0.3620 -0.2184
  220MPD1     H 3397   4.072   0.773  10.036  1.8126  1.4313 -1.0341
  220MPD1    H1 3398   3.776   0.637   9.752  0.1324  0.1151  0.9267
  220MPD1    H2 3399   4.041   0.945   9.648 -3.1915  2.7541  1.1643
  220MPD1    H3 3400   3.868   0.801   9.591  0.6786 -0.4029 -0.3659
  220MPD1     N 3401   3.859   0.625  10.010 -0.4555 -0.3766  0.2506
  220MPD1    H5 3402   3.886   0.638  10.107  1.1627 -0.0447 -0.2492
  220MPD1    N1 3403   4.186   0.960   9.889  0.0694  0.5402 -1.0110
  220MPD1    H6 3404   4.243   0.970   9.806  1.4929 -0.1595 -0.1210
  220MPD1    H7 3405   4.245   0.918   9.960  0.0990 -1.8442 -2.4281
  221MPD1     C 3406   1.043   4.000  15.988 -0.2733  0.4163  0.1965
  221MPD1    C1 3407   1.106   4.026  16.105  0.6365  0.4127  0.6328
  221MPD1    C2 3408   1.240   3.987  16.121  0.2739 -0.5240  0.1920
  221MPD1    C3 3409   1.300   3.909  16.020 -0.7819 -0.3210 -0.1513
  221MPD1    C4 3410   1.229   3.881  15.909  0.2261 -0.4785  0.8147
  221MPD1    C5 3411   1.096   3.921  15.893 -0.3353 -0.0874  0.6146
  221MPD1     H 3412   1.302   4.004  16.207 -1.4225  0.9037  1.1374
  221MPD1    H1 3413   1.274   3.829  15.825  3.4328  0.0851  2.1730
  221MPD1    H2 3414   0.941   4.031  15.969  0.3396  1.8920 -0.7027
  221MPD1    H3 3415   1.039   3.904  15.802 -2.7038  0.9060  1.9394
  221MPD1     N 3416   1.429   3.852  16.022  0.4164 -0.0848  0.2286
  221MPD1    H5 3417   1.453   3.781  15.953 -1.4380  1.6844 -2.2148
  221MPD1    N1 3418   1.041   4.112  16.191  0.0523 -0.7863  0.3582
  221MPD1    H6 3419   1.079   4.111  16.285 -1.6316 -2.3598  1.0004
  221MPD1    H7 3420   0.944   4.084  16.191  0.3051 -1.6528  0.2631
  222MPD1     C 3421   0.623   4.258  17.366 -0.2644 -0.3122 -0.5211
  222MPD1    C1 3422   0.569   4.130  17.375 -0.2715 -0.1406 -0.2203
  222MPD1    C2 3423   0.657   4.038  17.420  0.0281 -0.1079 -0.7843
  222MPD1    C3 3424   0.786   4.065  17.465  0.4286  0.9907 -0.3187
  222MPD1    C4 3425   0.827   4.196  17.459 -0.5798 -0.4294 -0.1769
  222MPD1    C5 3426   0.754   4.291  17.401  0.4703  0.0403  0.2620
  222MPD1     H 3427   0.626   3.934  17.422  0.7893 -0.3189  0.2876
  222MPD1    H1 3428   0.922   4.226  17.501 -0.5119  2.3835 -2.2914
  222MPD1    H2 3429   0.585   4.341  17.309  1.1847 -0.1066 -1.1878
  222MPD1    H3 3430   0.793   4.391  17.392  0.5386 -0.2843 -3.1289
  222MPD1     N 3431   0.871   3.966  17.519  0.4755  0.9884  0.2275
  222MPD1    H5 3432   0.957   4.000  17.561  1.0923 -0.6432  0.3094
  222MPD1    N1 3433   0.445   4.089  17.322 -0.1736 -0.1926 -0.3900
  222MPD1    H6 3434   0.375   4.161  17.338  0.0196 -0.1012  0.0502
  222MPD1    H7 3435   0.406   4.022  17.387  1.3430  0.5822  1.3184
  223MPD1     C 3436   0.751   2.958  17.457  0.8867 -0.4951  0.3363
  223MPD1    C1 3437   0.710   3.069  17.390 -0.1252 -0.6682  0.0915
  223MPD1    C2 3438   0.747   3.198  17.430 -0.0886  0.3625  0.3645
  223MPD1    C3 3439   0.836   3.223  17.534 -0.1773 -0.0585  0.4885
  223MPD1    C4 3440   0.886   3.109  17.591 -0.3589 -0.3668  0.1158
  223MPD1    C5 3441   0.845   2.983  17.554 -1.1423 -0.5901 -0.0910
  223MPD1     H 3442   0.716   3.285  17.373  0.0076  1.6992  2.3595
  223MPD1    H1 3443   0.953   3.114  17.676 -1.7030 -0.6724  1.1856
  223MPD1    H2 3444   0.720   2.856  17.436 -2.5513  0.5532  0.2721
  223MPD1    H3 3445   0.902   2.904  17.602  1.1384 -0.3462 -2.3616
  223MPD1     N 3446   0.866   3.359  17.569  0.1569  1.0122 -0.0853
  223MPD1    H5 3447   0.811   3.429  17.519 -0.2652  1.6035  1.2009
  223MPD1    N1 3448   0.611   3.054  17.291  0.9112  0.1745 -0.0295
  223MPD1    H6 3449   0.604   3.133  17.227  1.4682  0.5506  0.3798
  223MPD1    H7 3450   0.622   2.966  17.242 -1.4553 -0.4952  0.6242
  224MPD1     C 3451   2.381   3.689   8.568  0.1752  0.7297 -0.1412
  224MPD1    C1 3452   2.450   3.645   8.678  0.0756 -0.2972 -0.2956
  224MPD1    C2 3453   2.441   3.724   8.792 -0.3447 -0.3060  0.0495
  224MPD1    C3 3454   2.380   3.854   8.787  0.4027 -0.6257 -0.0700
  224MPD1    C4 3455   2.308   3.891   8.673 -0.3288  0.0485 -0.5262
  224MPD1    C5 3456   2.311   3.809   8.562  0.6117 -0.5950  0.7598
  224MPD1     H 3457   2.507   3.692   8.871 -0.6787  2.0001  1.2453
  224MPD1    H1 3458   2.243   3.977   8.670 -1.0550 -0.5820 -2.5039
  224MPD1    H2 3459   2.397   3.629   8.479  1.4434  0.7993  0.0360
  224MPD1    H3 3460   2.262   3.839   8.470  1.9891  2.7457  1.0894
  224MPD1     N 3461   2.394   3.942   8.904  0.1455 -0.0593 -0.3498
  224MPD1    H5 3462   2.427   3.900   8.990  1.1861  0.1936 -0.6337
  224MPD1    N1 3463   2.513   3.520   8.665 -0.0819 -0.4856  0.0770
  224MPD1    H6 3464   2.558   3.518   8.574 -0.4871 -2.6576 -0.0729
  224MPD1    H7 3465   2.594   3.515   8.726 -0.5791 -1.4072  0.6669
  225MPD1     C 3466   4.062   0.556  11.784 -0.7169 -0.2648 -0.3565
  225MPD1    C1 3467   4.082   0.594  11.911 -0.5187 -0.3944  0.1874
  225MPD1    C2 3468   3.977   0.621  11.993  0.2273 -0.5921 -0.1229
  225MPD1    C3 3469   3.849   0.590  11.948  0.7851 -0.4188 -0.0375
  225MPD1    C4 3470   3.830   0.534  11.823 -0.0610 -0.1321 -0.6005
  225MPD1    C5 3471   3.936   0.519  11.741 -0.6125 -0.5433  0.8571
  225MPD1     H 3472   4.000   0.661  12.090  1.4669 -1.8612  0.1166
  225MPD1    H1 3473   3.730   0.513  11.788 -0.1154  2.2514 -1.8560
  225MPD1    H2 3474   4.149   0.539  11.721 -2.1673 -3.2192 -1.5320
  225MPD1    H3 3475   3.933   0.475  11.642  0.9343  0.7851  0.2063
  225MPD1     N 3476   3.732   0.600  12.027  0.3839 -0.0337  0.0059
  225MPD1    H5 3477   3.647   0.570  11.981  0.3346 -0.1199  0.1519
  225MPD1    N1 3478   4.202   0.648  11.957  0.5639  0.2086 -0.2908
  225MPD1    H6 3479   4.224   0.660  12.055  0.3848  0.4675 -0.2790
  225MPD1    H7 3480   4.285   0.621  11.905  1.4919  0.8355  0.8762
  226MPD1     C 3481   2.206   0.250   9.228  0.4535 -0.1642 -0.4114
  226MPD1    C1 3482   2.335   0.282   9.190  0.1644 -0.8510  0.0294
  226MPD1    C2 3483   2.364   0.403   9.126  0.3164  0.1976 -0.6791
  226MPD1    C3 3484   2.257   0.504   9.128 -0.1024  0.3908 -0.1021
  226MPD1    C4 3485   2.129   0.467   9.174 -0.2102 -0.1337 -0.0112
  226MPD1    C5 3486   2.108   0.344   9.216  0.3813 -0.6851  0.4885
  226MPD1     H 3487   2.464   0.426   9.091  0.7122 -0.7374 -0.1464
  226MPD1    H1 3488   2.040   0.529   9.169  0.8492  1.2970 -1.0219
  226MPD1    H2 3489   2.168   0.153   9.259  1.6232 -0.6051 -0.3807
  226MPD1    H3 3490   2.009   0.311   9.244  0.5701  0.5908  2.6615
  226MPD1     N 3491   2.282   0.629   9.071 -0.1974 -0.2795 -0.4991
  226MPD1    H5 3492   2.373   0.633   9.027  0.4859  0.1963  0.9641
  226MPD1    N1 3493   2.433   0.181   9.187 -0.7306  0.4992 -0.9484
  226MPD1    H6 3494   2.413   0.125   9.269 -1.4684  1.1723 -0.6750
  226MPD1    H7 3495   2.528   0.217   9.188 -0.3120 -0.6626  0.2055
  227MPD1     C 3496   2.135   1.535   8.491  0.7039  0.1073 -0.2857
  227MPD1    C1 3497   2.248   1.556   8.566 -0.1861  0.5129  0.2388
  227MPD1    C2 3498   2.297   1.447   8.638 -0.1969 -0.0442 -0.3801
  227MPD1    C3 3499   2.218   1.342   8.672 -0.2350 -0.5744  0.0962
  227MPD1    C4 3500   2.098   1.325   8.609 -0.1700  0.0230  1.0052
  227MPD1    C5 3501   2.062   1.422   8.514  0.5304  0.3954  0.0673
  227MPD1     H 3502   2.395   1.452   8.683  0.2546 -1.1137 -1.2365
  227MPD1    H1 3503   2.026   1.248   8.634 -0.8203  0.2782 -0.0987
  227MPD1    H2 3504   2.106   1.598   8.407  1.5297 -1.5539 -1.8104
  227MPD1    H3 3505   1.969   1.402   8.462  0.6150 -1.3148  0.5815
  227MPD1     N 3506   2.267   1.235   8.751 -0.6677 -0.0227  0.1951
  227MPD1    H5 3507   2.355   1.249   8.801 -2.5516  3.8502  2.3864
  227MPD1    N1 3508   2.330   1.666   8.530  0.1322 -0.1788  0.2509
  227MPD1    H6 3509   2.279   1.747   8.497 -0.0538 -0.2195  0.4359
  227MPD1    H7 3510   2.401   1.694   8.598  0.2106  1.7453 -0.6195
  228MPD1     C 3511   1.235   2.689  12.371 -0.3332 -0.0738 -0.2295
  228MPD1    C1 3512   1.153   2.716  12.265  0.5167 -0.9019  0.1767
  228MPD1    C2 3513   1.024   2.749  12.291  0.5357 -0.0573 -0.4510
  228MPD1    C3 3514   0.977   2.792  12.413 -0.6254  0.3093 -0.0056
  228MPD1    C4 3515   1.058   2.771  12.524 -0.4841  0.4990  0.7420
  228MPD1    C5 3516   1.185   2.718  12.505  0.2793  0.1646 -0.2171
  228MPD1     H 3517   0.957   2.763  12.207 -0.5804 -1.9040  0.1439
  228MPD1    H1 3518   1.029   2.785  12.627  1.3343  0.7946  1.2127
  228MPD1    H2 3519   1.335   2.649  12.364  0.7391  2.7639 -1.3436
  228MPD1    H3 3520   1.241   2.695  12.595  2.6413 -0.8433 -1.9413
  228MPD1     N 3521   0.848   2.852  12.412 -0.0053 -0.1726 -0.4044
  228MPD1    H5 3522   0.788   2.846  12.330 -2.5151  0.8093  1.3531
  228MPD1    N1 3523   1.190   2.674  12.135  0.0321  0.0440  0.3705
  228MPD1    H6 3524   1.290   2.682  12.113 -0.1601 -0.3518 -0.6423
  228MPD1    H7 3525   1.134   2.722  12.065  2.3981  2.0817 -0.1748
  229MPD1     C 3526   4.462   2.362  14.830 -0.1876 -0.8637 -0.9629
  229MPD1    C1 3527   4.410   2.254  14.901  0.0486 -0.1395  0.6118
  229MPD1    C2 3528   4.497   2.159  14.947  0.7992  0.4260  0.6205
  229MPD1    C3 3529   4.634   2.158  14.908  0.0351 -0.0827 -0.1403
  229MPD1    C4 3530   4.680   2.260  14.831 -0.1053 -0.5239 -0.4073
  229MPD1    C5 3531   4.593   2.360  14.790 -1.1455 -0.3835 -0.5918
  229MPD1     H 3532   4.457   2.077  15.006  0.2729  1.5291  1.7773
  229MPD1    H1 3533   0.050   2.271  14.806 -0.7761  2.0506 -2.1789
  229MPD1    H2 3534   4.399   2.436  14.782  1.5335  1.0726 -0.2315
  229MPD1    H3 3535   4.621   2.448  14.733 -0.2433 -0.4194 -0.2006
  229MPD1     N 3536   4.714   2.049  14.939  0.6670  0.2343  0.3078
  229MPD1    H5 3537   0.064   2.041  14.884  0.0190 -1.5174 -0.4212
  229MPD1    N1 3538   4.269   2.239  14.900  0.8809  1.0666  0.0431
  229MPD1    H6 3539   4.228   2.173  14.966  0.5736  0.4795 -0.7355
  229MPD1    H7 3540   4.223   2.328  14.918 -0.0984  0.7390 -0.8453
  230MPD1     C 3541   0.496   1.425  15.613 -0.5138  0.0918 -0.0942
  230MPD1    C1 3542   0.575   1.457  15.509  0.6443 -0.0362 -0.7098
  230MPD1    C2 3543   0.509   1.491  15.391  0.1970  0.2049  0.7045
  230MPD1    C3 3544   0.371   1.495  15.383  0.0344  0.8618  0.0561
  230MPD1    C4 3545   0.297   1.466  15.495  0.0188 -0.6693  0.6565
  230MPD1    C5 3546   0.357   1.426  15.611 -0.2182  0.0898  0.3508
  230MPD1     H 3547   0.567   1.521  15.304  0.9091  1.5535  1.6462
  230MPD1    H1 3548   0.189   1.470  15.504 -0.0406  0.1478 -0.5982
  230MPD1    H2 3549   0.541   1.391  15.705  0.3849  0.1629 -0.5045
  230MPD1    H3 3550   0.300   1.413  15.703  0.3953 -0.5548  0.6324
  230MPD1     N 3551   0.310   1.544  15.261 -0.3907  0.2048  0.3912
  230MPD1    H5 3552   0.368   1.554  15.178  0.2667 -0.6995  0.7446
  230MPD1    N1 3553   0.713   1.424  15.524  0.1981 -0.6396 -0.6691
  230MPD1    H6 3554   0.747   1.433  15.620  3.6485 -1.3050 -1.8337
  230MPD1    H7 3555   0.769   1.482  15.461 -0.6751 -0.4086 -1.2309
  231MPD1     C 3556   3.063   4.045  15.216 -0.2255  0.2812  0.2717
  231MPD1    C1 3557   3.000   4.027  15.097  0.3249 -0.8174  0.1191
  231MPD1    C2 3558   3.070   4.073  14.987 -0.7288  0.2703  0.0691
  231MPD1    C3 3559   3.203   4.117  15.003  0.4797  0.6435 -0.2372
  231MPD1    C4 3560   3.268   4.119  15.126  0.0961 -1.0130 -0.2571
  231MPD1    C5 3561   3.192   4.079  15.234  0.1034  0.6497 -0.3563
  231MPD1     H 3562   3.027   4.070  14.888  2.0097  1.1180 -1.1377
  231MPD1    H1 3563   3.367   4.163  15.133 -0.6818  0.7875 -0.4717
  231MPD1    H2 3564   3.003   4.038  15.306 -1.0967  0.5361 -0.2846
  231MPD1    H3 3565   3.239   4.076  15.332  0.5409  0.6896 -0.5627
  231MPD1     N 3566   3.263   4.137  14.872 -0.2188 -0.1593  0.3060
  231MPD1    H5 3567   3.201   4.131  14.791 -1.4854 -0.3715  1.2811
  231MPD1    N1 3568   2.861   4.024  15.093 -0.1629 -0.1016  0.7271
  231MPD1    H6 3569   2.835   3.981  15.004  1.4390  0.1114  0.1542
  231MPD1    H7 3570   2.829   3.958  15.163  2.0825 -0.6755  1.2154
  232MPD1     C 3571   0.695   1.980  17.724 -0.0183  0.3156  0.0054
  232MPD1    C1 3572   0.678   1.859  17.661  0.0210  0.7036 -0.7670
  232MPD1    C2 3573   0.565   1.846  17.577 -0.2849  0.0705 -0.3966
  232MPD1    C3 3574   0.468   1.945  17.576 -1.1663  0.0071  0.0724
  232MPD1    C4 3575   0.493   2.067  17.639 -0.3514  0.4214 -0.8515
  232MPD1    C5 3576   0.610   2.081  17.709  0.6238 -0.7836 -0.1352
  232MPD1     H 3577   0.558   1.757  17.514  2.8552  0.1740 -0.8559
  232MPD1    H1 3578   0.425   2.152  17.638  1.5975  1.9897 -0.4246
  232MPD1    H2 3579   0.791   1.998   0.032  0.2837  0.7308 -0.7715
  232MPD1    H3 3580   0.628   2.176   0.020  0.6275 -0.9288  0.1411
  232MPD1     N 3581   0.351   1.922  17.498  0.2419 -0.0168 -0.0100
  232MPD1    H5 3582   0.350   1.830  17.455  0.1744 -0.2209  0.4300
  232MPD1    N1 3583   0.773   1.762  17.668  0.4585  0.2221  0.2105
  232MPD1    H6 3584   0.730   1.671  17.686  2.0677 -0.2941  1.4460
  232MPD1    H7 3585   0.832   1.783   0.009  0.1296 -1.0599  0.7871
  233MPD1     C 3586   1.357   3.973   0.792 -0.1957  0.0064  0.1990
  233MPD1    C1 3587   1.489   3.947   0.824 -0.1771  0.3638 -0.2223
  233MPD1    C2 3588   1.567   4.058   0.855  0.4765  0.1262 -0.2204
  233MPD1    C3 3589   1.521   4.188   0.838  0.3207 -0.4014 -0.3554
  233MPD1    C4 3590   1.387   4.209   0.802  0.3065  0.5083 -0.8013
  233MPD1    C5 3591   1.310   4.098   0.770 -0.2686  0.3605 -0.4185
  233MPD1     H 3592   1.669   4.040   0.887  0.4361  0.3825  0.0578
  233MPD1    H1 3593   1.356   4.306   0.765 -0.1764  0.3335 -0.8561
  233MPD1    H2 3594   1.286   3.891   0.782  1.1627 -0.8288 -2.6574
  233MPD1    H3 3595   1.208   4.118   0.740 -0.6778  0.3629  0.9783
  233MPD1     N 3596   1.588   4.306   0.866  0.4698  0.4606  0.0070
  233MPD1    H5 3597   1.536   4.393   0.852 -1.1703  0.0242  3.2152
  233MPD1    N1 3598   1.541   3.820   0.858  0.5872 -0.1118  0.2824
  233MPD1    H6 3599   1.639   3.815   0.832  0.3227 -0.3686 -0.6646
  233MPD1    H7 3600   1.495   3.748   0.803  1.0479 -0.1919  0.0034
  234MPD1     C 3601   3.176   2.930  10.191 -0.0877 -0.2605  0.3600
  234MPD1    C1 3602   3.210   3.064  10.183  0.5555 -0.0239 -0.0338
  234MPD1    C2 3603   3.136   3.150  10.099  0.4041  0.5905 -0.8703
  234MPD1    C3 3604   3.035   3.096  10.017  0.2267 -0.1854  0.1594
  234MPD1    C4 3605   3.015   2.958  10.014  0.1934  0.2840 -0.5059
  234MPD1    C5 3606   3.083   2.885  10.105  0.1027 -0.1046 -0.2997
  234MPD1     H 3607   3.154   3.257  10.097 -0.1036  0.6538 -1.9202
  234MPD1    H1 3608   2.947   2.905   9.949  2.6508 -3.1341 -0.3048
  234MPD1    H2 3609   3.229   2.860  10.254 -2.8401 -1.3693  1.4027
  234MPD1    H3 3610   3.048   2.782  10.100  1.9590 -0.7210 -0.8315
  234MPD1     N 3611   2.956   3.183   9.942  0.6532  0.0507  0.7901
  234MPD1    H5 3612   2.979   3.281   9.954  0.3622  0.2079  0.0668
  234MPD1    N1 3613   3.316   3.116  10.262 -0.3476  0.5493  0.3603
  234MPD1    H6 3614   3.388   3.057  10.302  1.1560  1.3272 -1.2270
  234MPD1    H7 3615   3.343   3.214  10.254  1.9910 -0.1069  0.4010
  235MPD1     C 3616   3.351   1.052   9.770  0.5307 -0.0665 -0.3988
  235MPD1    C1 3617   3.333   1.176   9.718 -0.1316 -0.1825  0.3982
  235MPD1    C2 3618   3.431   1.227   9.628  0.2881  0.2212 -0.7135
  235MPD1    C3 3619   3.546   1.155   9.604  0.6483 -0.1362  0.3594
  235MPD1    C4 3620   3.565   1.028   9.670  0.1574  0.8295  0.1459
  235MPD1    C5 3621   3.467   0.988   9.750 -0.0358  0.1579  0.1820
  235MPD1     H 3622   3.425   1.321   9.574  0.1152  0.8421  0.3772
  235MPD1    H1 3623   3.655   0.968   9.665  0.3501  1.2466 -1.5768
  235MPD1    H2 3624   3.272   1.007   9.829 -0.4150  1.2205 -0.6715
  235MPD1    H3 3625   3.463   0.885   9.785 -0.1181  0.1231  0.0709
  235MPD1     N 3626   3.640   1.218   9.522  0.0976 -0.0369 -0.4469
  235MPD1    H5 3627   3.621   1.312   9.487  0.0173  0.6139  1.3033
  235MPD1    N1 3628   3.209   1.245   9.728  0.3179  0.1747 -0.0030
  235MPD1    H6 3629   3.216   1.345   9.711  0.0718 -0.1898 -2.2574
  235MPD1    H7 3630   3.172   1.246   9.823 -0.2650 -0.4697 -0.2216
  236MPD1     C 3631   3.132   1.938   9.311  0.4098 -0.9823 -1.0645
  236MPD1    C1 3632   3.102   1.897   9.439  0.1919  0.3701 -0.1543
  236MPD1    C2 3633   3.197   1.931   9.537  0.2614  0.5968 -0.4804
  236MPD1    C3 3634   3.309   2.005   9.512 -0.0091  0.3725 -0.8846
  236MPD1    C4 3635   3.326   2.055   9.383 -0.9817  0.1144  0.5541
  236MPD1    C5 3636   3.242   2.016   9.286 -0.3812 -0.0659  0.6573
  236MPD1     H 3637   3.180   1.892   9.636  2.5578  4.2991  1.3619
  236MPD1    H1 3638   3.411   2.114   9.352 -0.7068  0.1331  1.3415
  236MPD1    H2 3639   3.068   1.918   9.226 -0.0118 -0.4270 -0.8820
  236MPD1    H3 3640   3.265   2.051   9.186 -0.8641 -0.7389  0.3098
  236MPD1     N 3641   3.416   2.023   9.609  0.8472  0.2513  0.6131
  236MPD1    H5 3642   3.498   2.067   9.570  0.8236  0.0700  0.3506
  236MPD1    N1 3643   2.989   1.821   9.472  0.6668 -0.1017 -0.4939
  236MPD1    H6 3644   2.962   1.833   9.570  1.0134 -0.3455 -0.3701
  236MPD1    H7 3645   2.907   1.853   9.421  0.0834 -1.7774 -0.6287
  237MPD1     C 3646   3.684   0.364  14.397  0.0377 -0.5014  0.2038
  237MPD1    C1 3647   3.719   0.343  14.530  0.5895 -0.1178  0.5320
  237MPD1    C2 3648   3.629   0.386  14.619  0.1281 -0.1291 -0.5618
  237MPD1    C3 3649   3.508   0.449  14.580 -0.7756 -0.2913  0.2339
  237MPD1    C4 3650   3.484   0.478  14.447  1.0636 -1.1839  0.3642
  237MPD1    C5 3651   3.585   0.447  14.361  0.2447  0.0112 -0.3856
  237MPD1     H 3652   3.633   0.341  14.717 -1.2280  0.2521 -0.3251
  237MPD1    H1 3653   3.398   0.526  14.402  1.5632 -0.5995  0.0405
  237MPD1    H2 3654   3.737   0.330  14.308  0.6282 -1.1275  0.8022
  237MPD1    H3 3655   3.572   0.473  14.257  0.4637 -0.4126 -0.5182
  237MPD1     N 3656   3.416   0.491  14.666  0.4702  0.0339  0.2079
  237MPD1    H5 3657   3.325   0.518  14.629  0.3609  0.0380  0.4847
  237MPD1    N1 3658   3.825   0.253  14.558 -0.0413 -0.5637 -0.5266
  237MPD1    H6 3659   3.866   0.274  14.649 -1.1178 -2.4249  0.4073
  237MPD1    H7 3660   3.900   0.256  14.489 -1.5496  0.8623 -2.0886
  238MPD1     C 3661   1.015   3.661  14.586 -0.4313  0.0781  0.2621
  238MPD1    C1 3662   0.931   3.580  14.665  0.1290 -0.4826 -0.4196
  238MPD1    C2 3663   0.795   3.612  14.672 -0.3100 -0.0488 -0.3646
  238MPD1    C3 3664   0.739   3.710  14.585 -0.2880  0.2569  0.1062
  238MPD1    C4 3665   0.828   3.788  14.515 -0.4619  0.7990 -0.2159
  238MPD1    C5 3666   0.964   3.775  14.532  0.1479  0.1304 -0.2439
  238MPD1     H 3667   0.731   3.544  14.728 -1.0992 -0.4560 -1.7705
  238MPD1    H1 3668   0.792   3.870  14.455 -0.9740  1.3471  0.8279
  238MPD1    H2 3669   1.122   3.646  14.578 -0.4257  1.1406 -1.6207
  238MPD1    H3 3670   1.022   3.847  14.476  1.6665 -0.2378  0.8743
  238MPD1     N 3671   0.602   3.724  14.563 -0.2389  0.2053  0.1985
  238MPD1    H5 3672   0.566   3.803  14.509  2.7523 -0.8073 -3.2352
  238MPD1    N1 3673   0.987   3.467  14.718  0.3020  0.6164 -0.4123
  238MPD1    H6 3674   1.087   3.470  14.737 -0.0158 -1.9662  1.6485
  238MPD1    H7 3675   0.934   3.425  14.794  2.0560  0.3035  0.6225
  239MPD1     C 3676   0.573   4.427  14.243 -0.0886 -0.7182 -0.0809
  239MPD1    C1 3677   0.629   4.518  14.158 -0.5805  0.5626 -0.5590
  239MPD1    C2 3678   0.546   4.603  14.082  1.0120  0.4051  0.5885
  239MPD1    C3 3679   0.412   4.590  14.094 -0.4938  0.8706  0.4000
  239MPD1    C4 3680   0.352   4.498  14.189  0.3305  0.2125  0.2953
  239MPD1    C5 3681   0.435   4.413  14.255 -0.6519 -0.3813 -0.0640
  239MPD1     H 3682   0.594   4.685  14.028 -1.1021  3.2071  3.0266
  239MPD1    H1 3683   0.244   4.484  14.196  0.6245 -1.9108  0.4946
  239MPD1    H2 3684   0.639   4.362  14.298 -1.5174  0.3207  2.8635
  239MPD1    H3 3685   0.391   4.341  14.322 -0.0765 -0.2879  0.4152
  239MPD1     N 3686   0.323   4.666  14.021 -0.6111  0.2138  0.5272
  239MPD1    H5 3687   0.224   4.662  14.041 -0.4996 -4.3071  0.1303
  239MPD1    N1 3688   0.767   4.545  14.164 -0.2746  0.1101  0.3829
  239MPD1    H6 3689   0.799   4.574  14.072 -0.9599 -2.0298 -0.5264
  239MPD1    H7 3690   0.823   4.463  14.187 -3.1123 -1.0257  3.1594
  240MPD1     C 3691   0.072   4.276  13.698 -0.3358  0.1062  0.2194
  240MPD1    C1 3692   4.713   4.180  13.706  0.7635  0.1384 -0.2606
  240MPD1    C2 3693   4.678   4.152  13.837 -0.4440  1.1567  0.8629
  240MPD1    C3 3694   0.032   4.178  13.940 -0.1004  0.5239  0.5742
  240MPD1    C4 3695   0.136   4.262  13.934 -0.9303 -0.5319 -0.1463
  240MPD1    C5 3696   0.142   4.312  13.808 -0.3256 -0.2192  0.6663
  240MPD1     H 3697   4.583   4.101  13.849 -0.0345 -0.1097 -1.3412
  240MPD1    H1 3698   0.209   4.289  14.010 -0.7661 -0.1404 -0.4418
  240MPD1    H2 3699   0.115   4.317  13.607 -0.4905 -1.2961 -0.4936
  240MPD1    H3 3700   0.234   4.365  13.786 -1.7260  1.1807 -1.8960
  240MPD1     N 3701   4.731   4.122  14.065 -0.4873 -0.2798  0.7196
  240MPD1    H5 3702   4.654   4.056  14.058  1.0511 -2.1431  1.2919
  240MPD1    N1 3703   4.627   4.155  13.597  0.1664 -0.6321  0.6017
  240MPD1    H6 3704   4.679   4.168  13.511  0.1723 -2.6152  0.3056
  240MPD1    H7 3705   4.588   4.061  13.601 -1.5213 -0.0098 -1.5577
  241MPD1     C 3706   4.699   3.988  15.151 -0.0714  0.8042 -0.1741
  241MPD1    C1 3707   0.081   3.979  15.082 -0.9413  0.2624 -0.7013
  241MPD1    C2 3708   0.074   3.955  14.945  0.2369 -0.5011  0.3224
  241MPD1    C3 3709   4.693   3.965  14.872 -0.5260 -0.1592  0.2815
  241MPD1    C4 3710   4.577   3.974  14.952 -0.1920  0.0229  0.8140
  241MPD1    C5 3711   4.581   3.990  15.087  0.0705  0.6781 -1.1381
  241MPD1     H 3712   0.163   3.934  14.887  0.5558 -1.5360  1.1794
  241MPD1    H1 3713   4.476   3.959  14.915  0.6352 -1.0301 -1.0143
  241MPD1    H2 3714   4.711   3.988  15.259 -0.0156  3.5085 -0.1801
  241MPD1    H3 3715   4.493   3.977  15.149  0.4543  1.2397 -0.4803
  241MPD1     N 3716   4.675   3.977  14.735 -0.3593  0.0309  0.5087
  241MPD1    H5 3717   4.580   3.985  14.702 -0.6880 -1.7444  1.0446
  241MPD1    N1 3718   0.201   3.963  15.151  0.2381 -0.2361  0.1901
  241MPD1    H6 3719   0.208   4.001  15.245  0.9243  2.0961 -0.8012
  241MPD1    H7 3720   0.271   4.007  15.092 -1.2384  0.3745 -1.1037
  242MPD1     C 3721   4.675   2.962  15.818  0.2833  0.3765  0.1332
  242MPD1    C1 3722   4.569   2.901  15.764  0.0716 -0.4076 -0.0280
  242MPD1    C2 3723   4.575   2.864  15.634 -0.1033 -0.7168 -0.0908
  242MPD1    C3 3724   4.685   2.876  15.556  0.5258 -0.2512 -1.0060
  242MPD1    C4 3725   0.056   2.936  15.610 -0.2776 -0.0509 -0.0230
  242MPD1    C5 3726   0.048   2.974  15.740 -0.1910 -0.3407 -0.8348
  242MPD1     H 3727   4.491   2.814  15.587  0.5097 -0.2154 -1.7071
  242MPD1    H1 3728   0.148   2.951  15.554  0.4371 -3.7883  0.1910
  242MPD1    H2 3729   4.684   3.006  15.916 -1.9725 -0.4325  0.6872
  242MPD1    H3 3730   0.132   3.027  15.784 -1.4671 -0.2657  1.4802
  242MPD1     N 3731   4.689   2.844  15.416  0.3837  0.3925  0.1021
  242MPD1    H5 3732   0.044   2.843  15.369  0.3505  0.2712  0.0400
  242MPD1    N1 3733   4.445   2.901  15.833 -0.1200 -0.0448 -0.0431
  242MPD1    H6 3734   4.389   2.820  15.807 -0.5448  0.3042 -0.2201
  242MPD1    H7 3735   4.450   2.917  15.933  0.9035  2.3417 -0.4786
  243MPD1     C 3736   1.428   3.366  17.054 -0.1909  1.2607 -0.0277
  243MPD1    C1 3737   1.529   3.263  17.074  0.1763 -0.7435  0.0831
  243MPD1    C2 3738   1.491   3.136  17.037  0.1490 -0.0017  0.0891
  243MPD1    C3 3739   1.365   3.105  16.990 -0.3310 -1.0461  0.3528
  243MPD1    C4 3740   1.269   3.207  16.981 -0.0028  0.5664  0.1567
  243MPD1    C5 3741   1.298   3.337  17.022  0.7312  0.1966  0.0126
  243MPD1     H 3742   1.558   3.051  17.049 -1.2466 -1.0496  0.5566
  243MPD1    H1 3743   1.165   3.190  16.955 -0.3183  1.5287  0.7497
  243MPD1    H2 3744   1.453   3.469  17.078 -2.7150  2.0459 -0.7613
  243MPD1    H3 3745   1.220   3.412  17.022 -0.6057 -1.2031  2.8307
  243MPD1     N 3746   1.343   2.969  16.950 -0.0278  0.0654 -0.1606
  243MPD1    H5 3747   1.410   2.899  16.982 -1.5049 -1.1178  0.3280
  243MPD1    N1 3748   1.659   3.291  17.103  0.3450  0.3825 -0.1748
  243MPD1    H6 3749   1.710   3.213  17.144  0.1093  0.5617  0.4504
  243MPD1    H7 3750   1.679   3.379  17.149 -1.8894  0.4668  0.6250
  244MPD1     C 3751   1.682   2.153  17.238 -0.2902 -1.5569 -0.0325
  244MPD1    C1 3752   1.608   2.098  17.133  0.2230  0.3357  0.4295
  244MPD1    C2 3753   1.542   2.193  17.055 -0.5797  0.2921  0.9701
  244MPD1    C3 3754   1.540   2.327  17.083 -0.1062  0.0760 -0.3076
  244MPD1    C4 3755   1.593   2.374  17.201 -0.3775  0.4217  0.1271
  244MPD1    C5 3756   1.673   2.282  17.267 -0.3714 -0.1289  0.0452
  244MPD1     H 3757   1.482   2.161  16.971  1.6746 -1.1410 -0.0969
  244MPD1    H1 3758   1.592   2.477  17.237 -0.0064  0.5394 -0.2029
  244MPD1    H2 3759   1.751   2.092  17.297  0.3418 -1.7888 -1.0044
  244MPD1    H3 3760   1.726   2.321  17.354  2.3073 -0.9509 -1.2229
  244MPD1     N 3761   1.464   2.411  17.004  0.5915 -0.5359 -0.4674
  244MPD1    H5 3762   1.421   2.382  16.917  0.9430  1.0602 -1.1729
  244MPD1    N1 3763   1.623   1.966  17.087  0.1481  0.3143 -0.2628
  244MPD1    H6 3764   1.545   1.946  17.025 -0.3423 -0.9308  0.7606
  244MPD1    H7 3765   1.627   1.908  17.171 -0.3636 -1.9110 -1.7997
  245MPD1     C 3766   3.413   2.128  12.779  0.5778 -0.0379  0.0857
  245MPD1    C1 3767   3.376   2.245  12.704  0.0548  0.9985 -0.1675
  245MPD1    C2 3768   3.462   2.349  12.710 -0.5641  0.3853  0.2882
  245MPD1    C3 3769   3.572   2.340  12.790 -0.0238  0.0611  0.9184
  245MPD1    C4 3770   3.602   2.229  12.863  0.1210 -0.1832  0.2876
  245MPD1    C5 3771   3.525   2.117  12.856  0.1683  0.5124  0.1672
  245MPD1     H 3772   3.446   2.437  12.648  2.7058  2.3790  2.3101
  245MPD1    H1 3773   3.686   2.220  12.931 -0.6928  0.6949  1.4112
  245MPD1    H2 3774   3.348   2.041  12.780  1.0818 -0.4299 -0.6022
  245MPD1    H3 3775   3.553   2.028  12.910 -0.9885  0.6977  1.0879
  245MPD1     N 3776   3.646   2.456  12.788 -0.2559 -0.1170  0.4121
  245MPD1    H5 3777   3.601   2.539  12.750 -0.1935 -0.8062 -1.1538
  245MPD1    N1 3778   3.258   2.255  12.618 -0.2532  0.8629 -0.3787
  245MPD1    H6 3779   3.246   2.355  12.602 -1.8279  0.5932 -0.8463
  245MPD1    H7 3780   3.169   2.230  12.659  1.1045 -1.1007  1.3860
  246MPD1     C 3781   1.490   1.436   8.575 -0.6605  0.0904 -0.4623
  246MPD1    C1 3782   1.553   1.346   8.658 -0.4807  0.7232  0.6523
  246MPD1    C2 3783   1.672   1.384   8.716  0.3033  0.4103 -0.3969
  246MPD1    C3 3784   1.732   1.505   8.699 -0.4749 -0.0402 -0.3442
  246MPD1    C4 3785   1.674   1.596   8.609  0.3824 -0.6704 -0.4941
  246MPD1    C5 3786   1.557   1.556   8.542  0.1169  0.2125 -0.0055
  246MPD1     H 3787   1.725   1.321   8.787 -1.1466 -2.9862 -2.3774
  246MPD1    H1 3788   1.722   1.689   8.581  2.0338 -0.9754  1.3741
  246MPD1    H2 3789   1.400   1.402   8.525 -0.6774 -0.0436 -0.3382
  246MPD1    H3 3790   1.519   1.628   8.471 -0.1655 -0.8902 -0.9617
  246MPD1     N 3791   1.849   1.536   8.773 -0.4292  0.4223 -0.7298
  246MPD1    H5 3792   1.869   1.475   8.852  0.3266  2.8067  0.9059
  246MPD1    N1 3793   1.500   1.220   8.659 -0.5345 -0.1935  0.0305
  246MPD1    H6 3794   1.400   1.231   8.644 -0.6672 -0.7176  0.5292
  246MPD1    H7 3795   1.511   1.189   8.755  1.3709  1.3413  0.3084
  247MPD1     C 3796   2.809   2.350  16.558  0.1732  0.0898  0.5950
  247MPD1    C1 3797   2.761   2.224  16.607 -0.2494 -0.1797  0.6534
  247MPD1    C2 3798   2.758   2.121  16.516 -0.6229  0.7256 -0.4678
  247MPD1    C3 3799   2.815   2.125  16.389 -1.0743 -0.6096 -0.7807
  247MPD1    C4 3800   2.867   2.247  16.349 -0.3541 -0.3689 -0.0956
  247MPD1    C5 3801   2.866   2.357  16.428 -0.4648 -0.7696 -0.6722
  247MPD1     H 3802   2.724   2.025  16.556  0.8975  0.4682  0.2047
  247MPD1    H1 3803   2.901   2.262  16.247  2.8861  0.8564  1.1728
  247MPD1    H2 3804   2.808   2.431  16.630 -0.5888  1.4732 -1.0042
  247MPD1    H3 3805   2.910   2.451  16.396  1.5315 -0.9346  1.5928
  247MPD1     N 3806   2.820   2.023  16.293 -0.4651  0.0147  0.5028
  247MPD1    H5 3807   2.849   2.055  16.202  1.7369 -1.9498  0.5296
  247MPD1    N1 3808   2.734   2.198  16.742 -0.1184 -0.1256 -0.1791
  247MPD1    H6 3809   2.707   2.278  16.799  1.6777  0.2637  0.1376
  247MPD1    H7 3810   2.653   2.138  16.756 -0.3651 -0.0556 -1.2747
  248MPD1     C 3811   3.200   1.496   0.088 -0.2288  0.0968 -0.4929
  248MPD1    C1 3812   3.090   1.566   0.133 -0.3483 -0.6513  0.0936
  248MPD1    C2 3813   3.115   1.683   0.203 -0.3088  0.6354 -0.3916
  248MPD1    C3 3814   3.242   1.711   0.243 -0.4790  0.1344  0.5022
  248MPD1    C4 3815   3.353   1.632   0.212  0.1435  0.2270 -1.0843
  248MPD1    C5 3816   3.327   1.529   0.125 -0.3187  0.1865  0.3998
  248MPD1     H 3817   3.027   1.732   0.244  0.1455  0.1117  1.1910
  248MPD1    H1 3818   3.454   1.668   0.227  0.0558 -1.5321  3.4702
  248MPD1    H2 3819   3.189   1.407   0.027  1.4015 -0.2558 -0.2864
  248MPD1    H3 3820   3.406   1.469   0.082  0.2576  0.0340  1.6930
  248MPD1     N 3821   3.262   1.826   0.332  0.4250 -0.7337 -0.2794
  248MPD1    H5 3822   3.188   1.895   0.332  0.9413 -0.1795  0.8617
  248MPD1    N1 3823   2.963   1.540   0.080  0.0502 -0.4177  0.3396
  248MPD1    H6 3824   2.884   1.576   0.132  2.0346  2.6092  1.2778
  248MPD1    H7 3825   2.959   1.438   0.072 -1.0629 -0.2604 -1.1044
  249MPD1     C 3826   1.353   0.132  11.280 -0.5882 -0.0758 -0.8356
  249MPD1    C1 3827   1.437   0.237  11.249  0.3783  0.0318 -0.7446
  249MPD1    C2 3828   1.369   0.353  11.225  0.2544  0.1626  0.4857
  249MPD1    C3 3829   1.232   0.365  11.237 -0.4621 -0.0719  0.6305
  249MPD1    C4 3830   1.157   0.253  11.273 -0.0757 -0.2931  0.2647
  249MPD1    C5 3831   1.215   0.137  11.296  0.0861 -0.2179  0.4067
  249MPD1     H 3832   1.424   0.441  11.191  0.7379 -0.1461  0.4697
  249MPD1    H1 3833   1.050   0.265  11.286  0.0501 -1.0403  1.9323
  249MPD1    H2 3834   1.383   0.029  11.294 -1.2472  0.0631  1.4758
  249MPD1    H3 3835   1.154   0.054  11.328 -0.7764 -0.2590 -1.3290
  249MPD1     N 3836   1.173   0.493  11.207  0.5720 -0.1495 -0.1151
  249MPD1    H5 3837   1.234   0.574  11.208  0.0940  0.1955  0.6205
  249MPD1    N1 3838   1.576   0.210  11.227 -0.0086 -0.2967 -0.7729
  249MPD1    H6 3839   1.603   0.136  11.291  1.0199  1.0667  0.3560
  249MPD1    H7 3840   1.638   0.290  11.240 -1.2583  0.3013  1.4574
  250MPD2     C 3841   1.822   4.663  12.482  0.3551 -0.0944  0.0185
  250MPD2    C1 3842   1.700   4.645  12.537  0.7776 -0.5022  0.3575
  250MPD2    C2 3843   1.619   4.535  12.513 -0.0699 -0.1498 -1.2584
  250MPD2    C3 3844   1.646   4.456  12.399  0.1467 -0.1811 -0.0242
  250MPD2    C4 3845   1.774   4.480  12.342 -0.0933 -0.6413  0.2011
  250MPD2    C5 3846   1.857   4.573  12.384  0.1551 -0.4084  0.4921
  250MPD2     H 3847   1.527   4.522  12.568  1.9932 -2.0520  1.7616
  250MPD2    H1 3848   1.804   4.416  12.261 -0.5916 -0.6239  0.0008
  250MPD2    H2 3849   1.879   0.016  12.509  0.6155 -0.6756  1.3551
  250MPD2    H3 3850   1.955   4.578  12.340 -0.0326 -1.7537 -0.0508
  250MPD2     N 3851   1.559   4.365  12.335 -0.8865 -0.6674 -0.2952
  250MPD2    H5 3852   1.582   4.324  12.245  1.8670  0.8989 -0.3065
  250MPD2    N1 3853   1.670   4.734  12.643  0.1863  0.2265 -0.7160
  250MPD2    H7 3854   1.724   0.083  12.658  1.6794 -1.1701  1.7883
  251TMC3    C1 3855   1.557   0.108  12.800 -0.7882 -0.3310 -0.4287
  251TMC3    C2 3856   1.438   0.157  12.843  0.1729  0.2907 -0.2278
  251TMC3    C3 3857   1.446   0.265  12.919  0.3619 -0.7113 -0.4268
  251TMC3    C4 3858   1.678   0.163  12.847  0.2292  0.1585  0.6184
  251TMC3    C5 3859   1.680   0.283  12.912  1.2481  1.0956  0.6049
  251TMC3    C6 3860   1.562   0.336  12.953  0.0085  0.0070 -0.7280
  251TMC3     C 3861   1.561   4.726  12.719  1.0034 -0.5077  0.5091
  251TMC3     O 3862   1.459   4.661  12.723  0.5515 -0.2629 -0.3729
  251TMC3     H 3863   1.355   0.090  12.828  0.0774  0.5974 -1.0571
  251TMC3    H1 3864   1.774   0.120  12.820 -0.7899 -0.9977 -1.1800
  251TMC3    H2 3865   1.547   0.421  13.019 -1.0497  0.5951 -1.7229
  251TMC3    C7 3866   1.810   0.329  12.948  0.4336  0.1872  0.5329
  251TMC3    C8 3867   1.320   0.315  12.973 -0.0592  0.6865 -0.5059
  251TMC3    O1 3868   1.903   0.254  12.932 -0.3251 -0.3125 -0.2738
  251TMC3    O2 3869   1.318   0.384  13.073  0.3084 -0.0403 -0.0997
  252TMC3    C1 3870   1.482   1.796   8.833  0.0594 -0.1736  0.2335
  252TMC3    C2 3871   1.589   1.842   8.906  0.2013 -0.3938  0.5983
  252TMC3    C3 3872   1.644   1.752   8.984 -0.8573  0.0300  0.1818
  252TMC3    C4 3873   1.436   1.670   8.838 -0.5488 -0.4277 -0.7717
  252TMC3    C5 3874   1.489   1.589   8.934  0.0809 -0.7245 -0.3181
  252TMC3    C6 3875   1.591   1.624   9.012  0.3076 -0.6411  0.6744
  252TMC3     C 3876   1.425   1.884   8.728 -0.1363  0.3322  0.2561
  252TMC3     O 3877   1.403   1.835   8.619 -0.5972 -0.1846 -0.1780
  252TMC3     H 3878   1.640   1.935   8.883 -0.1857  0.2632  2.4184
  252TMC3    H1 3879   1.350   1.643   8.779 -0.2773  0.2970 -1.4981
  252TMC3    H2 3880   1.625   1.562   9.095 -2.4615 -4.6720 -1.2744
  252TMC3    C7 3881   1.417   1.463   8.945 -0.4804  0.0113 -0.8186
  252TMC3    C8 3882   1.764   1.794   9.051 -0.5849  0.1607  0.4010
  252TMC3    O1 3883   1.306   1.460   8.888 -0.1557  0.8146  0.8385
  252TMC3    O2 3884   1.803   1.906   9.016 -0.0038  0.2451  0.0998
  253MPD2     C 3885   2.997   0.831  15.284 -0.1341  0.0761  0.3337
  253MPD2    C1 3886   2.857   0.810  15.260  0.3304 -0.4005 -0.1694
  253MPD2    C2 3887   2.773   0.734  15.340  0.2766 -0.3720  0.5397
  253MPD2    C3 3888   2.820   0.694  15.463 -0.0293  0.5031 -0.7791
  253MPD2    C4 3889   2.955   0.717  15.492 -0.3953 -0.2918  0.3819
  253MPD2    C5 3890   3.042   0.785  15.407 -0.0709  0.7887  1.4169
  253MPD2     H 3891   2.671   0.719  15.307  0.3114 -2.2776  1.3002
  253MPD2    H1 3892   2.986   0.675  15.587  2.2687  1.0556  0.1308
  253MPD2    H2 3893   3.058   0.874  15.206 -2.5156  0.9851 -1.0504
  253MPD2    H3 3894   3.147   0.801  15.427 -0.2642  1.4409  1.9151
  253MPD2     N 3895   2.736   0.621  15.552  0.1219 -0.6071  0.1238
  253MPD2    H5 3896   2.768   0.608  15.648 -2.1761 -2.4936  0.6270
  253MPD2    N1 3897   2.793   0.844  15.138 -0.2002  0.2464  0.4749
  253MPD2    H7 3898   2.700   0.807  15.120 -0.2366  0.6002 -0.0510
  254TMC3    C1 3899   2.523   0.572  15.624  0.5156 -0.2798  0.3316
  254TMC3    C2 3900   2.387   0.584  15.600 -0.4959 -0.1443  0.8103
  254TMC3    C3 3901   2.297   0.535  15.693  0.0019 -0.3511 -0.3037
  254TMC3    C4 3902   2.565   0.523  15.744 -0.3250 -0.3037 -0.5121
  254TMC3    C5 3903   2.475   0.481  15.835 -0.0185  0.5479 -0.6095
  254TMC3    C6 3904   2.342   0.484  15.808  0.3121  0.1306 -0.0017
  254TMC3     C 3905   2.611   0.571  15.513 -0.7612 -0.0065  0.0166
  254TMC3     O 3906   2.563   0.550  15.404  0.6908  0.1433 -0.8284
  254TMC3     H 3907   2.357   0.601  15.497 -0.0929 -1.2452  0.5062
  254TMC3    H1 3908   2.670   0.524  15.770 -0.3218 -0.6854 -0.5199
  254TMC3    H2 3909   2.278   0.447  15.887 -1.0766 -1.0481 -1.6808
  254TMC3    C7 3910   2.522   0.408  15.950  0.7291  0.0924  0.0840
  254TMC3    C8 3911   2.174   0.608  15.698 -0.2486  0.0428 -0.2253
  254TMC3    O1 3912   2.462   0.305  15.988 -0.0657  0.2729 -0.0151
  254TMC3    O2 3913   2.109   0.582  15.796  0.9241  0.3557 -0.1190
  255MPD2     C 3914   0.808   4.186  10.006 -0.7670 -0.0742 -0.0074
  255MPD2    C1 3915   0.810   4.131   9.880  0.4598  0.7462 -0.5909
  255MPD2    C2 3916   0.934   4.086   9.836 -0.3091  0.1704 -0.1383
  255MPD2    C3 3917   1.043   4.084   9.920 -0.9012  0.0506 -0.4355
  255MPD2    C4 3918   1.041   4.143  10.047 -0.0214  0.0958 -0.1676
  255MPD2    C5 3919   0.918   4.193  10.084  0.5604 -0.2871  0.1381
  255MPD2     H 3920   0.955   4.042   9.739 -0.6867 -0.5218  0.1009
  255MPD2    H1 3921   1.129   4.153  10.109  0.5833  0.6541 -1.1259
  255MPD2    H2 3922   0.712   4.217  10.048  0.8499  0.6084  3.1776
  255MPD2    H3 3923   0.903   4.242  10.179  2.1824  0.0312  0.2401
  255MPD2     N 3924   1.159   4.024   9.874 -0.1670  0.0251 -0.2926
  255MPD2    H5 3925   1.166   3.987   9.780 -0.2501 -0.1265 -0.2406
  255MPD2    N1 3926   0.690   4.126   9.806  0.9242  1.0049 -0.4726
  255MPD2    H7 3927   0.599   4.136   9.849 -0.0681  0.8721 -2.5169
  256TMC3    C1 3928   0.567   4.100   9.610 -0.0605  0.1083 -0.2085
  256TMC3    C2 3929   0.576   4.127   9.477  0.3364  0.3912  0.7894
  256TMC3    C3 3930   0.506   4.034   9.401  0.2158  0.5057  0.0900
  256TMC3    C4 3931   0.487   4.002   9.671 -0.4466  0.2697 -0.5747
  256TMC3    C5 3932   0.413   3.917   9.584  0.4746  0.9608 -1.0963
  256TMC3    C6 3933   0.426   3.933   9.453  0.2049  0.1007 -0.2742
  256TMC3     C 3934   0.693   4.109   9.674  0.6911  0.4647  0.1597
  256TMC3     O 3935   0.783   4.105   9.593  0.6443  0.0091 -0.1434
  256TMC3     H 3936   0.639   4.210   9.447  0.2322 -0.5674 -2.0309
  256TMC3    H1 3937   0.494   3.984   9.778 -1.1717  2.5012 -0.1668
  256TMC3    H2 3938   0.387   3.855   9.389 -2.2393  1.7049 -0.7339
  256TMC3    C7 3939   0.375   3.789   9.637 -0.4578 -0.6607 -0.1686
  256TMC3    C8 3940   0.581   3.972   9.292 -0.0965  0.1927 -0.3259
  256TMC3    O1 3941   0.375   3.691   9.561 -0.2493 -0.3564  0.4283
  256TMC3    O2 3942   0.536   3.880   9.228  0.0004 -0.0578 -0.3258
  257MPD2     C 3943   4.569   0.398  12.793  0.3202 -0.2426 -0.0228
  257MPD2    C1 3944   4.698   0.394  12.755 -0.1299  0.0103  0.2296
  257MPD2    C2 3945   0.044   0.301  12.813  0.1711  0.4130 -0.1102
  257MPD2    C3 3946   0.002   0.213  12.914  0.4097 -0.9414 -0.6952
  257MPD2    C4 3947   4.608   0.238  12.963 -0.4464 -0.1121 -0.1297
  257MPD2    C5 3948   4.522   0.318  12.903  0.3658 -0.2473  0.0418
  257MPD2     H 3949   0.143   0.287  12.772  0.0283  1.6354 -0.8703
  257MPD2    H1 3950   4.578   0.174  13.045 -0.6340 -0.3727 -0.4024
  257MPD2    H2 3951   4.502   0.474  12.753  0.9984  0.1140 -0.4714
  257MPD2    H3 3952   4.422   0.333  12.941 -0.0596 -0.8056 -0.8493
  257MPD2     N 3953   0.097   0.127  12.977  0.3778  0.1065 -0.5746
  257MPD2    H5 3954   0.193   0.136  12.943  1.2689 -2.7466  1.1876
  257MPD2    N1 3955   0.013   0.481  12.655 -0.0611 -0.2548  0.4316
  257MPD2    H7 3956   4.676   0.548  12.630  0.7937  0.3295 -0.4874
  258TMC3    C1 3957   0.195   4.691  13.104 -0.0383  0.5948  0.4881
  258TMC3    C2 3958   0.276   4.673  12.997 -0.1845 -0.0367 -0.1985
  258TMC3    C3 3959   0.385   4.590  13.026  0.5866  0.7301  0.1910
  258TMC3    C4 3960   0.197   4.623  13.215  0.1846 -0.6385 -0.3509
  258TMC3    C5 3961   0.303   4.543  13.235 -0.2896  0.4838  0.0643
  258TMC3    C6 3962   0.403   4.531  13.143 -0.1313 -0.3093 -0.5135
  258TMC3     C 3963   0.074   0.032  13.077  0.1788 -0.0248 -0.4246
  258TMC3     O 3964   4.705   0.001  13.134  0.1788 -0.3345  0.0704
  258TMC3     H 3965   0.251   4.715  12.900  3.2228 -0.5106 -1.2915
  258TMC3    H1 3966   0.108   4.619  13.277 -1.1934  1.4067 -2.2084
  258TMC3    H2 3967   0.478   4.453  13.157  0.4817  0.8003  2.4617
  258TMC3    C7 3968   0.338   4.514  13.368 -0.6073 -0.0303  0.7008
  258TMC3    C8 3969   0.467   4.561  12.907 -0.2560 -0.4077  0.0901
  258TMC3    O1 3970   0.250   4.476  13.439 -0.2622 -0.3716 -0.4051
  258TMC3    O2 3971   0.428   4.584  12.791 -0.1759 -0.0955 -0.2991
  259MPD2     C 3972   3.806   2.484   0.234  0.0966 -0.3018 -0.3023
  259MPD2    C1 3973   3.885   2.387   0.180  0.1774  0.4443  0.4441
  259MPD2    C2 3974   3.870   2.352   0.044  0.0859  0.5498 -0.3237
  259MPD2    C3 3975   3.777   2.419  17.711  0.2510  0.1366  0.3813
  259MPD2    C4 3976   3.701   2.521   0.018 -0.1199 -0.2824  0.0318
  259MPD2    C5 3977   3.717   2.554   0.151  0.5736  0.1437  0.3826
  259MPD2     H 3978   3.937   2.278   0.002  0.4218  1.1835 -0.9131
  259MPD2    H1 3979   3.622   2.566  17.697 -0.7268  2.0313  2.5838
  259MPD2    H2 3980   3.824   2.526   0.332  1.0814  1.2051 -1.1231
  259MPD2    H3 3981   3.658   2.633   0.195  1.0901  1.0605 -0.5831
  259MPD2     N 3982   3.763   2.375  17.579  0.4314 -0.1191 -0.0834
  259MPD2    H5 3983   3.813   2.290  17.556 -0.0497 -1.4535  3.8686
  259MPD2    N1 3984   3.989   2.333   0.259 -0.2134 -0.1588  0.2103
  259MPD2    H7 3985   3.990   2.354   0.358 -0.0492  0.6785  0.0245
  260TMC3    C1 3986   3.752   2.374  17.353  0.1990  0.3238 -0.0726
  260TMC3    C2 3987   3.832   2.460  17.280 -0.4683  0.1528 -0.6992
  260TMC3    C3 3988   3.925   2.400  17.200  0.0724 -1.2743  1.0823
  260TMC3    C4 3989   3.750   2.236  17.340  0.5320 -0.8631  0.4006
  260TMC3    C5 3990   3.837   2.185  17.244 -0.1740 -0.0773 -0.3934
  260TMC3    C6 3991   3.933   2.262  17.179  0.2748  0.3146 -0.2913
  260TMC3     C 3992   3.699   2.435  17.476  0.0036  0.0482  0.1395
  260TMC3     O 3993   3.654   2.549  17.463  0.3879 -0.1477  0.5259
  260TMC3     H 3994   3.842   2.563  17.310 -0.4048  0.0621 -0.4069
  260TMC3    H1 3995   3.685   2.179  17.406  1.5210 -2.8534 -0.3471
  260TMC3    H2 3996   3.997   2.221  17.101 -1.4347 -2.2489 -0.3212
  260TMC3    C7 3997   3.862   2.045  17.240  0.3023  0.1707  0.7069
  260TMC3    C8 3998   4.051   2.465  17.203  0.5501 -0.3749 -0.4003
  260TMC3    O1 3999   3.943   2.008  17.155 -0.1781  0.0862 -0.2957
  260TMC3    O2 4000   4.046   2.587  17.202  0.6594 -0.8746 -0.2649
  261MPD2     C 4001   1.130   4.364  11.737 -0.0202 -0.6207  0.2490
  261MPD2    C1 4002   1.213   4.422  11.828 -0.6942  0.2323  0.5889
  261MPD2    C2 4003   1.243   4.553  11.796  0.0762  0.0419 -0.0325
  261MPD2    C3 4004   1.204   4.618  11.681  0.0792 -0.5973  0.3719
  261MPD2    C4 4005   1.095   4.565  11.609 -0.6104 -0.0292  0.3085
  261MPD2    C5 4006   1.068   4.439  11.635  0.2981  0.1255 -0.4818
  261MPD2     H 4007   1.309   4.602  11.866 -0.2442  1.4089 -0.6866
  261MPD2    H1 4008   1.058   4.620  11.524 -0.6021 -0.1749  0.2109
  261MPD2    H2 4009   1.098   4.261  11.748  2.4408 -1.2226  1.7567
  261MPD2    H3 4010   0.986   4.393  11.581  1.2674 -0.6804 -1.2762
  261MPD2     N 4011   1.258   0.005  11.638 -0.0102 -0.6210  0.6505
  261MPD2    H5 4012   1.195   0.058  11.580 -0.7056 -1.5867  0.5360
  261MPD2    N1 4013   1.274   4.350  11.931  0.1774 -0.1933  0.0966
  261MPD2    H7 4014   1.331   4.404  11.995 -1.3213  1.8626 -0.3008
  262TMC3    C1 4015   1.413   0.188  11.625  0.2141  0.2579 -0.4084
  262TMC3    C2 4016   1.312   0.279  11.612 -0.5303 -0.5225  0.5333
  262TMC3    C3 4017   1.349   0.413  11.586  0.5035  0.9442  0.2973
  262TMC3    C4 4018   1.540   0.219  11.567  0.5496  0.1564 -0.1703
  262TMC3    C5 4019   1.568   0.348  11.533 -0.2148  0.5604 -0.5138
  262TMC3    C6 4020   1.476   0.453  11.554 -0.1713 -0.6502  0.0576
  262TMC3     C 4021   1.387   0.050  11.665 -0.2781  0.1125  0.0127
  262TMC3     O 4022   1.476   4.720  11.715  0.0566 -0.1121  0.2485
  262TMC3     H 4023   1.221   0.258  11.669 -1.6145 -1.0746 -1.4074
  262TMC3    H1 4024   1.615   0.141  11.571  1.0224  0.5601 -0.9865
  262TMC3    H2 4025   1.514   0.554  11.562 -0.8190 -0.5624  1.9275
  262TMC3    C7 4026   1.711   0.382  11.510  0.0806 -0.4277  0.0120
  262TMC3    C8 4027   1.241   0.512  11.600  0.8615 -0.1661  0.3746
  262TMC3    O1 4028   1.794   0.294  11.499  0.1620 -0.8792 -0.4657
  262TMC3    O2 4029   1.276   0.625  11.642  0.1442 -0.1900  0.4723
  263MPD2     C 4030   1.898   4.242  11.433 -0.1419 -0.6988 -0.6674
  263MPD2    C1 4031   2.004   4.232  11.347 -0.6149  0.6246  0.3286
  263MPD2    C2 4032   1.995   4.302  11.226 -0.1499 -0.7116 -0.4218
  263MPD2    C3 4033   1.874   4.370  11.204 -0.3751 -0.4133  0.3578
  263MPD2    C4 4034   1.770   4.368  11.290 -0.2814  0.2283  0.6116
  263MPD2    C5 4035   1.780   4.299  11.406 -0.1465  0.3438  0.1207
  263MPD2     H 4036   2.081   4.314  11.161 -1.7327 -2.7673 -2.9355
  263MPD2    H1 4037   1.677   4.422  11.280 -0.6921 -0.3934  1.0589
  263MPD2    H2 4038   1.905   4.186  11.525  2.7745  0.3311 -0.2662
  263MPD2    H3 4039   1.686   4.294  11.459 -0.5533  0.0479 -0.6364
  263MPD2     N 4040   1.863   4.450  11.087 -0.3012 -0.4416 -0.3241
  263MPD2    H5 4041   1.949   4.464  11.037 -0.6575  3.7389  0.2072
  263MPD2    N1 4042   2.123   4.170  11.395  0.6320 -0.3018  0.3103
  263MPD2    H7 4043   2.121   4.143  11.493  2.0029 -1.1054  0.1203
  264TMC3    C1 4044   1.787   4.603  10.935  0.0930 -0.2772 -0.5849
  264TMC3    C2 4045   1.726   4.727  10.924  0.5166  0.1723  1.1187
  264TMC3    C3 4046   1.749   0.065  10.808 -0.3601 -0.6939  0.5801
  264TMC3    C4 4047   1.871   4.547  10.835  0.0050  0.0645  0.0381
  264TMC3    C5 4048   1.890   4.621  10.720 -0.6070 -0.5065 -0.0498
  264TMC3    C6 4049   1.821   0.001  10.705 -0.7280 -0.2412 -0.2769
  264TMC3     C 4050   1.756   4.520  11.049 -0.4268 -0.0747 -0.3005
  264TMC3     O 4051   1.651   4.545  11.106  0.0010 -0.3393 -0.1426
  264TMC3     H 4052   1.664   0.032  11.004 -1.9926 -1.3304 -0.0532
  264TMC3    H1 4053   1.936   4.463  10.854 -0.1905 -0.6207 -2.3311
  264TMC3    H2 4054   1.847   0.067  10.623  1.7167 -0.5962  0.2123
  264TMC3    C7 4055   2.033   4.644  10.712  0.1353 -0.6212  0.3295
  264TMC3    C8 4056   1.780   0.211  10.802  0.1791  0.7587 -0.0497
  264TMC3    O1 4057   2.109   4.549  10.704 -0.3550 -0.4465  0.2337
  264TMC3    O2 4058   1.817   0.261  10.696 -0.1274  0.2847 -0.4031
  265MPD2     C 4059   3.655   0.077  15.238  0.2676 -0.0385 -0.4217
  265MPD2    C1 4060   3.695   0.186  15.164  0.1355  0.1824 -0.0599
  265MPD2    C2 4061   3.774   0.166  15.047 -0.7068  0.3140  0.5421
  265MPD2    C3 4062   3.833   0.044  15.031  0.4164  0.4079 -0.1987
  265MPD2    C4 4063   3.813   4.673  15.119 -0.0581  0.3465 -0.6667
  265MPD2    C5 4064   3.713   4.687  15.210  1.2848  0.2345  0.2563
  265MPD2     H 4065   3.794   0.249  14.980  0.3512 -0.9417 -0.6580
  265MPD2    H1 4066   3.843   4.571  15.101 -1.0858 -0.2189  0.7683
  265MPD2    H2 4067   3.590   0.078  15.324 -0.8846 -1.5723 -1.2808
  265MPD2    H3 4068   3.682   4.599  15.264  1.4808 -0.9974 -1.6507
  265MPD2     N 4069   3.919   0.011  14.929  0.0670 -0.2587  0.2924
  265MPD2    H5 4070   3.953   4.650  14.924  0.0982 -0.3400  2.1378
  265MPD2    N1 4071   3.648   0.317  15.197  0.4154  0.1121 -0.1936
  265MPD2    H7 4072   3.680   0.397  15.143  0.9601 -0.1381 -0.2364
  266TMC3    C1 4073   3.570   0.491  15.332 -0.5835  0.1753 -0.3865
  266TMC3    C2 4074   3.601   0.541  15.455 -0.6910  0.3442  0.6185
  266TMC3    C3 4075   3.590   0.677  15.487 -0.1129  0.0703  0.1742
  266TMC3    C4 4076   3.520   0.578  15.233 -0.0634 -0.0697  0.4920
  266TMC3    C5 4077   3.499   0.707  15.277  0.1900  0.0563  0.2211
  266TMC3    C6 4078   3.534   0.759  15.400  0.0126  0.1300 -0.2046
  266TMC3     C 4079   3.578   0.349  15.313  0.2347 -0.0942  0.7557
  266TMC3     O 4080   3.539   0.284  15.411  0.0530  0.0329  0.0012
  266TMC3     H 4081   3.636   0.470  15.528  1.2312  1.6067  0.9318
  266TMC3    H1 4082   3.484   0.532  15.141  1.2878  0.8792 -0.5060
  266TMC3    H2 4083   3.508   0.863  15.415  0.9561 -0.0603  2.7673
  266TMC3    C7 4084   3.469   0.803  15.177 -0.0738  0.6024 -0.3323
  266TMC3    C8 4085   3.683   0.731  15.585 -0.1465 -0.1497 -0.0412
  266TMC3    O1 4086   3.409   0.906  15.197 -0.6142 -0.2223 -0.3017
  266TMC3    O2 4087   3.750   0.650  15.645  0.6216  0.6639  0.1229
  267MPD2     C 4088   1.981   3.400  17.583 -0.1278  0.7642  0.2927
  267MPD2    C1 4089   1.936   3.268  17.592  0.4446 -0.0275 -0.2890
  267MPD2    C2 4090   1.803   3.240  17.550 -0.6331  0.3418  0.0110
  267MPD2    C3 4091   1.729   3.344  17.494  0.6892 -0.0209  0.2189
  267MPD2    C4 4092   1.779   3.473  17.490 -0.3818  1.0713  0.0413
  267MPD2    C5 4093   1.902   3.503  17.539  0.4621 -0.8877  0.2227
  267MPD2     H 4094   1.763   3.139  17.548  0.4698 -0.1283  1.9205
  267MPD2    H1 4095   1.709   3.553  17.470 -1.9171 -0.5055 -0.9184
  267MPD2    H2 4096   2.079   3.430  17.619  0.1699 -0.1893  0.2580
  267MPD2    H3 4097   1.933   3.607  17.533  3.0599 -1.7890 -1.8046
  267MPD2     N 4098   1.595   3.326  17.451  0.2855  0.6083 -0.4285
  267MPD2    H5 4099   1.545   3.404  17.409  2.2523  1.3804 -1.3390
  267MPD2    N1 4100   2.030   3.166  17.637 -0.7311 -0.0684 -0.1856
  267MPD2    H7 4101   2.125   3.194  17.662 -0.7396  0.0224 -0.2552
  268TMC3    C1 4102   2.103   2.945  17.680  0.3050  0.3222  0.2575
  268TMC3    C2 4103   2.131   2.837  17.604  0.2702 -0.1534 -0.1072
  268TMC3    C3 4104   2.173   2.725  17.666  0.2418  0.6529 -0.0410
  268TMC3    C4 4105   2.121   2.950   0.081 -0.3370  0.5499 -0.7321
  268TMC3    C5 4106   2.160   2.830   0.134 -0.4500 -0.5741  0.6538
  268TMC3    C6 4107   2.183   2.718   0.068  0.2805  0.0759 -0.4267
  268TMC3     C 4108   2.000   3.034  17.628  0.0082 -0.3909  0.1589
  268TMC3     O 4109   1.916   2.974  17.564  0.2856  0.3970  0.7990
  268TMC3     H 4110   2.115   2.841  17.497 -0.5488 -1.8905 -0.0551
  268TMC3    H1 4111   2.077   3.023   0.148 -0.1718  0.4209 -0.4843
  268TMC3    H2 4112   2.238   2.639   0.117  0.4909  1.6051  1.7961
  268TMC3    C7 4113   2.176   2.817   0.276  0.2292  0.6327  0.3561
  268TMC3    C8 4114   2.182   2.597  17.596  0.1025 -0.3435 -0.1531
  268TMC3    O1 4115   2.164   2.704   0.322 -0.2021 -0.5418 -0.2403
  268TMC3    O2 4116   2.217   2.506  17.668 -0.2480 -0.6414  0.5736
  269MPD2     C 4117   2.007   0.879  15.133 -0.2711 -0.1525 -0.3246
  269MPD2    C1 4118   1.873   0.896  15.146  0.5345 -0.1074  0.2864
  269MPD2    C2 4119   1.826   1.026  15.161 -0.4341  0.9714  0.0377
  269MPD2    C3 4120   1.908   1.140  15.159  0.4604  0.1293 -0.1943
  269MPD2    C4 4121   2.042   1.122  15.139  0.7678  0.8017 -0.0285
  269MPD2    C5 4122   2.092   0.990  15.131 -0.6422 -0.2712  0.4630
  269MPD2     H 4123   1.720   1.044  15.174 -0.2373  0.1688  2.6224
  269MPD2    H1 4124   2.120   1.198  15.141 -0.0146  1.6161 -0.2232
  269MPD2    H2 4125   2.052   0.782  15.115 -1.0187 -0.6470  0.4504
  269MPD2    H3 4126   2.199   0.975  15.122 -0.5271  0.6329  0.3350
  269MPD2     N 4127   1.850   1.266  15.190 -0.7237 -0.4066  0.2442
  269MPD2    H5 4128   1.749   1.276  15.203 -1.1483 -4.1333 -0.1655
  269MPD2    N1 4129   1.786   0.778  15.137 -0.0004  0.1516 -0.0837
  269MPD2    H7 4130   1.830   0.686  15.141  0.1442  0.2683  1.0908
  270TMC3    C1 4131   1.591   0.653  15.134 -0.4602 -0.0887 -0.2742
  270TMC3    C2 4132   1.473   0.624  15.060  0.4938  0.2287  0.1940
  270TMC3    C3 4133   1.444   0.488  15.049  0.0236  0.2435 -0.4796
  270TMC3    C4 4134   1.657   0.576  15.222 -0.4352  0.0661 -0.3205
  270TMC3    C5 4135   1.632   0.446  15.200  0.4689  0.3650  0.2506
  270TMC3    C6 4136   1.532   0.403  15.116  0.0166 -0.9077 -0.0088
  270TMC3     C 4137   1.649   0.785  15.126  0.1901 -0.3672  0.0971
  270TMC3     O 4138   1.579   0.880  15.098  0.6380 -0.1593  0.0146
  270TMC3     H 4139   1.421   0.693  14.995 -1.0237 -1.4129 -0.3200
  270TMC3    H1 4140   1.745   0.604  15.280 -2.0395  1.2211  1.5351
  270TMC3    H2 4141   1.523   0.295  15.114  1.8570 -1.0551 -0.3004
  270TMC3    C7 4142   1.752   0.367  15.178 -0.2281 -0.2455  0.1542
  270TMC3    C8 4143   1.407   0.446  14.913  0.4344 -0.4812 -0.4838
  270TMC3    O1 4144   1.843   0.378  15.260 -0.0181  0.7390 -0.0547
  270TMC3    O2 4145   1.370   0.533  14.836  0.0111 -0.4778 -0.1530
  271MPD2     C 4146   0.949   0.358  13.290  0.5686 -0.1089 -0.2515
  271MPD2    C1 4147   0.916   0.353  13.429 -0.7684  0.5871  0.2555
  271MPD2    C2 4148   0.792   0.387  13.472  0.3915  0.5157  0.5261
  271MPD2    C3 4149   0.695   0.435  13.385  0.4458 -0.9554 -0.2235
  271MPD2    C4 4150   0.727   0.444  13.248 -0.2083  0.0049 -0.2387
  271MPD2    C5 4151   0.857   0.408  13.203 -0.3651  0.3105 -0.0609
  271MPD2     H 4152   0.765   0.375  13.577 -0.1689 -1.4090  0.1741
  271MPD2    H1 4153   0.661   0.483  13.171 -2.3453 -2.5801  0.2902
  271MPD2    H2 4154   1.048   0.333  13.254  0.3242  0.0727 -1.0374
  271MPD2    H3 4155   0.876   0.413  13.097  1.2968 -1.2885  0.1656
  271MPD2     N 4156   0.563   0.483  13.422 -0.2817 -0.1789  0.8202
  271MPD2    H5 4157   0.507   0.532  13.353 -0.3214 -1.7671 -0.2873
  271MPD2    N1 4158   1.013   0.311  13.528  0.0389  0.0650 -0.0641
  271MPD2    H7 4159   0.978   0.291  13.621  1.8698 -3.0442 -0.0422
  272TMC3    C1 4160   1.218   0.277  13.636  0.4768 -0.8268 -0.3256
  272TMC3    C2 4161   1.355   0.257  13.630  0.2191  0.0016  0.1212
  272TMC3    C3 4162   1.422   0.273  13.750  0.3895 -0.1805  0.3384
  272TMC3    C4 4163   1.154   0.317  13.750  0.5173 -0.6999 -0.7940
  272TMC3    C5 4164   1.232   0.344  13.853 -0.1663 -0.2076  0.6747
  272TMC3    C6 4165   1.364   0.318  13.863  0.2372 -0.0043  0.0206
  272TMC3     C 4166   1.150   0.285  13.509  0.1970 -0.3507 -0.3952
  272TMC3     O 4167   1.217   0.295  13.411 -0.2660 -0.5416 -0.0558
  272TMC3     H 4168   1.401   0.223  13.537 -0.2296 -0.3674  0.0349
  272TMC3    H1 4169   1.048   0.338  13.760  0.8135  1.1065 -1.4964
  272TMC3    H2 4170   1.433   0.331  13.946 -1.4498 -0.8893  1.5579
  272TMC3    C7 4171   1.160   0.354  13.977 -0.1382  0.0928  0.6604
  272TMC3    C8 4172   1.548   0.206  13.750 -0.6432 -0.0503  0.0710
  272TMC3    O1 4173   1.050   0.296  13.989  0.5678  0.3478 -0.0366
  272TMC3    O2 4174   1.611   0.204  13.640 -0.0816  0.3245 -0.0833
  273MPD2     C 4175   2.398   2.471  11.279 -0.2498 -0.0707 -0.3687
  273MPD2    C1 4176   2.497   2.559  11.300 -0.6878  0.1057  0.1642
  273MPD2    C2 4177   2.490   2.677  11.231  0.2791  0.9761 -0.0480
  273MPD2    C3 4178   2.389   2.692  11.134  0.4407  0.3140  0.3169
  273MPD2    C4 4179   2.296   2.591  11.113  0.8412  0.0745  0.1477
  273MPD2    C5 4180   2.291   2.483  11.192  0.0871 -0.3551 -0.0854
  273MPD2     H 4181   2.559   2.756  11.259  2.6773 -0.8084 -0.9053
  273MPD2    H1 4182   2.226   2.603  11.032  0.3948  1.3740  0.7292
  273MPD2    H2 4183   2.405   2.379  11.336 -1.0302  0.5708  0.7607
  273MPD2    H3 4184   2.216   2.406  11.180  1.6213 -2.0436  1.0058
  273MPD2     N 4185   2.387   2.816  11.060 -0.0697  0.7192 -1.1472
  273MPD2    H5 4186   2.461   2.878  11.094  0.6235 -0.2663 -0.8744
  273MPD2    N1 4187   2.585   2.525  11.403  0.3970  0.3901 -0.1820
  273MPD2    H7 4188   2.561   2.446  11.462  1.0092  0.3238 -0.0158
  274TMC3    C1 4189   2.286   3.001  10.949 -0.3924 -0.3835  0.3344
  274TMC3    C2 4190   2.190   3.055  10.863 -0.0129 -0.5873  0.0975
  274TMC3    C3 4191   2.173   3.189  10.859  0.4999 -0.3532 -0.1298
  274TMC3    C4 4192   2.362   3.087  11.031 -0.3933  0.2312  0.3121
  274TMC3    C5 4193   2.340   3.223  11.024 -0.7108  0.0795 -0.4350
  274TMC3    C6 4194   2.238   3.278  10.941 -0.7918  0.4568  0.0684
  274TMC3     C 4195   2.289   2.861  10.978 -0.6854  0.3378  0.0942
  274TMC3     O 4196   2.183   2.807  10.946 -0.5977  0.2258 -0.6586
  274TMC3     H 4197   2.135   2.981  10.805  1.5518 -0.0410 -2.0518
  274TMC3    H1 4198   2.441   3.053  11.097  0.3353  2.3185  0.5199
  274TMC3    H2 4199   2.245   3.384  10.923  0.8705 -0.0308 -2.1293
  274TMC3    C7 4200   2.406   3.326  11.108  1.1078 -0.2260  0.0196
  274TMC3    C8 4201   2.073   3.253  10.777  0.4217  0.7750 -0.3489
  274TMC3    O1 4202   2.330   3.423  11.123 -0.2497 -0.6614 -0.3545
  274TMC3    O2 4203   2.083   3.377  10.773  0.1896 -0.0001 -0.4174
  275MPD2     C 4204   2.591   1.493  14.127 -0.4564 -0.2149 -0.5848
  275MPD2    C1 4205   2.480   1.573  14.154  0.0297 -0.1552 -0.4820
  275MPD2    C2 4206   2.349   1.541  14.121  0.7821 -0.9120  0.2356
  275MPD2    C3 4207   2.329   1.415  14.069 -0.0262  0.0070 -0.2603
  275MPD2    C4 4208   2.434   1.328  14.043 -0.0318 -0.2002  0.1935
  275MPD2    C5 4209   2.564   1.375  14.063 -0.2051 -0.1225  0.3305
  275MPD2     H 4210   2.265   1.608  14.131  1.0016 -0.6535  0.3378
  275MPD2    H1 4211   2.416   1.225  14.016 -1.8353 -0.0013  0.6382
  275MPD2    H2 4212   2.692   1.532  14.135 -0.1681 -0.7176 -1.7700
  275MPD2    H3 4213   2.646   1.316  14.024 -2.2479 -1.0996 -2.4910
  275MPD2     N 4214   2.200   1.376  14.019 -0.5904  0.2544 -0.1994
  275MPD2    H5 4215   2.186   1.287  13.972  1.9522 -0.2801  0.0408
  275MPD2    N1 4216   2.501   1.701  14.222  0.1797 -0.3058 -0.7425
  275MPD2    H7 4217   2.422   1.764  14.226 -1.8493 -2.7505 -2.8203
  276TMC3    C1 4218   2.588   1.880  14.355 -0.5756 -0.2599 -0.2167
  276TMC3    C2 4219   2.471   1.882  14.428 -0.4331 -0.2251  0.2105
  276TMC3    C3 4220   2.468   1.938  14.555 -0.5960 -0.6491  0.6513
  276TMC3    C4 4221   2.708   1.940  14.405 -0.1971 -0.8364  0.0001
  276TMC3    C5 4222   2.703   1.999  14.531  0.6818 -0.5361  0.5017
  276TMC3    C6 4223   2.588   1.999  14.603  0.1545 -0.5738 -0.1390
  276TMC3     C 4224   2.616   1.757  14.280  0.3384 -0.7830  0.1213
  276TMC3     O 4225   2.731   1.717  14.281  0.3703 -0.2248 -0.3133
  276TMC3     H 4226   2.386   1.819  14.405 -1.7590  2.0607 -1.1570
  276TMC3    H1 4227   2.798   1.931  14.344 -0.4265  0.4504 -0.5312
  276TMC3    H2 4228   2.584   2.041  14.703 -1.0946 -1.2915  0.1084
  276TMC3    C7 4229   2.819   2.005  14.615 -0.6838 -0.5768  0.2448
  276TMC3    C8 4230   2.403   1.871  14.665 -0.0329  0.1759 -0.8127
  276TMC3    O1 4231   2.813   2.056  14.724 -0.0596 -0.7919 -0.2724
  276TMC3    O2 4232   2.346   1.937  14.750 -0.2170 -1.1174  0.7562
  277MPD2     C 4233   4.398   0.370  13.537 -0.5369 -0.4921  0.0414
  277MPD2    C1 4234   4.281   0.348  13.463  0.4020  0.5451 -0.8107
  277MPD2    C2 4235   4.195   0.249  13.495 -0.4239 -0.1582 -0.6134
  277MPD2    C3 4236   4.216   0.163  13.598 -0.7561 -0.1706  0.6609
  277MPD2    C4 4237   4.323   0.197  13.680 -0.1502 -0.4616 -0.4420
  277MPD2    C5 4238   4.416   0.292  13.646  0.2581 -0.0213 -0.1614
  277MPD2     H 4239   4.103   0.236  13.439 -1.6222 -2.0457  1.7839
  277MPD2    H1 4240   4.339   0.147  13.774  2.1578  0.0612 -0.5623
  277MPD2    H2 4241   4.479   0.436  13.509 -0.4310 -0.6375  0.0113
  277MPD2    H3 4242   4.510   0.291  13.698  0.6481  0.2453 -0.8587
  277MPD2     N 4243   4.122   0.059  13.621  0.8356  0.0835 -0.6258
  277MPD2    H5 4244   4.040   0.053  13.562  0.8250  0.2758 -0.6290
  277MPD2    N1 4245   4.240   0.432  13.355  0.5576  0.1645 -0.5521
  277MPD2    H7 4246   4.152   0.409  13.310  0.0063  1.3948 -0.1180
  278TMC3    C1 4247   4.069   4.570  13.672 -0.4218  0.0888 -0.0460
  278TMC3    C2 4248   4.116   4.443  13.665 -0.6622 -0.7797  0.3846
  278TMC3    C3 4249   4.027   4.347  13.624  0.1284  0.0080  0.1987
  278TMC3    C4 4250   3.936   4.600  13.662 -0.2339  0.0544  0.1325
  278TMC3    C5 4251   3.849   4.498  13.640 -0.3207  0.2544 -0.6671
  278TMC3    C6 4252   3.892   4.372  13.615 -0.6571 -0.1925  0.6745
  278TMC3     C 4253   4.165   4.676  13.687 -0.6339  0.4547  0.0573
  278TMC3     O 4254   4.264   4.659  13.754  0.1793 -0.0695  0.0676
  278TMC3     H 4255   4.224   4.433  13.666 -0.7365 -1.6666 -0.4440
  278TMC3    H1 4256   3.909   4.704  13.677  2.3592  0.8614 -0.9392
  278TMC3    H2 4257   3.830   4.288  13.587  0.7750 -1.2223  0.5826
  278TMC3    C7 4258   3.708   4.533  13.673  0.5346  0.7945 -0.0617
  278TMC3    C8 4259   4.078   4.235  13.547 -0.2298  0.6625  0.1913
  278TMC3    O1 4260   3.677   4.653  13.681  0.1622  0.4819 -0.0595
  278TMC3    O2 4261   4.183   4.186  13.585 -0.2191  0.2920  0.1868
  279MPD2     C 4262   3.302   0.380   0.080  0.5875 -0.2391 -0.7825
  279MPD2    C1 4263   3.252   0.500   0.037  0.3993 -0.0433 -0.8968
  279MPD2    C2 4264   3.255   0.535  17.641  0.1418  0.2240  0.7450
  279MPD2    C3 4265   3.277   0.444  17.540 -0.2880 -0.0470 -0.1262
  279MPD2    C4 4266   3.320   0.317  17.580 -0.2138 -0.4825  0.4987
  279MPD2    C5 4267   3.335   0.297  17.716  0.4602 -0.7180  0.3349
  279MPD2     H 4268   3.221   0.632  17.608 -1.9605 -0.9411 -0.5750
  279MPD2    H1 4269   3.345   0.240  17.509  0.7470  1.1605 -0.9414
  279MPD2    H2 4270   3.329   0.351   0.181 -3.7813 -2.5400 -0.2844
  279MPD2    H3 4271   3.381   0.201  17.733  0.6619 -0.7561 -0.4011
  279MPD2     N 4272   3.263   0.475  17.404 -0.5151  0.5073 -0.3362
  279MPD2    H5 4273   3.292   0.400  17.342 -0.9649 -0.9061  1.1635
  279MPD2    N1 4274   3.198   0.586   0.137  0.6482  0.1016  0.3826
  279MPD2    H7 4275   3.246   0.576   0.226  0.3776  1.6478  0.7145
  280TMC3    C1 4276   3.028   0.709   0.003  0.2702  0.6989 -0.3513
  280TMC3    C2 4277   2.970   0.590  17.696  0.3446  0.5549 -0.1869
  280TMC3    C3 4278   2.910   0.607  17.577  0.3885  0.2469  0.3610
  280TMC3    C4 4279   3.019   0.836  17.682 -0.3797  0.2001  0.3014
  280TMC3    C5 4280   2.941   0.840  17.569  0.4779 -0.4182 -0.6166
  280TMC3    C6 4281   2.891   0.727  17.509  0.4970  0.1217 -0.0044
  280TMC3     C 4282   3.127   0.708   0.116  0.3780  0.0430  0.0374
  280TMC3     O 4283   3.122   0.805   0.190 -0.1088  0.2640 -0.4533
  280TMC3     H 4284   2.977   0.497   0.013 -0.5299  0.7910  0.3205
  280TMC3    H1 4285   3.070   0.925  17.717  2.4491 -0.8910 -1.0563
  280TMC3    H2 4286   2.835   0.717  17.417 -1.7573 -0.4484  1.4218
  280TMC3    C7 4287   2.914   0.974  17.518  0.3727 -0.2522 -0.1856
  280TMC3    C8 4288   2.915   0.493  17.492 -0.3638  0.6012 -0.3413
  280TMC3    O1 4289   2.967   1.071  17.574 -0.0036 -0.1985 -0.0629
  280TMC3    O2 4290   2.913   0.511  17.372 -0.3570 -0.9125 -0.5886
  281TMC3    C1 4291   2.747   0.420  12.926 -0.0017  0.6939  0.2386
  281TMC3    C2 4292   2.656   0.492  12.999  0.2935  0.7552 -0.9628
  281TMC3    C3 4293   2.521   0.458  12.989  0.3797  0.3336 -0.5072
  281TMC3    C4 4294   2.707   0.326  12.836 -0.2419 -0.5582  0.3362
  281TMC3    C5 4295   2.571   0.302  12.829  0.6818  0.2912  0.9308
  281TMC3    C6 4296   2.475   0.367  12.897 -0.1442 -0.0213  0.5281
  281TMC3     C 4297   2.885   0.460  12.932  0.0197  0.0060 -0.2787
  281TMC3     O 4298   2.967   0.384  12.892  0.5663  0.3192 -0.1108
  281TMC3     H 4299   2.682   0.562  13.077  1.5801  0.8721 -1.4983
  281TMC3    H1 4300   2.776   0.266  12.779  2.0470  1.3458  1.1150
  281TMC3    H2 4301   2.373   0.334  12.884  0.4164 -0.6075 -2.4553
  281TMC3    C7 4302   2.544   0.183  12.751  0.1836  0.6360  0.3513
  281TMC3    C8 4303   2.422   0.534  13.066 -0.3464  0.0845 -0.3757
  281TMC3    O1 4304   2.626   0.145  12.662 -0.2319  0.3235  0.2123
  281TMC3    O2 4305   2.456   0.641  13.114 -0.3802  0.0800 -0.0284
  282MPD2     C 4306   4.180   1.863  14.794 -0.2857 -0.9658 -0.6464
  282MPD2    C1 4307   4.084   1.963  14.793 -0.6643  0.0893 -0.1044
  282MPD2    C2 4308   4.043   2.017  14.672  0.0702  0.1190 -0.2866
  282MPD2    C3 4309   4.098   1.986  14.549  0.0787 -0.2601  0.2487
  282MPD2    C4 4310   4.206   1.905  14.551  0.6614  0.1492  0.6492
  282MPD2    C5 4311   4.237   1.842  14.672 -0.3689  0.0098 -0.3223
  282MPD2     H 4312   3.957   2.083  14.681  0.2435  0.5531 -1.8021
  282MPD2    H1 4313   4.260   1.882  14.460 -2.2126  0.8474 -1.2472
  282MPD2    H2 4314   4.224   1.823  14.885 -0.7774  0.5909  0.2867
  282MPD2    H3 4315   4.314   1.766  14.681 -0.2120  0.2093  0.0238
  282MPD2     N 4316   4.049   2.053  14.434 -0.9718  0.0542  0.3097
  282MPD2    H5 4317   3.972   2.116  14.451 -2.1043 -0.6011 -2.3885
  282MPD2    N1 4318   4.035   2.019  14.915  0.2307  0.1298  0.1244
  282MPD2    H7 4319   4.060   1.966  14.998 -0.6203 -0.3217  0.0959
  283TMC3    C1 4320   3.923   2.176  15.056 -0.0275 -0.1700 -0.5219
  283TMC3    C2 4321   3.910   2.313  15.080 -0.9118 -0.0090  0.4595
  283TMC3    C3 4322   3.873   2.345  15.211 -0.2915  0.2874 -0.2508
  283TMC3    C4 4323   3.887   2.079  15.144  0.8395  0.5750 -0.0709
  283TMC3    C5 4324   3.841   2.115  15.262  1.2795  0.0658  0.5263
  283TMC3    C6 4325   3.835   2.247  15.298 -0.2055  0.9124 -0.5814
  283TMC3     C 4326   3.969   2.135  14.926  0.5570  0.2183  0.1931
  283TMC3     O 4327   3.956   2.225  14.846 -0.2367 -0.4469 -0.2988
  283TMC3     H 4328   3.944   2.384  15.006 -0.7116  2.3543  2.8084
  283TMC3    H1 4329   3.880   1.975  15.112  2.7090  0.0916  1.0572
  283TMC3    H2 4330   3.805   2.266  15.401  0.5101  0.3281 -0.2683
  283TMC3    C7 4331   3.757   2.026  15.334  0.6442 -0.1028  0.1613
  283TMC3    C8 4332   3.877   2.483  15.254 -0.3357 -0.1493  0.2340
  283TMC3    O1 4333   3.730   2.058  15.446  0.8172  0.1026 -0.5682
  283TMC3    O2 4334   3.878   2.499  15.377 -0.4450 -0.8796  0.2531
  284MPD2     C 4335   2.188   1.787  11.354 -0.4181  0.0239  0.0697
  284MPD2    C1 4336   2.250   1.667  11.325 -0.1816 -0.0912  0.1273
  284MPD2    C2 4337   2.232   1.561  11.407  0.5616 -0.2227 -0.1584
  284MPD2    C3 4338   2.163   1.577  11.525 -0.1492 -0.1965 -0.1154
  284MPD2    C4 4339   2.117   1.705  11.560 -0.2767  0.0219 -0.2990
  284MPD2    C5 4340   2.128   1.806  11.472 -0.3410  0.3814 -0.0693
  284MPD2     H 4341   2.277   1.465  11.381 -1.4997 -0.7772 -1.6921
  284MPD2    H1 4342   2.050   1.722  11.644 -1.3649  0.6008 -1.2740
  284MPD2    H2 4343   2.187   1.868  11.282 -4.5929 -1.1280 -1.1850
  284MPD2    H3 4344   2.084   1.904  11.489 -1.3160 -0.2054  0.7282
  284MPD2     N 4345   2.146   1.475  11.620 -0.2403 -0.0887  0.4382
  284MPD2    H5 4346   2.127   1.517  11.711  2.2837  0.7594  0.5778
  284MPD2    N1 4347   2.313   1.649  11.197  0.3754 -0.4577  0.0513
  284MPD2    H7 4348   2.357   1.559  11.178  1.0098 -0.2008  0.3091
  285TMC3    C1 4349   2.422   1.699  10.998 -0.0883  0.3884 -0.4786
  285TMC3    C2 4350   2.450   1.568  11.009 -0.8274 -0.0466 -0.4423
  285TMC3    C3 4351   2.582   1.535  10.974 -0.1449  0.0567  0.1233
  285TMC3    C4 4352   2.514   1.797  10.959 -0.2148  1.3676  0.3140
  285TMC3    C5 4353   2.643   1.756  10.937  0.2078 -0.3773 -0.5856
  285TMC3    C6 4354   2.685   1.624  10.948  0.3132  0.1184  0.3367
  285TMC3     C 4355   2.330   1.746  11.102  0.0891  0.1271  0.4546
  285TMC3     O 4356   2.308   1.866  11.097  0.0762  0.7423  0.0964
  285TMC3     H 4357   2.380   1.485  11.009 -0.6541 -0.1865 -1.0122
  285TMC3    H1 4358   2.489   1.902  10.951  2.0051  1.7656 -1.4259
  285TMC3    H2 4359   2.781   1.586  10.917  0.7977  1.1138  0.6085
  285TMC3    C7 4360   2.736   1.866  10.923  0.2147 -0.3206 -0.3435
  285TMC3    C8 4361   2.605   1.392  10.942  0.3320 -0.4353 -0.1450
  285TMC3    O1 4362   2.844   1.833  10.968 -0.3608  0.3817  0.0847
  285TMC3    O2 4363   2.502   1.335  10.913  0.7662 -0.6091  0.2026
  286MPD2     C 4364   2.718   0.860   0.786  0.1261  0.3185 -0.1853
  286MPD2    C1 4365   2.634   0.800   0.700  0.2682  0.5829 -0.5030
  286MPD2    C2 4366   2.651   0.665   0.688  0.0727 -0.5148  0.7943
  286MPD2    C3 4367   2.741   0.592   0.771 -0.0964 -0.3341 -0.2527
  286MPD2    C4 4368   2.825   0.655   0.858  0.2530 -0.3553 -0.7811
  286MPD2    C5 4369   2.812   0.793   0.858  0.5239  0.4284 -0.0826
  286MPD2     H 4370   2.579   0.615   0.624  1.1145 -0.6884 -0.2509
  286MPD2    H1 4371   2.904   0.606   0.913 -1.3924 -0.5232  1.4016
  286MPD2    H2 4372   2.700   0.965   0.808  4.4365  0.6034  1.9704
  286MPD2    H3 4373   2.869   0.851   0.930 -0.8313  3.1652 -1.1899
  286MPD2     N 4374   2.757   0.451   0.767  0.4946 -0.5670 -0.2892
  286MPD2    H5 4375   2.829   0.405   0.823 -0.0143 -1.3671 -0.3010
  286MPD2    N1 4376   2.525   0.867   0.633 -0.5456  0.0946  0.9906
  286MPD2    H7 4377   2.440   0.817   0.611  0.5264 -1.2732 -0.0727
  287TMC3    C1 4378   2.767   0.244   0.670  0.4192 -0.1930  0.1376
  287TMC3    C2 4379   2.684   0.136   0.646 -0.1976 -0.0298 -0.4819
  287TMC3    C3 4380   2.750   0.019   0.653 -0.0087 -0.0605 -0.4131
  287TMC3    C4 4381   2.902   0.235   0.712  0.0340 -0.5855 -0.6469
  287TMC3    C5 4382   2.963   0.113   0.708 -0.1610 -0.4868  0.4232
  287TMC3    C6 4383   2.891   0.001   0.680 -0.2279 -0.0490  0.1757
  287TMC3     C 4384   2.691   0.376   0.680 -0.0638 -0.1487 -0.0374
  287TMC3     O 4385   2.610   0.400   0.592 -0.7504  0.2104 -0.2404
  287TMC3     H 4386   2.581   0.152   0.619 -0.0692 -0.1979 -1.0742
  287TMC3    H1 4387   2.957   0.328   0.717  0.6507 -0.9845 -0.0263
  287TMC3    H2 4388   2.923   4.632   0.682 -1.3338 -0.3674  2.0337
  287TMC3    C7 4389   3.098   0.092   0.744  0.2628  0.1635  0.1534
  287TMC3    C8 4390   2.693   4.637   0.581  0.4670  1.0545  0.3870
  287TMC3    O1 4391   3.138   4.710   0.745 -0.4085 -0.0204 -0.3933
  287TMC3    O2 4392   2.742   4.526   0.599  0.2344  0.4485 -0.0359
  288TMC3    C1 4393   4.552   4.464  14.270 -0.2884 -0.8335  0.1317
  288TMC3    C2 4394   4.423   4.501  14.281 -0.3247 -0.5798  0.1922
  288TMC3    C3 4395   4.370   4.586  14.185 -0.6574 -0.0958  0.1429
  288TMC3    C4 4396   4.632   4.513  14.184 -0.1639 -0.3128  0.5415
  288TMC3    C5 4397   4.581   4.597  14.090 -0.4540  0.2589  0.2222
  288TMC3    C6 4398   4.453   4.641  14.093 -0.2789 -0.2392 -0.4281
  288TMC3     C 4399   4.603   4.422  14.399 -0.3208  0.2414  0.2178
  288TMC3     O 4400   4.542   4.346  14.471 -0.2834  0.1854  0.0582
  288TMC3     H 4401   4.363   4.467  14.364  1.5867 -0.1661  1.7216
  288TMC3    H1 4402   4.733   4.476  14.173 -0.0203  0.0728  0.5510
  288TMC3    H2 4403   4.414   4.713  14.022  1.1405  1.1338  0.1817
  288TMC3    C7 4404   4.660   4.614  13.966 -0.0350  0.3444  0.1222
  288TMC3    C8 4405   4.242   4.649  14.197  0.1113  0.5608  0.2184
  288TMC3    O1 4406   0.044   4.604  13.981 -0.2970  0.2609  0.4324
  288TMC3    O2 4407   4.222   0.020  14.144  0.1047 -0.0451  0.7408
  289MPD2     C 4408   4.439   3.625  13.986 -0.4433 -0.8586  0.1162
  289MPD2    C1 4409   4.399   3.693  14.099  0.3292 -0.5127 -0.5833
  289MPD2    C2 4410   4.265   3.685  14.138  0.1570 -0.2169 -0.2809
  289MPD2    C3 4411   4.176   3.615  14.063 -1.0064  0.2312  0.7108
  289MPD2    C4 4412   4.225   3.551  13.952  0.1666  0.0117 -0.1080
  289MPD2    C5 4413   4.355   3.546  13.916  0.8519  0.6342  0.5000
  289MPD2     H 4414   4.224   3.736  14.224 -0.7310  0.8626 -1.3650
  289MPD2    H1 4415   4.158   3.494  13.888  0.8576  0.7119 -1.4483
  289MPD2    H2 4416   4.541   3.635  13.949 -0.8212  0.6947 -0.4756
  289MPD2    H3 4417   4.377   3.497  13.821 -2.4944  1.4330 -0.7099
  289MPD2     N 4418   4.036   3.617  14.077 -0.0231  0.1440  0.3744
  289MPD2    H5 4419   3.980   3.559  14.015 -0.5019  2.5249 -1.4227
  289MPD2    N1 4420   4.502   3.754  14.169  0.3858  0.3743  0.0596
  289MPD2    H7 4421   4.586   3.781  14.117 -0.1680  0.5005 -0.7772
  290TMC3    C1 4422   3.836   3.690  14.165  0.5095 -0.1244 -0.4186
  290TMC3    C2 4423   3.776   3.811  14.180 -0.0205 -0.2573 -0.6513
  290TMC3    C3 4424   3.676   3.850  14.099 -0.1472 -0.4654  0.3650
  290TMC3    C4 4425   3.763   3.594  14.097  0.0239  0.3046  0.0591
  290TMC3    C5 4426   3.646   3.630  14.032  0.0660 -0.2023  1.2184
  290TMC3    C6 4427   3.608   3.761  14.024 -0.8321 -0.6089 -0.0006
  290TMC3     C 4428   3.978   3.700  14.173 -0.6841  0.3592 -0.2575
  290TMC3     O 4429   4.024   3.796  14.231  0.4963  0.4614 -0.7057
  290TMC3     H 4430   3.823   3.894  14.230 -0.3776 -0.4081 -0.0625
  290TMC3    H1 4431   3.806   3.499  14.066  0.4756  1.2925 -2.3574
  290TMC3    H2 4432   3.529   3.806  13.965  0.6953  0.3896 -1.2988
  290TMC3    C7 4433   3.545   3.542  13.986 -0.6675 -0.3275  0.2755
  290TMC3    C8 4434   3.717   3.965  14.024  0.2822 -0.2576  0.0112
  290TMC3    O1 4435   3.437   3.593  13.957 -0.7296  0.0194 -0.2843
  290TMC3    O2 4436   3.776   3.952  13.919 -0.2662  0.1936  0.6515
  291MPD2     C 4437   3.282   4.032   0.032  0.0315 -0.2079 -0.8589
  291MPD2    C1 4438   3.395   3.965   0.081 -0.2032 -0.3659 -0.1972
  291MPD2    C2 4439   3.514   4.040   0.093 -0.0266 -0.7952 -0.1518
  291MPD2    C3 4440   3.514   4.178   0.066 -0.5723 -0.1137 -0.3802
  291MPD2    C4 4441   3.399   4.240   0.022 -0.0478  0.1823 -0.6498
  291MPD2    C5 4442   3.289   4.165   0.002  0.3607 -0.4193 -0.0643
  291MPD2     H 4443   3.604   3.986   0.121  0.0366 -0.7537 -0.2737
  291MPD2    H1 4444   3.400   4.347   0.003 -0.2132  0.2473 -0.2837
  291MPD2    H2 4445   3.201   3.975  17.727  0.3468 -0.6071 -0.9231
  291MPD2    H3 4446   3.203   4.206  17.690  0.8429  0.3033 -0.3060
  291MPD2     N 4447   3.637   4.252   0.057  0.6192  0.3253  0.4151
  291MPD2    H5 4448   3.632   4.345   0.018  2.1594  0.6153  0.8995
  291MPD2    N1 4449   3.400   3.826   0.102  0.0347  0.5779 -0.0941
  291MPD2    H7 4450   3.493   3.796   0.131  0.5158  0.6177 -1.5820
  292TMC3    C1 4451   3.338   3.595   0.103 -0.4815 -0.0548 -0.0499
  292TMC3    C2 4452   3.410   3.565   0.216  0.6930  0.4747  0.1495
  292TMC3    C3 4453   3.464   3.439   0.221 -0.4723 -0.7797 -0.4526
  292TMC3    C4 4454   3.281   3.497   0.024  0.1617  0.6297 -0.8829
  292TMC3    C5 4455   3.315   3.372   0.057  0.0511 -0.4588 -0.5049
  292TMC3    C6 4456   3.413   3.331   0.148  0.3241  0.2472 -0.6021
  292TMC3     C 4457   3.299   3.731   0.076 -0.8607 -0.4851  0.0973
  292TMC3     O 4458   3.203   3.749   0.001  0.1610  0.5275 -0.0812
  292TMC3     H 4459   3.453   3.643   0.279  0.1306 -0.6807  1.9576
  292TMC3    H1 4460   3.235   3.532  17.671 -2.1630  0.2617  0.1440
  292TMC3    H2 4461   3.458   3.234   0.159  1.1238  0.7772  0.7390
  292TMC3    C7 4462   3.278   3.263  17.707 -0.3472 -0.4071  0.3267
  292TMC3    C8 4463   3.600   3.416   0.275  0.4813  0.8733  0.0383
  292TMC3    O1 4464   3.359   3.174  17.695 -0.1850  0.1356  0.4092
  292TMC3    O2 4465   3.675   3.338   0.213 -0.1156  0.2431  0.3056
  293MPD2     C 4466   0.580   4.638  12.158  0.2774 -0.0884  0.2137
  293MPD2    C1 4467   0.483   4.703  12.224  0.1211  0.0941 -0.1295
  293MPD2    C2 4468   0.505   4.714  12.361  0.3771 -0.8113  0.3148
  293MPD2    C3 4469   0.619   4.680  12.419  0.5700  0.0956  0.5584
  293MPD2    C4 4470   0.713   4.606  12.343  1.3042 -0.4592  0.3553
  293MPD2    C5 4471   0.700   4.593  12.211 -0.1004 -0.4154 -0.2376
  293MPD2     H 4472   0.428   0.016  12.428 -0.1131  1.9199 -1.7739
  293MPD2    H1 4473   0.800   4.563  12.391  1.0288 -1.7301 -0.3140
  293MPD2    H2 4474   0.564   4.617  12.053 -0.0654 -2.6190  0.7716
  293MPD2    H3 4475   0.755   4.527  12.145  1.2430 -1.1749  1.6422
  293MPD2     N 4476   0.635   4.711  12.554 -0.4633  0.3020 -0.0195
  293MPD2    H5 4477   0.554   4.729  12.612 -2.1085 -1.4971 -1.7575
  293MPD2    N1 4478   0.363   0.013  12.159  0.7267  0.3067 -0.1718
  293MPD2    H7 4479   0.352   4.718  12.063 -1.7944 -1.4792  0.6607
  294TMC3    C1 4480   0.171   0.131  12.116 -0.1246  0.3650  0.5344
  294TMC3    C2 4481   0.125   0.034  12.038  0.5504 -0.5641 -0.3646
  294TMC3    C3 4482   0.070   0.060  11.919 -0.2377 -0.2337 -0.4180
  294TMC3    C4 4483   0.140   0.264  12.095 -0.8551  0.7170 -0.2740
  294TMC3    C5 4484   0.090   0.288  11.969 -0.1198 -0.0874 -0.0230
  294TMC3    C6 4485   0.067   0.190  11.873  0.0932  0.1517 -0.0320
  294TMC3     C 4486   0.270   0.101  12.215 -0.3971 -0.9422  0.1097
  294TMC3     O 4487   0.278   0.182  12.309  0.2718  0.7274  0.0727
  294TMC3     H 4488   0.130   4.666  12.072 -0.9415 -0.7792 -0.8249
  294TMC3    H1 4489   0.179   0.343  12.158  0.1467 -0.6593  0.8316
  294TMC3    H2 4490   0.010   0.213  11.783 -0.8498 -2.8415 -0.2369
  294TMC3    C7 4491   0.130   0.415  11.907 -0.0240 -0.0860  0.2748
  294TMC3    C8 4492   0.060   4.687  11.827 -0.2088  0.2445  0.5204
  294TMC3    O1 4493   0.182   0.502  11.977  0.4010  0.1067  0.2477
  294TMC3    O2 4494   0.086   4.718  11.711  0.2501 -0.4966  0.3115
  295MPD2     C 4495   2.038   4.363   0.716 -0.5014  0.2824 -0.2259
  295MPD2    C1 4496   1.978   4.262   0.647  0.1493  0.2665  0.2603
  295MPD2    C2 4497   2.030   4.131   0.653 -0.4520  0.4887  0.2270
  295MPD2    C3 4498   2.144   4.103   0.724 -0.0597  0.1905  0.3159
  295MPD2    C4 4499   2.197   4.202   0.806 -0.2912 -0.6707  0.2000
  295MPD2    C5 4500   2.139   4.329   0.814 -0.1565  0.1175  0.0845
  295MPD2     H 4501   1.983   4.052   0.597 -1.4969  0.2015  1.5093
  295MPD2    H1 4502   2.281   4.189   0.873  0.0300  2.9684  0.5096
  295MPD2    H2 4503   2.005   4.465   0.701 -0.7032  0.1599 -0.5932
  295MPD2    H3 4504   2.188   4.406   0.872 -1.4716 -2.3335  4.4513
  295MPD2     N 4505   2.187   3.967   0.734  0.1765  0.0363  1.2200
  295MPD2    H5 4506   2.259   3.953   0.805  1.4134 -1.4124 -0.3213
  295MPD2    N1 4507   1.860   4.276   0.562 -0.0563 -0.1369  0.0815
  295MPD2    H7 4508   1.821   4.189   0.529 -1.2488  0.4798 -0.1140
  296TMC3    C1 4509   2.198   3.730   0.735 -0.4517  0.0613 -0.6947
  296TMC3    C2 4510   2.199   3.718   0.873  0.0894  0.5004  0.0393
  296TMC3    C3 4511   2.187   3.590   0.924  1.0772 -0.0927  0.6012
  296TMC3    C4 4512   2.190   3.624   0.651 -0.7188 -0.1710 -0.3479
  296TMC3    C5 4513   2.188   3.500   0.717 -0.3654 -0.5930  0.8073
  296TMC3    C6 4514   2.181   3.482   0.850  0.1801 -0.2306  0.2004
  296TMC3     C 4515   2.150   3.853   0.674  0.5556 -0.4950 -0.0451
  296TMC3     O 4516   2.099   3.833   0.563  0.6472  0.3858 -0.1185
  296TMC3     H 4517   2.206   3.809   0.930 -1.1098 -0.7910  2.2470
  296TMC3    H1 4518   2.198   3.623   0.543 -0.2554  1.4481 -0.3233
  296TMC3    H2 4519   2.179   3.382   0.892  1.0161 -0.5263 -0.4629
  296TMC3    C7 4520   2.120   3.398   0.633  0.1713  0.5567  0.3259
  296TMC3    C8 4521   2.216   3.563   1.062 -0.1562  0.2446 -0.8576
  296TMC3    O1 4522   2.173   3.386   0.526  0.3739  0.1798 -0.5274
  296TMC3    O2 4523   2.240   3.453   1.102 -0.3224 -0.0414 -0.1545
  297MPD2     C 4524   2.597   0.903  15.682 -0.3082  1.1057 -0.5884
  297MPD2    C1 4525   2.655   0.981  15.586  0.0234 -0.0604 -0.7081
  297MPD2    C2 4526   2.795   1.012  15.596 -0.7361  0.2846 -0.1091
  297MPD2    C3 4527   2.862   0.971  15.707  0.7428 -0.1318 -0.3424
  297MPD2    C4 4528   2.801   0.906  15.809 -0.2966 -1.2941 -0.4547
  297MPD2    C5 4529   2.668   0.872  15.795 -0.7542  0.3752  0.5467
  297MPD2     H 4530   2.840   1.082  15.526 -0.6462  0.7955  0.4603
  297MPD2    H1 4531   2.854   0.854  15.888  0.1803  0.0403  0.1027
  297MPD2    H2 4532   2.491   0.885  15.687  0.1706 -1.2122  0.9300
  297MPD2    H3 4533   2.621   0.809  15.870 -0.3200 -1.4790 -0.7350
  297MPD2     N 4534   3.002   1.008  15.715 -0.0834 -0.4186 -0.5234
  297MPD2    H5 4535   3.024   1.064  15.633  1.1818  1.1969  0.8970
  297MPD2    N1 4536   2.587   1.044  15.480  0.4972 -0.5227  0.2584
  297MPD2    H7 4537   2.636   1.113  15.424 -0.2584  0.1424  0.4125
  298TMC3    C1 4538   2.423   1.147  15.369  0.9488 -0.8442 -0.4432
  298TMC3    C2 4539   2.518   1.198  15.284 -0.5381  0.2976 -0.2632
  298TMC3    C3 4540   2.479   1.307  15.211 -0.3196  0.1346 -0.1781
  298TMC3    C4 4541   2.307   1.205  15.394 -0.1260  0.1098  0.2460
  298TMC3    C5 4542   2.274   1.318  15.326 -0.6983 -0.0506  0.5289
  298TMC3    C6 4543   2.361   1.375  15.234  0.6399  0.0219  0.4555
  298TMC3     C 4544   2.459   1.037  15.454  0.8822  0.9402 -0.3226
  298TMC3     O 4545   2.366   0.972  15.511  0.2930  0.3416 -0.1900
  298TMC3     H 4546   2.604   1.136  15.262 -1.2447 -0.9412  0.4889
  298TMC3    H1 4547   2.246   1.168  15.475 -1.9149 -3.0850 -2.5171
  298TMC3    H2 4548   2.326   1.458  15.174 -0.4968 -2.3217 -2.1073
  298TMC3    C7 4549   2.178   1.400  15.398 -0.1143 -0.0399  0.2909
  298TMC3    C8 4550   2.596   1.375  15.154  0.0615  0.9269  0.7372
  298TMC3    O1 4551   2.100   1.347  15.476  0.4218 -0.1609  0.4195
  298TMC3    O2 4552   2.697   1.304  15.145  0.5639  0.6500  0.0723
  299MPD2     C 4553   3.582   0.774  10.214 -0.2040 -0.2125 -0.1810
  299MPD2    C1 4554   3.534   0.669  10.286  1.0349 -0.0045  0.4667
  299MPD2    C2 4555   3.447   0.580  10.231  0.2229 -0.6419  0.4121
  299MPD2    C3 4556   3.424   0.582  10.094 -0.2179  0.1404 -0.3064
  299MPD2    C4 4557   3.475   0.681  10.017 -0.8833 -0.4146 -0.6105
  299MPD2    C5 4558   3.551   0.777  10.081 -0.8420  0.4540  0.9841
  299MPD2     H 4559   3.400   0.499  10.286  1.1225 -1.8808 -0.6450
  299MPD2    H1 4560   3.458   0.687   9.910 -1.4739 -1.1828 -0.5570
  299MPD2    H2 4561   3.632   0.862  10.255 -1.4754 -0.1347  1.1876
  299MPD2    H3 4562   3.587   0.865  10.029  0.7710 -0.8505 -0.0902
  299MPD2     N 4563   3.358   0.483  10.021 -0.5016  0.1022  0.1127
  299MPD2    H5 4564   3.357   0.498   9.920 -1.0737 -0.9026 -0.0270
  299MPD2    N1 4565   3.557   0.671  10.422 -0.1987 -0.0128  0.3099
  299MPD2    H7 4566   3.619   0.746  10.451 -1.2178 -0.0179  2.4806
  300TMC3    C1 4567   3.176   0.329   9.986  0.4670  0.7464 -0.4797
  300TMC3    C2 4568   3.173   0.374   9.858  0.1541  0.0561 -0.0102
  300TMC3    C3 4569   3.059   0.367   9.784 -0.5071 -0.3827 -0.3131
  300TMC3    C4 4570   3.063   0.270  10.044 -0.1747  0.2824 -0.0041
  300TMC3    C5 4571   2.966   0.240   9.959 -0.0223  0.0054  0.1521
  300TMC3    C6 4572   2.960   0.283   9.822  0.1135  0.0314 -0.8053
  300TMC3     C 4573   3.267   0.395  10.081  0.2691 -0.0985  0.9190
  300TMC3     O 4574   3.248   0.370  10.200  0.4611 -0.5836  0.2141
  300TMC3     H 4575   3.251   0.432   9.810  0.1858  1.8705  2.2855
  300TMC3    H1 4576   3.072   0.223  10.141 -1.1678 -0.5847 -0.3282
  300TMC3    H2 4577   2.871   0.277   9.761 -0.2017  1.3184 -0.4861
  300TMC3    C7 4578   2.840   0.198  10.010  0.3346  0.7745 -0.9340
  300TMC3    C8 4579   2.996   0.498   9.765 -0.2993  0.6887 -0.6547
  300TMC3    O1 4580   2.779   0.121   9.935  0.7729  0.3950  0.0056
  300TMC3    O2 4581   2.889   0.504   9.707 -0.1392  0.1582 -0.1279
  301MPD2     C 4582   1.528   2.299   0.633 -0.5214 -0.2243  0.2925
  301MPD2    C1 4583   1.412   2.252   0.582 -0.0987 -0.4971  0.2494
  301MPD2    C2 4584   1.388   2.117   0.562 -0.6748  0.3592  0.2015
  301MPD2    C3 4585   1.493   2.026   0.600 -0.0768 -0.5056 -0.0010
  301MPD2    C4 4586   1.605   2.074   0.662  0.2164 -0.0871 -0.3412
  301MPD2    C5 4587   1.619   2.205   0.678  0.2258  0.4017 -0.3872
  301MPD2     H 4588   1.289   2.090   0.527 -0.0519 -2.6962  0.8036
  301MPD2    H1 4589   1.681   2.004   0.693  0.5660  0.0426 -0.9174
  301MPD2    H2 4590   1.555   2.399   0.663 -3.1941  0.9222 -1.0789
  301MPD2    H3 4591   1.707   2.250   0.723  0.4958 -0.4452 -0.0617
  301MPD2     N 4592   1.483   1.884   0.596  0.0213  0.5629 -0.5492
  301MPD2    H5 4593   1.566   1.846   0.639 -2.0929 -2.3210  0.9279
  301MPD2    N1 4594   1.301   2.336   0.552  0.3540 -0.7592  0.1555
  301MPD2    H7 4595   1.224   2.289   0.505  1.3345 -2.4058  0.1747
  302TMC3    C1 4596   1.383   1.681   0.546  0.1128 -0.2617 -0.6423
  302TMC3    C2 4597   1.446   1.621   0.649  0.7537 -0.7031  0.1317
  302TMC3    C3 4598   1.433   1.483   0.651  0.0253 -1.4209  0.8811
  302TMC3    C4 4599   1.307   1.618   0.454  0.1199 -0.3932 -0.5462
  302TMC3    C5 4600   1.304   1.479   0.463  0.0555  0.3194 -0.2741
  302TMC3    C6 4601   1.362   1.406   0.556  0.5529  0.0173  0.8751
  302TMC3     C 4602   1.381   1.825   0.531 -0.4687  0.0779  0.0275
  302TMC3     O 4603   1.313   1.878   0.447 -0.8100 -0.2180 -0.3253
  302TMC3     H 4604   1.498   1.670   0.731 -2.8465  2.7340  0.3698
  302TMC3    H1 4605   1.268   1.668   0.366  0.2674 -1.5696 -1.2752
  302TMC3    H2 4606   1.362   1.297   0.552 -0.0374  0.0654 -0.4091
  302TMC3    C7 4607   1.198   1.419   0.381  0.4916 -0.8545 -0.4746
  302TMC3    C8 4608   1.532   1.420   0.734 -0.4400  0.6907 -0.3275
  302TMC3    O1 4609   1.216   1.305   0.355 -0.2691  0.0004  0.0093
  302TMC3    O2 4610   1.617   1.490   0.780 -0.3488 -0.1759 -0.3572
  303MPD2     C 4611   1.131   0.370  10.445 -0.5352  0.5530 -0.6637
  303MPD2    C1 4612   1.083   0.246  10.424 -0.5914 -0.1780 -0.1646
  303MPD2    C2 4613   1.050   0.212  10.296  0.3264  0.7893  0.1568
  303MPD2    C3 4614   1.058   0.299  10.183 -0.6150  0.3437  0.8374
  303MPD2    C4 4615   1.110   0.421  10.208  0.3931 -0.0901 -0.6328
  303MPD2    C5 4616   1.146   0.453  10.339  0.0652 -0.1088 -0.2928
  303MPD2     H 4617   1.009   0.113  10.282  2.7952 -0.2747  0.4607
  303MPD2    H1 4618   1.116   0.489  10.124 -4.5206  0.2239 -0.7103
  303MPD2    H2 4619   1.163   0.394  10.546 -1.6767  1.3500 -0.4885
  303MPD2    H3 4620   1.205   0.541  10.363  0.3592 -0.2273 -0.5863
  303MPD2     N 4621   1.023   0.270  10.054  0.2776 -0.3872  0.4181
  303MPD2    H5 4622   1.031   0.338   9.979  1.3111  0.9119  1.7271
  303MPD2    N1 4623   1.091   0.153  10.530 -0.1606 -0.2685 -0.0197
  303MPD2    H7 4624   1.110   0.196  10.620 -0.6450  2.8315 -1.3810
  304TMC3    C1 4625   1.057   4.680  10.640  0.0783  0.1156 -0.3753
  304TMC3    C2 4626   0.971   0.002  10.733  0.9154 -0.1430  0.5871
  304TMC3    C3 4627   0.905   4.656  10.817  0.4148 -0.9348  0.0057
  304TMC3    C4 4628   1.089   4.547  10.642  0.0502  0.7100 -0.0987
  304TMC3    C5 4629   1.018   4.468  10.724 -0.2044 -0.1299 -0.4244
  304TMC3    C6 4630   0.930   4.522  10.817  0.0503  0.4934 -0.6192
  304TMC3     C 4631   1.080   0.014  10.515 -0.0189 -0.2088  0.4160
  304TMC3     O 4632   1.093   4.681  10.415 -0.3378  0.3307  0.1074
  304TMC3     H 4633   0.929   0.101  10.723 -0.9019 -1.0212 -0.5234
  304TMC3    H1 4634   1.143   4.503  10.559  1.1995 -1.2428  1.6786
  304TMC3    H2 4635   0.875   4.454  10.881 -2.4858  3.3236  0.2042
  304TMC3    C7 4636   0.948   4.351  10.663 -0.0327  0.8217  0.6100
  304TMC3    C8 4637   0.760   4.688  10.823  0.4147 -0.0359 -0.4411
  304TMC3    O1 4638   0.823   4.361  10.677  0.0478 -0.0737 -0.1734
  304TMC3    O2 4639   0.736   0.073  10.838 -0.0853 -0.1747 -0.3263
  305MPD2     C 4640   4.087   2.371  13.690 -0.2466  0.1567  0.6502
  305MPD2    C1 4641   4.176   2.286  13.750  0.0823  0.3114 -0.3773
  305MPD2    C2 4642   4.196   2.157  13.709 -0.4742 -0.1481 -0.0149
  305MPD2    C3 4643   4.118   2.109  13.609 -0.2289  0.4273  0.0844
  305MPD2    C4 4644   4.026   2.188  13.550  0.0290  0.7030 -0.0491
  305MPD2    C5 4645   4.002   2.311  13.597  0.4428  0.5198  0.1901
  305MPD2     H 4646   4.272   2.097  13.758  0.5661  1.0454 -0.1738
  305MPD2    H1 4647   3.972   2.140  13.469 -2.6303  0.2334  2.0172
  305MPD2    H2 4648   4.079   2.478  13.707 -0.2970  0.2458  0.0490
  305MPD2    H3 4649   3.933   2.374  13.541 -1.0999 -1.0183  0.3502
  305MPD2     N 4650   4.155   1.993  13.534  0.2449 -0.2415  0.3086
  305MPD2    H5 4651   4.077   1.957  13.479 -0.1381  2.5896 -0.9912
  305MPD2    N1 4652   4.238   2.333  13.871 -0.0115 -0.4655 -0.2914
  305MPD2    H7 4653   4.198   2.413  13.918 -0.0842 -1.7392  1.8029
  306TMC3    C1 4654   4.377   2.320  14.050 -0.3835  0.0397  0.3539
  306TMC3    C2 4655   4.469   2.246  14.110  0.1976 -0.3580  0.1383
  306TMC3    C3 4656   4.481   2.255  14.248  0.8531  0.0875  1.0013
  306TMC3    C4 4657   4.299   2.411  14.119  0.1423  0.0160 -0.7204
  306TMC3    C5 4658   4.313   2.407  14.256  0.1004  0.0711 -0.2073
  306TMC3    C6 4659   4.404   2.332  14.324  0.1973 -0.8186  0.8070
  306TMC3     C 4660   4.349   2.282  13.917 -0.4250  0.1425 -0.0689
  306TMC3     O 4661   4.438   2.223  13.851  0.5504  0.4627  0.2351
  306TMC3     H 4662   4.514   2.171  14.047  0.8126  1.2860 -1.3964
  306TMC3    H1 4663   4.227   2.479  14.076 -1.0377  1.1260  3.0659
  306TMC3    H2 4664   4.405   2.331  14.432  3.2845 -1.3151  0.7752
  306TMC3    C7 4665   4.236   2.499  14.334 -0.2696 -0.4993  0.3927
  306TMC3    C8 4666   4.555   2.142  14.302  0.0060  0.0373  0.0984
  306TMC3    O1 4667   4.120   2.517  14.303 -0.6797 -0.3653  0.1101
  306TMC3    O2 4668   4.641   2.095  14.231  0.1017 -0.4707 -0.2933
  307MPD2     C 4669   2.425   0.940   0.264  0.2448  0.7098  0.9383
  307MPD2    C1 4670   2.331   1.012   0.200 -0.5035 -0.2558  0.2486
  307MPD2    C2 4671   2.196   0.977   0.204 -0.5295 -0.6516  0.3857
  307MPD2    C3 4672   2.156   0.865   0.265  0.0533 -0.5708 -0.2609
  307MPD2    C4 4673   2.251   0.786   0.324 -0.3993 -0.3124 -0.0634
  307MPD2    C5 4674   2.388   0.824   0.317 -0.3262 -0.1114 -0.2277
  307MPD2     H 4675   2.120   1.044   0.164 -0.8975 -0.9049  0.6669
  307MPD2    H1 4676   2.225   0.694   0.374 -3.0823  1.4503  1.8223
  307MPD2    H2 4677   2.529   0.970   0.267  0.9966 -1.4608 -3.1622
  307MPD2    H3 4678   2.449   0.747   0.363 -0.5713  0.7166  1.4934
  307MPD2     N 4679   2.015   0.843   0.286  0.6748  0.3974  0.2387
  307MPD2    H5 4680   1.950   0.911   0.248  0.3437 -0.7164 -1.1904
  307MPD2    N1 4681   2.354   1.137   0.139  0.3499  0.1472  1.0179
  307MPD2    H7 4682   2.276   1.177   0.089  0.0410 -2.0060 -0.2381
  308TMC3    C1 4683   1.600   0.729   0.463 -0.2764  0.0702  0.4449
  308TMC3    C2 4684   1.568   0.867   0.458 -0.2097  0.0462 -0.8091
  308TMC3    C3 4685   1.667   0.954   0.413  0.4584 -0.5607  0.4108
  308TMC3    C4 4686   1.722   0.691   0.415 -0.1152 -0.3211 -0.3358
  308TMC3    C5 4687   1.812   0.784   0.368 -0.2865 -0.2165  0.0111
  308TMC3    C6 4688   1.781   0.920   0.362 -0.5089 -0.3853  0.0831
  308TMC3     C 4689   1.499   0.629   0.438 -0.1800  0.6142 -0.1309
  308TMC3     O 4690   1.531   0.524   0.379 -0.2614  0.3664  0.0268
  308TMC3     H 4691   1.477   0.910   0.499 -0.4530 -0.4856 -0.7905
  308TMC3    H1 4692   1.747   0.586   0.413  0.5267 -0.2033  1.7918
  308TMC3    H2 4693   1.860   0.990   0.335 -0.3203 -0.2082  1.0974
  308TMC3    C7 4694   1.953   0.748   0.359 -0.3220  0.0712  0.1346
  308TMC3    C8 4695   1.626   1.099   0.406 -0.0134 -0.5784 -0.0296
  308TMC3    O1 4696   1.987   0.639   0.404  0.0726 -0.3690 -0.2838
  308TMC3    O2 4697   1.506   1.124   0.394 -0.1550 -0.0448 -0.1474
  309MPD2     C 4698   1.201   1.053  16.996 -0.4161 -0.1737  0.5601
  309MPD2    C1 4699   1.138   1.063  16.873  0.4365  0.3908 -0.3967
  309MPD2    C2 4700   1.005   1.100  16.869 -0.7487  0.0870  0.1475
  309MPD2    C3 4701   0.935   1.115  16.987 -0.5977  0.3511 -0.0613
  309MPD2    C4 4702   0.999   1.099  17.112  0.2189  0.1455 -0.1578
  309MPD2    C5 4703   1.138   1.071  17.116  0.2428  0.7152  0.0381
  309MPD2     H 4704   0.954   1.102  16.774  0.3663 -0.2720 -0.4510
  309MPD2    H1 4705   0.938   1.111  17.200 -0.6362  0.1919 -0.7591
  309MPD2    H2 4706   1.308   1.034  17.003 -0.3677 -0.1116  0.0260
  309MPD2    H3 4707   1.190   1.043  17.208 -1.1984 -0.2932  0.5509
  309MPD2     N 4708   0.796   1.140  16.989 -0.9473 -0.3886  0.5375
  309MPD2    H5 4709   0.751   1.145  17.080  0.1429 -0.3814  1.0857
  309MPD2    N1 4710   1.204   1.049  16.746  0.5550  0.1017 -0.1546
  309MPD2    H7 4711   1.135   1.069  16.674  0.4484  0.1971 -0.0256
  310TMC3    C1 4712   1.366   0.993  16.588  0.0823  0.0522  0.2251
  310TMC3    C2 4713   1.314   1.071  16.490 -0.2845 -0.1424  0.1157
  310TMC3    C3 4714   1.362   1.060  16.364 -0.2013 -0.1794  0.5645
  310TMC3    C4 4715   1.478   0.909  16.566 -0.3008  0.1110  1.1473
  310TMC3    C5 4716   1.524   0.907  16.444  0.1322  0.3009  0.7841
  310TMC3    C6 4717   1.474   0.981  16.343 -0.2306 -0.6159  0.2344
  310TMC3     C 4718   1.339   1.018  16.726  0.5503  0.2615  1.2015
  310TMC3     O 4719   1.420   0.984  16.810  0.1636 -0.1112  0.1906
  310TMC3     H 4720   1.237   1.142  16.517  0.7072  1.4633 -1.3061
  310TMC3    H1 4721   1.520   0.840  16.638  0.0529  0.0802  0.9117
  310TMC3    H2 4722   1.515   0.964  16.244 -0.5521  1.6176 -0.2910
  310TMC3    C7 4723   1.591   0.787  16.396  0.1168  0.6798 -0.3585
  310TMC3    C8 4724   1.276   1.106  16.257 -0.1981  0.1147 -0.4499
  310TMC3    O1 4725   1.576   0.748  16.281  0.0963  0.7838 -0.1281
  310TMC3    O2 4726   1.161   1.130  16.285  0.7355 -0.5204  0.1980
  311MPD2     C 4727   3.228   1.685  12.523 -0.0402  0.9023 -0.2517
  311MPD2    C1 4728   3.229   1.820  12.542  0.6886 -0.7442 -0.6525
  311MPD2    C2 4729   3.121   1.886  12.599 -0.0002  0.2198  0.5094
  311MPD2    C3 4730   3.007   1.817  12.637 -0.2528 -0.0770 -0.2298
  311MPD2    C4 4731   3.009   1.683  12.614  0.0096 -0.0532 -0.7368
  311MPD2    C5 4732   3.113   1.621  12.552 -0.5840 -0.4122 -0.6865
  311MPD2     H 4733   3.114   1.994  12.589  1.2360  0.1146 -1.3546
  311MPD2    H1 4734   2.924   1.619  12.635  0.5983 -0.2760  0.9706
  311MPD2    H2 4735   3.306   1.632  12.468 -0.9860  0.4231 -1.1185
  311MPD2    H3 4736   3.107   1.516  12.530 -3.3334 -0.0247 -1.7569
  311MPD2     N 4737   2.894   1.889  12.695 -0.2112 -0.3765 -0.4971
  311MPD2    H5 4738   2.904   1.988  12.714  0.3560 -0.5442  0.0791
  311MPD2    N1 4739   3.330   1.901  12.485 -0.8763 -0.7104 -0.0744
  311MPD2    H7 4740   3.320   2.002  12.488  3.3320 -0.2493 -1.3460
  312TMC3    C1 4741   2.653   1.916  12.729 -0.1243 -0.0237 -0.1593
  312TMC3    C2 4742   2.530   1.855  12.721  0.1551  0.2417 -0.0586
  312TMC3    C3 4743   2.414   1.933  12.717 -0.3035  0.6074 -0.9139
  312TMC3    C4 4744   2.657   2.055  12.744 -0.2360  0.8147  0.3634
  312TMC3    C5 4745   2.537   2.131  12.752 -0.6266 -0.2124 -0.3700
  312TMC3    C6 4746   2.415   2.072  12.734 -0.0221  0.3942  0.2721
  312TMC3     C 4747   2.770   1.831  12.710 -0.4772  0.0368  0.2552
  312TMC3     O 4748   2.740   1.714  12.713 -0.1736  0.1279  0.5460
  312TMC3     H 4749   2.512   1.749  12.710 -1.2014  0.3063  1.3565
  312TMC3    H1 4750   2.752   2.103  12.763  0.3914 -0.3379  0.1520
  312TMC3    H2 4751   2.321   2.122  12.754 -1.0359 -2.0009  1.6723
  312TMC3    C7 4752   2.529   2.245  12.841 -0.3452 -0.3912  0.2099
  312TMC3    C8 4753   2.285   1.875  12.701  0.2950 -0.6339  0.1711
  312TMC3    O1 4754   2.432   2.314  12.824  0.0960  0.2908 -0.3776
  312TMC3    O2 4755   2.266   1.775  12.772 -0.7403  0.6135  0.1998
  313MPD2     C 4756   2.001   0.983  10.617  0.0217 -0.0142 -0.2785
  313MPD2    C1 4757   2.126   1.032  10.599  0.1671 -0.1130 -0.3161
  313MPD2    C2 4758   2.218   0.964  10.526  0.2665 -0.1104 -0.1284
  313MPD2    C3 4759   2.197   0.835  10.478 -0.7154  0.9062 -0.2783
  313MPD2    C4 4760   2.075   0.775  10.509 -0.3080  0.1038  0.2664
  313MPD2    C5 4761   1.972   0.856  10.574  0.6795 -0.3329  0.2223
  313MPD2     H 4762   2.315   1.006  10.506  0.4482 -0.3668  0.2028
  313MPD2    H1 4763   2.053   0.671  10.490 -1.6435  0.8965 -2.5538
  313MPD2    H2 4764   1.924   1.038  10.670 -1.4679 -0.5010 -1.9305
  313MPD2    H3 4765   1.876   0.811  10.596  0.4801 -0.9081 -1.8111
  313MPD2     N 4766   2.289   0.774  10.391 -0.2353 -0.5970 -0.1306
  313MPD2    H5 4767   2.384   0.811  10.387 -0.1683 -0.8385 -0.8192
  313MPD2    N1 4768   2.163   1.165  10.633  0.0950 -0.3183 -0.7851
  313MPD2    H7 4769   2.234   1.209  10.575 -0.2717  1.6582  0.2431
  314TMC3    C1 4770   2.131   1.385  10.733 -0.2224  0.1742 -0.6554
  314TMC3    C2 4771   2.265   1.408  10.699 -0.1194  0.0834  0.0595
  314TMC3    C3 4772   2.288   1.482  10.593  0.2768 -0.1822  0.3710
  314TMC3    C4 4773   2.032   1.456  10.665  0.2781  0.6401 -0.0688
  314TMC3    C5 4774   2.060   1.530  10.556 -0.3200 -0.2596  0.9442
  314TMC3    C6 4775   2.194   1.545  10.517 -0.4495  0.0450  0.4394
  314TMC3     C 4776   2.096   1.241  10.731 -0.3134  0.6951 -0.0025
  314TMC3     O 4777   2.007   1.215  10.810  0.3928 -0.0830 -0.1822
  314TMC3     H 4778   2.340   1.341  10.739 -0.2574 -0.8703 -1.2681
  314TMC3    H1 4779   1.927   1.438  10.685  0.4791 -0.4194  0.0310
  314TMC3    H2 4780   2.217   1.608  10.433  2.1257 -1.1975  0.1867
  314TMC3    C7 4781   1.970   1.515  10.443 -0.0981  0.0034  0.6139
  314TMC3    C8 4782   2.413   1.553  10.581 -0.5442 -0.3374  0.2657
  314TMC3    O1 4783   1.853   1.496  10.475 -0.1304 -0.2875 -0.1732
  314TMC3    O2 4784   2.413   1.672  10.555 -0.2407  0.2168 -0.4160
  315MPD2     C 4785   1.980   0.487  17.019 -0.8885 -0.1440  0.3089
  315MPD2    C1 4786   2.099   0.524  17.077 -0.1788  0.1198  0.1938
  315MPD2    C2 4787   2.136   0.654  17.069  0.0255  0.2689 -0.5773
  315MPD2    C3 4788   2.066   0.743  16.985 -0.7261  0.1645  0.2656
  315MPD2    C4 4789   1.950   0.704  16.914  0.2810 -0.2397 -0.4169
  315MPD2    C5 4790   1.907   0.579  16.943  0.3498 -0.3043  0.7642
  315MPD2     H 4791   2.228   0.691  17.114 -1.0779  1.1090  0.9743
  315MPD2    H1 4792   1.887   0.763  16.849  1.2166  1.3473  0.1254
  315MPD2    H2 4793   1.936   0.388  17.028 -1.5770  0.0729 -0.6370
  315MPD2    H3 4794   1.812   0.545  16.901  1.4924 -0.3341 -1.7964
  315MPD2     N 4795   2.120   0.875  16.988 -0.4975  0.6594 -0.5738
  315MPD2    H5 4796   2.210   0.887  17.034 -1.3033  0.3799  1.0780
  315MPD2    N1 4797   2.172   0.440  17.170  1.2305 -0.5664  0.7120
  315MPD2    H7 4798   2.250   0.488  17.214  1.4292 -0.8640  0.6824
  316TMC3    C1 4799   2.159   1.087  16.890 -0.1330 -0.2440 -0.1529
  316TMC3    C2 4800   2.255   1.129  16.976  0.2575 -0.7855 -0.1706
  316TMC3    C3 4801   2.331   1.240  16.943  0.5284  0.0329  0.3493
  316TMC3    C4 4802   2.159   1.139  16.765 -0.1328  0.3973  0.2832
  316TMC3    C5 4803   2.241   1.248  16.727 -0.0186  0.0655 -0.7563
  316TMC3    C6 4804   2.334   1.297  16.817  0.6392  0.2581 -0.2437
  316TMC3     C 4805   2.071   0.976  16.910 -0.3994 -0.5220  0.7830
  316TMC3     O 4806   1.977   0.982  16.835 -0.1974  0.9733 -0.0861
  316TMC3     H 4807   2.249   1.097  17.080 -2.6001  0.5584  0.0885
  316TMC3    H1 4808   2.076   1.117  16.698  0.6277 -1.4667 -0.0280
  316TMC3    H2 4809   2.400   1.377  16.786 -0.8167  0.6251 -2.3727
  316TMC3    C7 4810   2.269   1.277  16.588 -0.3069 -0.9829 -0.0038
  316TMC3    C8 4811   2.440   1.289  17.030 -0.4246 -0.0688 -0.4459
  316TMC3    O1 4812   2.385   1.269  16.556 -0.5427 -0.3520  0.6479
  316TMC3    O2 4813   2.495   1.394  17.002 -0.2571 -0.3020  0.0254
  317MPD2     C 4814   4.550   3.868  12.189 -0.4866  0.8551 -0.2912
  317MPD2    C1 4815   4.624   3.749  12.162  0.3340 -0.3039  0.6822
  317MPD2    C2 4816   4.663   3.674  12.267 -0.6247  0.0378  0.2541
  317MPD2    C3 4817   4.621   3.708  12.394 -0.5361 -0.3789  0.8333
  317MPD2    C4 4818   4.539   3.809  12.420  0.6451  0.1536  0.2422
  317MPD2    C5 4819   4.511   3.897  12.321 -0.2832 -0.2747  0.2282
  317MPD2     H 4820   4.724   3.589  12.240 -0.7661 -0.1405  0.4976
  317MPD2    H1 4821   4.490   3.832  12.513  0.1547  0.7940 -0.1739
  317MPD2    H2 4822   4.523   3.940  12.112  0.1227  2.6256  1.1600
  317MPD2    H3 4823   4.452   3.985  12.341  0.2974  0.4097 -1.1073
  317MPD2     N 4824   4.659   3.617  12.493 -0.0729  0.4359  0.2376
  317MPD2    H5 4825   4.721   3.544  12.461 -0.6685  0.4220 -0.9138
  317MPD2    N1 4826   4.684   3.710  12.041 -0.9358 -0.0722 -0.3613
  317MPD2    H7 4827   4.719   3.615  12.043  0.6756  0.5550  1.1128
  318TMC3    C1 4828   4.693   3.525  12.709  0.3911 -0.3662 -0.4736
  318TMC3    C2 4829   4.658   3.400  12.664 -0.3174  0.7182 -0.4269
  318TMC3    C3 4830   4.686   3.294  12.744  0.0365 -0.4808 -0.4352
  318TMC3    C4 4831   4.735   3.554  12.836  0.1264 -0.1355  0.3234
  318TMC3    C5 4832   0.035   3.442  12.910 -0.3827 -0.5273 -0.2942
  318TMC3    C6 4833   0.012   3.312  12.861 -0.0453 -0.2479  0.7429
  318TMC3     C 4834   4.643   3.636  12.630 -0.4157 -0.2965 -0.2271
  318TMC3     O 4835   4.613   3.739  12.695 -0.1836  0.4616  0.3474
  318TMC3     H 4836   4.602   3.391  12.572  2.2345  1.2546 -2.0309
  318TMC3    H1 4837   0.051   3.647  12.858  0.3169  0.4865 -2.7871
  318TMC3    H2 4838   0.023   3.225  12.925 -1.8173 -1.2555 -0.3158
  318TMC3    C7 4839   0.100   3.470  13.035  0.1369 -0.3752  0.5219
  318TMC3    C8 4840   4.599   3.174  12.746  0.0973  0.0512  0.2212
  318TMC3    O1 4841   0.117   3.590  13.059 -0.1935  0.7411  0.0540
  318TMC3    O2 4842   4.637   3.072  12.803  0.3757  0.3380  0.3224
  319MPD2     C 4843   4.541   0.466  16.552  0.2394  0.0198 -0.4393
  319MPD2    C1 4844   4.605   0.360  16.486 -0.3847 -0.3814 -1.0204
  319MPD2    C2 4845   4.537   0.271  16.408 -0.8143 -0.3559  0.4748
  319MPD2    C3 4846   4.409   0.292  16.381 -0.6457 -0.1017 -0.8260
  319MPD2    C4 4847   4.343   0.406  16.433 -0.3248 -0.1245 -0.5388
  319MPD2    C5 4848   4.414   0.488  16.505 -0.3807  0.6104 -0.5330
  319MPD2     H 4849   4.600   0.199  16.357  1.7436  2.6403 -0.6581
  319MPD2    H1 4850   4.241   0.434  16.413  0.7728  2.1381 -3.0728
  319MPD2    H2 4851   4.578   0.548  16.612  2.6358 -1.2025 -0.2214
  319MPD2    H3 4852   4.369   0.584  16.529  1.8181  1.8271 -1.2294
  319MPD2     N 4853   4.330   0.206  16.302  0.7531  0.2016  0.7241
  319MPD2    H5 4854   4.235   0.233  16.279  1.0896 -2.0428 -3.3548
  319MPD2    N1 4855   0.004   0.330  16.514  0.3431 -0.3231 -0.0256
  319MPD2    H7 4856   0.034   0.240  16.477 -2.3935 -1.9633  1.7367
  320TMC3    C1 4857   4.291   0.016  16.166 -0.5614 -0.5564  0.6655
  320TMC3    C2 4858   4.198   0.089  16.095  0.3355  0.1944 -0.2853
  320TMC3    C3 4859   4.138   0.018  15.992 -0.0471 -0.2715 -0.1926
  320TMC3    C4 4860   4.310   4.615  16.149  0.4628 -0.1288  0.8085
  320TMC3    C5 4861   4.235   4.551  16.060 -1.0239 -0.1230  0.4172
  320TMC3    C6 4862   4.152   4.618  15.972 -0.1353 -0.0217  0.8625
  320TMC3     C 4863   4.380   0.084  16.253 -0.2103 -0.0119  0.1057
  320TMC3     O 4864   4.483   0.019  16.270  0.2774 -0.6587  0.1965
  320TMC3     H 4865   4.196   0.197  16.096 -2.4326  0.1541 -0.8265
  320TMC3    H1 4866   4.377   4.561  16.215  1.0269  2.6240  2.4582
  320TMC3    H2 4867   4.098   4.562  15.896  2.4985 -2.7226  0.9840
  320TMC3    C7 4868   4.269   4.421  16.017 -0.2906 -0.3592  0.2547
  320TMC3    C8 4869   4.074   0.110  15.899  0.2586 -0.3263 -0.4079
  320TMC3    O1 4870   4.272   4.412  15.897  0.5327 -0.4827  0.4082
  320TMC3    O2 4871   4.053   0.223  15.936 -0.2261  0.7868  0.1347
  321TMC3    C1 4872   0.218   0.351  16.620  0.5007  0.2430  0.1112
  321TMC3    C2 4873   0.223   0.215  16.626  0.6482 -0.6660  0.3333
  321TMC3    C3 4874   0.342   0.149  16.630 -0.1220  0.0160  0.0063
  321TMC3    C4 4875   0.328   0.423  16.626 -0.7988  0.2197  0.0325
  321TMC3    C5 4876   0.445   0.354  16.630 -0.7823  0.1782  0.3278
  321TMC3    C6 4877   0.457   0.221  16.620  0.1447  0.4541  0.0273
  321TMC3     C 4878   0.088   0.407  16.586 -0.1124 -0.5032  0.5568
  321TMC3     O 4879   0.069   0.524  16.620  0.2797  0.5751 -0.3149
  321TMC3     H 4880   0.129   0.164  16.637 -0.4705  1.4343  0.4740
  321TMC3    H1 4881   0.315   0.531  16.627  1.3610  0.4688  1.2442
  321TMC3    H2 4882   0.546   0.162  16.605  0.0116  0.7805 -2.0528
  321TMC3    C7 4883   0.559   0.406  16.705 -0.2805 -0.3010 -0.3638
  321TMC3    C8 4884   0.356   0.046  16.736  0.4621  0.0112 -0.3536
  321TMC3    O1 4885   0.660   0.332  16.709  0.4402  0.1651  0.1418
  321TMC3    O2 4886   0.262   0.004  16.794 -0.3068  0.6486  0.6460
  322MPD2     C 4887   3.807   1.728  13.767  0.1322  0.2594  0.5436
  322MPD2    C1 4888   3.943   1.686  13.758  0.2153  0.5245  0.0698
  322MPD2    C2 4889   3.975   1.566  13.698  0.9076 -0.1437  0.4194
  322MPD2    C3 4890   3.877   1.478  13.665  0.5149  0.1724  0.0436
  322MPD2    C4 4891   3.739   1.517  13.679  0.0634  0.6677  0.0329
  322MPD2    C5 4892   3.715   1.633  13.734 -0.3087  0.0900 -0.1980
  322MPD2     H 4893   4.080   1.540  13.691  1.2504  1.2548  0.5195
  322MPD2    H1 4894   3.656   1.460  13.637  0.2205 -1.0111  2.0200
  322MPD2    H2 4895   3.782   1.818  13.821 -1.1635 -1.2713  2.5017
  322MPD2    H3 4896   3.611   1.661  13.746 -0.4907 -0.0074 -1.6344
  322MPD2     N 4897   3.915   1.348  13.617 -0.4064 -0.3060  0.8346
  322MPD2    H5 4898   4.015   1.332  13.614 -0.2843  0.4703  0.7231
  322MPD2    N1 4899   4.039   1.773  13.810  0.1737  0.2967  0.4528
  322MPD2    H7 4900   4.008   1.861  13.849  0.8768  0.9511 -0.4699
  323TMC3    C1 4901   4.240   1.836  13.913 -0.0984 -0.2565  0.2873
  323TMC3    C2 4902   4.367   1.876  13.881  0.6074 -0.3804  0.2044
  323TMC3    C3 4903   4.461   1.850  13.974 -0.0068  0.1001 -0.4442
  323TMC3    C4 4904   4.202   1.787  14.034  0.3277  0.4859 -0.5706
  323TMC3    C5 4905   4.299   1.766  14.129  0.2272  0.1030 -0.4826
  323TMC3    C6 4906   4.427   1.798  14.098  0.0327  0.0476  0.6776
  323TMC3     C 4907   4.174   1.768  13.804 -0.3804  0.3591 -0.3771
  323TMC3     O 4908   4.244   1.689  13.745 -0.8871  0.7175 -0.3358
  323TMC3     H 4909   4.405   1.887  13.780  0.0473  0.3970  0.0821
  323TMC3    H1 4910   4.101   1.754  14.053  0.9271 -1.1682 -0.2519
  323TMC3    H2 4911   4.511   1.782  14.166  0.6437  1.0854  0.1594
  323TMC3    C7 4912   4.268   1.665  14.229 -0.2571 -0.3594  0.1209
  323TMC3    C8 4913   4.598   1.891  13.945  0.2572 -0.0388  0.0581
  323TMC3    O1 4914   4.160   1.608  14.220 -0.4653  0.6741  0.2414
  323TMC3    O2 4915   4.680   1.819  13.997 -0.5719 -0.0328  0.0889
  324MPD2     C 4916   1.054   2.550  14.099 -0.4492  0.3134  0.5414
  324MPD2    C1 4917   1.015   2.671  14.139  0.4771  0.5101 -0.0178
  324MPD2    C2 4918   0.882   2.713  14.113 -0.2047  0.2947  0.1516
  324MPD2    C3 4919   0.787   2.624  14.061 -0.0901  0.3967 -0.2854
  324MPD2    C4 4920   0.827   2.495  14.034  0.5683 -0.4120 -0.3891
  324MPD2    C5 4921   0.960   2.464  14.043  0.6100  0.0930  0.0822
  324MPD2     H 4922   0.848   2.816  14.123 -1.2213  0.1629 -2.0260
  324MPD2    H1 4923   0.764   2.416  13.996 -0.4579  1.6982 -3.1011
  324MPD2    H2 4924   1.157   2.517  14.103  0.3486  2.4133 -2.0044
  324MPD2    H3 4925   0.989   2.364  14.015 -1.8228 -0.3819 -0.7518
  324MPD2     N 4926   0.647   2.659  14.052 -0.3982  0.1362  0.4395
  324MPD2    H5 4927   0.627   2.754  14.080 -0.0203  0.6535 -1.0281
  324MPD2    N1 4928   1.108   2.754  14.202 -0.4612  0.5456 -0.3672
  324MPD2    H7 4929   1.076   2.849  14.220  1.4200  1.4877 -1.9870
  325TMC3    C1 4930   0.414   2.650  13.988  0.3366 -0.2811 -0.8421
  325TMC3    C2 4931   0.310   2.607  13.909  0.7266  0.4147  0.9335
  325TMC3    C3 4932   0.191   2.665  13.916 -0.0296 -0.4958  0.8564
  325TMC3    C4 4933   0.397   2.753  14.073  0.3588 -0.2253 -0.4167
  325TMC3    C5 4934   0.273   2.793  14.100  0.2561  0.5962  0.7683
  325TMC3    C6 4935   0.172   2.747  14.022  0.6765  0.2636 -0.9116
  325TMC3     C 4936   0.543   2.590  13.988 -0.2727 -0.3670 -0.3973
  325TMC3     O 4937   0.554   2.496  13.910 -0.3371  0.8822  0.1130
  325TMC3     H 4938   0.309   2.527  13.835  0.5851  0.6728  0.6590
  325TMC3    H1 4939   0.472   2.784  14.146 -1.6693  0.3089  1.4365
  325TMC3    H2 4940   0.068   2.768  14.042  1.1766 -0.1673  2.0700
  325TMC3    C7 4941   0.265   2.922  14.167  0.1015 -0.7374  0.4876
  325TMC3    C8 4942   0.080   2.654  13.822 -0.1033  0.1121 -0.1953
  325TMC3    O1 4943   0.368   2.978  14.202  0.3086  0.1724 -0.1378
  325TMC3    O2 4944   0.109   2.598  13.719  0.0284 -0.3502  0.4251
  326MPD2     C 4945   1.895   3.863  11.098 -0.1188  0.3129 -0.1810
  326MPD2    C1 4946   1.928   3.810  10.975 -0.0407 -0.7919 -0.9431
  326MPD2    C2 4947   2.055   3.762  10.949  0.0730  0.1963  0.4915
  326MPD2    C3 4948   2.153   3.778  11.039  0.5542  0.6503 -0.9599
  326MPD2    C4 4949   2.120   3.809  11.170  0.2286  0.4857 -0.8689
  326MPD2    C5 4950   1.990   3.863  11.191 -0.1973  0.3789  0.3056
  326MPD2     H 4951   2.063   3.707  10.857  1.9493 -2.3893  2.2072
  326MPD2    H1 4952   2.181   3.803  11.260 -2.1860  0.5007  0.7832
  326MPD2    H2 4953   1.802   3.914  11.119 -1.3868 -0.5345 -3.7557
  326MPD2    H3 4954   1.958   3.897  11.289 -0.4620  1.4942 -0.1575
  326MPD2     N 4955   2.291   3.746  11.011 -0.3920  0.0217 -0.2984
  326MPD2    H5 4956   2.349   3.762  11.093 -0.0058  3.0903 -1.1377
  326MPD2    N1 4957   1.841   3.793  10.868  0.1672  0.2148 -0.3522
  326MPD2    H7 4958   1.866   3.724  10.797 -1.3365 -0.0645 -0.6004
  327TMC3    C1 4959   1.643   3.853  10.736  0.2404  0.2306  0.2467
  327TMC3    C2 4960   1.606   3.963  10.656 -0.8492 -0.2669 -0.4660
  327TMC3    C3 4961   1.568   3.945  10.527 -1.0914 -0.1365 -0.0909
  327TMC3    C4 4962   1.624   3.728  10.690 -1.0623 -0.4086  0.0205
  327TMC3    C5 4963   1.581   3.715  10.563  0.1012  0.2310 -0.4301
  327TMC3    C6 4964   1.553   3.816  10.480 -0.5087  0.4267 -0.7056
  327TMC3     C 4965   1.729   3.876  10.853 -0.7183 -0.5504 -0.2699
  327TMC3     O 4966   1.709   3.976  10.918  0.1037  0.0825  0.3417
  327TMC3     H 4967   1.604   4.066  10.688  0.6671 -0.4376  0.2280
  327TMC3    H1 4968   1.639   3.643  10.756  1.4977 -0.4529 -0.6126
  327TMC3    H2 4969   1.526   3.790  10.378 -2.5259 -1.7109  0.3831
  327TMC3    C7 4970   1.590   3.582  10.500 -0.1098 -0.3515 -0.2299
  327TMC3    C8 4971   1.557   4.056  10.439 -0.4803 -0.0420 -0.9948
  327TMC3    O1 4972   1.516   3.546  10.404 -0.0426 -0.4314 -0.4558
  327TMC3    O2 4973   1.532   4.166  10.486 -0.1205 -0.0655 -0.7666
  328MPD2     C 4974   4.523   4.049  16.804  0.4795 -0.2960  0.7818
  328MPD2    C1 4975   4.455   3.939  16.758  0.1652 -0.1949 -0.4056
  328MPD2    C2 4976   4.354   3.954  16.663 -0.0111 -0.5135 -0.2094
  328MPD2    C3 4977   4.323   4.084  16.614 -0.2897 -0.4454  0.3952
  328MPD2    C4 4978   4.409   4.188  16.647  0.3239 -0.1406 -0.2165
  328MPD2    C5 4979   4.509   4.170  16.740 -0.0461 -0.0421 -1.2128
  328MPD2     H 4980   4.289   3.869  16.645 -1.0118 -0.1086  1.5386
  328MPD2    H1 4981   4.382   4.291  16.627 -3.3147 -0.9463  0.5474
  328MPD2    H2 4982   4.590   4.051  16.889  0.9170  3.7433  0.3102
  328MPD2    H3 4983   4.558   4.259  16.777  0.3648 -0.9558  0.4124
  328MPD2     N 4984   4.213   4.108  16.527  0.2563  0.0737 -0.5125
  328MPD2    H5 4985   4.196   4.207  16.515 -0.2032 -0.1528 -1.6490
  328MPD2    N1 4986   4.482   3.810  16.804 -1.1398 -0.2221 -0.1729
  328MPD2    H7 4987   4.550   3.807  16.879 -1.1238 -1.4035 -0.2369
  329TMC3    C1 4988   4.455   3.570  16.845 -0.2679  0.0863 -0.1548
  329TMC3    C2 4989   4.432   3.585  16.973  0.4288 -0.7670 -0.2106
  329TMC3    C3 4990   4.389   3.473  17.032 -0.5268 -0.3764  0.3776
  329TMC3    C4 4991   4.453   3.452  16.772  0.0854 -0.0265  0.6746
  329TMC3    C5 4992   4.422   3.340  16.840 -0.4323 -0.2437  0.3434
  329TMC3    C6 4993   4.385   3.352  16.970  0.0780  0.3660  0.6835
  329TMC3     C 4994   4.430   3.689  16.759  0.2770  0.3221  0.3126
  329TMC3     O 4995   4.389   3.666  16.646 -0.1268 -0.3673 -0.2258
  329TMC3     H 4996   4.417   3.683  17.016  0.5263 -0.3143 -1.2028
  329TMC3    H1 4997   4.455   3.455  16.663 -1.9899  2.5125  0.7083
  329TMC3    H2 4998   4.364   3.263  17.028  0.1864  0.2265  0.5071
  329TMC3    C7 4999   4.410   3.215  16.769 -0.1464 -0.2896 -0.0834
  329TMC3    C8 5000   4.270   3.475  17.112 -0.3976  0.2542  0.9780
  329TMC3    O1 5001   4.421   3.110  16.834  0.4399  0.0138  0.6005
  329TMC3    O2 5002   4.186   3.391  17.087  0.0260 -0.0549  0.2813
  330TMC3    C1 5003   2.197   3.227   9.349 -0.1480  0.8369 -0.9293
  330TMC3    C2 5004   2.132   3.162   9.246 -0.3557  0.2744 -0.6310
  330TMC3    C3 5005   2.153   3.026   9.234  0.2606  0.6123 -1.2016
  330TMC3    C4 5006   2.271   3.157   9.436  0.4423 -0.3100  0.4568
  330TMC3    C5 5007   2.291   3.020   9.418  0.2544 -0.3900  0.1536
  330TMC3    C6 5008   2.232   2.949   9.319 -0.3849  0.4394 -0.1093
  330TMC3     C 5009   2.158   3.361   9.386  0.9428 -0.1049 -0.0183
  330TMC3     O 5010   2.234   3.420   9.461 -0.2723  0.5036  0.6522
  330TMC3     H 5011   2.088   3.218   9.164 -2.4413 -1.3420 -0.6203
  330TMC3    H1 5012   2.322   3.218   9.509  1.8129 -0.3399 -0.4740
  330TMC3    H2 5013   2.248   2.843   9.300 -1.0726  0.6594 -1.9144
  330TMC3    C7 5014   2.399   2.969   9.500 -0.4884  0.2014  0.5525
  330TMC3    C8 5015   2.095   2.945   9.127  0.0919  0.7910 -0.1354
  330TMC3    O1 5016   2.458   3.043   9.578  0.0994 -0.3003 -0.1372
  330TMC3    O2 5017   2.057   3.011   9.029  0.4384 -0.0380 -0.0513
  331MPD2     C 5018   0.366   1.618  13.022 -0.5532  0.6439  0.2591
  331MPD2    C1 5019   0.500   1.595  12.987 -0.4424 -0.6605  0.3262
  331MPD2    C2 5020   0.531   1.472  12.933 -0.0470  0.0154 -0.6175
  331MPD2    C3 5021   0.441   1.365  12.928 -0.1367  0.2408  0.6705
  331MPD2    C4 5022   0.310   1.389  12.958  0.1520 -0.4477 -0.1999
  331MPD2    C5 5023   0.273   1.512  13.003  0.7599 -0.0389  0.2513
  331MPD2     H 5024   0.634   1.458  12.903  0.3091 -0.9016  1.0363
  331MPD2    H1 5025   0.242   1.304  12.959 -2.8455  1.9199 -0.9786
  331MPD2    H2 5026   0.322   1.715  13.039 -0.2790  0.9866 -1.0335
  331MPD2    H3 5027   0.170   1.531  13.031  0.1175 -1.3143 -1.2419
  331MPD2     N 5028   0.466   1.233  12.871  0.5408  0.2517 -0.8138
  331MPD2    H5 5029   0.386   1.173  12.856  0.1019  1.5321 -3.5346
  331MPD2    N1 5030   0.585   1.709  12.981 -0.0017 -0.6580 -0.8405
  331MPD2    H7 5031   0.558   1.800  13.018 -0.6095 -1.4020  0.5472
  332TMC3    C1 5032   0.597   1.066  12.759 -0.2192  0.2420  0.7031
  332TMC3    C2 5033   0.504   1.044  12.658  0.0647 -0.0187  0.1713
  332TMC3    C3 5034   0.541   0.976  12.542  0.1805  0.8279  0.7066
  332TMC3    C4 5035   0.726   1.008  12.740 -0.2114  0.4976 -0.2219
  332TMC3    C5 5036   0.742   0.920  12.633 -0.0264 -0.0159 -0.2665
  332TMC3    C6 5037   0.664   0.911  12.523 -0.0492  0.6254  0.3611
  332TMC3     C 5038   0.589   1.183  12.844 -0.5223  0.1234 -0.5443
  332TMC3     O 5039   0.701   1.235  12.862  0.2926  0.3781  0.4271
  332TMC3     H 5040   0.412   1.101  12.660  0.0808  0.0564 -1.5298
  332TMC3    H1 5041   0.813   1.027  12.802  1.0705 -1.6434 -1.3822
  332TMC3    H2 5042   0.695   0.840  12.447 -1.3263  2.2845 -1.6963
  332TMC3    C7 5043   0.866   0.841  12.623  0.2278 -0.8800  0.1377
  332TMC3    C8 5044   0.508   1.054  12.423  0.1953 -0.2163  0.5112
  332TMC3    O1 5045   0.862   0.727  12.582 -0.2018  0.1189  0.6667
  332TMC3    O2 5046   0.465   1.170  12.437 -0.0360  0.2171  0.0769
  333MPD2     C 5047   0.581   2.105  10.839 -0.1801 -0.0202  0.3864
  333MPD2    C1 5048   0.670   2.019  10.767  0.5402  0.3110  0.3120
  333MPD2    C2 5049   0.632   1.884  10.769  0.3014  0.1237 -1.0563
  333MPD2    C3 5050   0.533   1.836  10.852  0.3103  0.2922  0.1645
  333MPD2    C4 5051   0.449   1.926  10.909  0.4940  0.2721  0.2873
  333MPD2    C5 5052   0.471   2.058  10.897  0.1687  0.4213 -0.6877
  333MPD2     H 5053   0.697   1.813  10.720  1.8828  0.6240  0.3054
  333MPD2    H1 5054   0.362   1.902  10.968 -1.0822  1.3263 -1.6023
  333MPD2    H2 5055   0.605   2.210  10.832 -0.1429  0.0537  1.7440
  333MPD2    H3 5056   0.408   2.124  10.957  1.0748  1.8307 -1.2809
  333MPD2     N 5057   0.518   1.697  10.867 -0.0305 -0.3132  0.1319
  333MPD2    H5 5058   0.576   1.639  10.807  1.5071 -0.5439  1.8366
  333MPD2    N1 5059   0.775   2.067  10.695 -0.3711  0.1571 -0.4365
  333MPD2    H7 5060   0.816   2.158  10.714  0.3537 -0.0292 -1.0892
  334TMC3    C1 5061   0.946   2.057  10.529  0.0898  0.5464  0.7022
  334TMC3    C2 5062   1.030   1.969  10.460  0.3558  0.6838  0.0820
  334TMC3    C3 5063   1.145   2.016  10.405  0.0967 -0.3376  0.2620
  334TMC3    C4 5064   0.977   2.194  10.556 -0.4984  0.3400  0.1051
  334TMC3    C5 5065   1.104   2.227  10.511 -0.5727 -0.0541  0.4250
  334TMC3    C6 5066   1.184   2.143  10.441  0.1935  0.5305  0.1074
  334TMC3     C 5067   0.837   1.995  10.590 -0.7642  0.2677 -0.3807
  334TMC3     O 5068   0.805   1.890  10.532 -0.4560 -0.0152  0.5468
  334TMC3     H 5069   1.018   1.863  10.477  0.3134  0.5958 -0.4992
  334TMC3    H1 5070   0.916   2.265  10.611 -1.5328  1.0993 -2.0368
  334TMC3    H2 5071   1.284   2.181  10.425  0.8113 -0.2434  2.0447
  334TMC3    C7 5072   1.146   2.369  10.507 -0.3540 -0.3096  0.6713
  334TMC3    C8 5073   1.241   1.916  10.359 -0.6658 -0.0747  0.3125
  334TMC3    O1 5074   1.266   2.394  10.499 -0.4978  0.0441 -0.4218
  334TMC3    O2 5075   1.217   1.793  10.380 -0.4745  0.0100 -0.0329
  335TMC3    C1 5076   0.591   3.674  16.975 -0.0514 -0.0249  0.1946
  335TMC3    C2 5077   0.474   3.680  16.916  0.0071  0.4772  0.1765
  335TMC3    C3 5078   0.436   3.808  16.867 -0.7134 -0.3834  0.2816
  335TMC3    C4 5079   0.660   3.785  17.001  0.5935 -0.9149  0.0467
  335TMC3    C5 5080   0.628   3.905  16.946 -0.4636 -0.1360 -0.8306
  335TMC3    C6 5081   0.509   3.926  16.876  0.4690  0.4577 -0.3790
  335TMC3     C 5082   0.664   3.557  16.937  0.7515 -0.4843  0.5037
  335TMC3     O 5083   0.599   3.460  16.907  0.2502  0.5029  0.1881
  335TMC3     H 5084   0.431   3.586  16.885 -2.6979  1.4528  0.9655
  335TMC3    H1 5085   0.750   3.778  17.062  1.2080  0.0887 -0.7434
  335TMC3    H2 5086   0.476   4.011  16.817  2.1932 -0.1204 -2.1711
  335TMC3    C7 5087   0.745   3.979  16.902 -0.3809 -0.2143  0.2922
  335TMC3    C8 5088   0.329   3.809  16.776 -0.3903  0.0964 -0.3739
  335TMC3    O1 5089   0.847   3.917  16.861  0.2242 -0.7314 -0.5987
  335TMC3    O2 5090   0.318   3.896  16.687 -0.1272  0.2350 -0.2251
  336MPD2     C 5091   0.266   1.733  16.135 -0.6644  0.2522  0.2345
  336MPD2    C1 5092   0.164   1.675  16.064  0.1542  0.0350  0.5275
  336MPD2    C2 5093   0.161   1.536  16.064 -0.2337 -0.2992  0.3846
  336MPD2    C3 5094   0.237   1.452  16.141  0.1989 -0.4483  0.3679
  336MPD2    C4 5095   0.344   1.514  16.202 -1.1012  0.1744 -0.2416
  336MPD2    C5 5096   0.359   1.653  16.204  1.0821  0.4183 -0.3832
  336MPD2     H 5097   0.089   1.488  15.999 -0.8267 -0.0809  0.8809
  336MPD2    H1 5098   0.415   1.462  16.264 -0.2528  2.0328  0.3356
  336MPD2    H2 5099   0.285   1.839  16.121  2.3575 -0.2378  0.7579
  336MPD2    H3 5100   0.440   1.697  16.261  1.0024  0.5982 -0.4090
  336MPD2     N 5101   0.219   1.308  16.149  0.3246  0.2642  0.4838
  336MPD2    H5 5102   0.293   1.256  16.194 -1.1371 -1.3059  1.0285
  336MPD2    N1 5103   0.060   1.748  15.996 -0.4245 -0.2009  0.5628
  336MPD2    H7 5104   0.003   1.696  15.932 -0.1034 -0.8361  0.7933
  337TMC3    C1 5105   4.680   1.933  15.927 -0.4230  0.3272  0.4550
  337TMC3    C2 5106   4.586   1.848  15.871  0.0115  0.0671 -0.2406
  337TMC3    C3 5107   4.532   1.892  15.755  0.0450 -0.6716  0.1692
  337TMC3    C4 5108   4.720   2.053  15.874  0.2137  0.2022  0.2168
  337TMC3    C5 5109   4.653   2.094  15.764  0.1820  0.2175 -0.7101
  337TMC3    C6 5110   4.565   2.015  15.697  0.0997  0.0938  0.4727
  337TMC3     C 5111   0.046   1.880  16.012 -0.1912  0.6967 -0.1919
  337TMC3     O 5112   0.095   1.952  16.099 -0.3919  0.2276  0.1873
  337TMC3     H 5113   4.563   1.753  15.917 -0.1479  0.7610  1.1427
  337TMC3    H1 5114   0.072   2.104  15.912  0.6522 -0.6923  0.4265
  337TMC3    H2 5115   4.502   2.062  15.622 -1.1879 -0.8237  0.9901
  337TMC3    C7 5116   4.690   2.221  15.707  0.0923  0.5243  0.0040
  337TMC3    C8 5117   4.392   1.862  15.731  0.0871 -0.1053  0.1228
  337TMC3    O1 5118   4.652   2.246  15.596 -0.2984 -0.0565  0.2126
  337TMC3    O2 5119   4.334   1.855  15.837  0.1699 -0.3042  0.1093
  338MPD2     C 5120   0.481   1.274   0.710 -0.5162 -0.4530 -0.1653
  338MPD2    C1 5121   0.426   1.223   0.592 -0.0316  0.4974  0.3205
  338MPD2    C2 5122   0.297   1.255   0.564  0.0703 -0.5934 -0.3461
  338MPD2    C3 5123   0.213   1.321   0.650  0.2528 -0.4205  0.1074
  338MPD2    C4 5124   0.266   1.357   0.778 -0.4797  0.3719 -0.0884
  338MPD2    C5 5125   0.399   1.331   0.806  0.4918  0.1007 -0.1173
  338MPD2     H 5126   0.268   1.216   0.467 -0.2010  1.3946 -1.0711
  338MPD2    H1 5127   0.208   1.423   0.841 -0.8519  0.5405 -0.5996
  338MPD2    H2 5128   0.584   1.262   0.741  0.0204  1.7516 -1.0437
  338MPD2    H3 5129   0.444   1.360   0.900  1.0190  1.1275 -0.6791
  338MPD2     N 5130   0.080   1.330   0.615  0.0089  0.9011  0.3599
  338MPD2    H5 5131   0.062   1.341   0.516  0.4510 -1.2190  0.0351
  338MPD2    N1 5132   0.506   1.158   0.491  0.3350 -0.3729 -0.7056
  338MPD2    H7 5133   0.460   1.144   0.402 -0.1738  3.4678 -1.0353
  339TMC3    C1 5134   4.585   1.348   0.628  0.0145  0.0152  0.6835
  339TMC3    C2 5135   4.480   1.264   0.651 -0.2217 -0.2813 -0.5890
  339TMC3    C3 5136   4.384   1.250   0.549  0.1525  0.3654  0.5902
  339TMC3    C4 5137   4.597   1.421   0.512  0.3006 -0.0675 -0.1842
  339TMC3    C5 5138   4.505   1.409   0.422 -0.4267  0.4879 -0.3600
  339TMC3    C6 5139   4.402   1.327   0.434  0.0515 -0.0590 -0.0085
  339TMC3     C 5140   4.708   1.330   0.702 -0.0391 -0.8051 -0.3667
  339TMC3     O 5141   4.715   1.283   0.817  0.1758 -0.1561  0.0000
  339TMC3     H 5142   4.462   1.229   0.752  3.4561  0.0604  0.1546
  339TMC3    H1 5143   4.674   1.495   0.497  0.7577 -1.0097 -2.4625
  339TMC3    H2 5144   4.329   1.314   0.355 -0.0035  0.3864 -0.0348
  339TMC3    C7 5145   4.545   1.455   0.291 -0.6424  0.1391  0.3764
  339TMC3    C8 5146   4.274   1.156   0.561  0.2028  0.4472 -0.7027
  339TMC3    O1 5147   4.605   1.559   0.282  0.1871 -0.5962 -0.2849
  339TMC3    O2 5148   4.189   1.151   0.474 -0.2804  0.7403 -0.1242
  340MPD2     C 5149   0.301   3.475  10.018 -0.0625  0.3761 -0.1229
  340MPD2    C1 5150   0.337   3.444   9.894  0.5932 -0.5134  0.1099
  340MPD2    C2 5151   0.359   3.552   9.810 -0.3232  0.0859 -0.2816
  340MPD2    C3 5152   0.335   3.681   9.853  0.3217 -0.0679  0.4782
  340MPD2    C4 5153   0.284   3.706   9.981 -0.4677 -0.6048 -0.3570
  340MPD2    C5 5154   0.266   3.600  10.065 -0.1142 -0.0527 -0.0656
  340MPD2     H 5155   0.390   3.528   9.709  2.5959 -2.8332  1.3248
  340MPD2    H1 5156   0.254   3.805  10.011  0.5050 -0.0978 -1.0600
  340MPD2    H2 5157   0.302   3.393  10.089  0.8558 -0.1425 -0.7253
  340MPD2    H3 5158   0.228   3.611  10.166  0.4977  2.9453 -0.1585
  340MPD2     N 5159   0.352   3.796   9.772 -0.0638 -0.1984 -0.8103
  340MPD2    H5 5160   0.348   3.886   9.819  0.7684 -0.2653 -0.6090
  340MPD2    N1 5161   0.375   3.307   9.867 -0.3958 -0.1741 -0.4249
  340MPD2    H7 5162   0.380   3.235   9.939 -0.6830  2.0461  1.8426
  341TMC3    C1 5163   0.456   3.122   9.749 -0.2173  0.1598  0.7428
  341TMC3    C2 5164   0.348   3.042   9.736 -0.1176 -0.3582 -0.6020
  341TMC3    C3 5165   0.361   2.921   9.678 -0.6756  0.7196  0.3880
  341TMC3    C4 5166   0.583   3.082   9.722  0.1740 -0.7599  0.1294
  341TMC3    C5 5167   0.603   2.954   9.682  0.4060 -0.3569  0.4145
  341TMC3    C6 5168   0.492   2.877   9.652 -0.7597 -0.0221 -0.5808
  341TMC3     C 5169   0.433   3.267   9.742  0.1374 -0.4059  0.2279
  341TMC3     O 5170   0.486   3.329   9.652 -0.4019 -0.1403  0.0498
  341TMC3     H 5171   0.252   3.073   9.776  0.0652 -1.1720  0.4536
  341TMC3    H1 5172   0.665   3.152   9.736  0.9654 -2.0261  1.7699
  341TMC3    H2 5173   0.498   2.790   9.588 -0.9203 -2.5957  2.9222
  341TMC3    C7 5174   0.742   2.917   9.634 -0.6204 -0.1712 -0.3854
  341TMC3    C8 5175   0.240   2.838   9.661 -0.3587 -0.0413 -0.5301
  341TMC3    O1 5176   0.814   3.015   9.619 -0.5757 -0.3608  0.2634
  341TMC3    O2 5177   0.252   2.714   9.657 -0.1791  0.1559 -0.6467
  342MPD2     C 5178   2.880   1.927  17.294 -0.2897  0.2221 -0.3867
  342MPD2    C1 5179   3.005   1.926  17.239  0.3921 -0.1730  0.0249
  342MPD2    C2 5180   3.074   2.047  17.250 -0.0231  0.0820 -0.2902
  342MPD2    C3 5181   3.023   2.157  17.318 -0.0908  0.0362 -0.5838
  342MPD2    C4 5182   2.908   2.144  17.388  0.6852  0.2987 -0.6476
  342MPD2    C5 5183   2.841   2.026  17.374  0.2589  0.1590  0.2919
  342MPD2     H 5184   3.175   2.059  17.210  1.0024 -1.1857  1.9229
  342MPD2    H1 5185   2.872   2.230  17.443  2.0782  0.4030  0.1108
  342MPD2    H2 5186   2.814   1.841  17.295 -1.3852  1.0867  0.7283
  342MPD2    H3 5187   2.746   2.003  17.419  0.0685  0.3424 -0.0140
  342MPD2     N 5188   3.082   2.289  17.313  0.5839 -0.2415  1.0597
  342MPD2    H5 5189   3.048   2.358  17.379 -0.9735  1.0746 -1.1391
  342MPD2    N1 5190   3.072   1.819  17.172  0.0707 -0.1140 -0.1942
  342MPD2    H7 5191   3.160   1.845  17.129 -0.4606  1.6037 -0.2462
  343TMC3    C1 5192   3.098   1.604  17.070 -0.0504  0.3879 -0.0699
  343TMC3    C2 5193   3.144   1.653  16.949 -0.3209 -0.4482 -0.0833
  343TMC3    C3 5194   3.197   1.565  16.861  0.1392  0.2688  0.1314
  343TMC3    C4 5195   3.099   1.474  17.099 -0.3788  0.2658 -0.0371
  343TMC3    C5 5196   3.152   1.388  17.008 -0.3370 -0.0335 -0.3094
  343TMC3    C6 5197   3.184   1.428  16.879 -0.4546  0.1430  0.0723
  343TMC3     C 5198   3.032   1.690  17.165 -0.7281 -0.5067 -0.4124
  343TMC3     O 5199   2.936   1.652  17.233  0.3300 -0.2139  0.1756
  343TMC3     H 5200   3.146   1.759  16.927 -0.6623 -0.7433 -1.5094
  343TMC3    H1 5201   3.066   1.435  17.195  0.8977 -3.6024 -1.1468
  343TMC3    H2 5202   3.208   1.352  16.806  3.2613  1.3565  0.0284
  343TMC3    C7 5203   3.121   1.252  17.037  0.1035  0.2533 -0.7690
  343TMC3    C8 5204   3.282   1.619  16.754  0.2764 -0.8817 -0.2920
  343TMC3    O1 5205   3.158   1.214  17.150 -0.3007  0.0416  0.7021
  343TMC3    O2 5206   3.321   1.734  16.764 -0.0254 -0.4062  0.1476
  344MPD2     C 5207   4.182   0.876  10.787 -0.2699  0.3544  0.0750
  344MPD2    C1 5208   4.068   0.877  10.699  0.0297 -0.6241  0.4769
  344MPD2    C2 5209   4.091   0.944  10.577  0.0409 -0.4354  0.2380
  344MPD2    C3 5210   4.216   0.996  10.545  0.4177  0.0788 -0.0085
  344MPD2    C4 5211   4.320   0.985  10.636  0.1002  1.1322 -0.2016
  344MPD2    C5 5212   4.303   0.930  10.756 -0.3557 -0.1204  0.0758
  344MPD2     H 5213   4.009   0.944  10.506  0.4562 -2.0983 -0.2289
  344MPD2    H1 5214   4.419   1.028  10.623 -0.1911  2.4127  1.7839
  344MPD2    H2 5215   4.176   0.850  10.892  0.2238  0.0977  0.0348
  344MPD2    H3 5216   4.381   0.931  10.831 -0.9215 -0.8213  0.6762
  344MPD2     N 5217   4.233   1.077  10.425  0.5217 -0.7594 -0.2821
  344MPD2    H5 5218   4.329   1.103  10.406  0.5215 -0.3740  0.2493
  344MPD2    N1 5219   3.946   0.820  10.742 -0.6719 -0.6610  0.6540
  344MPD2    H7 5220   3.935   0.790  10.838 -0.4768 -0.7957  0.6334
  345TMC3    C1 5221   4.205   1.173  10.219 -0.2554  0.3845 -0.0378
  345TMC3    C2 5222   4.301   1.269  10.245  0.1882  0.0169 -0.4178
  345TMC3    C3 5223   4.326   1.378  10.158 -0.3980 -0.2242 -0.1869
  345TMC3    C4 5224   4.145   1.166  10.094 -0.0442  0.1236 -0.2729
  345TMC3    C5 5225   4.176   1.273  10.009  0.3695 -0.1549 -0.0089
  345TMC3    C6 5226   4.267   1.377  10.035  0.7008 -0.2464 -0.3007
  345TMC3     C 5227   4.142   1.096  10.325 -0.5842  0.0727 -0.4139
  345TMC3     O 5228   4.025   1.061  10.302 -0.4944  0.2257  0.4787
  345TMC3     H 5229   4.337   1.278  10.347 -0.2622 -0.3038 -0.2280
  345TMC3    H1 5230   4.080   1.086  10.062 -0.2967  0.7328 -1.2734
  345TMC3    H2 5231   4.266   1.465   9.970  0.3398  0.6038  0.8585
  345TMC3    C7 5232   4.089   1.304   9.900 -0.6109  0.9794  0.1571
  345TMC3    C8 5233   4.388   1.501  10.201 -0.1611 -0.3361  0.3422
  345TMC3    O1 5234   4.146   1.354   9.803 -0.0191  0.4730  0.4859
  345TMC3    O2 5235   4.360   1.596  10.132  0.2910 -0.3388  0.0385
  346MPD2     C 5236   4.016   2.787  13.493 -0.2338  0.1168  0.5436
  346MPD2    C1 5237   4.114   2.879  13.467 -0.5246 -0.2590 -0.5425
  346MPD2    C2 5238   4.130   2.981  13.561  0.5660  0.7499 -0.4912
  346MPD2    C3 5239   4.057   2.984  13.680 -0.0480 -0.5889 -0.1056
  346MPD2    C4 5240   3.957   2.893  13.700 -0.1907  0.8052 -0.1422
  346MPD2    C5 5241   3.943   2.795  13.608  0.4056  1.4379  0.5318
  346MPD2     H 5242   4.219   3.042  13.548  0.4405  1.1948  0.6562
  346MPD2    H1 5243   3.893   2.895  13.788  2.4323 -2.3840  1.8122
  346MPD2    H2 5244   3.989   2.704  13.429  2.2803  0.4476 -0.9352
  346MPD2    H3 5245   3.852   2.736  13.617  0.3930  1.3757 -0.0196
  346MPD2     N 5246   4.080   3.090  13.768 -0.6073  0.1683 -0.0172
  346MPD2    H5 5247   4.159   3.149  13.745 -0.4888  0.6189  1.5729
  346MPD2    N1 5248   4.187   2.899  13.345 -0.2596 -0.2463 -0.1845
  346MPD2    H7 5249   4.248   2.979  13.350 -1.3956  0.5919  0.2900
  347TMC3    C1 5250   4.089   3.198  13.971 -0.1852  0.2248 -0.6449
  347TMC3    C2 5251   4.224   3.186  13.971  0.9227  0.1893  0.5892
  347TMC3    C3 5252   4.291   3.217  14.088 -0.6042 -0.4840  0.2544
  347TMC3    C4 5253   4.020   3.243  14.082  0.4447 -0.1640 -0.2914
  347TMC3    C5 5254   4.086   3.280  14.195 -0.6828 -0.2428  0.3157
  347TMC3    C6 5255   4.221   3.265  14.198 -0.8939  0.2504 -0.7361
  347TMC3     C 5256   4.013   3.108  13.889 -0.0533 -0.8495 -0.8778
  347TMC3     O 5257   3.902   3.063  13.921 -0.5942  0.3545 -0.3913
  347TMC3     H 5258   4.277   3.157  13.880  0.7701  0.1212  0.5224
  347TMC3    H1 5259   3.913   3.257  14.075  0.5854  0.9914 -0.2545
  347TMC3    H2 5260   4.270   3.303  14.286  1.2283 -0.6510 -1.5385
  347TMC3    C7 5261   4.020   3.367  14.292 -0.0412  0.7139  0.1899
  347TMC3    C8 5262   4.432   3.184  14.080 -0.5254 -0.0277 -0.1827
  347TMC3    O1 5263   3.900   3.379  14.270 -0.4559  0.0046 -0.3765
  347TMC3    O2 5264   4.467   3.103  13.991  0.5477  0.0342  0.4854
  348MPD2     C 5265   2.540   1.909  11.636  0.5539 -0.2638  0.3779
  348MPD2    C1 5266   2.664   1.969  11.616  0.3135  0.2445  0.3002
  348MPD2    C2 5267   2.690   2.033  11.501  0.7458  0.1514 -1.0813
  348MPD2    C3 5268   2.591   2.052  11.403  0.4521 -0.3630 -0.5230
  348MPD2    C4 5269   2.468   2.010  11.424 -0.1624 -0.4775  0.1402
  348MPD2    C5 5270   2.441   1.933  11.543  0.1335  0.0746  0.9747
  348MPD2     H 5271   2.788   2.079  11.495  0.2830  1.2426 -0.1891
  348MPD2    H1 5272   2.383   2.024  11.359  0.0346  0.0984  0.0113
  348MPD2    H2 5273   2.512   1.841  11.715 -2.8721 -1.0110 -1.4841
  348MPD2    H3 5274   2.340   1.896  11.557 -0.6849  1.9904  0.2213
  348MPD2     N 5275   2.626   2.141  11.295  0.5585 -0.2769 -0.1427
  348MPD2    H5 5276   2.720   2.175  11.283  0.6143 -0.6234 -0.7050
  348MPD2    N1 5277   2.769   1.968  11.714  0.1982  0.1094  0.1461
  348MPD2    H7 5278   2.853   2.017  11.685 -0.3069  0.8267 -0.0913
  349TMC3    C1 5279   2.888   1.964  11.903 -0.1321  0.8183 -0.3871
  349TMC3    C2 5280   2.969   1.875  11.967  0.5829 -0.5168 -0.9058
  349TMC3    C3 5281   3.091   1.928  12.000 -0.5113  0.1600  0.3458
  349TMC3    C4 5282   2.921   2.094  11.883  0.4434  0.1687 -0.3066
  349TMC3    C5 5283   3.040   2.139  11.916 -0.2558 -0.2385  0.1316
  349TMC3    C6 5284   3.131   2.055  11.976  0.8932  0.2211  0.4434
  349TMC3     C 5285   2.769   1.910  11.840  0.8941 -0.7604  0.8537
  349TMC3     O 5286   2.684   1.838  11.892  0.3725  0.1131  0.7064
  349TMC3     H 5287   2.927   1.776  11.978 -0.4875 -0.3398 -3.3813
  349TMC3    H1 5288   2.845   2.154  11.835 -1.3208 -0.5312  1.6188
  349TMC3    H2 5289   3.225   2.090  12.016  2.1708  1.1936 -3.3970
  349TMC3    C7 5290   3.091   2.231  11.815  0.2430 -0.0259 -0.1222
  349TMC3    C8 5291   3.198   1.840  12.043 -0.3686  0.0793 -0.0973
  349TMC3    O1 5292   3.021   2.253  11.716 -0.5746  0.0217  0.1095
  349TMC3    O2 5293   3.282   1.896  12.115  0.3364  0.1847 -0.0424
  350MPD2     C 5294   1.896   0.706   9.739  0.4623 -0.0647  0.0364
  350MPD2    C1 5295   1.953   0.578   9.750  0.1696  0.2144  1.2108
  350MPD2    C2 5296   2.080   0.572   9.789  0.2898  0.0511  0.2100
  350MPD2    C3 5297   2.145   0.682   9.838 -0.4401  0.0521  0.1689
  350MPD2    C4 5298   2.096   0.803   9.837  0.4746 -0.2872  0.1684
  350MPD2    C5 5299   1.972   0.818   9.781 -0.5949  0.0436  0.3305
  350MPD2     H 5300   2.125   0.474   9.785  0.7831  0.2458  0.9733
  350MPD2    H1 5301   2.135   0.895   9.880  2.7258 -1.1101 -0.1641
  350MPD2    H2 5302   1.796   0.721   9.701  0.6306 -1.1607 -0.8312
  350MPD2    H3 5303   1.919   0.912   9.771 -0.5008  0.0997  0.3527
  350MPD2     N 5304   2.271   0.644   9.901 -0.3343 -0.0943 -0.9467
  350MPD2    H5 5305   2.290   0.545   9.900  0.1716  0.0057 -1.8032
  350MPD2    N1 5306   1.891   0.460   9.711 -0.1113 -0.3223  0.2048
  350MPD2    H7 5307   1.955   0.385   9.687  0.6934  0.2388  0.5646
  351TMC3    C1 5308   1.739   0.305   9.633  0.0961 -0.2859 -0.2633
  351TMC3    C2 5309   1.845   0.251   9.560 -0.7205  0.4576  0.1935
  351TMC3    C3 5310   1.819   0.127   9.505 -0.0528 -0.3503 -0.3213
  351TMC3    C4 5311   1.633   0.243   9.667  0.2743 -1.5174  0.0087
  351TMC3    C5 5312   1.624   0.111   9.623 -0.2201  0.5017 -0.3496
  351TMC3    C6 5313   1.711   0.056   9.537 -0.5521 -0.4031  0.3736
  351TMC3     C 5314   1.760   0.441   9.671 -0.2645 -0.5572 -0.3046
  351TMC3     O 5315   1.662   0.512   9.692  0.4170  0.1446  0.0361
  351TMC3     H 5316   1.925   0.311   9.518  0.6835 -1.4048  0.1975
  351TMC3    H1 5317   1.544   0.294   9.701  0.6178 -0.5872 -0.4857
  351TMC3    H2 5318   1.700   4.689   9.503  2.1965 -0.3566 -0.6341
  351TMC3    C7 5319   1.497   0.043   9.646 -0.7454  0.9493 -0.0501
  351TMC3    C8 5320   1.930   0.037   9.477 -0.1350 -0.1888  0.6111
  351TMC3    O1 5321   1.465   4.696   9.564 -0.5191 -0.9014 -0.0645
  351TMC3    O2 5322   1.906   4.660   9.435  0.5429  0.5153  0.2034
  352MPD2     C 5323   1.178   3.358   0.446 -0.6297 -0.1213 -0.3255
  352MPD2    C1 5324   1.058   3.291   0.469 -0.1467  0.5349  0.1397
  352MPD2    C2 5325   1.056   3.157   0.465 -0.2517  0.6901 -0.0941
  352MPD2    C3 5326   1.168   3.079   0.430  0.1455  0.6991  0.4386
  352MPD2    C4 5327   1.291   3.144   0.429  0.6894 -0.8034  0.1208
  352MPD2    C5 5328   1.299   3.281   0.438 -0.4617  0.0453  0.6448
  352MPD2     H 5329   0.962   3.110   0.493 -0.5338  2.0878  1.3204
  352MPD2    H1 5330   1.385   3.091   0.430  1.6116  0.8268 -0.1463
  352MPD2    H2 5331   1.183   3.464   0.465 -0.9068  0.4202 -3.3596
  352MPD2    H3 5332   1.395   3.332   0.439 -1.5453  2.1410 -3.4295
  352MPD2     N 5333   1.170   2.934   0.419 -0.0018 -0.4761 -0.1409
  352MPD2    H5 5334   1.260   2.893   0.399  0.1466 -0.2382  0.0447
  352MPD2    N1 5335   0.932   3.348   0.500  0.3764  0.0926 -0.0541
  352MPD2    H7 5336   0.851   3.292   0.525  1.7647 -0.9430  2.0863
  353TMC3    C1 5337   1.061   2.710   0.452  0.3767 -0.5988 -0.2689
  353TMC3    C2 5338   1.187   2.657   0.480  0.6633  0.1366 -0.2529
  353TMC3    C3 5339   1.180   2.532   0.534 -0.3071  0.3896 -0.5371
  353TMC3    C4 5340   0.944   2.644   0.463 -0.3886 -0.3544 -0.5470
  353TMC3    C5 5341   0.952   2.514   0.504  0.4153  0.3519  0.0736
  353TMC3    C6 5342   1.066   2.459   0.548  0.1693  0.2104 -0.4420
  353TMC3     C 5343   1.054   2.857   0.425 -0.5582 -0.4829 -0.3471
  353TMC3     O 5344   0.938   2.891   0.408  0.0104 -0.0597  0.7506
  353TMC3     H 5345   1.281   2.709   0.481  0.0023  1.3117  0.6194
  353TMC3    H1 5346   0.853   2.678   0.416 -0.9772 -0.3870  0.5672
  353TMC3    H2 5347   1.072   2.361   0.594 -1.9581  0.8101  1.0551
  353TMC3    C7 5348   0.831   2.435   0.509  0.1489 -0.0825  0.0341
  353TMC3    C8 5349   1.306   2.475   0.561 -0.8895 -0.1113  0.5041
  353TMC3    O1 5350   0.834   2.313   0.496 -0.3318  0.1679  0.1853
  353TMC3    O2 5351   1.395   2.552   0.600 -0.3406  0.0208 -0.1134
  354TMC3    C1 5352   1.805   3.716  13.155 -0.0628  0.3449 -0.6498
  354TMC3    C2 5353   1.789   3.829  13.079 -0.2838  0.1456 -0.1610
  354TMC3    C3 5354   1.870   3.838  12.968 -0.0973  0.8520  0.5140
  354TMC3    C4 5355   1.889   3.609  13.117 -0.1359  0.0473 -0.4483
  354TMC3    C5 5356   1.976   3.634  13.024 -0.0460 -0.2132  0.1723
  354TMC3    C6 5357   1.964   3.744  12.942 -0.0098  0.9437 -0.3828
  354TMC3     C 5358   1.725   3.694  13.272 -0.9474  0.6062  0.5499
  354TMC3     O 5359   1.714   3.579  13.315 -0.1271 -0.1360 -0.8583
  354TMC3     H 5360   1.723   3.911  13.104 -1.5744 -0.8925 -0.2142
  354TMC3    H1 5361   1.910   3.535  13.193  2.2936  0.1329 -1.0400
  354TMC3    H2 5362   2.028   3.764  12.856  0.0162 -1.8445 -1.0112
  354TMC3    C7 5363   2.088   3.548  13.001 -0.2836  0.4025 -0.0170
  354TMC3    C8 5364   1.880   3.961  12.894  0.2153  0.2804  0.1948
  354TMC3    O1 5365   2.081   3.436  13.047  0.2528 -0.3283 -0.3738
  354TMC3    O2 5366   1.959   3.949  12.801  0.3170  0.4634  0.1558
  355MPD2     C 5367   2.145   4.534  11.484 -0.8650 -0.1863  0.2561
  355MPD2    C1 5368   2.227   4.569  11.375  0.2768  0.3761  0.2866
  355MPD2    C2 5369   2.365   4.571  11.391  0.1178 -0.2144 -0.7059
  355MPD2    C3 5370   2.420   4.546  11.513  0.4760  0.0239  0.4127
  355MPD2    C4 5371   2.344   4.509  11.617  0.3932  0.3845 -0.1610
  355MPD2    C5 5372   2.208   4.511  11.604 -0.8841  0.7059 -0.4822
  355MPD2     H 5373   2.431   4.604  11.311  1.0384  0.4024  0.3057
  355MPD2    H1 5374   2.384   4.469  11.709 -2.5560 -1.9162  0.1120
  355MPD2    H2 5375   2.039   4.514  11.487 -1.0135  0.1681 -2.8547
  355MPD2    H3 5376   2.149   4.488  11.693 -1.2959  1.8002 -0.4584
  355MPD2     N 5377   2.564   4.551  11.531 -0.6510  0.1975  0.3107
  355MPD2    H5 5378   2.592   4.532  11.627 -0.5842 -0.8270  0.0864
  355MPD2    N1 5379   2.154   4.591  11.261  0.0118  0.5091 -0.6406
  355MPD2    H7 5380   2.053   4.589  11.267  0.1580 -1.6280  0.7842
  356TMC3    C1 5381   2.799   4.614  11.502  0.0255  0.4066  0.6566
  356TMC3    C2 5382   2.890   4.671  11.424 -0.3017  0.6912  0.6822
  356TMC3    C3 5383   2.982   0.028  11.469 -0.3434  0.4362  0.1044
  356TMC3    C4 5384   2.805   4.629  11.633 -0.4346  0.2107  0.3825
  356TMC3    C5 5385   2.905   4.718  11.681 -0.1743 -0.1821 -0.1799
  356TMC3    C6 5386   2.991   0.057  11.604 -0.1973  0.2206 -0.9606
  356TMC3     C 5387   2.668   4.594  11.440  1.5296  0.1461  0.1086
  356TMC3     O 5388   2.666   4.598  11.318 -0.5425  0.6154 -0.0715
  356TMC3     H 5389   2.883   4.647  11.318 -0.7906  2.1474  0.3731
  356TMC3    H1 5390   2.734   4.581  11.700 -1.0294  1.5753  0.7130
  356TMC3    H2 5391   3.063   0.128  11.643 -0.7932  0.8049 -0.9298
  356TMC3    C7 5392   2.879   0.027  11.815  0.1646  0.0350 -0.7433
  356TMC3    C8 5393   3.059   0.111  11.377 -0.4410 -0.0137  0.7618
  356TMC3    O1 5394   2.773   4.730  11.868  0.1026 -0.7722 -0.4837
  356TMC3    O2 5395   3.044   0.083  11.259 -0.2055  0.1684  0.0796
  357MPD2     C 5396   1.522   0.174   0.339  0.7261 -0.3913 -0.7018
  357MPD2    C1 5397   1.655   0.186   0.370 -0.0935  0.2594 -0.3759
  357MPD2    C2 5398   1.694   0.150   0.498 -0.3924 -0.1041 -0.3437
  357MPD2    C3 5399   1.605   0.083   0.581  0.2001 -0.4288 -0.2934
  357MPD2    C4 5400   1.475   0.061   0.542  0.2738 -0.0334 -0.2659
  357MPD2    C5 5401   1.426   0.113   0.427 -0.5970 -0.8766 -0.6658
  357MPD2     H 5402   1.797   0.172   0.523  0.3137 -2.5333 -1.1077
  357MPD2    H1 5403   1.402   0.006   0.600  0.1159  0.4446 -0.0129
  357MPD2    H2 5404   1.486   0.221   0.249 -1.0060  1.1230  0.8008
  357MPD2    H3 5405   1.321   0.118   0.400 -0.4313 -1.7460 -1.4779
  357MPD2     N 5406   1.636   0.031   0.707  0.0129 -0.1378  0.3351
  357MPD2    H5 5407   1.580   4.689   0.742  1.3949 -1.7536 -0.9402
  357MPD2    N1 5408   1.734   0.260   0.277  0.6057  0.5785 -0.5135
  357MPD2    H7 5409   1.684   0.312   0.205  0.1313 -0.4465 -0.9119
  358TMC3    C1 5410   1.941   0.157   0.335  0.0421 -0.6917 -0.0298
  358TMC3    C2 5411   1.914   0.039   0.268  0.4083 -1.4145  0.1361
  358TMC3    C3 5412   1.978   4.661   0.315 -0.1536 -0.0620 -0.4144
  358TMC3    C4 5413   2.036   0.158   0.433 -0.3377 -0.4641 -0.9678
  358TMC3    C5 5414   2.100   0.046   0.476  0.0447  0.0308  0.0787
  358TMC3    C6 5415   2.066   4.660   0.421  0.1221  0.2125  0.2138
  358TMC3     C 5416   1.871   0.275   0.285  0.1605  0.1912 -0.1030
  358TMC3     O 5417   1.936   0.353   0.223 -0.3385  0.0709  0.1782
  358TMC3     H 5418   1.849   0.040   0.181 -1.4474  0.0162  1.5499
  358TMC3    H1 5419   2.054   0.248   0.491  0.0994 -2.1365  1.5172
  358TMC3    H2 5420   2.079   4.575   0.486  0.7476 -0.0175 -0.2074
  358TMC3    C7 5421   2.192   0.063   0.597  0.0510 -0.0723 -0.8734
  358TMC3    C8 5422   1.944   4.535   0.250 -0.0142  0.4232  0.7011
  358TMC3    O1 5423   2.192   0.167   0.660  0.4625 -0.3378 -0.1127
  358TMC3    O2 5424   1.836   4.533   0.190  0.3627  0.0871 -0.4016
  359MPD2     C 5425   2.525   2.260  12.064 -0.5224  0.4774  0.4070
  359MPD2    C1 5426   2.466   2.357  11.979  0.0327 -0.4542 -0.2199
  359MPD2    C2 5427   2.331   2.374  11.981  0.1475 -0.0228 -0.1510
  359MPD2    C3 5428   2.249   2.296  12.058  0.2459 -0.5125 -0.5530
  359MPD2    C4 5429   2.299   2.200  12.145 -0.3352  0.0045 -0.5900
  359MPD2    C5 5430   2.437   2.189  12.142  1.0935 -0.4287 -0.2832
  359MPD2     H 5431   2.291   2.452  11.917 -1.2359 -2.3774 -2.1147
  359MPD2    H1 5432   2.239   2.126  12.199  0.8111 -0.6307 -0.1936
  359MPD2    H2 5433   2.632   2.243  12.074 -1.0950 -1.5578  3.1912
  359MPD2    H3 5434   2.482   2.102  12.189  5.7989  1.6824 -0.9681
  359MPD2     N 5435   2.112   2.295  12.046 -0.2851  0.3813 -0.5128
  359MPD2    H5 5436   2.069   2.219  12.098 -2.9376  1.3964 -1.2122
  359MPD2    N1 5437   2.540   2.425  11.879 -0.0691  0.3557 -0.0075
  359MPD2    H7 5438   2.489   2.484  11.814  0.7568  1.8175  0.6505
  360TMC3    C1 5439   2.742   2.494  11.769 -0.6526  0.0437 -0.2375
  360TMC3    C2 5440   2.867   2.522  11.801 -0.3905  0.3947 -0.0535
  360TMC3    C3 5441   2.940   2.593  11.705  0.4698 -0.1263 -0.2377
  360TMC3    C4 5442   2.688   2.506  11.646  0.2637 -0.8789  0.3044
  360TMC3    C5 5443   2.762   2.565  11.547  0.2673  0.5785 -0.1881
  360TMC3    C6 5444   2.883   2.621  11.581  0.4031  0.4094  0.4109
  360TMC3     C 5445   2.678   2.416  11.875 -0.6509 -0.0245  0.4212
  360TMC3     O 5446   2.752   2.353  11.945 -0.0647 -0.0833 -0.7205
  360TMC3     H 5447   2.891   2.523  11.907  2.1614 -1.5200 -0.6128
  360TMC3    H1 5448   2.586   2.470  11.642 -0.3999  1.0580 -0.1436
  360TMC3    H2 5449   2.926   2.689  11.508 -3.9369  1.3719 -1.3071
  360TMC3    C7 5450   2.697   2.600  11.427  0.0917 -0.0967 -0.6142
  360TMC3    C8 5451   3.050   2.675  11.747  0.5722  0.1232 -0.6328
  360TMC3    O1 5452   2.747   2.674  11.348  0.2449  0.1278  0.3856
  360TMC3    O2 5453   3.060   2.683  11.872 -0.5060 -0.5081 -0.0638
  361MPD2     C 5454   4.163   2.795  16.757  0.5536 -0.8987  0.3474
  361MPD2    C1 5455   4.125   2.678  16.696  0.8669 -0.5450 -0.1106
  361MPD2    C2 5456   4.209   2.568  16.698 -0.7887 -0.5096 -0.4627
  361MPD2    C3 5457   4.334   2.572  16.770  0.6583  0.5903 -0.3858
  361MPD2    C4 5458   4.364   2.685  16.839 -0.7052  0.0531  0.2914
  361MPD2    C5 5459   4.281   2.791  16.830  0.4612 -0.6727  0.7364
  361MPD2     H 5460   4.176   2.481  16.642 -1.8681  0.0686 -0.7201
  361MPD2    H1 5461   4.455   2.703  16.894  1.0219 -2.4465 -1.7671
  361MPD2    H2 5462   4.111   2.889  16.747  1.9530 -0.4030 -2.3936
  361MPD2    H3 5463   4.317   2.882  16.878  1.6244 -1.6881  1.7904
  361MPD2     N 5464   4.434   2.470  16.780  0.0499 -0.1085  0.2553
  361MPD2    H5 5465   4.520   2.501  16.825  0.4348 -0.1198 -0.4792
  361MPD2    N1 5466   4.015   2.675  16.612  0.2083 -0.4556 -0.0893
  361MPD2    H7 5467   4.012   2.602  16.541 -0.6947 -1.1742  0.6884
  362TMC3    C1 5468   3.793   2.688  16.560  0.6348 -0.2026  0.1252
  362TMC3    C2 5469   3.679   2.677  16.627 -0.2787  0.6254  0.1384
  362TMC3    C3 5470   3.568   2.653  16.549  0.1058  0.2360 -0.4541
  362TMC3    C4 5471   3.812   2.666  16.427 -0.0215  0.5214 -0.9611
  362TMC3    C5 5472   3.702   2.647  16.353 -0.2874 -0.0912 -0.2606
  362TMC3    C6 5473   3.579   2.635  16.413  0.5986 -0.4692 -0.1417
  362TMC3     C 5474   3.899   2.750  16.633 -0.5819 -0.2350  0.3046
  362TMC3     O 5475   3.874   2.827  16.725 -0.3579 -0.2516  1.2502
  362TMC3     H 5476   3.675   2.684  16.735  3.0380  2.9879  0.1004
  362TMC3    H1 5477   3.903   2.701  16.381  3.0980 -0.9779  4.0763
  362TMC3    H2 5478   3.501   2.602  16.344  0.2268 -1.1831  0.6127
  362TMC3    C7 5479   3.703   2.702  16.223  0.4653  0.0072  1.1612
  362TMC3    C8 5480   3.422   2.653  16.591  0.4641  0.2637 -0.3090
  362TMC3    O1 5481   3.610   2.781  16.206 -0.1809  0.1761 -0.2303
  362TMC3    O2 5482   3.339   2.622  16.504  0.3933  0.0789 -0.1416
  363TMC3    C1 5483   3.118   0.137   8.974  0.7020  0.7110  0.3057
  363TMC3    C2 5484   3.129   0.085   9.096 -0.0867  0.1017 -0.0155
  363TMC3    C3 5485   3.098   0.169   9.202  0.8714 -0.1356 -0.4318
  363TMC3    C4 5486   3.081   0.266   8.949 -0.9307 -0.0559 -0.3107
  363TMC3    C5 5487   3.070   0.352   9.052 -0.2698 -0.0478 -0.0648
  363TMC3    C6 5488   3.070   0.307   9.185  0.0308  0.2545 -0.3461
  363TMC3     C 5489   3.120   0.054   8.853  0.0993  0.2590 -0.3539
  363TMC3     O 5490   3.147   0.107   8.745  0.0891  0.2616 -0.0665
  363TMC3     H 5491   3.177   4.725   9.118  0.2125  0.3591  0.4585
  363TMC3    H1 5492   3.066   0.302   8.847  1.8986 -0.9589 -1.0305
  363TMC3    H2 5493   3.034   0.370   9.267 -1.1004 -0.1309 -0.5507
  363TMC3    C7 5494   3.000   0.477   9.032 -0.1739  0.2059  0.7551
  363TMC3    C8 5495   3.124   0.120   9.341 -0.1448 -0.6324 -0.1715
  363TMC3    O1 5496   2.930   0.475   8.935 -0.3859 -0.0727  0.1713
  363TMC3    O2 5497   3.130   0.203   9.433 -0.3020  0.4673 -0.0373
  364MPD2     C 5498   1.718   4.257   9.983 -0.4592  0.5449  0.8922
  364MPD2    C1 5499   1.659   4.315  10.096  0.2828  0.3993 -0.2340
  364MPD2    C2 5500   1.623   4.236  10.204  0.3391 -0.5338  0.0304
  364MPD2    C3 5501   1.642   4.099  10.206  0.7204  0.5381 -0.6262
  364MPD2    C4 5502   1.696   4.042  10.097  0.9889  0.7732  0.1709
  364MPD2    C5 5503   1.734   4.119   9.987  0.4229 -0.6200  0.0791
  364MPD2     H 5504   1.575   4.284  10.289  1.4196 -0.1343  0.4180
  364MPD2    H1 5505   1.714   3.936  10.086 -0.9883  0.5896 -1.3236
  364MPD2    H2 5506   1.743   4.317   9.896 -0.5439  0.5867  0.8965
  364MPD2    H3 5507   1.781   4.070   9.902 -0.9205 -1.4332 -0.1888
  364MPD2     N 5508   1.607   4.016  10.314 -0.2968  0.7685  0.1255
  364MPD2    H5 5509   1.613   3.917  10.291 -3.9350  0.5867 -0.1395
  364MPD2    N1 5510   1.637   4.459  10.100 -0.0733  0.3619  0.6108
  364MPD2    H7 5511   1.672   4.508  10.018 -2.4164  0.2702 -0.4490
  365TMC3    C1 5512   1.622   4.660  10.215 -0.1559 -0.1274  0.8402
  365TMC3    C2 5513   1.757   4.686  10.197 -0.3338  0.2779 -0.0610
  365TMC3    C3 5514   1.818   0.057  10.255  0.0048 -0.2600  0.2789
  365TMC3    C4 5515   1.558   0.010  10.299 -0.0938  0.0032 -0.2341
  365TMC3    C5 5516   1.622   0.113  10.366  0.2516  0.1473  0.1792
  365TMC3    C6 5517   1.752   0.141  10.344 -0.6441  0.5131  0.4765
  365TMC3     C 5518   1.571   4.528  10.200 -0.5558 -0.2333 -0.4601
  365TMC3     O 5519   1.505   4.488  10.292 -0.2744  0.3754  0.0323
  365TMC3     H 5520   1.814   4.621  10.130  0.8394 -0.3896  1.5677
  365TMC3    H1 5521   1.453   4.733  10.320 -0.5124  1.5480 -1.4763
  365TMC3    H2 5522   1.803   0.221  10.396 -0.2114  0.5174  0.0424
  365TMC3    C7 5523   1.564   0.181  10.474 -0.5306  0.1481  0.2295
  365TMC3    C8 5524   1.961   0.035  10.291 -0.0329  0.0336  0.1959
  365TMC3    O1 5525   1.577   0.302  10.481  0.1878  0.7622 -0.4933
  365TMC3    O2 5526   2.001   0.103  10.383  0.5432  0.3197 -0.2191
  366MPD2     C 5527   4.534   0.114  15.230 -0.7162  0.5916  0.0255
  366MPD2    C1 5528   4.610   0.212  15.281 -0.6938 -0.6503  0.2673
  366MPD2    C2 5529   0.011   0.206  15.270  0.6473  0.3717 -0.2168
  366MPD2    C3 5530   0.072   0.104  15.199  0.1321  0.0343 -0.0779
  366MPD2    C4 5531   4.731   0.009  15.144  0.5387  0.5508 -0.2954
  366MPD2    C5 5532   4.596   0.013  15.164  0.6537 -0.8596 -0.6418
  366MPD2     H 5533   0.066   0.275  15.333  0.1331  2.4751 -2.0629
  366MPD2    H1 5534   0.042   4.668  15.083  0.1678 -1.6574  2.1872
  366MPD2    H2 5535   4.425   0.122  15.233 -0.7601  0.0581 -0.2529
  366MPD2    H3 5536   4.541   4.670  15.114 -1.4833  0.3230 -0.1705
  366MPD2     N 5537   0.211   0.082  15.188 -0.0792 -0.2777 -0.4322
  366MPD2    H5 5538   0.245   0.001  15.136  0.5632 -0.1602 -0.1972
  366MPD2    N1 5539   4.560   0.332  15.340  0.5762 -0.4033 -0.4851
  366MPD2    H7 5540   4.625   0.388  15.395 -1.0403 -0.8078  1.8252
  367TMC3    C1 5541   4.446   0.530  15.332 -0.2429  0.1656  0.3909
  367TMC3    C2 5542   4.541   0.579  15.416 -0.4542  0.0534  0.5150
  367TMC3    C3 5543   4.573   0.711  15.395  0.2032 -0.4381 -0.4240
  367TMC3    C4 5544   4.392   0.594  15.218 -0.3889  0.7464 -0.8739
  367TMC3    C5 5545   4.436   0.721  15.199 -0.3988 -0.0627  0.1536
  367TMC3    C6 5546   4.519   0.783  15.289 -0.5120  0.3153  1.1606
  367TMC3     C 5547   4.438   0.386  15.316  0.6192 -0.9471 -0.3138
  367TMC3     O 5548   4.338   0.328  15.275 -0.7868  0.1322 -0.9740
  367TMC3     H 5549   4.554   0.523  15.508 -0.3404  1.8144  1.5706
  367TMC3    H1 5550   4.322   0.540  15.155 -2.1262  3.7272 -1.4816
  367TMC3    H2 5551   4.564   0.878  15.263  0.4612 -0.3644  0.3603
  367TMC3    C7 5552   4.361   0.812  15.110  0.2833 -0.1644  0.0894
  367TMC3    C8 5553   4.664   0.784  15.476 -0.2629 -0.0908 -0.2142
  367TMC3    O1 5554   4.402   0.926  15.112  0.2894 -0.4472 -0.4578
  367TMC3    O2 5555   4.732   0.709  15.550  0.7531 -0.1566 -0.9406
  368MPD2     C 5556   0.725   2.175  13.194  0.0110 -0.4576  1.2708
  368MPD2    C1 5557   0.778   2.290  13.134  0.0185  0.6244 -0.2296
  368MPD2    C2 5558   0.903   2.293  13.074  0.0960 -0.0562  0.5697
  368MPD2    C3 5559   0.980   2.177  13.086 -0.0062 -0.0019 -0.2125
  368MPD2    C4 5560   0.931   2.063  13.142 -0.4426 -0.0033 -0.5129
  368MPD2    C5 5561   0.805   2.059  13.197  0.5572  0.6487 -0.8791
  368MPD2     H 5562   0.933   2.380  13.017 -0.3236  0.6741  1.4700
  368MPD2    H1 5563   0.993   1.974  13.150 -0.3652  0.1216  0.3020
  368MPD2    H2 5564   0.627   2.163  13.238 -0.5792 -0.1472  0.0589
  368MPD2    H3 5565   0.769   1.969  13.245  2.8264 -1.2698 -2.7688
  368MPD2     N 5566   1.113   2.180  13.044 -0.4359  0.0129  0.8383
  368MPD2    H5 5567   1.168   2.096  13.059  1.3451  1.2641  1.3782
  368MPD2    N1 5568   0.688   2.399  13.123 -0.0761  0.4116  0.1472
  368MPD2    H7 5569   0.593   2.389  13.158  0.2934  0.6494  1.1891
  369TMC3    C1 5570   0.611   2.614  13.043  0.2472 -1.2227 -0.3884
  369TMC3    C2 5571   0.655   2.699  12.944 -0.3791  0.0239 -0.0025
  369TMC3    C3 5572   0.575   2.719  12.839  0.1497 -0.7893  0.0482
  369TMC3    C4 5573   0.484   2.564  13.048  0.6020  0.2556 -0.5360
  369TMC3    C5 5574   0.403   2.606  12.944  0.4912 -0.0547 -0.3436
  369TMC3    C6 5575   0.444   2.683  12.838  0.2599 -0.4805  0.2887
  369TMC3     C 5576   0.722   2.527  13.080  0.9474 -0.6114  0.7116
  369TMC3     O 5577   0.831   2.572  13.053  0.0736  0.1321 -0.6805
  369TMC3     H 5578   0.752   2.748  12.937 -0.4089  0.2974  1.3768
  369TMC3    H1 5579   0.451   2.506  13.133  2.4374  1.3924  0.9387
  369TMC3    H2 5580   0.379   2.709  12.755  1.6508  0.6496 -0.4367
  369TMC3    C7 5581   0.271   2.544  12.942 -0.1058 -0.1554  0.5827
  369TMC3    C8 5582   0.630   2.669  12.717 -0.2263 -0.2142  0.2787
  369TMC3    O1 5583   0.255   2.473  13.041  0.0430 -0.0291  0.2227
  369TMC3    O2 5584   0.572   2.689  12.611 -0.2769 -0.2735 -0.2950
  370TMC3    C1 5585   0.425   3.249  15.776 -0.1675  0.3633  0.5085
  370TMC3    C2 5586   0.383   3.177  15.889 -0.5776 -0.7001  0.2067
  370TMC3    C3 5587   0.379   3.038  15.878 -0.0807  0.3912 -0.2972
  370TMC3    C4 5588   0.474   3.187  15.662 -0.1612 -0.2182 -0.9274
  370TMC3    C5 5589   0.485   3.049  15.667  0.0640  0.4135 -0.5865
  370TMC3    C6 5590   0.440   2.977  15.774 -0.3161 -0.3229  0.2091
  370TMC3     C 5591   0.494   3.375  15.816 -0.2135 -0.0744  0.3882
  370TMC3     O 5592   0.492   3.410  15.931  0.1821  0.0341 -0.2120
  370TMC3     H 5593   0.342   3.236  15.970  0.8546 -0.2922  0.6506
  370TMC3    H1 5594   0.526   3.235  15.580 -1.7425  1.2171 -1.0845
  370TMC3    H2 5595   0.427   2.871  15.755  2.1026 -0.2114 -2.0432
  370TMC3    C7 5596   0.512   2.979  15.543 -0.2664  0.8444  0.7587
  370TMC3    C8 5597   0.341   2.959  16.000  1.0584  0.6825  0.2804
  370TMC3    O1 5598   0.478   3.030  15.441  0.0496  0.2587 -0.0824
  370TMC3    O2 5599   0.328   2.839  15.983 -0.1892  0.2875 -0.1819
  371TMC3    C1 5600   1.840   1.486  15.244  0.0165  0.1935  0.4618
  371TMC3    C2 5601   1.753   1.453  15.347  0.5747  0.2083 -0.1659
  371TMC3    C3 5602   1.676   1.557  15.397  0.0155  0.3723 -0.0624
  371TMC3    C4 5603   1.856   1.610  15.190 -0.1938 -0.0458 -0.3123
  371TMC3    C5 5604   1.775   1.708  15.242  0.0001  0.4118  0.4473
  371TMC3    C6 5605   1.687   1.685  15.345 -0.0351 -0.2001 -0.0905
  371TMC3     C 5606   1.923   1.378  15.181 -1.0095  0.0637 -1.2130
  371TMC3     O 5607   2.029   1.406  15.129 -0.7517  0.5393 -0.0086
  371TMC3     H 5608   1.740   1.357  15.394  1.0002  0.6483  0.8416
  371TMC3    H1 5609   1.909   1.616  15.096  1.5873  0.0147  0.7129
  371TMC3    H2 5610   1.632   1.773  15.376  0.5548  0.3982 -0.7392
  371TMC3    C7 5611   1.798   1.851  15.198 -0.1672  0.4011  0.2272
  371TMC3    C8 5612   1.589   1.527  15.510 -0.4325 -0.1571 -0.0497
  371TMC3    O1 5613   1.741   1.931  15.268 -0.1468  0.1157  0.1753
  371TMC3    O2 5614   1.622   1.438  15.586 -0.3668  0.0146 -0.1088
  372MPD2     C 5615   1.320   1.895  13.485  0.5753  0.5949  0.4553
  372MPD2    C1 5616   1.370   2.024  13.463  0.3755  0.7289 -0.1671
  372MPD2    C2 5617   1.506   2.033  13.431 -0.1564  0.1734 -0.3886
  372MPD2    C3 5618   1.590   1.924  13.446  0.1484 -0.4460  0.1488
  372MPD2    C4 5619   1.545   1.803  13.492  1.1027  0.4854 -0.0294
  372MPD2    C5 5620   1.409   1.790  13.511 -0.2506  0.4343  0.2990
  372MPD2     H 5621   1.554   2.127  13.405  3.2272 -1.7048 -0.9339
  372MPD2    H1 5622   1.612   1.726  13.528 -0.6299 -1.3812 -0.8238
  372MPD2    H2 5623   1.217   1.868  13.503  0.7142 -0.3536 -0.1553
  372MPD2    H3 5624   1.375   1.698  13.557 -3.9609  0.5972 -2.1008
  372MPD2     N 5625   1.730   1.941  13.419  0.0645  0.4705 -0.9636
  372MPD2    H5 5626   1.765   2.036  13.413 -2.7803  1.4536 -1.7820
  372MPD2    N1 5627   1.290   2.144  13.447  0.7957  0.1273 -0.8787
  372MPD2    H7 5628   1.335   2.234  13.434 -1.1443  1.4648  1.7287
  373TMC3    C1 5629   1.953   1.864  13.389 -0.3766 -0.7755 -0.2060
  373TMC3    C2 5630   1.994   1.980  13.441  0.0814  0.3970  0.7364
  373TMC3    C3 5631   2.124   1.986  13.486 -0.2865 -0.0527  0.1867
  373TMC3    C4 5632   2.043   1.765  13.361 -0.4094 -1.0830  0.0496
  373TMC3    C5 5633   2.179   1.781  13.381  0.2110 -0.2003  0.0384
  373TMC3    C6 5634   2.222   1.893  13.451  0.1531 -0.5340 -0.3856
  373TMC3     C 5635   1.812   1.835  13.382 -0.2233  0.0895 -0.3845
  373TMC3     O 5636   1.774   1.730  13.340 -0.2958  0.0663  0.2234
  373TMC3     H 5637   1.924   2.058  13.470  1.1099  1.4077  0.5194
  373TMC3    H1 5638   1.999   1.674  13.322 -1.6761 -0.2218 -0.4915
  373TMC3    H2 5639   2.330   1.899  13.458  0.2064 -0.0524 -1.7026
  373TMC3    C7 5640   2.278   1.682  13.342  0.4561 -0.0386  0.0893
  373TMC3    C8 5641   2.170   2.117  13.532 -0.0326  0.5608  0.5153
  373TMC3    O1 5642   2.387   1.692  13.396  0.0545  0.1727  0.0637
  373TMC3    O2 5643   2.082   2.198  13.538  0.0279 -0.5680  0.3193
  374TMC3    C1 5644   1.534   2.569   9.268  0.9846 -0.5407 -0.1611
  374TMC3    C2 5645   1.622   2.658   9.333 -0.3419  0.0415  0.1576
  374TMC3    C3 5646   1.689   2.742   9.244  0.4517  0.0453  0.8374
  374TMC3    C4 5647   1.534   2.549   9.129  0.3563  0.2278 -0.2603
  374TMC3    C5 5648   1.590   2.645   9.053 -0.1522 -0.1436  0.2939
  374TMC3    C6 5649   1.668   2.746   9.109 -0.4065 -0.4011 -0.0878
  374TMC3     C 5650   1.472   2.467   9.348 -0.3588  0.3048  0.2802
  374TMC3     O 5651   1.511   2.434   9.462  0.0118 -0.2197  0.2314
  374TMC3     H 5652   1.636   2.653   9.440 -0.0230  1.0657  0.1616
  374TMC3    H1 5653   1.502   2.457   9.083  0.2043 -0.6493  1.6111
  374TMC3    H2 5654   1.731   2.819   9.059  0.5546 -0.0248  1.6836
  374TMC3    C7 5655   1.594   2.618   8.905 -0.3540  0.6534 -0.4266
  374TMC3    C8 5656   1.758   2.859   9.305 -0.3643  0.4954 -0.9254
  374TMC3    O1 5657   1.566   2.507   8.864  0.5830 -0.2120 -0.4736
  374TMC3    O2 5658   1.763   2.964   9.241  0.0282 -1.1508  0.5248
  375MPD2     C 5659   1.977   4.102  16.415  0.5385 -0.0477 -0.6436
  375MPD2    C1 5660   1.881   4.001  16.413 -0.4363  0.0530  0.2548
  375MPD2    C2 5661   1.924   3.874  16.377  0.0056  0.3603 -0.1076
  375MPD2    C3 5662   2.055   3.848  16.343  0.1316 -0.3292  0.3644
  375MPD2    C4 5663   2.146   3.950  16.353  0.2154 -0.4309 -0.0477
  375MPD2    C5 5664   2.110   4.073  16.392  0.1729 -0.3606  0.4070
  375MPD2     H 5665   1.852   3.793  16.382  0.3369  0.0677 -0.0488
  375MPD2    H1 5666   2.247   3.943  16.315 -0.0075 -0.0488 -0.7118
  375MPD2    H2 5667   1.942   4.202  16.436  0.2534 -0.0088 -1.3227
  375MPD2    H3 5668   2.185   4.151  16.391  0.3057 -0.5044 -0.5099
  375MPD2     N 5669   2.104   3.719  16.311  0.1023 -0.3122  0.1928
  375MPD2    H5 5670   2.204   3.709  16.295  0.5767  2.7554  1.1457
  375MPD2    N1 5671   1.747   4.024  16.444 -0.6737  0.1955 -0.1462
  375MPD2    H7 5672   1.679   3.952  16.421 -1.2031  0.6085  0.1488
  376TMC3    C1 5673   2.120   3.519  16.207  0.8269  0.2592  0.4925
  376TMC3    C2 5674   2.232   3.485  16.288  0.9507  0.0059  0.3124
  376TMC3    C3 5675   2.297   3.365  16.256 -0.4456 -0.2475  0.4811
  376TMC3    C4 5676   2.085   3.457  16.102 -0.6078  0.7393 -0.8609
  376TMC3    C5 5677   2.156   3.347  16.073 -0.5286  0.2228 -0.4694
  376TMC3    C6 5678   2.261   3.295  16.147 -0.3306  0.0196 -0.7397
  376TMC3     C 5679   2.029   3.620  16.259 -0.0457 -0.0266  0.2163
  376TMC3     O 5680   1.908   3.618  16.245 -0.0511 -0.0938  0.2023
  376TMC3     H 5681   2.269   3.541  16.374 -3.1759  0.8229  1.5485
  376TMC3    H1 5682   1.995   3.485  16.048 -1.4114 -0.2955 -0.0702
  376TMC3    H2 5683   2.323   3.217  16.105 -0.0233 -0.0850 -0.0934
  376TMC3    C7 5684   2.143   3.289  15.938 -0.0910  0.0737  0.8778
  376TMC3    C8 5685   2.444   3.372  16.286  0.2231  0.1890  0.4592
  376TMC3    O1 5686   2.194   3.174  15.918  0.6030  0.0835  0.4125
  376TMC3    O2 5687   2.487   3.483  16.309 -0.4973  0.5653 -0.2722
  377MPD2     C 5688   0.390   2.489  12.467 -0.4581  0.0317  0.5853
  377MPD2    C1 5689   0.292   2.529  12.383  0.1821 -0.0724  0.3202
  377MPD2    C2 5690   0.170   2.471  12.404 -0.4785  0.0208 -0.0861
  377MPD2    C3 5691   0.142   2.389  12.511 -0.1287  0.5230  0.4564
  377MPD2    C4 5692   0.243   2.359  12.595 -0.6032 -0.1587 -0.1720
  377MPD2    C5 5693   0.368   2.408  12.570  0.8632  0.0639 -0.1696
  377MPD2     H 5694   0.093   2.504  12.335 -1.4533 -1.8642  0.0835
  377MPD2    H1 5695   0.228   2.293  12.680  0.9613 -0.5773 -0.2318
  377MPD2    H2 5696   0.491   2.528  12.469 -0.6367  0.6647 -2.6867
  377MPD2    H3 5697   0.443   2.378  12.641  0.4174  0.2489  0.3801
  377MPD2     N 5698   0.011   2.348  12.548 -0.3799 -0.6923 -0.4408
  377MPD2    H5 5699   0.019   2.293  12.633  0.7214  0.5308  0.2475
  377MPD2    N1 5700   0.325   2.611  12.276  0.0812 -0.1174  0.3418
  377MPD2    H7 5701   0.423   2.621  12.252  0.2745  2.5348  2.2587
  378TMC3    C1 5702   0.284   2.938  11.940  1.0541 -0.0246 -0.3216
  378TMC3    C2 5703   0.225   2.845  12.017  0.8822 -0.1695 -0.6347
  378TMC3    C3 5704   0.304   2.763  12.095  0.5821  0.0880  0.3729
  378TMC3    C4 5705   0.421   2.964  11.944  0.2423 -1.0816 -0.2308
  378TMC3    C5 5706   0.500   2.891  12.026  0.0858  0.4763 -0.1706
  378TMC3    C6 5707   0.442   2.783  12.099  0.1979 -0.7209  0.0322
  378TMC3     C 5708   0.204   3.055  11.908 -0.1370  0.3372 -0.5416
  378TMC3     O 5709   0.115   3.071  11.984  0.6573 -0.0167 -0.4758
  378TMC3     H 5710   0.117   2.832  12.023  0.5252  2.7547 -0.7666
  378TMC3    H1 5711   0.462   3.040  11.878  0.8918  0.1547  1.6151
  378TMC3    H2 5712   0.510   2.716  12.151  1.9220  2.0522  1.3523
  378TMC3    C7 5713   0.641   2.885  12.015  0.2620  0.4009 -0.0334
  378TMC3    C8 5714   0.236   2.678  12.193 -0.5907  0.2079 -0.4646
  378TMC3    O1 5715   0.709   2.844  12.111  0.1101 -0.8037  0.0743
  378TMC3    O2 5716   0.112   2.683  12.188 -0.0164 -0.0215  0.0651
  379MPD2     C 5717   1.207   1.199  15.758  0.5442  0.3136  0.3430
  379MPD2    C1 5718   1.109   1.167  15.851 -0.5970 -0.1619 -0.0518
  379MPD2    C2 5719   1.154   1.139  15.977  0.1536 -0.1698  1.0800
  379MPD2    C3 5720   1.286   1.149  16.006 -0.6077  0.9054  0.3191
  379MPD2    C4 5721   1.373   1.191  15.913 -0.7605  0.1753 -0.3984
  379MPD2    C5 5722   1.337   1.223  15.784  0.4745 -0.4388  0.4117
  379MPD2     H 5723   1.089   1.101  16.054 -2.4328 -1.3017 -1.6669
  379MPD2    H1 5724   1.475   1.203  15.948 -0.9901  1.5172 -0.2031
  379MPD2    H2 5725   1.172   1.208  15.656 -0.3517 -0.0063  0.6232
  379MPD2    H3 5726   1.400   1.255  15.702 -2.0688  0.9644 -1.0235
  379MPD2     N 5727   1.337   1.112  16.135 -0.1535 -0.2696  0.5758
  379MPD2    H5 5728   1.438   1.111  16.131 -0.1594 -2.6207  0.7613
  379MPD2    N1 5729   0.982   1.131  15.803  0.4265 -0.4835  0.2224
  379MPD2    H7 5730   0.969   1.154  15.705  0.8235  0.5949  0.4181
  380TMC3    C1 5731   0.769   1.045  15.789  0.3402 -0.4554  0.7637
  380TMC3    C2 5732   0.804   0.979  15.674  0.4666 -0.0528 -0.0644
  380TMC3    C3 5733   0.700   0.942  15.594 -0.6211  0.5315  0.1884
  380TMC3    C4 5734   0.641   1.091  15.814  0.1382  0.2666 -0.0377
  380TMC3    C5 5735   0.546   1.051  15.727 -0.6818 -0.1174  0.3547
  380TMC3    C6 5736   0.569   0.975  15.619  0.5298 -0.1497 -0.0920
  380TMC3     C 5737   0.875   1.096  15.876 -0.3574 -0.6599  0.0122
  380TMC3     O 5738   0.868   1.079  15.995  0.4242  0.1460 -0.8886
  380TMC3     H 5739   0.904   0.938  15.672  0.2445 -0.6656  1.0728
  380TMC3    H1 5740   0.611   1.133  15.909 -1.9943 -0.1929 -0.5100
  380TMC3    H2 5741   0.499   0.933  15.548 -0.3914  0.9568  0.1719
  380TMC3    C7 5742   0.409   1.098  15.756  0.1270  0.1264  0.3026
  380TMC3    C8 5743   0.720   0.886  15.466  0.6940 -0.6067 -0.0552
  380TMC3    O1 5744   0.391   1.193  15.831 -0.5078  0.4431 -0.1948
  380TMC3    O2 5745   0.648   0.931  15.378  0.1179 -0.1167 -0.4705
  381TMC3    C1 5746   0.416   2.240  15.867  1.1330 -0.7928  0.2256
  381TMC3    C2 5747   0.496   2.348  15.842 -0.1352 -0.3570 -0.4249
  381TMC3    C3 5748   0.476   2.455  15.928  0.4345 -0.0219  0.0706
  381TMC3    C4 5749   0.339   2.237  15.980 -0.4609  0.4841 -0.2455
  381TMC3    C5 5750   0.314   2.350  16.049  0.4220 -0.3223 -0.6735
  381TMC3    C6 5751   0.389   2.464  16.028 -0.1863  0.7851 -0.3217
  381TMC3     C 5752   0.450   2.119  15.807  0.0891  0.7972 -0.4861
  381TMC3     O 5753   0.427   2.019  15.871  0.1462  0.1690 -0.0957
  381TMC3     H 5754   0.569   2.360  15.763 -2.0056  0.7854 -1.9822
  381TMC3    H1 5755   0.276   2.151  16.000  0.5201 -0.6493 -2.0424
  381TMC3    H2 5756   0.359   2.562  16.064  1.8887  0.4473  2.3151
  381TMC3    C7 5757   0.285   2.326  16.185 -0.0181  0.3954 -0.0639
  381TMC3    C8 5758   0.554   2.570  15.893 -0.7945  0.1978 -1.3329
  381TMC3    O1 5759   0.341   2.227  16.223 -0.3773  0.1910  0.1682
  381TMC3    O2 5760   0.586   2.574  15.779  0.0161  0.0375  0.1525
  382MPD2     C 5761   4.613   0.267  16.873  0.0210 -0.4277  0.8193
  382MPD2    C1 5762   4.627   0.244  17.003  0.4573 -0.0273  0.0108
  382MPD2    C2 5763   4.581   0.119  17.047  0.1135 -0.2151 -0.3488
  382MPD2    C3 5764   4.532   0.018  16.962 -0.4937  0.1010  0.4059
  382MPD2    C4 5765   4.529   0.042  16.830  0.2282 -0.5228  0.2870
  382MPD2    C5 5766   4.561   0.166  16.788 -0.2313 -0.0187  0.1801
  382MPD2     H 5767   4.586   0.109  17.154 -0.5177  1.3911 -0.1705
  382MPD2    H1 5768   4.501   4.705  16.754  0.8736  0.1111 -0.5454
  382MPD2    H2 5769   4.637   0.365  16.833  0.6146 -0.5197  0.9392
  382MPD2    H3 5770   4.541   0.191  16.685 -0.6973 -1.0387  0.0155
  382MPD2     N 5771   4.477   4.630  17.004 -0.2087 -0.2979  0.0856
  382MPD2    H5 5772   4.419   4.583  16.936 -1.3442 -0.9905  1.5431
  382MPD2    N1 5773   4.672   0.335  17.102  0.2319 -0.1829  0.3273
  382MPD2    H7 5774   4.664   0.303  17.198 -0.8125 -1.5455 -0.2218
  383TMC3    C1 5775   4.449   4.436  17.135  0.2602  0.4384 -0.2315
  383TMC3    C2 5776   4.373   4.379  17.038 -0.2676 -0.0626 -0.1726
  383TMC3    C3 5777   4.315   4.263  17.064 -0.1809  0.5179 -0.4740
  383TMC3    C4 5778   4.443   4.392  17.261  0.5163  0.5672  0.2702
  383TMC3    C5 5779   4.372   4.277  17.286  0.1794  0.0053 -1.1572
  383TMC3    C6 5780   4.298   4.216  17.186 -0.4012  0.4737 -1.2777
  383TMC3     C 5781   4.489   4.578  17.129 -0.2681  0.4221 -1.3775
  383TMC3     O 5782   4.515   4.629  17.237  0.8193 -0.2599 -0.1168
  383TMC3     H 5783   4.365   4.418  16.937  0.6863  0.6335  0.0249
  383TMC3    H1 5784   4.492   4.438  17.346  0.3585 -1.4267  1.4348
  383TMC3    H2 5785   4.219   4.146  17.211  0.9344 -0.9808 -1.1285
  383TMC3    C7 5786   4.390   4.194  17.401 -0.1291 -0.0302 -0.2971
  383TMC3    C8 5787   4.229   4.202  16.956  0.6903 -0.5949  0.3059
  383TMC3    O1 5788   4.307   4.102  17.411  0.0590  0.1723  0.4871
  383TMC3    O2 5789   4.160   4.273  16.890 -0.0117 -0.2641 -0.0377
  384MPD2     C 5790   1.724   0.731  11.847 -0.0647 -0.3423 -0.7485
  384MPD2    C1 5791   1.623   0.645  11.886 -0.5894 -0.7344  0.3991
  384MPD2    C2 5792   1.644   0.510  11.875 -0.0942  0.7917 -0.6437
  384MPD2    C3 5793   1.766   0.458  11.828 -0.6857  0.1909  0.1760
  384MPD2    C4 5794   1.868   0.548  11.793 -0.0679  0.1132  0.4826
  384MPD2    C5 5795   1.845   0.682  11.806 -0.1402 -0.0251  0.1419
  384MPD2     H 5796   1.575   0.441  11.921  0.7284 -0.9603 -2.0436
  384MPD2    H1 5797   1.959   0.518  11.740 -0.4637  0.1300 -0.2063
  384MPD2    H2 5798   1.705   0.837  11.859  0.7620 -0.2752 -0.0154
  384MPD2    H3 5799   1.933   0.742  11.787  0.8446 -1.3470  0.4844
  384MPD2     N 5800   1.799   0.320  11.842  0.4620  0.0694 -0.7426
  384MPD2    H5 5801   1.896   0.293  11.837  0.6486  0.4645  0.7477
  384MPD2    N1 5802   1.510   0.705  11.950  0.0694 -0.2953  0.2689
  384MPD2    H7 5803   1.511   0.806  11.964 -0.0857 -0.4657  1.4916
  385TMC3    C1 5804   1.770   0.115  11.936 -0.7693  0.3363  0.1064
  385TMC3    C2 5805   1.731   4.729  11.895  0.3524 -0.5835  0.7911
  385TMC3    C3 5806   1.670   4.651  11.997 -0.4541  0.7300  0.4489
  385TMC3    C4 5807   1.768   0.146  12.070 -0.0009 -0.1473  0.1024
  385TMC3    C5 5808   1.718   0.063  12.169  0.7732 -0.7357 -0.6918
  385TMC3    C6 5809   1.666   4.681  12.128  1.0649 -0.4251  0.8540
  385TMC3     C 5810   1.711   0.215  11.850 -0.0821  0.0933 -0.1359
  385TMC3     O 5811   1.587   0.212  11.862 -0.3379 -0.5766 -0.3648
  385TMC3     H 5812   1.724   4.699  11.791  2.4909 -0.4349  0.5996
  385TMC3    H1 5813   1.802   0.244  12.104  0.5377  0.2196 -1.4803
  385TMC3    H2 5814   1.620   4.608  12.194 -2.8047  1.5551  0.3768
  385TMC3    C7 5815   1.655   0.134  12.284 -0.8034 -0.2149  0.0527
  385TMC3    C8 5816   1.647   4.511  11.967  0.2560 -0.1863  1.1645
  385TMC3    O1 5817   1.699   0.245  12.308  0.4046 -0.0204 -0.1027
  385TMC3    O2 5818   1.674   4.436  12.058  0.2062 -0.0854  0.8421
  386TMC3    C1 5819   1.797   2.037  11.537  0.2002  0.0147 -0.1623
  386TMC3    C2 5820   1.820   2.075  11.407 -0.0372  0.1853 -0.0687
  386TMC3    C3 5821   1.708   2.110  11.344 -0.0428  0.1987 -0.3139
  386TMC3    C4 5822   1.673   2.038  11.599  0.1220 -0.2283  0.1015
  386TMC3    C5 5823   1.567   2.069  11.520 -0.6151 -0.5774 -0.4072
  386TMC3    C6 5824   1.580   2.096  11.387 -0.3521 -0.2487  0.6388
  386TMC3     C 5825   1.902   2.078  11.623  0.4981 -0.1411  0.1649
  386TMC3     O 5826   1.960   2.186  11.595  0.2473  0.1511 -0.6094
  386TMC3     H 5827   1.920   2.088  11.366 -0.3832 -1.6920 -1.5111
  386TMC3    H1 5828   1.668   2.044  11.707  3.7765  0.7662  0.2271
  386TMC3    H2 5829   1.498   2.123  11.321  1.1014  1.3036 -0.5436
  386TMC3    C7 5830   1.476   2.158  11.592 -0.4934 -0.6115  0.2254
  386TMC3    C8 5831   1.718   2.219  11.248  0.7171 -0.7295 -0.2485
  386TMC3    O1 5832   1.439   2.138  11.704 -0.4418 -0.6048  0.0245
  386TMC3    O2 5833   1.629   2.302  11.261  0.3667 -0.7888 -0.4276
  387MPD2     C 5834   3.637   2.672   9.647  0.0370 -0.3225 -1.2434
  387MPD2    C1 5835   3.773   2.656   9.644  0.7580  0.3225 -0.4018
  387MPD2    C2 5836   3.825   2.543   9.578  0.2804 -0.4456 -0.1068
  387MPD2    C3 5837   3.743   2.442   9.528 -0.2000  0.3005  0.1135
  387MPD2    C4 5838   3.600   2.462   9.530 -0.2858 -0.1720  0.5329
  387MPD2    C5 5839   3.550   2.579   9.590  0.2584  0.0439  0.1042
  387MPD2     H 5840   3.933   2.541   9.577  0.2820 -0.3741 -0.0546
  387MPD2    H1 5841   3.531   2.397   9.476 -1.1754  1.0206  0.2366
  387MPD2    H2 5842   3.603   2.761   9.700  0.8477  0.1752 -1.5664
  387MPD2    H3 5843   3.443   2.596   9.592  0.2508 -0.2673  2.3086
  387MPD2     N 5844   3.807   2.331   9.472 -0.0875  0.0797 -0.6278
  387MPD2    H5 5845   3.906   2.341   9.454 -0.2148  0.7527 -0.9618
  387MPD2    N1 5846   3.868   2.750   9.703 -0.1895  0.1987  0.5356
  387MPD2    H7 5847   3.962   2.728   9.672  0.9102  2.1021  2.5751
  388TMC3    C1 5848   3.979   2.910   9.820 -0.3199 -0.1368  0.0296
  388TMC3    C2 5849   4.016   3.040   9.812 -0.2625 -0.3204 -0.1241
  388TMC3    C3 5850   4.147   3.069   9.845 -0.2339 -0.6537 -0.5987
  388TMC3    C4 5851   4.067   2.809   9.863 -0.2899 -0.4421  0.3381
  388TMC3    C5 5852   4.201   2.844   9.878  0.2059  0.1180  0.2069
  388TMC3    C6 5853   4.240   2.972   9.871  0.2371  0.1413 -0.7710
  388TMC3     C 5854   3.848   2.867   9.775 -0.6869  0.1348 -0.0373
  388TMC3     O 5855   3.753   2.946   9.782 -0.1923 -0.3563  0.2672
  388TMC3     H 5856   3.944   3.116   9.783 -0.8569  0.5488  3.6778
  388TMC3    H1 5857   4.040   2.712   9.901 -0.0102 -0.9938 -0.8730
  388TMC3    H2 5858   4.342   3.002   9.890  0.3102  0.7232 -2.1179
  388TMC3    C7 5859   4.303   2.730   9.885 -0.9171 -0.8092 -0.4229
  388TMC3    C8 5860   4.184   3.205   9.866  0.5976 -0.3790  0.0833
  388TMC3    O1 5861   4.410   2.749   9.938  0.1721  0.0002  0.2954
  388TMC3    O2 5862   4.305   3.226   9.865 -0.0080 -0.4019 -0.1092
  389MPD2     C 5863   3.320   1.336  10.842  0.4794 -0.4545  0.7335
  389MPD2    C1 5864   3.339   1.203  10.808  0.1301 -0.1557  0.9648
  389MPD2    C2 5865   3.314   1.103  10.901  0.1283  0.5226  0.9308
  389MPD2    C3 5866   3.283   1.139  11.028  0.6735  0.3779  0.1292
  389MPD2    C4 5867   3.258   1.271  11.057 -0.0033  0.3964 -0.8149
  389MPD2    C5 5868   3.284   1.371  10.969 -0.2660 -0.0840 -0.4259
  389MPD2     H 5869   3.310   0.998  10.875  2.7773  0.9701 -1.3687
  389MPD2    H1 5870   3.233   1.297  11.160  2.5839  0.1490 -0.1379
  389MPD2    H2 5871   3.319   1.411  10.764 -0.1618 -0.4694  0.7261
  389MPD2    H3 5872   3.269   1.475  10.996 -1.3056 -0.4953  0.6107
  389MPD2     N 5873   3.264   1.051  11.135  0.2125  0.0967 -0.0996
  389MPD2    H5 5874   3.234   1.095  11.222  2.3008 -0.6167  0.9810
  389MPD2    N1 5875   3.371   1.176  10.669 -0.1106 -0.2540  0.0903
  389MPD2    H7 5876   3.379   1.257  10.608  2.4889 -0.1506  0.5784
  390TMC3    C1 5877   3.250   0.848  11.264 -0.1061 -0.1534 -0.4038
  390TMC3    C2 5878   3.180   0.729  11.260 -0.2894  0.8810 -0.0592
  390TMC3    C3 5879   3.109   0.689  11.369 -0.4299 -0.4705 -0.3853
  390TMC3    C4 5880   3.246   0.927  11.383  0.5120 -0.2046 -0.1296
  390TMC3    C5 5881   3.175   0.868  11.489  0.0591  0.8256 -0.0626
  390TMC3    C6 5882   3.103   0.756  11.485  0.2814 -0.2534 -0.1263
  390TMC3     C 5883   3.279   0.912  11.134 -0.1318  0.7540 -0.8924
  390TMC3     O 5884   3.295   0.835  11.043  0.1920  0.1990  0.7800
  390TMC3     H 5885   3.173   0.665  11.173  3.2418  0.4486 -0.0257
  390TMC3    H1 5886   3.301   1.020  11.384 -0.2773  0.2282  1.9998
  390TMC3    H2 5887   3.049   0.731  11.576  2.5382  0.7035  1.4771
  390TMC3    C7 5888   3.149   0.970  11.585 -0.2782 -0.3986  0.3984
  390TMC3    C8 5889   3.014   0.576  11.348  0.1535 -0.2478  0.5231
  390TMC3    O1 5890   3.214   1.072  11.593 -0.0191 -0.2020 -0.3348
  390TMC3    O2 5891   2.988   0.544  11.233  0.3132  0.5719 -0.0785
  391MPD2     C 5892   2.243   2.233  10.570 -0.5171  0.3339 -0.7409
  391MPD2    C1 5893   2.318   2.342  10.609 -0.1420  0.0781 -0.5676
  391MPD2    C2 5894   2.324   2.450  10.519 -0.7354 -0.1771 -0.6686
  391MPD2    C3 5895   2.286   2.436  10.386  0.0243 -0.1788  0.2598
  391MPD2    C4 5896   2.224   2.319  10.342  0.5269 -0.1050 -0.6206
  391MPD2    C5 5897   2.200   2.220  10.433 -0.1984 -0.7947 -0.0475
  391MPD2     H 5898   2.365   2.546  10.547 -2.9135  0.4722  0.3294
  391MPD2    H1 5899   2.206   2.303  10.236 -0.9701 -2.1393 -0.0691
  391MPD2    H2 5900   2.225   2.152  10.640  1.7192  1.4510  1.1104
  391MPD2    H3 5901   2.153   2.128  10.401  0.8799 -1.5668  0.5811
  391MPD2     N 5902   2.316   2.540  10.297 -0.2088  0.5121  0.1418
  391MPD2    H5 5903   2.367   2.621  10.332 -2.1640  1.3447  1.0882
  391MPD2    N1 5904   2.382   2.337  10.739  0.4995 -0.3617  0.2011
  391MPD2    H7 5905   2.371   2.256  10.799 -0.5408 -0.3496  0.0292
  392TMC3    C1 5906   2.335   2.631  10.079 -0.0846  0.0760  0.3072
  392TMC3    C2 5907   2.268   2.654   9.962 -0.2130 -0.2884  0.3558
  392TMC3    C3 5908   2.299   2.767   9.893  0.3266  0.3472 -0.0051
  392TMC3    C4 5909   2.433   2.713  10.130 -0.2225  0.4053  0.0986
  392TMC3    C5 5910   2.451   2.832  10.056  0.2001  0.4897 -0.0503
  392TMC3    C6 5911   2.385   2.860   9.941 -0.2682  0.2451  0.1192
  392TMC3     C 5912   2.270   2.537  10.169 -0.0965  0.0234  1.3468
  392TMC3     O 5913   2.175   2.481  10.116 -0.3527  0.4108 -0.5110
  392TMC3     H 5914   2.199   2.579   9.923 -1.3060 -0.6325  2.9548
  392TMC3    H1 5915   2.478   2.703  10.228  2.0446 -1.1729 -1.0960
  392TMC3    H2 5916   2.409   2.939   9.871 -0.6466  0.2963  0.0484
  392TMC3    C7 5917   2.525   2.942  10.115  0.0120 -0.2846  0.3376
  392TMC3    C8 5918   2.225   2.790   9.771  0.1724  0.0834  0.4502
  392TMC3    O1 5919   2.562   2.911  10.228  0.3661 -0.2708 -0.4935
  392TMC3    O2 5920   2.195   2.693   9.705  0.3572  0.9629  0.0675
  393TMC3    C1 5921   1.420   0.633   9.988 -1.2309 -0.9108 -0.0359
  393TMC3    C2 5922   1.443   0.694  10.108  0.0456  0.0023 -0.0983
  393TMC3    C3 5923   1.478   0.613  10.208 -0.6573  0.4286  0.2635
  393TMC3    C4 5924   1.450   0.500   9.971  0.6036  0.6006 -0.3412
  393TMC3    C5 5925   1.496   0.428  10.081  0.1600 -0.0240  0.6283
  393TMC3    C6 5926   1.513   0.480  10.203 -0.6728  0.0886  0.2357
  393TMC3     C 5927   1.410   0.717   9.864 -0.1009  0.2875 -0.2578
  393TMC3     O 5928   1.340   0.670   9.774 -0.0611 -0.4280  0.4351
  393TMC3     H 5929   1.445   0.802  10.108  0.4808 -0.0073 -1.7522
  393TMC3    H1 5930   1.458   0.465   9.869 -0.0861  1.1070 -0.5687
  393TMC3    H2 5931   1.543   0.417  10.287  1.4319  2.2281  1.0948
  393TMC3    C7 5932   1.596   0.333  10.039  0.7830  0.2197 -0.1432
  393TMC3    C8 5933   1.437   0.675  10.334 -0.1371  0.8096 -0.1696
  393TMC3    O1 5934   1.555   0.250   9.960  0.5448 -0.0419  0.1294
  393TMC3    O2 5935   1.384   0.783  10.329 -0.0686 -0.0784 -0.3754
  394TMC3    C1 5936   3.411   1.059  10.472  0.1131 -0.4272 -0.2504
  394TMC3    C2 5937   3.325   0.986  10.400 -0.5985 -0.5526 -0.0399
  394TMC3    C3 5938   3.306   1.015  10.271  0.5438  0.2793 -0.3911
  394TMC3    C4 5939   3.484   1.164  10.423 -0.1390  0.0268  0.2885
  394TMC3    C5 5940   3.462   1.194  10.292  0.2275 -0.1575  0.2083
  394TMC3    C6 5941   3.376   1.120  10.210 -0.1235 -0.2145  0.0057
  394TMC3     C 5942   3.389   1.055  10.615 -0.0347  0.2057  0.1244
  394TMC3     O 5943   3.379   0.940  10.660  0.3895 -0.0508 -0.2593
  394TMC3     H 5944   3.270   0.904  10.443  0.0386 -1.2881 -0.6349
  394TMC3    H1 5945   3.548   1.220  10.492  1.7053 -1.1383 -0.4783
  394TMC3    H2 5946   3.362   1.144  10.105 -1.4825 -0.0532  0.2255
  394TMC3    C7 5947   3.528   1.308  10.233 -0.5819 -0.3159  0.2014
  394TMC3    C8 5948   3.214   0.926  10.199 -0.7353  0.3118 -0.3898
  394TMC3    O1 5949   3.463   1.358  10.135 -0.0982  0.3977 -0.2684
  394TMC3    O2 5950   3.195   0.814  10.239 -0.8208 -0.2109  0.0684
  395TMC3    C1 5951   3.162   3.254  15.032  0.4706  0.1558  0.2865
  395TMC3    C2 5952   3.185   3.123  15.003 -0.2625 -0.2759 -0.0415
  395TMC3    C3 5953   3.224   3.099  14.873 -0.0293  0.0186  0.4101
  395TMC3    C4 5954   3.187   3.367  14.956 -0.5369  0.0549  0.7365
  395TMC3    C5 5955   3.238   3.337  14.830  0.2853  0.6444 -0.5700
  395TMC3    C6 5956   3.245   3.206  14.789  0.2453 -0.0988 -0.0451
  395TMC3     C 5957   3.095   3.281  15.163 -0.4967 -0.0457 -0.2715
  395TMC3     O 5958   3.048   3.390  15.177  0.0555  0.5137  0.0642
  395TMC3     H 5959   3.168   3.044  15.076  0.1500  1.8788  2.3865
  395TMC3    H1 5960   3.165   3.470  14.981  2.0824  0.9823 -0.7119
  395TMC3    H2 5961   3.301   3.192  14.697 -0.2621 -1.1588 -0.1823
  395TMC3    C7 5962   3.283   3.456  14.754 -0.1233  0.7491 -0.1800
  395TMC3    C8 5963   3.206   2.964  14.818 -0.1280 -0.1480  0.6347
  395TMC3    O1 5964   3.315   3.560  14.813  0.0717 -0.0144  0.4383
  395TMC3    O2 5965   3.210   2.863  14.887 -0.0857 -0.4744 -0.5519
  396MPD2     C 5966   2.358   3.997  16.786 -0.7280  0.1830 -0.2382
  396MPD2    C1 5967   2.469   4.049  16.849 -0.6190 -0.8845  0.7951
  396MPD2    C2 5968   2.541   4.152  16.792  0.4554 -0.0063 -0.1041
  396MPD2    C3 5969   2.508   4.196  16.666 -0.2400  0.8023 -0.0908
  396MPD2    C4 5970   2.403   4.149  16.601 -0.4367  0.0773 -0.3817
  396MPD2    C5 5971   2.323   4.052  16.656 -0.3876  0.3293  0.1307
  396MPD2     H 5972   2.625   4.197  16.842  0.3352  0.2646 -0.1492
  396MPD2    H1 5973   2.375   4.191  16.505 -0.6083  0.5395 -0.1320
  396MPD2    H2 5974   2.297   3.914  16.818  1.7784 -2.0463 -1.2226
  396MPD2    H3 5975   2.235   4.012  16.607 -2.2130  0.1774  3.5825
  396MPD2     N 5976   2.589   4.298  16.618 -0.4594 -0.5808 -0.2625
  396MPD2    H5 5977   2.666   4.333  16.674  0.2196 -0.6196 -1.1737
  396MPD2    N1 5978   2.502   4.003  16.979  0.0172  0.2350 -0.5952
  396MPD2    H7 5979   2.468   3.910  17.001 -1.9139  1.1622  0.4200
  397TMC3    C1 5980   2.677   3.947  17.115 -0.0230 -0.3059  0.1461
  397TMC3    C2 5981   2.799   3.933  17.057 -0.1569  0.1756 -0.4377
  397TMC3    C3 5982   2.833   3.823  16.987 -0.3817  0.2713 -0.9549
  397TMC3    C4 5983   2.604   3.832  17.119  0.1306 -0.3982  0.6030
  397TMC3    C5 5984   2.650   3.713  17.074  0.1625  0.2167 -0.2972
  397TMC3    C6 5985   2.757   3.715  16.989  0.1646  0.0939 -0.7222
  397TMC3     C 5986   2.593   4.059  17.064  0.1923  0.4076 -0.2520
  397TMC3     O 5987   2.635   4.171  17.065 -0.3311  0.0788 -0.4370
  397TMC3     H 5988   2.844   4.027  17.027  3.3673 -1.0695  0.9177
  397TMC3    H1 5989   2.506   3.834  17.164  0.5119  1.7419  1.3166
  397TMC3    H2 5990   2.786   3.631  16.928  1.5280  1.0570 -1.3997
  397TMC3    C7 5991   2.670   3.598  17.169  0.5824 -0.4856  0.1149
  397TMC3    C8 5992   2.876   3.856  16.854  0.9374 -0.7424 -0.9276
  397TMC3    O1 5993   2.738   3.500  17.139  0.3495  0.1709  0.6256
  397TMC3    O2 5994   2.805   3.827  16.761  0.5436  0.3555  0.4838
  398MPD2     C 5995   0.756   1.332  17.415  0.2724 -0.1305 -0.8429
  398MPD2    C1 5996   0.864   1.248  17.440  0.2079 -0.2018 -0.4734
  398MPD2    C2 5997   0.988   1.303  17.476  0.1663 -0.3257  0.0486
  398MPD2    C3 5998   1.002   1.443  17.488  0.5860  0.5791 -0.2729
  398MPD2    C4 5999   0.888   1.524  17.455 -0.0007  0.3807  0.6965
  398MPD2    C5 6000   0.768   1.467  17.420  0.1418 -0.4018 -0.6682
  398MPD2     H 6001   1.074   1.239  17.492  0.1877 -0.5713 -1.1030
  398MPD2    H1 6002   0.887   1.632  17.464  0.7508  0.4184  0.3223
  398MPD2    H2 6003   0.658   1.306  17.376 -1.2842  0.3953  2.7709
  398MPD2    H3 6004   0.686   1.522  17.375 -1.2769 -1.4625  0.6485
  398MPD2     N 6005   1.125   1.497  17.537 -0.2226 -0.1539 -0.0984
  398MPD2    H5 6006   1.188   1.424  17.568 -0.8191 -0.2696  0.8469
  398MPD2    N1 6007   0.857   1.108  17.428 -0.0081 -0.6294 -0.6233
  398MPD2    H7 6008   0.921   1.046  17.478 -1.1906 -2.1395 -0.9775
  399TMC3    C1 6009   0.743   0.901  17.423  0.2440  0.3075 -0.2154
  399TMC3    C2 6010   0.811   0.856  17.533 -0.3460 -0.1241  0.1931
  399TMC3    C3 6011   0.815   0.723  17.566  0.7264  0.0774  0.0920
  399TMC3    C4 6012   0.653   0.806  17.367 -0.9517  0.3741  0.2279
  399TMC3    C5 6013   0.655   0.673  17.400 -0.6256  0.2733 -0.4118
  399TMC3    C6 6014   0.745   0.632  17.496 -0.1766  0.1377 -0.5597
  399TMC3     C 6015   0.745   1.041  17.377 -0.1589  0.2849  0.0851
  399TMC3     O 6016   0.657   1.075  17.308  0.3375 -0.2262  0.2421
  399TMC3     H 6017   0.874   0.918  17.595  1.1794  0.0534 -1.5482
  399TMC3    H1 6018   0.579   0.848  17.299 -0.3286 -1.9249 -1.8874
  399TMC3    H2 6019   0.758   0.525  17.500  2.6852  0.5239  0.5510
  399TMC3    C7 6020   0.568   0.572  17.337  0.1252 -0.5493 -0.2249
  399TMC3    C8 6021   0.937   0.678  17.637 -0.0348  0.1832 -0.4468
  399TMC3    O1 6022   0.581   0.453  17.372  0.0954 -0.0434  0.2606
  399TMC3    O2 6023   1.032   0.751  17.625 -0.2383 -0.4207  0.2726
  400TMC3    C1 6024   4.018   4.083  16.407 -0.7316 -0.4328 -0.8191
  400TMC3    C2 6025   3.918   3.999  16.369 -0.2329  0.2199 -0.7380
  400TMC3    C3 6026   3.850   4.037  16.259  0.3652  0.1101  0.2747
  400TMC3    C4 6027   4.032   4.205  16.353 -0.3952 -0.6021 -0.2383
  400TMC3    C5 6028   3.958   4.250  16.252 -0.0090  0.1814  0.4690
  400TMC3    C6 6029   3.865   4.160  16.205  0.1269  0.0894 -0.0728
  400TMC3     C 6030   4.126   4.018  16.475  0.3956  0.4284 -0.1944
  400TMC3     O 6031   4.132   3.896  16.469 -0.4382  0.4682 -0.0745
  400TMC3     H 6032   3.910   3.894  16.393 -0.4702  0.1811 -0.9926
  400TMC3    H1 6033   4.093   4.281  16.400  0.7193 -1.3431 -0.5060
  400TMC3    H2 6034   3.801   4.184  16.121  0.8322 -0.1604 -0.6817
  400TMC3    C7 6035   3.939   4.388  16.223 -0.4343  0.1450 -1.0610
  400TMC3    C8 6036   3.749   3.948  16.192  0.0227  0.5299  1.2555
  400TMC3    O1 6037   3.877   4.411  16.123 -0.3563 -0.4464 -0.3933
  400TMC3    O2 6038   3.711   3.982  16.083  0.5605 -0.3709 -0.0529
  401MPD2     C 6039   3.143   3.511   0.887 -0.0308 -0.6513  0.3111
  401MPD2    C1 6040   3.173   3.388   0.945  0.1018 -0.5058  0.7869
  401MPD2    C2 6041   3.109   3.274   0.892  0.1371  0.0338 -0.9805
  401MPD2    C3 6042   2.999   3.289   0.809 -0.0273 -0.2175 -0.1139
  401MPD2    C4 6043   2.964   3.410   0.760 -0.1775  0.2009  0.6091
  401MPD2    C5 6044   3.039   3.525   0.794  0.4549 -0.2589  0.1147
  401MPD2     H 6045   3.126   3.175   0.933  0.9103  1.0406  1.1262
  401MPD2    H1 6046   2.885   3.416   0.686 -1.1344 -0.9912  1.5366
  401MPD2    H2 6047   3.192   3.601   0.923 -0.4221  0.2037 -1.3288
  401MPD2    H3 6048   3.020   3.621   0.746 -0.8683 -0.6708 -0.1697
  401MPD2     N 6049   2.920   3.175   0.781  0.2572  0.1348  0.4759
  401MPD2    H5 6050   2.967   3.088   0.804  0.6125  0.1799 -0.0777
  401MPD2    N1 6051   3.278   3.370   1.043 -0.0777  0.1888 -0.2996
  401MPD2    H7 6052   3.302   3.273   1.060 -0.2001  0.2888  0.4470
  402TMC3    C1 6053   2.752   3.033   0.695 -1.0539 -0.1355 -0.6416
  402TMC3    C2 6054   2.763   2.949   0.803 -0.7535 -0.1526  0.0764
  402TMC3    C3 6055   2.740   2.816   0.777  0.9303  0.3464 -0.1774
  402TMC3    C4 6056   2.714   2.991   0.568  0.3018 -0.1796  0.1870
  402TMC3    C5 6057   2.691   2.856   0.553  0.0986  0.6682  0.3859
  402TMC3    C6 6058   2.711   2.765   0.653 -0.1771 -0.1625  0.0699
  402TMC3     C 6059   2.809   3.165   0.698  0.8047  0.5555  0.1377
  402TMC3     O 6060   2.755   3.254   0.637  0.5910  0.0169  0.4462
  402TMC3     H 6061   2.810   2.980   0.895  0.1708 -0.7495 -0.1868
  402TMC3    H1 6062   2.708   3.056   0.482 -1.3625 -0.1336  0.3333
  402TMC3    H2 6063   2.674   2.665   0.669  0.8601 -0.6415 -0.5470
  402TMC3    C7 6064   2.752   2.791   0.438  0.1341 -0.3203  0.5198
  402TMC3    C8 6065   2.802   2.711   0.860  0.0704 -0.2345 -0.2075
  402TMC3    O1 6066   2.737   2.842   0.326  0.6545 -0.0083  0.5577
  402TMC3    O2 6067   2.853   2.622   0.798  0.0894  0.5262  0.3945
  403MPD2     C 6068   1.236   4.530  13.034  0.0222  0.1876 -0.1482
  403MPD2    C1 6069   1.165   4.643  13.076  0.0537 -0.0283  0.5354
  403MPD2    C2 6070   1.231   0.007  13.148 -0.9394  0.1477  0.8580
  403MPD2    C3 6071   1.369   0.000  13.171  0.7292  0.5510 -0.2460
  403MPD2    C4 6072   1.432   4.623  13.128  0.0804  0.0371 -0.1958
  403MPD2    C5 6073   1.369   4.521  13.064  0.2009  0.4393  0.0664
  403MPD2     H 6074   1.170   0.089  13.185 -2.6482 -0.4468 -0.6925
  403MPD2    H1 6075   1.531   4.591  13.160  0.5893  2.3795  0.5757
  403MPD2    H2 6076   1.182   4.450  12.986  1.8316  0.7368 -3.0662
  403MPD2    H3 6077   1.425   4.428  13.057  1.4561  1.1615  0.6095
  403MPD2     N 6078   1.439   0.107  13.232  0.3678  0.0926 -0.9869
  403MPD2    H5 6079   1.379   0.185  13.259  0.0281 -0.5724  0.1603
  403MPD2    N1 6080   1.032   4.652  13.021  0.3514 -0.2362 -0.0674
  403MPD2    H7 6081   1.000   4.583  12.954 -1.0206 -0.7804  1.1374
  404TMC3    C1 6082   0.833   0.053  12.964 -0.2002  0.7350 -0.4483
  404TMC3    C2 6083   0.726   0.120  13.016 -0.5854 -0.9918 -0.0596
  404TMC3    C3 6084   0.625   0.135  12.927  0.0972 -0.4650 -0.4286
  404TMC3    C4 6085   0.846   0.025  12.827 -0.3669  0.5928 -0.4758
  404TMC3    C5 6086   0.737   0.036  12.748 -0.5539  0.9736  0.0272
  404TMC3    C6 6087   0.621   0.094  12.791 -0.6373  0.4337 -0.2967
  404TMC3     C 6088   0.946   0.021  13.054 -0.6216 -0.6348 -0.4368
  404TMC3     O 6089   0.941   0.099  13.147  0.0660 -0.4848 -0.0014
  404TMC3     H 6090   0.730   0.175  13.109 -2.2752 -0.2724 -0.4304
  404TMC3    H1 6091   0.940   4.712  12.801 -1.2400 -1.1171 -0.4544
  404TMC3    H2 6092   0.528   0.096  12.736 -1.7443  1.5902  1.6153
  404TMC3    C7 6093   0.758   4.723  12.614  0.9142  0.3802  0.3591
  404TMC3    C8 6094   0.499   0.191  12.976 -0.1116  0.4458 -0.2571
  404TMC3    O1 6095   0.871   0.000  12.562 -0.3171 -0.3024  0.4027
  404TMC3    O2 6096   0.404   0.208  12.899 -0.1311  0.2057  0.0500
  405MPD2     C 6097   1.233   1.268  14.458  0.1190  0.3331 -0.2641
  405MPD2    C1 6098   1.255   1.230  14.326 -0.0473  0.0006 -0.0228
  405MPD2    C2 6099   1.287   1.328  14.230 -0.4198  0.0136  0.7465
  405MPD2    C3 6100   1.282   1.465  14.265  0.1557 -0.0814  0.6219
  405MPD2    C4 6101   1.243   1.497  14.396  0.5439  0.4985 -0.3877
  405MPD2    C5 6102   1.230   1.396  14.489 -0.4025 -0.0408 -0.5243
  405MPD2     H 6103   1.320   1.295  14.132 -0.9559 -0.8754  0.8672
  405MPD2    H1 6104   1.242   1.602  14.423 -0.7522  0.4677 -0.3394
  405MPD2    H2 6105   1.239   1.201  14.542 -0.7168 -0.5010 -0.8694
  405MPD2    H3 6106   1.222   1.415  14.595 -1.2715  0.9820 -0.7767
  405MPD2     N 6107   1.313   1.557  14.166  0.2586  0.4409 -0.4102
  405MPD2    H5 6108   1.338   1.515  14.077  1.1785 -1.0191  0.5257
  405MPD2    N1 6109   1.247   1.098  14.281  0.1597 -0.2955 -0.5450
  405MPD2    H7 6110   1.263   1.081  14.182 -1.4556 -1.2989 -0.6193
  406TMC3    C1 6111   1.123   1.919  13.965  0.2911 -0.1960 -0.1124
  406TMC3    C2 6112   1.126   1.864  13.839 -0.5092  0.6589  0.0503
  406TMC3    C3 6113   1.187   1.739  13.836 -0.1800 -0.5045 -0.8872
  406TMC3    C4 6114   1.197   1.876  14.070  0.6060  0.1660  0.2074
  406TMC3    C5 6115   1.265   1.758  14.056  0.1838 -0.7198 -0.1021
  406TMC3    C6 6116   1.249   1.684  13.941  0.1066  0.5086  0.1913
  406TMC3     C 6117   1.020   2.010  13.996 -0.2021  0.3987  0.4976
  406TMC3     O 6118   1.043   2.128  13.977  0.0350  0.4158  0.5724
  406TMC3     H 6119   1.055   1.891  13.762 -0.4016 -0.0554 -0.2984
  406TMC3    H1 6120   1.197   1.936  14.161 -0.4753  1.9424 -0.9544
  406TMC3    H2 6121   1.301   1.589  13.929  3.2288  1.9844  2.1727
  406TMC3    C7 6122   1.296   1.692  14.179  0.2764  0.0300  0.2298
  406TMC3    C8 6123   1.135   1.645  13.738 -0.1982 -0.4741  1.1172
  406TMC3    O1 6124   1.288   1.757  14.280 -0.1871 -0.2556 -0.1441
  406TMC3    O2 6125   1.111   1.681  13.623 -0.3932  0.2507 -0.7183
  407MPD2     C 6126   3.041   2.415   9.798 -0.2197 -0.2225 -0.0582
  407MPD2    C1 6127   3.090   2.476   9.687  0.5478 -0.4431  0.0749
  407MPD2    C2 6128   3.182   2.575   9.697 -0.7585 -0.2235 -0.2484
  407MPD2    C3 6129   3.228   2.614   9.823 -0.0808  1.1765 -0.5189
  407MPD2    C4 6130   3.176   2.559   9.933  0.0540  0.3802  0.1785
  407MPD2    C5 6131   3.086   2.461   9.919 -0.0680 -0.3348  0.2231
  407MPD2     H 6132   3.226   2.622   9.610 -0.0742  0.4465  0.4648
  407MPD2    H1 6133   3.213   2.596  10.028  0.8191  0.5585 -0.1880
  407MPD2    H2 6134   2.975   2.329   9.805  0.0829 -0.4399  0.1041
  407MPD2    H3 6135   3.042   2.412  10.005 -0.8812 -0.7535 -0.4269
  407MPD2     N 6136   3.303   2.734   9.829 -0.5539 -0.7845  0.0567
  407MPD2    H5 6137   3.298   2.792   9.746  0.7302 -1.8999 -0.8077
  407MPD2    N1 6138   3.046   2.437   9.557  0.2214 -0.0690 -0.1763
  407MPD2    H7 6139   3.087   2.481   9.476 -1.3031  1.9388  0.1416
  408TMC3    C1 6140   2.972   2.302   9.382  0.2433 -0.4475 -0.3642
  408TMC3    C2 6141   3.090   2.331   9.319 -0.4082  0.1158 -0.1043
  408TMC3    C3 6142   3.098   2.288   9.191  0.6038 -0.9530 -1.0927
  408TMC3    C4 6143   2.870   2.231   9.324  0.6833  0.2435 -0.2494
  408TMC3    C5 6144   2.882   2.202   9.191  0.3928 -0.0433  0.6034
  408TMC3    C6 6145   2.997   2.228   9.122 -0.7489 -0.5176 -0.0685
  408TMC3     C 6146   2.956   2.335   9.525  0.0853 -1.0253 -0.2999
  408TMC3     O 6147   2.893   2.257   9.590 -0.3497  0.4658  0.0187
  408TMC3     H 6148   3.171   2.374   9.376  0.4411 -2.1814  0.4204
  408TMC3    H1 6149   2.779   2.203   9.376  2.2837 -3.4745  0.5123
  408TMC3    H2 6150   3.017   2.173   9.031 -1.0899 -0.8243  0.0387
  408TMC3    C7 6151   2.764   2.143   9.123  0.4437  0.1916 -0.3753
  408TMC3    C8 6152   3.219   2.324   9.119 -0.0059 -0.4760 -0.5342
  408TMC3    O1 6153   2.668   2.097   9.187  0.1148  0.3252 -0.1952
  408TMC3    O2 6154   3.249   2.240   9.032  0.1511  0.0383  0.1647
  409MPD2     C 6155   2.957   3.575  16.637  0.1579  0.4067 -0.0402
  409MPD2    C1 6156   3.062   3.583  16.728  0.5205  1.1265 -0.1304
  409MPD2    C2 6157   3.173   3.658  16.697 -0.6578 -0.1670  0.3248
  409MPD2    C3 6158   3.181   3.735  16.581  0.5689  0.0483  0.0803
  409MPD2    C4 6159   3.079   3.721  16.494 -0.1623 -0.5163  0.3707
  409MPD2    C5 6160   2.959   3.656  16.530  0.3681  0.3047  0.3359
  409MPD2     H 6161   3.248   3.669  16.774 -0.4925 -0.2723  0.1791
  409MPD2    H1 6162   3.073   3.782  16.405 -1.5932 -2.4061 -0.8259
  409MPD2    H2 6163   2.873   3.509  16.651 -1.0693  1.8287 -0.6166
  409MPD2    H3 6164   2.874   3.665  16.464  1.7697  3.0838 -1.1026
  409MPD2     N 6165   3.290   3.814  16.543 -0.0169  0.1816 -0.1870
  409MPD2    H5 6166   3.285   3.848  16.448 -1.2816 -2.0490 -0.9163
  409MPD2    N1 6167   3.063   3.507  16.847 -0.0362 -0.1894 -0.4004
  409MPD2    H7 6168   3.144   3.513  16.907  1.8205  0.7910 -3.0120
  410TMC3    C1 6169   3.481   3.959  16.576 -0.0916  0.1403  0.2484
  410TMC3    C2 6170   3.577   4.001  16.659 -0.2881 -0.4885  0.3743
  410TMC3    C3 6171   3.663   4.088  16.611  0.1502  0.4293 -0.2089
  410TMC3    C4 6172   3.450   4.032  16.463  0.8037 -0.1227 -0.0372
  410TMC3    C5 6173   3.536   4.131  16.426 -0.3804  0.4348  0.6391
  410TMC3    C6 6174   3.654   4.159  16.496 -0.4959  0.2688 -0.2780
  410TMC3     C 6175   3.390   3.860  16.628  0.8655  0.4224  0.2720
  410TMC3     O 6176   3.420   3.818  16.741 -0.0676 -0.1907 -0.5176
  410TMC3     H 6177   3.588   3.951  16.755 -0.3581 -1.2820 -0.0390
  410TMC3    H1 6178   3.366   4.004  16.401  1.6180  1.9235 -2.0649
  410TMC3    H2 6179   3.722   4.240  16.469  0.9361 -1.1166 -0.7987
  410TMC3    C7 6180   3.518   4.189  16.295  0.0416  1.0777  0.9026
  410TMC3    C8 6181   3.786   4.094  16.683  0.1955 -0.5127  0.1168
  410TMC3    O1 6182   3.473   4.110  16.214 -0.0535 -0.3093  0.3414
  410TMC3    O2 6183   3.853   4.196  16.680  0.4478  0.0123  0.3623
  411MPD2     C 6184   3.359   4.267  14.014  0.3168 -0.5583  0.2859
  411MPD2    C1 6185   3.314   4.257  14.145 -0.4078  0.1065 -0.4499
  411MPD2    C2 6186   3.234   4.143  14.177 -0.2131  0.1400 -0.1626
  411MPD2    C3 6187   3.193   4.051  14.074 -0.5448 -0.7748 -0.4123
  411MPD2    C4 6188   3.244   4.068  13.949 -0.2377 -0.2088  0.5713
  411MPD2    C5 6189   3.328   4.170  13.924 -0.2681  0.2477  0.1651
  411MPD2     H 6190   3.199   4.136  14.280  1.8825  0.5726  0.5703
  411MPD2    H1 6191   3.246   3.988  13.876 -3.2672  0.8307 -0.6603
  411MPD2    H2 6192   3.419   4.353  13.988 -2.2718  1.2864  0.3847
  411MPD2    H3 6193   3.377   4.164  13.828  1.6664 -1.2296  1.2403
  411MPD2     N 6194   3.117   3.935  14.097  0.0309  0.7268 -0.2858
  411MPD2    H5 6195   3.123   3.861  14.028 -2.4647 -1.4195  1.7863
  411MPD2    N1 6196   3.335   4.372  14.225 -0.1057 -0.1138 -0.6199
  411MPD2    H7 6197   3.384   4.451  14.185  1.0617 -0.6579 -0.2470
  412TMC3    C1 6198   2.976   3.782  14.211 -0.2231 -0.2170  0.3616
  412TMC3    C2 6199   2.878   3.764  14.306  0.3172 -0.2103  0.9381
  412TMC3    C3 6200   2.792   3.656  14.297  0.2511  0.2939  0.4199
  412TMC3    C4 6201   2.997   3.689  14.113  0.4068  0.1405 -0.0769
  412TMC3    C5 6202   2.916   3.578  14.105  0.7766  1.0563 -0.0188
  412TMC3    C6 6203   2.822   3.552  14.209 -0.2105  1.0500  0.2094
  412TMC3     C 6204   3.049   3.911  14.213  0.2833 -0.8280  0.3257
  412TMC3     O 6205   3.020   3.989  14.301 -0.2136 -0.5840 -0.2032
  412TMC3     H 6206   2.844   3.850  14.363  1.3113 -0.4909  1.9441
  412TMC3    H1 6207   3.062   3.719  14.032 -1.6897  1.8553 -1.1379
  412TMC3    H2 6208   2.760   3.463  14.210  1.8038 -0.3845 -1.9902
  412TMC3    C7 6209   2.871   3.529  13.974  0.8155 -0.6051 -0.0300
  412TMC3    C8 6210   2.651   3.706  14.291 -0.3928  0.5395  0.4392
  412TMC3    O1 6211   2.772   3.460  13.983  0.2499 -0.5807  0.2071
  412TMC3    O2 6212   2.614   3.776  14.381 -0.0334  0.1984 -0.5813
  413MPD2     C 6213   0.096   2.207  15.280 -0.7379  0.2750  0.9457
  413MPD2    C1 6214   0.153   2.282  15.183  0.0096  0.2793 -0.2460
  413MPD2    C2 6215   0.256   2.242  15.102  0.1988  0.8078 -0.0543
  413MPD2    C3 6216   0.310   2.118  15.118  0.4476  0.4979  0.7190
  413MPD2    C4 6217   0.245   2.040  15.206 -0.7050 -0.1217  0.3829
  413MPD2    C5 6218   0.146   2.082  15.289  0.2833 -0.2548 -0.2340
  413MPD2     H 6219   0.303   2.308  15.030  0.9956  0.8700  0.5168
  413MPD2    H1 6220   0.276   1.939  15.229 -0.3196  0.2634  1.5169
  413MPD2    H2 6221   0.014   2.236  15.345  0.4088  1.2242  1.9593
  413MPD2    H3 6222   0.111   2.004  15.356  1.5365 -1.2604 -0.7459
  413MPD2     N 6223   0.401   2.068  15.024  0.6677 -0.9405  0.0855
  413MPD2    H5 6224   0.433   2.132  14.952  0.6698 -0.8342  0.1804
  413MPD2    N1 6225   0.092   2.410  15.160 -0.5603  0.3465  0.0061
  413MPD2    H7 6226   0.028   2.429  15.236 -1.2435 -0.1376 -0.4419
  414TMC3    C1 6227   0.573   1.915  14.944  0.2322 -0.9291 -0.6327
  414TMC3    C2 6228   0.656   1.803  14.968  0.3763  0.4331  0.4729
  414TMC3    C3 6229   0.777   1.786  14.903 -0.1227  0.0582  0.6448
  414TMC3    C4 6230   0.604   1.992  14.831  0.1546 -0.3910  0.2960
  414TMC3    C5 6231   0.721   1.958  14.770  1.1592  0.5863 -0.3417
  414TMC3    C6 6232   0.812   1.866  14.809  0.4541 -0.3148 -0.5495
  414TMC3     C 6233   0.469   1.949  15.043  0.5467  0.3395  0.3372
  414TMC3     O 6234   0.466   1.869  15.139  0.1134  0.0485  0.0937
  414TMC3     H 6235   0.621   1.733  15.044  0.2976 -1.5360 -1.3844
  414TMC3    H1 6236   0.537   2.061  14.780  1.6313 -0.1551 -1.3176
  414TMC3    H2 6237   0.889   1.832  14.740  1.2485 -1.0468  0.7057
  414TMC3    C7 6238   0.745   2.021  14.645 -0.4368 -0.0393  0.3814
  414TMC3    C8 6239   0.843   1.663  14.917  0.0234  0.1205 -0.2653
  414TMC3    O1 6240   0.653   2.032  14.569  1.1482 -0.0311 -0.4815
  414TMC3    O2 6241   0.785   1.564  14.955 -0.1057  1.0469 -0.0292
  415TMC3    C1 6242   0.949   0.148   9.872  0.5776  0.2455  0.8722
  415TMC3    C2 6243   1.032   0.189   9.769  0.2775 -0.4511  0.4643
  415TMC3    C3 6244   0.997   0.175   9.637 -0.2822  1.2318 -0.0396
  415TMC3    C4 6245   0.828   0.105   9.841  0.0471 -0.3824 -0.6091
  415TMC3    C5 6246   0.797   0.082   9.708  0.0242  0.4189 -0.8561
  415TMC3    C6 6247   0.879   0.116   9.602 -0.2683 -0.1853 -0.1243
  415TMC3     C 6248   0.967   0.152  10.017 -0.2713 -0.0380  0.7531
  415TMC3     O 6249   0.886   0.086  10.085 -0.8500 -0.0145 -0.4564
  415TMC3     H 6250   1.132   0.227   9.787  0.1340 -0.0287  0.3594
  415TMC3    H1 6251   0.747   0.113   9.912  1.3192 -0.9737  0.9061
  415TMC3    H2 6252   0.866   0.078   9.502 -0.6821 -1.3088  0.3483
  415TMC3    C7 6253   0.690   4.729   9.672 -0.1297  0.2637 -0.9011
  415TMC3    C8 6254   1.108   0.149   9.541 -0.0766 -0.3693 -0.3889
  415TMC3    O1 6255   0.667   4.716   9.551 -0.2107  0.0124 -0.0756
  415TMC3    O2 6256   1.115   0.036   9.492  0.6648 -0.0541 -0.0929
  416MPD2     C 6257   2.734   3.515  11.455 -0.1727  0.4669 -0.3427
  416MPD2    C1 6258   2.628   3.571  11.386  0.7419 -0.8335  0.0101
  416MPD2    C2 6259   2.565   3.497  11.288 -0.6172  0.4226 -0.3195
  416MPD2    C3 6260   2.602   3.369  11.254  0.0841 -0.1977 -0.2397
  416MPD2    C4 6261   2.703   3.307  11.329 -0.1053 -0.0047 -0.2626
  416MPD2    C5 6262   2.773   3.389  11.418 -0.0072  0.6469  0.5532
  416MPD2     H 6263   2.487   3.548  11.232 -0.3272  1.7035  0.4396
  416MPD2    H1 6264   2.737   3.207  11.307 -0.0911  0.1130 -0.7799
  416MPD2    H2 6265   2.783   3.562  11.538  2.2261 -1.8175 -0.4653
  416MPD2    H3 6266   2.860   3.342  11.462  0.9076  1.3524 -0.5228
  416MPD2     N 6267   2.527   3.291  11.167 -0.1265 -1.0016  0.2215
  416MPD2    H5 6268   2.568   3.198  11.161  1.4920 -0.0679 -3.1967
  416MPD2    N1 6269   2.609   3.713  11.421  0.7201  0.0777  1.0556
  416MPD2    H7 6270   2.652   3.748  11.506 -0.1414  1.3649  0.9745
  417TMC3    C1 6271   2.502   3.925  11.404  0.1051 -0.1302  0.3535
  417TMC3    C2 6272   2.513   3.943  11.536  0.0117 -0.9176 -0.4223
  417TMC3    C3 6273   2.431   4.031  11.601 -0.2899 -0.5072  0.4469
  417TMC3    C4 6274   2.418   4.006  11.332 -0.1368 -0.4271  0.0685
  417TMC3    C5 6275   2.348   4.106  11.397 -0.2817 -0.7236  0.2879
  417TMC3    C6 6276   2.355   4.124  11.536 -0.0396 -0.3415 -0.2023
  417TMC3     C 6277   2.532   3.800  11.344 -0.0623  0.0974 -0.0850
  417TMC3     O 6278   2.478   3.773  11.239 -0.3261 -0.5765 -0.1893
  417TMC3     H 6279   2.585   3.891  11.599 -0.1349 -0.6010  0.0104
  417TMC3    H1 6280   2.402   3.989  11.227  1.4206  0.8995 -0.3906
  417TMC3    H2 6281   2.292   4.197  11.585 -1.7830 -1.0485 -1.3850
  417TMC3    C7 6282   2.234   4.149  11.322 -0.1192 -0.0792  0.6963
  417TMC3    C8 6283   2.432   4.047  11.749  0.2760  0.0419  0.3958
  417TMC3    O1 6284   2.238   4.144  11.201 -0.0853  0.1404 -0.3129
  417TMC3    O2 6285   2.370   4.143  11.787  0.0184  0.1610 -0.7556
  418TMC3    C1 6286   1.533   1.729  17.542 -0.4781 -0.8027 -0.6462
  418TMC3    C2 6287   1.403   1.721  17.492  0.7187 -0.7609 -0.5662
  418TMC3    C3 6288   1.312   1.647  17.567 -0.6324 -0.8790 -0.2187
  418TMC3    C4 6289   1.566   1.676  17.664  0.3737 -0.8040 -0.6886
  418TMC3    C5 6290   1.468   1.606  17.733  0.6041  0.1591 -0.0042
  418TMC3    C6 6291   1.349   1.587  17.683  0.2362 -0.1085 -0.1140
  418TMC3     C 6292   1.636   1.790  17.457  0.2291 -0.1369 -0.6874
  418TMC3     O 6293   1.607   1.850  17.353 -0.1483  0.0620  0.3243
  418TMC3     H 6294   1.386   1.770  17.397  2.8859 -0.2910 -0.7095
  418TMC3    H1 6295   1.661   1.687  17.715  0.7594  0.3112 -1.6414
  418TMC3    H2 6296   1.275   1.536   0.005 -0.6633  1.2947 -0.0395
  418TMC3    C7 6297   1.495   1.517   0.103 -0.1597  0.9683 -0.4314
  418TMC3    C8 6298   1.174   1.625  17.519  0.0412  0.1400 -0.0985
  418TMC3    O1 6299   1.459   1.402   0.084  0.6765 -0.2335 -0.6808
  418TMC3    O2 6300   1.124   1.720  17.462  0.2505  0.1422  0.2328
  419MPD2     C 6301   0.800   4.239  11.799  0.2993 -0.3002 -0.5603
  419MPD2    C1 6302   0.668   4.279  11.780  0.6724 -0.0614  0.4467
  419MPD2    C2 6303   0.589   4.302  11.890  0.7420  0.1164 -0.3240
  419MPD2    C3 6304   0.635   4.279  12.021  0.3423 -0.7032  0.0481
  419MPD2    C4 6305   0.769   4.253  12.044 -0.2566  0.6024 -0.1636
  419MPD2    C5 6306   0.845   4.234  11.930  0.8719  0.3857  0.1558
  419MPD2     H 6307   0.487   4.331  11.868  0.8753  1.4627  0.8486
  419MPD2    H1 6308   0.814   4.226  12.139  1.0030  2.9512 -0.0808
  419MPD2    H2 6309   0.876   4.251  11.722 -0.4667 -0.2396 -1.3051
  419MPD2    H3 6310   0.951   4.224  11.948  0.8779  1.9944  1.0654
  419MPD2     N 6311   0.545   4.283  12.130 -0.8460 -0.7739  0.0165
  419MPD2    H5 6312   0.446   4.277  12.105 -1.1008  3.0582  0.1051
  419MPD2    N1 6313   0.612   4.304  11.650 -0.0154  0.3638  0.0941
  419MPD2    H7 6314   0.519   4.344  11.662  0.3123  1.1622 -0.0278
  420TMC3    C1 6315   0.441   4.294  12.341  0.1415 -0.2229 -0.2052
  420TMC3    C2 6316   0.345   4.371  12.278 -0.0837  0.2327  0.0771
  420TMC3    C3 6317   0.246   4.423  12.356  0.0043 -0.1456  0.0371
  420TMC3    C4 6318   0.433   4.257  12.472 -0.8854 -0.0048  0.6897
  420TMC3    C5 6319   0.327   4.309  12.541  0.3387 -0.3477  0.0372
  420TMC3    C6 6320   0.237   4.398  12.487 -0.0765 -1.1105  0.4136
  420TMC3     C 6321   0.562   4.261  12.267  0.5705 -0.3870 -0.5189
  420TMC3     O 6322   0.662   4.216  12.324  0.2141 -0.1925 -0.1791
  420TMC3     H 6323   0.360   4.419  12.182 -0.5120 -1.2441 -0.7327
  420TMC3    H1 6324   0.510   4.199  12.522 -1.9309 -0.2320  2.0549
  420TMC3    H2 6325   0.150   4.424  12.546 -0.3580 -1.7027  0.2575
  420TMC3    C7 6326   0.325   4.280  12.684  0.1165 -0.5599 -0.1430
  420TMC3    C8 6327   0.135   4.493  12.287 -1.0025  0.3824  0.4388
  420TMC3    O1 6328   0.377   4.179  12.727  0.2873 -0.0621 -0.2320
  420TMC3    O2 6329   0.087   4.454  12.178 -0.2115  0.2167  0.1000
  421TMC3    C1 6330   1.615   0.230  13.333 -0.1820 -0.0634 -0.1283
  421TMC3    C2 6331   1.544   0.346  13.323  0.6125 -0.3936  0.2708
  421TMC3    C3 6332   1.608   0.465  13.349  0.3007  0.9340 -0.8275
  421TMC3    C4 6333   1.751   0.231  13.361 -0.2848  0.2047 -0.6500
  421TMC3    C5 6334   1.812   0.346  13.388  0.5699 -0.2551  0.5400
  421TMC3    C6 6335   1.738   0.459  13.390  0.3090 -0.0363 -0.5011
  421TMC3     C 6336   1.571   0.117  13.248  0.4835  0.4064 -0.1693
  421TMC3     O 6337   1.653   0.038  13.206 -0.3044  0.1670 -0.3252
  421TMC3     H 6338   1.444   0.349  13.282  1.1949 -3.2943 -1.3217
  421TMC3    H1 6339   1.810   0.140  13.359 -1.1812 -0.4128  1.3017
  421TMC3    H2 6340   1.792   0.553  13.398 -1.6967  1.1594 -0.9579
  421TMC3    C7 6341   1.954   0.349  13.423  0.0623  0.6999 -0.7867
  421TMC3    C8 6342   1.539   0.590  13.342 -0.2594  0.4404 -0.7574
  421TMC3    O1 6343   1.990   0.443  13.495 -0.6178 -0.1452  0.1513
  421TMC3    O2 6344   1.609   0.690  13.352 -0.6981  0.5786  0.6956
  422TMC3    C1 6345   3.744   1.999  12.290 -0.8400  0.1589  0.5245
  422TMC3    C2 6346   3.736   2.135  12.325 -0.5964  0.2113  0.0647
  422TMC3    C3 6347   3.624   2.176  12.387  0.2269  0.5219 -0.4765
  422TMC3    C4 6348   3.648   1.909  12.320 -0.1418  0.1195 -0.2084
  422TMC3    C5 6349   3.537   1.962  12.382 -1.2706 -0.1053 -0.0930
  422TMC3    C6 6350   3.524   2.093  12.425  0.5166  0.2696 -0.6486
  422TMC3     C 6351   3.845   1.971  12.194  0.3419 -0.1026 -0.1727
  422TMC3     O 6352   3.890   2.063  12.125  0.4914  0.1597  0.4981
  422TMC3     H 6353   3.820   2.200  12.303 -1.4874  1.7133  1.1391
  422TMC3    H1 6354   3.647   1.806  12.284 -0.0298  0.5295 -1.3686
  422TMC3    H2 6355   3.444   2.132  12.486 -0.1408  0.0570 -1.3801
  422TMC3    C7 6356   3.446   1.857  12.435 -0.3432 -0.6532  0.3986
  422TMC3    C8 6357   3.604   2.320  12.383 -0.3155  0.3451  0.0624
  422TMC3    O1 6358   3.492   1.745  12.426 -0.1249  0.1773  0.3697
  422TMC3    O2 6359   3.699   2.396  12.400 -0.3093 -0.3952 -0.5279
  423MPD2     C 6360   0.544   3.689  17.716 -0.3259 -0.0393 -0.2865
  423MPD2    C1 6361   0.500   3.578   0.046  0.2622 -0.4628  0.3530
  423MPD2    C2 6362   0.468   3.462  17.716  1.4763 -0.0497 -0.0613
  423MPD2    C3 6363   0.455   3.467  17.576 -0.2711  0.6772  0.2168
  423MPD2    C4 6364   0.484   3.584  17.513  0.3009  0.2858 -0.3971
  423MPD2    C5 6365   0.535   3.695  17.575  0.2539  0.2930 -0.4275
  423MPD2     H 6366   0.457   3.367   0.028  1.4943 -0.1597 -0.2623
  423MPD2    H1 6367   0.489   3.588  17.404 -0.4504 -0.6937 -0.4738
  423MPD2    H2 6368   0.584   3.779   0.020 -3.8295  0.8538  1.0888
  423MPD2    H3 6369   0.566   3.789  17.531  1.3648 -0.6690 -1.7039
  423MPD2     N 6370   0.399   3.367  17.498  0.1563  0.4753 -0.6036
  423MPD2    H5 6371   0.398   3.378  17.397  0.5953 -1.4687 -0.8212
  423MPD2    N1 6372   0.513   3.573   0.186  0.1540  0.1583  0.1340
  423MPD2    H7 6373   0.484   3.483   0.223  0.2196 -0.4277 -1.2498
  424TMC3    C1 6374   0.594   3.620   0.392  0.4103 -0.3085  0.7410
  424TMC3    C2 6375   0.728   3.602   0.414  0.6462  0.4045 -0.2990
  424TMC3    C3 6376   0.765   3.511   0.505  0.0595 -0.6211  0.9720
  424TMC3    C4 6377   0.497   3.547   0.457 -0.0228  0.0015  0.6869
  424TMC3    C5 6378   0.544   3.452   0.546  0.7854  0.2519  0.4574
  424TMC3    C6 6379   0.678   3.436   0.578  0.8184  0.1975  0.4170
  424TMC3     C 6380   0.564   3.669   0.263 -0.2105 -0.5576  0.2114
  424TMC3     O 6381   0.586   3.786   0.238  0.1385  0.0525  0.5550
  424TMC3     H 6382   0.799   3.656   0.354  1.6425 -0.1330  0.3970
  424TMC3    H1 6383   0.391   3.552   0.438  0.5310  0.5848 -2.3179
  424TMC3    H2 6384   0.701   3.367   0.658  0.9882  0.1367  0.3165
  424TMC3    C7 6385   0.455   3.363   0.624 -0.5302  0.6890 -0.4267
  424TMC3    C8 6386   0.908   3.491   0.501  0.3577  0.1661  0.4588
  424TMC3    O1 6387   0.502   3.259   0.670 -0.1300  0.3458 -0.2306
  424TMC3    O2 6388   0.978   3.582   0.453  0.2051 -0.4719 -0.6882
  425MPD2     C 6389   3.932   2.440  16.868  0.4766 -0.1324  0.6340
  425MPD2    C1 6390   3.834   2.343  16.879 -1.0370 -0.4598 -0.8321
  425MPD2    C2 6391   3.706   2.378  16.923 -0.2256  0.8005 -0.5651
  425MPD2    C3 6392   3.673   2.505  16.962  0.2405  0.1926 -0.5504
  425MPD2    C4 6393   3.769   2.597  16.962 -0.0976 -0.2245 -0.3541
  425MPD2    C5 6394   3.893   2.565  16.915 -0.2840 -0.2078 -0.5802
  425MPD2     H 6395   3.628   2.302  16.928  0.7530 -0.2007 -0.5196
  425MPD2    H1 6396   3.757   2.700  16.993 -2.8178 -1.3091  2.0963
  425MPD2    H2 6397   4.028   2.413  16.826  0.8465  0.3325  1.1835
  425MPD2    H3 6398   3.979   2.631  16.914  0.1776 -0.8084 -0.4508
  425MPD2     N 6399   3.536   2.539  16.998 -0.2060 -0.4321  0.0964
  425MPD2    H5 6400   3.458   2.478  16.976  0.0984 -1.0780  0.7973
  425MPD2    N1 6401   3.884   2.214  16.851  1.0322  0.3905  0.3573
  425MPD2    H7 6402   3.984   2.202  16.836  0.5436 -0.9267 -1.8717
  426TMC3    C1 6403   3.860   1.974  16.836  0.2282 -0.0016 -0.3737
  426TMC3    C2 6404   3.947   1.951  16.731  0.2520  0.1155  0.0057
  426TMC3    C3 6405   3.981   1.828  16.695  0.7770  0.7871  0.8315
  426TMC3    C4 6406   3.807   1.866  16.908  0.1182  0.5782 -0.0976
  426TMC3    C5 6407   3.838   1.739  16.868 -0.3896  0.8492  0.2182
  426TMC3    C6 6408   3.928   1.720  16.764 -0.0892 -0.0255  0.0190
  426TMC3     C 6409   3.806   2.103  16.875 -0.3296  0.6002 -0.1142
  426TMC3     O 6410   3.699   2.086  16.928  0.1292  0.4080  0.6480
  426TMC3     H 6411   3.955   2.036  16.663  0.4221 -1.4385 -1.9076
  426TMC3    H1 6412   3.736   1.883  16.989  0.7135 -0.4299  0.6311
  426TMC3    H2 6413   3.963   1.619  16.753 -2.0545 -0.7012  0.0254
  426TMC3    C7 6414   3.754   1.624  16.901 -0.5007  0.0502  0.3484
  426TMC3    C8 6415   4.020   1.815  16.561 -0.7434 -0.6680  0.1395
  426TMC3    O1 6416   3.775   1.512  16.850 -0.0429 -0.1863 -0.1204
  426TMC3    O2 6417   3.994   1.706  16.511  0.2357 -0.8537 -0.0157
  427MPD2     C 6418   2.675   4.507  14.444  0.3187 -0.6406  0.4241
  427MPD2    C1 6419   2.613   4.493  14.565  0.5212 -0.7989  0.2314
  427MPD2    C2 6420   2.476   4.520  14.567  0.2542  0.1410  0.7334
  427MPD2    C3 6421   2.394   4.545  14.454  0.6779 -0.1196  0.3908
  427MPD2    C4 6422   2.465   4.566  14.335  0.0944  0.3148  0.5303
  427MPD2    C5 6423   2.603   4.533  14.329  0.0425  0.3224  0.3699
  427MPD2     H 6424   2.435   4.506  14.666  0.0941 -3.8303  0.0814
  427MPD2    H1 6425   2.426   4.604  14.241 -1.4329 -2.4201  0.0871
  427MPD2    H2 6426   2.780   4.484  14.426 -0.3954 -2.0340 -1.9869
  427MPD2    H3 6427   2.649   4.549  14.232  0.5531 -1.8518  0.2529
  427MPD2     N 6428   2.254   4.566  14.451 -0.7067 -0.4617  0.4914
  427MPD2    H5 6429   2.200   4.576  14.365 -0.4598  0.7055  0.4727
  427MPD2    N1 6430   2.674   4.462  14.689 -0.4920 -0.1343  0.6176
  427MPD2    H7 6431   2.612   4.453  14.769 -0.5529  0.9183  0.6912
  428TMC3    C1 6432   2.831   4.381  14.836 -0.2379 -0.3657 -0.4190
  428TMC3    C2 6433   2.727   4.342  14.915  0.0141  0.3790  0.3248
  428TMC3    C3 6434   2.758   4.324  15.046  0.0828 -0.7620 -0.3829
  428TMC3    C4 6435   2.957   4.421  14.877 -0.5738  0.0009 -0.9402
  428TMC3    C5 6436   2.976   4.404  15.012 -0.2824 -0.2033 -0.3989
  428TMC3    C6 6437   2.881   4.353  15.097 -0.7823  0.4405  0.9179
  428TMC3     C 6438   2.802   4.409  14.693 -0.8153 -0.0780  0.3310
  428TMC3     O 6439   2.895   4.405  14.611 -0.4919  0.9299  0.2558
  428TMC3     H 6440   2.636   4.300  14.874  0.2947 -2.0317  2.1663
  428TMC3    H1 6441   3.037   4.435  14.805 -1.7985  0.7572 -2.1640
  428TMC3    H2 6442   2.890   4.347  15.205 -1.6471 -1.1609  0.9074
  428TMC3    C7 6443   3.106   4.442  15.073  0.4780  0.6645  0.3668
  428TMC3    C8 6444   2.648   4.303  15.141  0.0399  0.3239 -0.3759
  428TMC3    O1 6445   3.108   4.428  15.194  0.5785 -0.0292 -0.4457
  428TMC3    O2 6446   2.539   4.346  15.104 -0.1243 -0.3381  0.2316
  429MPD2     C 6447   3.585   4.700  17.441 -0.0562  0.6239  0.4113
  429MPD2    C1 6448   3.642   4.628  17.336 -0.6621  0.5427 -0.1586
  429MPD2    C2 6449   3.702   4.695  17.228  0.5024 -0.1335 -1.1705
  429MPD2    C3 6450   3.716   0.095  17.227  0.0665 -0.8311 -0.0954
  429MPD2    C4 6451   3.657   0.166  17.332  0.4593  0.2800 -0.0846
  429MPD2    C5 6452   3.600   0.099  17.443  0.8687 -0.1252  0.4693
  429MPD2     H 6453   3.758   4.630  17.162  0.4430  0.7221 -2.0560
  429MPD2    H1 6454   3.675   0.273  17.336  0.8571  0.2058  0.2002
  429MPD2    H2 6455   3.533   4.653  17.524  1.4891 -1.6134  0.1286
  429MPD2    H3 6456   3.557   0.154  17.526  1.8493 -0.2981  1.0890
  429MPD2     N 6457   3.796   0.145  17.123 -0.3487  0.2653 -0.5485
  429MPD2    H5 6458   3.837   0.072  17.065  1.2235  0.3656  0.4381
  429MPD2    N1 6459   3.626   4.484  17.332 -0.6395 -0.0892 -0.1499
  429MPD2    H7 6460   3.640   4.447  17.239  0.8075 -1.4194  0.5852
  430TMC3    C1 6461   3.897   0.289  16.966 -0.2644 -0.6556  0.3635
  430TMC3    C2 6462   3.910   0.410  16.905 -0.5579 -0.2443 -0.0005
  430TMC3    C3 6463   3.998   0.421  16.801 -0.1353  0.4394  0.1969
  430TMC3    C4 6464   3.972   0.182  16.916 -0.2436 -0.4408  0.3211
  430TMC3    C5 6465   4.054   0.199  16.810 -0.4118 -0.0795  0.3798
  430TMC3    C6 6466   4.077   0.316  16.762 -0.1639 -0.2595 -1.3493
  430TMC3     C 6467   3.813   0.273  17.082 -0.4637 -0.0962  0.0103
  430TMC3     O 6468   3.742   0.370  17.118 -0.2810  0.1985  0.6928
  430TMC3     H 6469   3.833   0.479  16.936 -0.3087 -0.5658  1.3373
  430TMC3    H1 6470   3.956   0.076  16.937  1.5021 -0.7914 -0.1608
  430TMC3    H2 6471   4.151   0.322  16.683 -0.9339  3.3307 -1.7992
  430TMC3    C7 6472   4.057   0.093  16.704  0.2219  0.5362  0.3413
  430TMC3    C8 6473   3.945   0.492  16.686 -0.1565  0.0884 -0.9185
  430TMC3    O1 6474   4.054   4.708  16.731 -0.4480  0.5098 -0.0568
  430TMC3    O2 6475   3.950   0.425  16.586 -0.1423 -0.7484  0.1013
  431MPD2     C 6476   4.679   4.341  11.872  0.6154  0.3230 -0.5523
  431MPD2    C1 6477   0.009   4.444  11.802 -0.2462 -0.2135 -0.1829
  431MPD2    C2 6478   0.065   4.413  11.677 -0.2383 -0.1734 -0.6774
  431MPD2    C3 6479   0.055   4.284  11.613 -0.0441  0.7972  0.1045
  431MPD2    C4 6480   4.719   4.190  11.682  0.0888  0.1792 -0.1022
  431MPD2    C5 6481   4.663   4.220  11.809 -0.0310 -0.4777 -0.1046
  431MPD2     H 6482   0.112   4.496  11.627  0.5627 -0.4686 -0.4212
  431MPD2    H1 6483   4.699   4.097  11.630  1.5798  0.4190 -1.1093
  431MPD2    H2 6484   4.634   4.352  11.970 -3.2778 -1.3365 -2.1626
  431MPD2    H3 6485   4.590   4.150  11.848  0.0865 -0.8387 -0.5451
  431MPD2     N 6486   0.113   4.250  11.489 -0.2221  0.2384 -0.1404
  431MPD2    H5 6487   0.110   4.155  11.454 -0.5916  0.5752 -1.0368
  431MPD2    N1 6488   0.028   4.561  11.873  0.1639 -0.1697  0.5134
  431MPD2    H7 6489   0.011   4.554  11.973 -0.3022  1.4295  0.5481
  432TMC3    C1 6490   0.335   4.258  11.391 -0.7705  0.1920  0.9291
  432TMC3    C2 6491   0.331   4.136  11.334  0.1885  0.7876 -1.0970
  432TMC3    C3 6492   0.448   4.064  11.314 -0.3032  0.7167 -0.4361
  432TMC3    C4 6493   0.453   4.310  11.442 -0.1015 -0.4087  0.5019
  432TMC3    C5 6494   0.563   4.236  11.430  0.9508 -0.4680  0.5714
  432TMC3    C6 6495   0.563   4.107  11.366  0.5862  0.2156  0.1029
  432TMC3     C 6496   0.216   4.327  11.432 -0.1443  0.3039 -0.6520
  432TMC3     O 6497   0.221   4.449  11.445 -0.0950 -0.2683 -0.6216
  432TMC3     H 6498   0.238   4.089  11.305 -0.4061  1.3768 -0.1267
  432TMC3    H1 6499   0.462   4.397  11.506 -0.5811 -0.1022  0.1501
  432TMC3    H2 6500   0.657   4.058  11.343 -0.0199 -2.1467  2.6249
  432TMC3    C7 6501   0.657   4.245  11.536  0.4188  0.8184  0.2202
  432TMC3    C8 6502   0.450   3.943  11.235  0.3912 -0.3943  0.3058
  432TMC3    O1 6503   0.762   4.180  11.516 -0.3541  0.5887  0.3321
  432TMC3    O2 6504   0.348   3.918  11.173  0.2531 -0.4494 -0.7151
  433MPD2     C 6505   3.413   2.714  10.407 -0.6846 -1.0313  0.0151
  433MPD2    C1 6506   3.536   2.670  10.433 -0.1976 -0.3289  0.6597
  433MPD2    C2 6507   3.607   2.718  10.542  0.4149  0.3617  0.1237
  433MPD2    C3 6508   3.548   2.811  10.634  0.1372  0.2344 -0.1081
  433MPD2    C4 6509   3.426   2.865  10.599  0.0926  0.6245  0.5384
  433MPD2    C5 6510   3.356   2.814  10.490  0.4278  0.6244 -0.1185
  433MPD2     H 6511   3.710   2.690  10.560  1.0848  2.0562 -1.1062
  433MPD2    H1 6512   3.383   2.945  10.659 -1.7674  0.5777 -0.7343
  433MPD2    H2 6513   3.356   2.662  10.331 -1.7907 -1.6392  1.2694
  433MPD2    H3 6514   3.252   2.838  10.472  0.6384  1.1839 -0.5648
  433MPD2     N 6515   3.621   2.836  10.753  0.0376  0.0876  0.6302
  433MPD2    H5 6516   3.703   2.780  10.776  0.2570  0.1772  0.0604
  433MPD2    N1 6517   3.585   2.569  10.354 -1.1080 -0.2355  0.2080
  433MPD2    H7 6518   3.551   2.546  10.261  0.0401  0.7911 -0.4620
  434TMC3    C1 6519   3.709   2.368  10.313  0.1459  0.5016 -0.2090
  434TMC3    C2 6520   3.834   2.318  10.328 -0.2433 -0.0662 -0.2866
  434TMC3    C3 6521   3.868   2.189  10.297 -0.7388  0.8576 -0.6110
  434TMC3    C4 6522   3.609   2.294  10.267 -0.3927  0.6715  0.3578
  434TMC3    C5 6523   3.644   2.164  10.234 -0.2793 -0.2866  0.7397
  434TMC3    C6 6524   3.768   2.108  10.253 -0.1004 -0.1252 -0.1044
  434TMC3     C 6525   3.681   2.478  10.403 -0.1228  0.1350 -0.1747
  434TMC3     O 6526   3.752   2.478  10.502 -0.3235 -0.2745  0.0765
  434TMC3     H 6527   3.914   2.380  10.367  0.5698  0.6062 -3.0414
  434TMC3    H1 6528   3.509   2.332  10.280 -1.1552 -0.6911 -1.5528
  434TMC3    H2 6529   3.776   2.003  10.229  0.0045  0.0286 -0.7281
  434TMC3    C7 6530   3.550   2.077  10.176  0.1084 -0.2972  0.4183
  434TMC3    C8 6531   3.994   2.144  10.350 -0.3101 -0.1627 -0.8471
  434TMC3    O1 6532   3.574   1.959  10.184  0.8498  0.1373  0.2132
  434TMC3    O2 6533   4.062   2.226  10.407 -0.6452  0.2092 -0.1153
  435MPD2     C 6534   0.851   3.099  15.009  0.0204 -0.3022  0.8871
  435MPD2    C1 6535   0.786   3.104  15.134 -0.2497 -0.2577 -0.0031
  435MPD2    C2 6536   0.858   3.073  15.241 -0.5913  0.3783  0.4915
  435MPD2    C3 6537   0.995   3.033  15.231 -0.0349 -0.2088  0.0280
  435MPD2    C4 6538   1.054   3.025  15.106  0.0021  0.1784 -0.6150
  435MPD2    C5 6539   0.978   3.048  14.996 -0.3024 -0.3200  0.3486
  435MPD2     H 6540   0.820   3.075  15.343 -0.7172 -0.3344  0.4624
  435MPD2    H1 6541   1.157   2.996  15.090  0.0035  0.1970 -0.6396
  435MPD2    H2 6542   0.790   3.117  14.922  0.9456  0.2020  0.3485
  435MPD2    H3 6543   1.026   3.034  14.900  0.8223  0.0658  0.8615
  435MPD2     N 6544   1.066   2.991  15.347 -0.9155  0.1866  0.9361
  435MPD2    H5 6545   1.014   2.990  15.434 -0.1484 -1.7204  1.3770
  435MPD2    N1 6546   0.654   3.154  15.154  0.4249 -0.7162  0.6684
  435MPD2    H7 6547   0.632   3.177  15.250 -0.8348 -0.4199  0.3093
  436TMC3    C1 6548   0.305   3.315  15.264 -0.2224 -0.4057  0.5868
  436TMC3    C2 6549   0.425   3.298  15.205  0.4111 -0.2646 -0.2962
  436TMC3    C3 6550   0.428   3.214  15.099  0.3369  0.0175 -0.4523
  436TMC3    C4 6551   0.187   3.262  15.219 -0.5287 -0.0216 -0.0860
  436TMC3    C5 6552   0.199   3.177  15.119  0.2964  0.1034 -0.2997
  436TMC3    C6 6553   0.318   3.148  15.057  0.2214 -0.1536  0.6721
  436TMC3     C 6554   0.316   3.386  15.396  0.9945 -0.1945 -0.1549
  436TMC3     O 6555   0.418   3.439  15.430 -0.7518  0.2884 -0.2572
  436TMC3     H 6556   0.517   3.343  15.242 -0.4559  0.1452  1.3856
  436TMC3    H1 6557   0.091   3.301  15.249  1.1846  2.9625  1.5797
  436TMC3    H2 6558   0.326   3.084  14.970  2.5060  1.7414 -0.5107
  436TMC3    C7 6559   0.087   3.150  15.044 -0.3806  0.5590  0.5892
  436TMC3    C8 6560   0.556   3.166  15.054  0.0247 -0.1713  0.3247
  436TMC3    O1 6561   0.107   3.153  14.927 -0.1151 -0.1926 -0.3691
  436TMC3    O2 6562   0.563   3.132  14.939  0.2411 -0.2274 -0.6575
  437TMC3    C1 6563   4.055   0.194  11.862  0.3078 -0.4527 -0.4017
  437TMC3    C2 6564   4.008   0.114  11.758  0.6268 -1.1527 -0.1355
  437TMC3    C3 6565   4.095   0.087  11.663 -0.6389 -0.2324  0.2318
  437TMC3    C4 6566   4.177   0.255  11.864  0.7570  0.4606  0.0583
  437TMC3    C5 6567   4.261   0.233  11.756 -0.1378  0.4194  0.1796
  437TMC3    C6 6568   4.221   0.144  11.657  0.2201  0.0157 -0.5034
  437TMC3     C 6569   3.963   0.220  11.973  0.0531  0.0843  0.4710
  437TMC3     O 6570   3.853   0.168  11.976  0.9622  0.0041  0.0444
  437TMC3     H 6571   3.910   0.068  11.768  0.4961 -0.8837 -0.1958
  437TMC3    H1 6572   4.201   0.338  11.929  0.6009  2.5064 -2.4909
  437TMC3    H2 6573   4.286   0.117  11.575 -0.4175 -0.7493 -0.7586
  437TMC3    C7 6574   4.377   0.318  11.714 -0.3682 -0.0049 -0.4271
  437TMC3    C8 6575   4.044   0.047  11.529 -0.5923 -0.0565  0.0103
  437TMC3    O1 6576   4.431   0.304  11.602 -0.0049 -0.5425 -0.1776
  437TMC3    O2 6577   4.103   0.095  11.435  0.2889  0.0792 -0.0204
  438MPD2     C 6578   1.553   1.358  16.405 -0.2548 -0.2939  0.8875
  438MPD2    C1 6579   1.669   1.291  16.443  0.2127  0.0760 -0.0868
  438MPD2    C2 6580   1.700   1.273  16.580 -1.1961 -0.0326  0.1909
  438MPD2    C3 6581   1.611   1.319  16.673 -0.4538 -0.9708  0.6648
  438MPD2    C4 6582   1.482   1.371  16.634  0.1564  0.2080 -0.6489
  438MPD2    C5 6583   1.461   1.394  16.499  0.0440 -0.2072 -1.3375
  438MPD2     H 6584   1.794   1.223  16.600 -0.7725  0.4497 -0.5707
  438MPD2    H1 6585   1.405   1.406  16.702 -0.3586  1.9900 -2.1737
  438MPD2    H2 6586   1.528   1.380  16.302  1.2074 -0.3114  0.5293
  438MPD2    H3 6587   1.373   1.444  16.459 -0.7628  0.7692  1.5976
  438MPD2     N 6588   1.634   1.311  16.818  0.0148  0.2294  0.4883
  438MPD2    H5 6589   1.549   1.317  16.874 -2.2501 -0.4788 -2.8835
  438MPD2    N1 6590   1.750   1.229  16.347  0.1329  0.1760  0.2708
  438MPD2    H7 6591   1.839   1.202  16.389 -1.1190 -0.9433  2.2141
  439TMC3    C1 6592   1.817   1.137  16.140 -0.4509  0.1782  0.6971
  439TMC3    C2 6593   1.753   1.085  16.023 -0.0004 -0.1048  0.0468
  439TMC3    C3 6594   1.737   0.948  16.006 -0.0772  0.2460  0.1036
  439TMC3    C4 6595   1.892   1.044  16.214  0.1950 -0.2541  0.5542
  439TMC3    C5 6596   1.878   0.910  16.195 -0.0338 -0.6706  0.2437
  439TMC3    C6 6597   1.796   0.863  16.098 -0.0101  0.5842 -0.1408
  439TMC3     C 6598   1.728   1.223  16.212  0.6307 -1.1674  0.2040
  439TMC3     O 6599   1.629   1.260  16.147  0.5343  0.0669 -0.3784
  439TMC3     H 6600   1.717   1.157  15.951 -0.5016  0.2304  0.6301
  439TMC3    H1 6601   1.956   1.076  16.296  0.6848  0.0341  0.0648
  439TMC3    H2 6602   1.766   0.759  16.097 -0.7177  0.7794  1.7850
  439TMC3    C7 6603   2.001   0.833  16.222  0.4622 -0.4503  0.1912
  439TMC3    C8 6604   1.762   0.881  15.875  0.3025 -0.2277  0.1147
  439TMC3    O1 6605   2.084   0.875  16.302 -0.0934 -0.7657  0.1589
  439TMC3    O2 6606   1.778   0.762  15.880 -0.2203 -0.0607  0.2105
  440MPD2     C 6607   0.576   1.658  14.633 -0.0415  0.3787  0.3801
  440MPD2    C1 6608   0.512   1.563  14.710  0.2548  0.2649  0.4552
  440MPD2    C2 6609   0.557   1.430  14.716  0.8784  0.3392 -0.0724
  440MPD2    C3 6610   0.657   1.397  14.621  0.1264 -0.0885  0.0454
  440MPD2    C4 6611   0.713   1.497  14.542  0.1927  0.9072  0.3915
  440MPD2    C5 6612   0.670   1.620  14.549 -0.2652 -0.1641  0.2860
  440MPD2     H 6613   0.505   1.353  14.771  0.7768  0.0824 -0.5264
  440MPD2    H1 6614   0.786   1.482  14.464 -0.7862  1.2581 -0.5827
  440MPD2    H2 6615   0.558   1.763  14.614  1.9382  0.7442  0.6079
  440MPD2    H3 6616   0.713   1.689  14.477  1.4767 -1.7266 -0.1584
  440MPD2     N 6617   0.707   1.261  14.606 -0.0922 -0.5194 -0.1677
  440MPD2    H5 6618   0.788   1.259  14.545 -1.2085  0.0968 -1.6742
  440MPD2    N1 6619   0.409   1.600  14.800  0.2936 -0.2041  0.3652
  440MPD2    H7 6620   0.382   1.524  14.861 -1.6190  1.5518  1.7011
  441TMC3    C1 6621   0.753   1.037  14.677  0.4925 -0.5335  0.0310
  441TMC3    C2 6622   0.884   1.076  14.663 -0.0348 -0.4682 -0.1116
  441TMC3    C3 6623   0.978   1.013  14.730  0.1855 -0.2534  0.3784
  441TMC3    C4 6624   0.712   0.934  14.763  0.3405  0.2008 -0.4872
  441TMC3    C5 6625   0.818   0.863  14.823 -0.1877  0.6181 -0.3822
  441TMC3    C6 6626   0.950   0.906  14.808 -0.8649 -0.2059 -0.0420
  441TMC3     C 6627   0.658   1.147  14.669 -0.4057  0.1859  0.9905
  441TMC3     O 6628   0.555   1.140  14.737 -0.0371  0.1390 -0.0448
  441TMC3     H 6629   0.923   1.142  14.587 -0.1650 -0.9359 -0.5812
  441TMC3    H1 6630   0.609   0.922  14.792  0.7617 -1.4210  0.3684
  441TMC3    H2 6631   1.031   0.870  14.870 -0.5034  0.2365 -0.2511
  441TMC3    C7 6632   0.795   0.810  14.952  0.8075  0.1429  0.7200
  441TMC3    C8 6633   1.087   1.097  14.777  0.6703  0.2198  0.0017
  441TMC3    O1 6634   0.693   0.843  15.010  0.2862  0.5407 -0.0172
  441TMC3    O2 6635   1.189   1.053  14.828 -0.3791 -0.2416 -0.5332
  442MPD2     C 6636   3.577   1.811  16.126  0.1223 -0.5869  0.6493
  442MPD2    C1 6637   3.477   1.744  16.187  1.2947 -0.6191 -0.1228
  442MPD2    C2 6638   3.443   1.618  16.140  0.2515 -0.3287 -0.3902
  442MPD2    C3 6639   3.497   1.565  16.028 -0.1282 -0.3864 -0.3857
  442MPD2    C4 6640   3.589   1.637  15.963 -0.1522  0.5982  0.4608
  442MPD2    C5 6641   3.633   1.762  16.010  0.3246 -0.1617 -0.1254
  442MPD2     H 6642   3.372   1.566  16.203 -0.5882  0.5980 -0.5688
  442MPD2    H1 6643   3.630   1.595  15.872  1.9422  1.1735  1.1449
  442MPD2    H2 6644   3.623   1.899  16.170  0.5348 -0.7015  0.4440
  442MPD2    H3 6645   3.707   1.825  15.960 -0.2348 -2.6201 -4.0704
  442MPD2     N 6646   3.465   1.442  15.961  0.5785 -0.6602  0.9838
  442MPD2    H5 6647   3.518   1.419  15.878  1.3019 -1.6103  1.7039
  442MPD2    N1 6648   3.400   1.796  16.294 -0.2333 -0.0492 -0.0885
  442MPD2    H7 6649   3.336   1.728  16.334  2.3001 -1.8855  0.8617
  443TMC3    C1 6650   3.342   1.953  16.455  0.1944  0.0966 -0.0122
  443TMC3    C2 6651   3.323   2.086  16.472  0.8357 -0.0325 -0.0736
  443TMC3    C3 6652   3.211   2.133  16.538  0.0549  0.2410 -0.1831
  443TMC3    C4 6653   3.248   1.863  16.499  0.6384  0.0057 -0.7137
  443TMC3    C5 6654   3.133   1.915  16.559 -0.3068  0.5791 -0.1278
  443TMC3    C6 6655   3.114   2.049  16.583 -0.0628 -0.2206 -0.2632
  443TMC3     C 6656   3.426   1.919  16.351  0.0153  0.8479 -0.9467
  443TMC3     O 6657   3.497   2.013  16.316  0.0792 -0.3664 -0.4054
  443TMC3     H 6658   3.390   2.164  16.439  1.3384  0.7468  2.7944
  443TMC3    H1 6659   3.256   1.757  16.477  0.7322  0.0675 -0.9774
  443TMC3    H2 6660   3.019   2.085  16.622  0.0929  0.9475 -0.9590
  443TMC3    C7 6661   3.040   1.819  16.615  0.5886 -0.0953  0.8871
  443TMC3    C8 6662   3.195   2.277  16.565 -0.1141 -0.1722 -0.4111
  443TMC3    O1 6663   3.046   1.711  16.562  0.3184 -0.6999  0.3218
  443TMC3    O2 6664   3.171   2.308  16.680  0.2864 -0.0195 -0.3495
  444MPD2     C 6665   3.534   1.638  16.595  0.8338  0.6971  0.0095
  444MPD2    C1 6666   3.438   1.541  16.576 -0.3658 -0.0353 -0.5384
  444MPD2    C2 6667   3.468   1.438  16.480 -0.2349  0.5968 -0.3948
  444MPD2    C3 6668   3.583   1.445  16.397  0.7583  0.2874  0.6737
  444MPD2    C4 6669   3.670   1.547  16.426  0.5985  0.0916 -0.5203
  444MPD2    C5 6670   3.649   1.646  16.519  0.0084  0.1569  0.7058
  444MPD2     H 6671   3.412   1.346  16.467  1.3188 -0.6113  1.3473
  444MPD2    H1 6672   3.765   1.554  16.374 -0.0985  1.6046 -1.5993
  444MPD2    H2 6673   3.531   1.707  16.678 -1.0816  3.2076 -2.1394
  444MPD2    H3 6674   3.722   1.724  16.540 -0.2130  0.1277  1.6020
  444MPD2     N 6675   3.616   1.344  16.304 -0.3109  0.4084 -0.4821
  444MPD2    H5 6676   3.559   1.260  16.310  1.9028 -0.8255  2.9801
  444MPD2    N1 6677   3.321   1.524  16.659  0.1953  0.0078 -0.6857
  444MPD2    H7 6678   3.272   1.436  16.643 -0.4441  0.5944 -1.9925
  445TMC3    C1 6679   3.741   1.212  16.164 -0.6940  0.0351  0.1775
  445TMC3    C2 6680   3.637   1.135  16.117  1.0714  0.2734 -0.3521
  445TMC3    C3 6681   3.673   1.019  16.053  0.4145 -0.2195 -0.4780
  445TMC3    C4 6682   3.873   1.174  16.147 -0.4886  0.2139 -0.8590
  445TMC3    C5 6683   3.897   1.053  16.093  0.4441 -0.5367  0.3840
  445TMC3    C6 6684   3.803   0.977  16.038 -0.0640 -0.2589 -0.2835
  445TMC3     C 6685   3.730   1.339  16.227  0.4892 -0.5918 -0.3897
  445TMC3     O 6686   3.820   1.420  16.215 -0.2539  0.3520  0.2646
  445TMC3     H 6687   3.536   1.172  16.131  0.6880 -0.1206 -2.0340
  445TMC3    H1 6688   3.947   1.252  16.162  1.8993 -2.1145 -0.5437
  445TMC3    H2 6689   3.828   0.898  15.968  3.0054 -0.8681  1.5005
  445TMC3    C7 6690   4.031   0.999  16.115 -0.2511 -0.4132 -0.3206
  445TMC3    C8 6691   3.570   0.937  15.992  0.1737 -0.1188  0.0989
  445TMC3    O1 6692   4.111   1.084  16.151 -0.3355 -0.2943  0.0602
  445TMC3    O2 6693   3.466   0.996  15.969  0.5572 -0.3502  0.0090
  446MPD2     C 6694   3.496   1.980  10.671 -1.1636 -0.4349  0.1123
  446MPD2    C1 6695   3.482   2.105  10.606  0.3272  0.0236 -0.0733
  446MPD2    C2 6696   3.581   2.198  10.625 -0.1820 -0.0715  0.5992
  446MPD2    C3 6697   3.695   2.176  10.696  0.0313 -0.3035 -0.0422
  446MPD2    C4 6698   3.705   2.060  10.765  0.1748 -0.8228 -0.5566
  446MPD2    C5 6699   3.609   1.967  10.752  0.5534 -0.6883  1.1347
  446MPD2     H 6700   3.568   2.297  10.582 -3.5780 -1.6813 -2.1016
  446MPD2    H1 6701   3.787   2.019  10.824 -0.4619  0.9717  1.5794
  446MPD2    H2 6702   3.414   1.911  10.685 -0.8964 -0.3718  2.0043
  446MPD2    H3 6703   3.634   1.881  10.812  0.0491 -1.3174  0.4340
  446MPD2     N 6704   3.805   2.266  10.686  0.6142 -0.3011 -0.5998
  446MPD2    H5 6705   3.793   2.340  10.618 -0.7274  0.4830  0.5232
  446MPD2    N1 6706   3.365   2.139  10.540  0.2294  0.3175 -0.3837
  446MPD2    H7 6707   3.343   2.238  10.540 -1.2021  0.0003 -1.4283
  447TMC3    C1 6708   4.012   2.351  10.695 -0.7580  0.0243 -0.3529
  447TMC3    C2 6709   3.968   2.476  10.669  0.0280  0.1159  0.1036
  447TMC3    C3 6710   4.063   2.559  10.617  0.0806  0.0770 -0.4483
  447TMC3    C4 6711   4.142   2.313  10.687 -0.4520  0.1569 -0.6470
  447TMC3    C5 6712   4.227   2.396  10.632  0.4904  0.2059 -0.1645
  447TMC3    C6 6713   4.189   2.523  10.592 -0.0964  0.3905  0.5572
  447TMC3     C 6714   3.926   2.254  10.752 -0.4325 -0.2791 -0.4103
  447TMC3     O 6715   3.968   2.164  10.821 -0.3244  0.5920 -0.0787
  447TMC3     H 6716   3.865   2.508  10.686 -0.6679 -2.2435  0.4016
  447TMC3    H1 6717   4.167   2.209  10.701 -2.5026 -0.1978  0.3968
  447TMC3    H2 6718   4.267   2.586  10.550  0.0898 -3.3077 -4.6720
  447TMC3    C7 6719   4.365   2.369  10.655 -0.4787  1.1773 -0.7849
  447TMC3    C8 6720   4.021   2.687  10.568 -0.2361 -0.1881  0.3939
  447TMC3    O1 6721   4.395   2.251  10.656 -0.1289  0.5158 -0.5818
  447TMC3    O2 6722   3.923   2.740  10.616  0.1511 -0.4186 -0.2066
  448TMC3    C1 6723   1.705   2.595  16.738  0.1432 -0.4674  0.2265
  448TMC3    C2 6724   1.675   2.513  16.635 -0.4320 -0.5691 -0.1012
  448TMC3    C3 6725   1.729   2.386  16.637 -0.5612 -0.4446 -0.0114
  448TMC3    C4 6726   1.774   2.546  16.842 -0.1751  0.4286  0.1032
  448TMC3    C5 6727   1.830   2.423  16.838  0.2382  0.4586  0.6985
  448TMC3    C6 6728   1.811   2.337  16.735  0.2627  0.8884  0.6863
  448TMC3     C 6729   1.649   2.731  16.734 -0.3267 -0.1337 -0.7497
  448TMC3     O 6730   1.645   2.789  16.842  0.7456  0.5873  0.0790
  448TMC3     H 6731   1.617   2.545  16.550 -2.2776 -0.1239  1.3240
  448TMC3    H1 6732   1.793   2.610  16.928  1.1329  1.4249 -0.9385
  448TMC3    H2 6733   1.841   2.233  16.740 -1.9849  0.2402  0.6990
  448TMC3    C7 6734   1.890   2.356  16.957  0.0678  0.3828  0.2596
  448TMC3    C8 6735   1.710   2.302  16.522 -0.3666  0.3641  0.6711
  448TMC3    O1 6736   1.922   2.240  16.947  0.1441  0.1498  0.5217
  448TMC3    O2 6737   1.726   2.179  16.532 -0.2424 -0.1045 -0.1418
  449MPD2     C 6738   3.102   0.586  13.805 -0.8540  0.1571  0.1765
  449MPD2    C1 6739   3.076   0.726  13.816 -0.2942 -0.1626 -0.7777
  449MPD2    C2 6740   2.942   0.765  13.809  0.2886 -0.4102  0.1594
  449MPD2    C3 6741   2.839   0.681  13.802 -0.1503 -0.2038  0.0350
  449MPD2    C4 6742   2.864   0.545  13.809 -0.2928 -0.9561 -0.8026
  449MPD2    C5 6743   2.992   0.502  13.807  0.8920 -0.6622 -0.0633
  449MPD2     H 6744   2.931   0.872  13.821  0.4448 -0.4198  0.3901
  449MPD2    H1 6745   2.790   0.465  13.804 -1.0316 -0.3109 -0.2709
  449MPD2    H2 6746   3.202   0.545  13.815 -1.1399  0.3712  3.7140
  449MPD2    H3 6747   3.015   0.398  13.790 -0.6759 -0.9660 -0.2493
  449MPD2     N 6748   2.710   0.736  13.795 -0.2624 -0.0524  0.0076
  449MPD2    H5 6749   2.711   0.837  13.801  1.2619 -0.0491 -0.1944
  449MPD2    N1 6750   3.169   0.829  13.830  0.2720  0.2969  0.6963
  449MPD2    H7 6751   3.132   0.923  13.822 -2.4210 -0.6992  1.2603
  450TMC3    C1 6752   3.369   0.947  13.798  0.5806  0.2600  0.3168
  450TMC3    C2 6753   3.429   0.955  13.671 -0.1926  0.1840 -0.1874
  450TMC3    C3 6754   3.430   1.079  13.618 -0.3951  0.1709 -1.5279
  450TMC3    C4 6755   3.323   1.055  13.873  0.4191  0.8782 -0.3047
  450TMC3    C5 6756   3.310   1.171  13.808 -0.2933  0.6209 -0.3004
  450TMC3    C6 6757   3.367   1.183  13.687 -0.2988  0.5334  0.1363
  450TMC3     C 6758   3.306   0.818  13.830  0.5732  0.5676  0.7264
  450TMC3     O 6759   3.386   0.720  13.817 -0.0647 -0.7513 -0.7068
  450TMC3     H 6760   3.450   0.864  13.616  2.0482  1.2687 -1.1392
  450TMC3    H1 6761   3.279   1.033  13.970 -0.7553  2.0008 -0.5802
  450TMC3    H2 6762   3.354   1.269  13.623  0.2772  1.2590  1.0013
  450TMC3    C7 6763   3.171   1.201  13.808 -0.2188 -0.0666  0.3459
  450TMC3    C8 6764   3.451   1.115  13.474 -0.1655 -0.2076  0.0196
  450TMC3    O1 6765   3.105   1.105  13.843  0.2275  0.3394  0.2493
  450TMC3    O2 6766   3.369   1.188  13.417 -0.8952  0.1554 -0.4918
  451MPD2     C 6767   4.473   3.537   0.505  0.4077 -0.8471 -0.0153
  451MPD2    C1 6768   4.513   3.671   0.505 -0.0828  0.1473 -0.8970
  451MPD2    C2 6769   4.638   3.702   0.462  0.0915 -0.6316  0.1887
  451MPD2    C3 6770   4.725   3.600   0.426  0.3017 -0.6134 -0.0606
  451MPD2    C4 6771   4.695   3.465   0.453  0.0313 -0.5321 -0.4574
  451MPD2    C5 6772   4.568   3.433   0.488  0.0008 -0.7407  0.1751
  451MPD2     H 6773   4.652   3.807   0.437  1.4971 -1.0268 -0.7441
  451MPD2    H1 6774   0.030   3.385   0.433 -0.1636 -0.8750  0.2251
  451MPD2    H2 6775   4.372   3.512   0.533  0.6364 -2.5689 -0.6956
  451MPD2    H3 6776   4.547   3.329   0.510  0.1239 -0.7105  0.4297
  451MPD2     N 6777   0.105   3.623   0.349 -0.5431 -0.9439  0.0299
  451MPD2    H5 6778   0.152   3.538   0.318  0.5989 -0.8152  1.4014
  451MPD2    N1 6779   4.414   3.762   0.535 -0.0005  0.4555 -0.5230
  451MPD2    H7 6780   4.319   3.726   0.535  1.1274 -2.4729 -1.5594
  452TMC3    C1 6781   0.197   3.711   0.148  0.2678 -0.3258  0.0001
  452TMC3    C2 6782   0.122   3.623   0.069 -0.7277 -0.7384  0.4694
  452TMC3    C3 6783   0.138   3.633  17.676 -1.0773  0.4165  0.5617
  452TMC3    C4 6784   0.263   3.822   0.100 -0.1451  0.5093  0.2116
  452TMC3    C5 6785   0.269   3.829  17.700 -0.0721 -0.6788 -1.3389
  452TMC3    C6 6786   0.211   3.735  17.620 -1.5063  0.2026 -0.9493
  452TMC3     C 6787   0.137   3.737   0.277  0.2410  0.1944 -0.4805
  452TMC3     O 6788   0.099   3.852   0.298 -0.5095  0.6059  0.8087
  452TMC3     H 6789   0.057   3.545   0.106 -1.8339  0.7693  1.7170
  452TMC3    H1 6790   0.320   3.877   0.174 -0.6768 -1.0163  1.7715
  452TMC3    H2 6791   0.203   3.745  17.513  0.4944  1.7296 -0.9436
  452TMC3    C7 6792   0.306   3.960  17.641 -0.0415 -0.3022  0.2317
  452TMC3    C8 6793   0.058   3.569  17.568 -1.1047 -0.6752  0.0615
  452TMC3    O1 6794   0.284   3.972  17.520  0.2278 -0.2942 -0.5099
  452TMC3    O2 6795   0.120   3.530  17.469 -0.3331 -0.3326  0.9404
  453TMC3    C1 6796   0.925   1.203  11.830 -0.2191  0.4193 -0.3064
  453TMC3    C2 6797   0.879   1.077  11.818  0.3725 -0.0629  0.1885
  453TMC3    C3 6798   0.793   1.053  11.714 -0.6863 -0.5308 -0.2216
  453TMC3    C4 6799   0.881   1.305  11.749  0.4729  0.1104  1.1800
  453TMC3    C5 6800   0.800   1.279  11.646 -0.2692 -0.2771 -0.7218
  453TMC3    C6 6801   0.744   1.153  11.635  0.4309  0.3100  0.0881
  453TMC3     C 6802   1.050   1.226  11.902  0.0632 -0.2519  0.1039
  453TMC3     O 6803   1.116   1.315  11.851 -0.1203  0.1158  0.0378
  453TMC3     H 6804   0.916   0.995  11.878  0.0323 -1.0767 -0.9810
  453TMC3    H1 6805   0.928   1.402  11.763  1.0938 -0.0789  0.4055
  453TMC3    H2 6806   0.667   1.128  11.563  1.6959  0.0097 -1.1739
  453TMC3    C7 6807   0.801   1.365  11.535 -0.3598  0.4463 -0.2752
  453TMC3    C8 6808   0.746   0.920  11.687  0.0649 -0.0678 -0.5966
  453TMC3    O1 6809   0.860   1.472  11.549  0.0924 -0.0300  0.1091
  453TMC3    O2 6810   0.638   0.914  11.631  0.0387  0.4943  0.0273
  454MPD2     C 6811   4.387   0.999  15.709  0.4031 -0.3037 -0.4917
  454MPD2    C1 6812   4.320   1.050  15.606  1.2724  0.2999 -0.4975
  454MPD2    C2 6813   4.296   1.187  15.613  0.2119 -0.9806 -0.2762
  454MPD2    C3 6814   4.340   1.266  15.722  0.1683  0.5372  0.1420
  454MPD2    C4 6815   4.417   1.207  15.819  0.1407 -0.0624  0.4125
  454MPD2    C5 6816   4.433   1.076  15.812 -0.2263  0.3068 -0.4411
  454MPD2     H 6817   4.234   1.233  15.537 -0.1022 -2.0961 -0.6872
  454MPD2    H1 6818   4.454   1.262  15.905  0.8912 -0.0436  0.0780
  454MPD2    H2 6819   4.427   0.899  15.705 -2.3865 -1.3924 -0.8199
  454MPD2    H3 6820   4.487   1.021  15.887  2.5169  1.8229 -1.2985
  454MPD2     N 6821   4.295   1.402  15.746 -0.0399  0.2282  0.8529
  454MPD2    H5 6822   4.317   1.438  15.839  0.0414  0.5321  0.7151
  454MPD2    N1 6823   4.267   0.976  15.494 -0.2537  0.6324 -0.3559
  454MPD2    H7 6824   4.226   1.022  15.413 -4.5013 -0.2815  1.2756
  455TMC3    C1 6825   4.122   1.548  15.715 -0.1360 -0.2224 -0.4262
  455TMC3    C2 6826   4.147   1.603  15.837 -0.2286 -0.0834  0.8339
  455TMC3    C3 6827   4.040   1.615  15.930 -0.1045  0.3509 -0.3149
  455TMC3    C4 6828   3.997   1.494  15.687 -0.2773 -0.4823  0.2821
  455TMC3    C5 6829   3.896   1.496  15.775 -0.0755  0.0408  0.7689
  455TMC3    C6 6830   3.916   1.561  15.891  0.1736  0.3007 -0.1716
  455TMC3     C 6831   4.228   1.476  15.654 -0.0877  0.3185 -0.0561
  455TMC3     O 6832   4.217   1.466  15.529  0.3721  0.4192  0.2742
  455TMC3     H 6833   4.250   1.629  15.859 -0.3016  0.8576  0.0471
  455TMC3    H1 6834   3.974   1.446  15.592 -0.6396  0.1767  0.0336
  455TMC3    H2 6835   3.836   1.555  15.964  0.3422 -1.6574 -0.1419
  455TMC3    C7 6836   3.832   1.363  15.771 -0.4936  0.5000 -0.8207
  455TMC3    C8 6837   4.051   1.699  16.044 -0.1281 -0.4249  0.5984
  455TMC3    O1 6838   3.711   1.352  15.770  0.2627 -0.1286 -0.3142
  455TMC3    O2 6839   3.951   1.706  16.109  0.4898 -0.5091 -0.7479
  456MPD2     C 6840   2.144   1.765  15.398  0.0180 -0.3057  1.1863
  456MPD2    C1 6841   2.129   1.633  15.439  0.9183 -0.6304  0.2316
  456MPD2    C2 6842   2.040   1.616  15.544  0.3748 -0.1199  0.0005
  456MPD2    C3 6843   1.949   1.713  15.592  0.4738 -0.7297 -0.4067
  456MPD2    C4 6844   1.955   1.839  15.529 -0.7264  0.1482  0.3849
  456MPD2    C5 6845   2.053   1.864  15.430  0.6633 -1.1585 -0.0216
  456MPD2     H 6846   2.029   1.521  15.596 -1.8216 -0.1512 -0.5322
  456MPD2    H1 6847   1.886   1.919  15.553  0.1106  0.3055  2.2606
  456MPD2    H2 6848   2.219   1.794  15.325  0.1080 -1.9875  0.6042
  456MPD2    H3 6849   2.056   1.961  15.382 -1.2070 -1.8379 -1.5135
  456MPD2     N 6850   1.865   1.687  15.699 -0.3853 -0.1664  0.7207
  456MPD2    H5 6851   1.883   1.600  15.748 -0.1269  1.2348  3.1158
  456MPD2    N1 6852   2.210   1.534  15.389  0.1010  0.0905 -0.4766
  456MPD2    H7 6853   2.286   1.571  15.333  0.4672 -1.9505 -1.3338
  457TMC3    C1 6854   1.721   1.738  15.875 -0.1929  0.0377 -0.3283
  457TMC3    C2 6855   1.630   1.821  15.930  0.0764 -0.3477 -0.3337
  457TMC3    C3 6856   1.602   1.804  16.063  0.2738 -0.1603 -0.1739
  457TMC3    C4 6857   1.793   1.643  15.943  0.2747  0.5951 -0.3375
  457TMC3    C5 6858   1.762   1.628  16.072  0.1217 -0.3392  0.3868
  457TMC3    C6 6859   1.670   1.711  16.125  1.2799  0.6041  0.5041
  457TMC3     C 6860   1.762   1.768  15.740  0.3339 -0.4335  0.1095
  457TMC3     O 6861   1.706   1.860  15.686  0.1687 -0.4788 -0.0808
  457TMC3     H 6862   1.580   1.894  15.867 -1.4165 -1.3494 -0.3162
  457TMC3    H1 6863   1.880   1.589  15.907  1.7237  2.7495 -0.0899
  457TMC3    H2 6864   1.635   1.704  16.227 -0.1889 -0.5510 -0.0894
  457TMC3    C7 6865   1.841   1.553  16.174 -0.4254  0.4948  0.7758
  457TMC3    C8 6866   1.620   1.922  16.138 -0.1862 -0.8606 -0.1155
  457TMC3    O1 6867   1.812   1.572  16.290 -0.1921 -0.2253 -0.4588
  457TMC3    O2 6868   1.676   1.909  16.245  0.1687  0.2006 -0.2054
  458MPD2     C 6869   4.695   0.711  11.837  0.1732 -0.7756  0.1028
  458MPD2    C1 6870   4.634   0.662  11.947 -0.0614 -0.8362 -0.5913
  458MPD2    C2 6871   4.539   0.563  11.941 -0.5233 -0.1908 -0.0116
  458MPD2    C3 6872   4.515   0.499  11.824  0.2905  0.4287 -0.4078
  458MPD2    C4 6873   4.568   0.552  11.709  0.3442  0.1419 -0.5860
  458MPD2    C5 6874   4.654   0.657  11.712  0.1910  0.0673  0.1797
  458MPD2     H 6875   4.487   0.537  12.033  1.8569  1.0784  1.6680
  458MPD2    H1 6876   4.550   0.513  11.609  1.0340 -1.0201 -0.2545
  458MPD2    H2 6877   0.033   0.790  11.836  1.0099 -1.5905 -2.5540
  458MPD2    H3 6878   4.694   0.707  11.625 -2.1503  1.4917 -0.0934
  458MPD2     N 6879   4.427   0.386  11.826 -0.0355 -0.1008  0.1958
  458MPD2    H5 6880   4.387   0.366  11.917 -0.8152 -2.1550 -0.5975
  458MPD2    N1 6881   4.699   0.708  12.073  0.0378  0.2384 -0.2292
  458MPD2    H7 6882   0.039   0.774  12.062 -1.6318  1.8029 -2.0629
  459TMC3    C1 6883   0.052   0.658  12.287  0.3377 -0.6620 -0.0239
  459TMC3    C2 6884   0.178   0.673  12.228  0.2698 -0.0644  0.3449
  459TMC3    C3 6885   0.284   0.638  12.303 -0.2279  0.1911 -0.8599
  459TMC3    C4 6886   0.035   0.605  12.417  0.1283 -0.3130 -0.4261
  459TMC3    C5 6887   0.150   0.586  12.487  0.0097 -0.0909 -0.4531
  459TMC3    C6 6888   0.269   0.602  12.437 -0.3989 -0.6372  0.0267
  459TMC3     C 6889   4.670   0.663  12.198 -0.2978 -0.1376  0.3073
  459TMC3     O 6890   4.561   0.618  12.233  0.1052 -0.5711 -0.0054
  459TMC3     H 6891   0.201   0.703  12.127 -1.8944  0.6981  0.0911
  459TMC3    H1 6892   4.671   0.592  12.459 -0.7084 -1.4113 -2.7328
  459TMC3    H2 6893   0.353   0.570  12.497  0.3936 -1.4204 -1.4880
  459TMC3    C7 6894   0.142   0.497  12.610 -0.2047 -0.0390 -0.4515
  459TMC3    C8 6895   0.424   0.646  12.243  0.0402  0.0467 -0.5456
  459TMC3    O1 6896   0.247   0.440  12.635  0.2759  0.2905  0.4529
  459TMC3    O2 6897   0.518   0.684  12.311 -0.3685  0.3308 -0.7314
  460MPD2     C 6898   4.162   2.888  10.293  0.2887  0.2704  0.3350
  460MPD2    C1 6899   4.063   2.840  10.378 -0.6334  0.7364 -0.0992
  460MPD2    C2 6900   3.932   2.884  10.345 -0.0121  0.6705  0.1418
  460MPD2    C3 6901   3.909   2.967  10.236  0.2904  0.3219 -0.7359
  460MPD2    C4 6902   4.015   3.020  10.168  0.0064  0.3348  0.1217
  460MPD2    C5 6903   4.143   2.981  10.201 -0.2674  0.2896 -0.1065
  460MPD2     H 6904   3.847   2.848  10.402  0.7605 -0.9061  0.3070
  460MPD2    H1 6905   4.004   3.088  10.084 -1.4865  0.0098  0.0673
  460MPD2    H2 6906   4.265   2.857  10.304 -0.3036 -2.1163 -0.8062
  460MPD2    H3 6907   4.230   3.018  10.146 -0.2141  0.9119  0.4007
  460MPD2     N 6908   3.778   2.995  10.201  0.7600 -0.2156  0.1942
  460MPD2    H5 6909   3.698   2.976  10.262  0.6128 -2.4598 -0.7040
  460MPD2    N1 6910   4.098   2.738  10.462 -0.0191  0.4345 -0.5012
  460MPD2    H7 6911   4.172   2.678  10.427 -0.3615  0.1242 -0.6910
  461TMC3    C1 6912   3.595   3.066  10.054  0.4637 -0.0717  0.2917
  461TMC3    C2 6913   3.548   2.931  10.030 -0.0519 -0.1981 -0.1478
  461TMC3    C3 6914   3.444   2.901   9.941  0.2375 -0.5575 -0.6332
  461TMC3    C4 6915   3.533   3.169   9.989  0.5873 -0.3376  0.1530
  461TMC3    C5 6916   3.428   3.131   9.901  0.1763  0.4712 -0.1099
  461TMC3    C6 6917   3.377   3.001   9.878 -0.0061  0.0087 -0.2194
  461TMC3     C 6918   3.736   3.075  10.094 -0.3614 -0.2942 -0.3506
  461TMC3     O 6919   3.802   3.153  10.025 -0.2146  0.2244 -0.1528
  461TMC3     H 6920   3.587   2.842  10.077 -0.6565 -1.1985 -1.5296
  461TMC3    H1 6921   3.556   3.275   9.986  2.6319 -0.8709 -2.7870
  461TMC3    H2 6922   3.286   2.989   9.820 -0.2558  0.3002  0.1114
  461TMC3    C7 6923   3.367   3.245   9.831 -0.2702  0.1240  0.3658
  461TMC3    C8 6924   3.386   2.765   9.936  0.0609  0.0454 -0.0088
  461TMC3    O1 6925   3.372   3.353   9.889  0.3414  0.0110 -0.0003
  461TMC3    O2 6926   3.432   2.684  10.018 -0.2521  0.0012  0.0470
  462TMC3    C1 6927   3.973   4.307  17.591 -0.0276 -0.1646  0.3562
  462TMC3    C2 6928   4.036   4.190  17.551  0.3307  0.0205  0.4535
  462TMC3    C3 6929   4.015   4.074  17.630 -0.4676 -0.5009 -0.1618
  462TMC3    C4 6930   3.882   4.321  17.692 -0.0376  0.7567 -0.2460
  462TMC3    C5 6931   3.863   4.207   0.024 -0.8528  0.4376  0.0062
  462TMC3    C6 6932   3.928   4.083  17.737  0.0089  1.0184  0.0828
  462TMC3     C 6933   4.007   4.426  17.517  0.1617 -0.0096 -0.7743
  462TMC3     O 6934   3.973   4.532  17.569 -0.2362 -0.3869  0.0106
  462TMC3     H 6935   4.123   4.187  17.487 -0.4820 -2.0689 -0.5541
  462TMC3    H1 6936   3.834   4.414  17.717  2.3179  2.1997 -1.0197
  462TMC3    H2 6937   3.887   3.995   0.047  2.8365  0.1038  0.8636
  462TMC3    C7 6938   3.757   4.201   0.111 -0.3270 -0.3271 -0.1514
  462TMC3    C8 6939   3.961   3.972  17.545  0.9044 -0.0029  0.6533
  462TMC3    O1 6940   3.763   4.135   0.213  0.4493  0.0564 -1.0580
  462TMC3    O2 6941   3.849   3.932  17.577  0.0217 -0.0926 -0.1375
  463MPD2     C 6942   1.045   2.256   0.867  0.3281 -0.5579  0.0348
  463MPD2    C1 6943   0.953   2.372   0.861 -0.0130 -0.2601 -0.3711
  463MPD2    C2 6944   1.004   2.500   0.866  0.0096  0.5379  0.3354
  463MPD2    C3 6945   1.142   2.531   0.865  0.3176  0.2798  0.4563
  463MPD2    C4 6946   1.225   2.421   0.885 -0.0989 -0.5085  0.8076
  463MPD2    C5 6947   1.180   2.289   0.888  0.3053 -0.0546 -0.5788
  463MPD2     H 6948   0.941   2.585   0.841 -1.5851 -0.2388  1.7019
  463MPD2    H1 6949   1.332   2.431   0.901 -0.2027 -0.0227  1.1737
  463MPD2    H2 6950   1.019   2.151   0.872 -2.7916  0.1464 -1.4282
  463MPD2    H3 6951   1.262   2.217   0.887 -0.0851 -0.4995 -0.7254
  463MPD2     N 6952   1.200   2.662   0.862 -0.2140  0.0882 -0.2111
  463MPD2    H5 6953   1.300   2.668   0.876 -0.0721 -0.5178 -0.9749
  463MPD2    N1 6954   0.817   2.356   0.831  0.4172  0.1106  0.1693
  463MPD2    H7 6955   0.764   2.441   0.815 -1.6875 -1.6754 -2.4333
  464TMC3    C1 6956   0.599   2.257   0.804 -0.2347 -1.0031 -0.1999
  464TMC3    C2 6957   0.545   2.376   0.804  0.5789 -0.1030  0.4829
  464TMC3    C3 6958   0.425   2.385   0.745 -1.1396 -0.5709  0.2814
  464TMC3    C4 6959   0.541   2.143   0.754  0.0783  0.2081  0.5250
  464TMC3    C5 6960   0.424   2.160   0.698 -0.0405 -0.2153  0.2206
  464TMC3    C6 6961   0.361   2.282   0.687 -0.3033  0.1448  0.1458
  464TMC3     C 6962   0.743   2.238   0.846 -1.0802 -0.0803  0.1542
  464TMC3     O 6963   0.782   2.126   0.877  0.0922  0.0492 -0.0351
  464TMC3     H 6964   0.586   2.458   0.862  0.0488  1.7619 -1.8110
  464TMC3    H1 6965   0.583   2.043   0.749 -2.4289 -0.6867 -2.4037
  464TMC3    H2 6966   0.276   2.304   0.623 -0.7114 -1.4847  0.1403
  464TMC3    C7 6967   0.358   2.043   0.640 -0.4128 -0.1937  0.6671
  464TMC3    C8 6968   0.346   2.503   0.781  0.0017 -0.0855 -0.0524
  464TMC3    O1 6969   0.428   1.947   0.605  0.0059  0.9046  0.0259
  464TMC3    O2 6970   0.226   2.474   0.785  0.4290  0.6854  0.2788
  465MPD2     C 6971   1.280   2.417  16.307 -0.4727 -0.2348  0.3583
  465MPD2    C1 6972   1.294   2.361  16.432 -0.6428 -0.3787  0.3604
  465MPD2    C2 6973   1.299   2.222  16.441 -0.1198 -0.5239  0.2261
  465MPD2    C3 6974   1.293   2.139  16.329  1.0192 -0.2868  1.0850
  465MPD2    C4 6975   1.280   2.205  16.204  0.3675 -0.3767 -0.1471
  465MPD2    C5 6976   1.268   2.337  16.201 -0.0756  0.3778  0.0606
  465MPD2     H 6977   1.311   2.182  16.541  0.5371 -0.3368  0.2234
  465MPD2    H1 6978   1.253   2.151  16.114  2.3297 -0.3822 -0.7316
  465MPD2    H2 6979   1.249   2.517  16.282 -2.5397 -1.2117 -1.0144
  465MPD2    H3 6980   1.245   2.393  16.111  1.3347 -0.4647 -0.8306
  465MPD2     N 6981   1.295   1.996  16.344  0.4751 -0.8603  0.3767
  465MPD2    H5 6982   1.289   1.957  16.437  1.3919  0.6728  1.0792
  465MPD2    N1 6983   1.311   2.434  16.553 -0.1641 -0.4435 -0.1250
  465MPD2    H7 6984   1.318   2.377  16.637 -0.2135  0.8787  0.7668
  466TMC3    C1 6985   1.174   1.709  16.505 -1.1884 -0.0601  0.3749
  466TMC3    C2 6986   1.067   1.647  16.444  0.0211  0.1998 -0.5967
  466TMC3    C3 6987   1.070   1.650  16.308 -0.1650  0.1004  1.0564
  466TMC3    C4 6988   1.281   1.768  16.434  0.5875 -0.1780  0.5730
  466TMC3    C5 6989   1.270   1.768  16.295 -0.1507 -0.3437 -0.3891
  466TMC3    C6 6990   1.170   1.697  16.233  0.4406 -0.1987  0.3989
  466TMC3     C 6991   1.189   1.711  16.649  0.1001 -0.5071  0.0152
  466TMC3     O 6992   1.256   1.796  16.691 -0.1501  0.5901  0.3389
  466TMC3     H 6993   0.988   1.605  16.506  0.4150  0.2562 -0.0530
  466TMC3    H1 6994   1.360   1.818  16.489  1.1474  0.1838 -0.5635
  466TMC3    H2 6995   1.163   1.695  16.124 -0.3605 -0.8763  0.4697
  466TMC3    C7 6996   1.289   1.900  16.240 -0.3145  0.5656 -0.1704
  466TMC3    C8 6997   0.944   1.673  16.238 -0.3060  0.3356 -0.0421
  466TMC3    O1 6998   1.292   1.908  16.120 -0.4929  0.6541 -0.2452
  466TMC3    O2 6999   0.951   1.677  16.117 -0.1659 -0.1172  0.5967
  467TMC3    C1 7000   2.175   4.226  13.303 -0.0233  0.0348  0.2602
  467TMC3    C2 7001   2.209   4.320  13.211 -0.2262  0.0922  0.3655
  467TMC3    C3 7002   2.105   4.381  13.141  0.7603 -0.3271  0.4965
  467TMC3    C4 7003   2.045   4.196  13.332  0.1418  0.3301 -0.7813
  467TMC3    C5 7004   1.947   4.270  13.268 -0.3152 -0.1761  0.2906
  467TMC3    C6 7005   1.973   4.362  13.171 -0.3665 -1.5087  0.0131
  467TMC3     C 7006   2.287   4.155  13.369 -1.0152  0.2086 -0.6593
  467TMC3     O 7007   2.395   4.169  13.312 -0.5072 -0.1806  0.3372
  467TMC3     H 7008   2.314   4.342  13.196 -0.3376  0.2616 -0.1493
  467TMC3    H1 7009   2.021   4.128  13.413  0.6269  1.5172  0.3568
  467TMC3    H2 7010   1.899   4.423  13.121  2.4241  2.4474  0.7159
  467TMC3    C7 7011   1.812   4.222  13.258 -0.1446 -0.8210  0.4143
  467TMC3    C8 7012   2.142   4.478  13.040 -0.0558 -0.0743 -0.0377
  467TMC3    O1 7013   1.799   4.104  13.269 -0.3663  0.2576 -0.1517
  467TMC3    O2 7014   2.082   4.586  13.036  0.3081  0.1878 -0.7157
  468MPD2     C 7015   1.092   2.886  10.574  0.5499  0.4012  0.0654
  468MPD2    C1 7016   1.179   2.794  10.632 -0.3243 -0.5194  0.6103
  468MPD2    C2 7017   1.161   2.658  10.617 -0.0360 -0.2514  0.4358
  468MPD2    C3 7018   1.060   2.602  10.543  0.0128 -0.7262 -0.3892
  468MPD2    C4 7019   0.967   2.689  10.488 -0.3623  0.1815  0.2298
  468MPD2    C5 7020   0.986   2.828  10.502 -0.6531 -0.0278  0.2065
  468MPD2     H 7021   1.243   2.595  10.650  1.3225  2.3849  1.9885
  468MPD2    H1 7022   0.882   2.662  10.426 -0.0350 -0.4788  0.0760
  468MPD2    H2 7023   1.111   2.992  10.570  0.0252  0.5254  0.8651
  468MPD2    H3 7024   0.926   2.898  10.445 -1.3519 -0.1059  0.8486
  468MPD2     N 7025   1.042   2.461  10.520 -0.0580 -0.4465 -0.4567
  468MPD2    H5 7026   0.949   2.426  10.499  0.4267 -0.9581 -1.7525
  468MPD2    N1 7027   1.300   2.832  10.691 -0.0273  0.2502  0.1999
  468MPD2    H7 7028   1.359   2.755  10.720 -1.3170 -0.7291  0.2444
  469TMC3    C1 7029   1.463   2.952  10.799 -0.5176  0.1405  0.3206
  469TMC3    C2 7030   1.560   2.855  10.769  0.0049  0.0412 -0.3175
  469TMC3    C3 7031   1.660   2.840  10.857  0.8133  0.0709  0.4022
  469TMC3    C4 7032   1.471   3.034  10.909 -0.0535  0.1082  0.0570
  469TMC3    C5 7033   1.574   3.011  10.998  0.0924 -0.8983 -0.2875
  469TMC3    C6 7034   1.669   2.916  10.972  0.5926 -0.3158  0.1189
  469TMC3     C 7035   1.346   2.960  10.719 -0.8347 -0.4076 -0.2635
  469TMC3     O 7036   1.281   3.066  10.731 -0.3797 -0.5267  0.2928
  469TMC3     H 7037   1.560   2.797  10.678 -1.7790 -0.3999 -0.0285
  469TMC3    H1 7038   1.411   3.123  10.927  1.5534  1.8561 -3.1869
  469TMC3    H2 7039   1.754   2.907  11.039  0.8363  0.7409 -0.0429
  469TMC3    C7 7040   1.579   3.094  11.108  0.9483 -0.2630  0.5293
  469TMC3    C8 7041   1.747   2.723  10.845 -0.0404  0.0158  0.7399
  469TMC3    O1 7042   1.512   3.197  11.111 -0.8595 -0.1309  0.3121
  469TMC3    O2 7043   1.791   2.692  10.734 -0.2104  0.7016 -0.6435
  470TMC3    C1 7044   2.877   4.069   0.088 -0.3959  0.1329  1.0202
  470TMC3    C2 7045   2.905   4.198   0.127 -0.3316 -0.0137  0.5008
  470TMC3    C3 7046   2.982   4.218   0.245  0.1595 -0.4405 -1.3287
  470TMC3    C4 7047   2.920   3.961   0.153 -0.7272 -0.0658  0.2051
  470TMC3    C5 7048   3.006   3.983   0.260  0.2465  0.3891  0.1887
  470TMC3    C6 7049   3.040   4.109   0.305  0.3235  0.5850 -0.5199
  470TMC3     C 7050   2.781   4.036  17.723 -0.3207  0.4848 -0.1739
  470TMC3     O 7051   2.734   3.922  17.716  0.1641 -0.0065  0.2231
  470TMC3     H 7052   2.850   4.281   0.085  1.6038  1.1249  0.1834
  470TMC3    H1 7053   2.871   3.866   0.135 -0.4123 -0.5889  2.1425
  470TMC3    H2 7054   3.115   4.115   0.383  0.7707 -0.0468 -0.8967
  470TMC3    C7 7055   3.072   3.857   0.310 -0.5342 -0.1509 -0.2176
  470TMC3    C8 7056   3.039   4.348   0.270  0.3692 -0.0534  0.0203
  470TMC3    O1 7057   3.021   3.757   0.264 -0.3021 -0.0665 -0.2539
  470TMC3    O2 7058   3.135   4.341   0.348  0.0960  0.0488 -0.4023
  471MPD2     C 7059   3.505   0.696  16.521 -0.7786  0.1865  0.1506
  471MPD2    C1 7060   3.581   0.593  16.467 -0.2790  0.1409 -0.3070
  471MPD2    C2 7061   3.702   0.561  16.521 -0.7466  0.2853  0.5135
  471MPD2    C3 7062   3.748   0.629  16.632 -0.2238  0.1415  0.0851
  471MPD2    C4 7063   3.677   0.734  16.680  0.0921  0.0330 -0.0537
  471MPD2    C5 7064   3.553   0.759  16.631  0.0509 -0.1871 -0.2437
  471MPD2     H 7065   3.750   0.472  16.483 -1.6907  0.5973 -1.4091
  471MPD2    H1 7066   3.714   0.786  16.767 -1.7083  1.6046 -0.2362
  471MPD2    H2 7067   3.406   0.728  16.492  0.0200  1.8771 -0.6799
  471MPD2    H3 7068   3.500   0.841  16.678 -0.2459 -0.3203 -0.3463
  471MPD2     N 7069   3.854   0.591  16.712 -0.1261  0.0636  0.1667
  471MPD2    H5 7070   3.876   0.654  16.789  0.8083  0.8734 -0.7489
  471MPD2    N1 7071   3.540   0.517  16.354  0.4355  0.4257 -0.1479
  471MPD2    H7 7072   3.605   0.443  16.331  0.1161  0.3271 -0.7297
  472TMC3    C1 7073   3.392   0.412  16.206 -0.0881  0.4271 -0.8157
  472TMC3    C2 7074   3.297   0.432  16.109  0.9316 -0.1796 -0.3630
  472TMC3    C3 7075   3.270   0.331  16.025  0.5382 -0.5628 -0.3145
  472TMC3    C4 7076   3.464   0.304  16.216 -0.6427  0.5671  0.3566
  472TMC3    C5 7077   3.445   0.210  16.119 -0.5952  0.9431 -0.1572
  472TMC3    C6 7078   3.347   0.219  16.026  0.0488 -0.0969  0.0047
  472TMC3     C 7079   3.422   0.533  16.285  0.1879 -0.0703  0.1592
  472TMC3     O 7080   3.356   0.637  16.273  0.3676 -0.0078 -0.4528
  472TMC3     H 7081   3.240   0.524  16.113  2.6487  0.8953 -0.6218
  472TMC3    H1 7082   3.535   0.295  16.298 -0.4561 -1.4108 -0.0284
  472TMC3    H2 7083   3.325   0.138  15.957  0.1273 -2.0502  2.2711
  472TMC3    C7 7084   3.507   0.076  16.153 -0.4550 -0.5137 -0.2875
  472TMC3    C8 7085   3.133   0.334  15.979  0.2130  0.2558  0.4629
  472TMC3    O1 7086   3.523   0.046  16.270 -0.6237 -0.8455 -0.1793
  472TMC3    O2 7087   3.093   0.442  15.943 -0.2829 -0.1183 -0.1305
  473MPD2     C 7088   3.639   2.953  13.295 -0.1336  0.1371 -0.4469
  473MPD2    C1 7089   3.703   2.826  13.285  0.5388 -0.7795  0.1607
  473MPD2    C2 7090   3.672   2.732  13.381  0.2030  0.6901 -0.0206
  473MPD2    C3 7091   3.585   2.763  13.489 -0.2279  0.4864  0.0397
  473MPD2    C4 7092   3.516   2.887  13.494 -0.3458 -0.4783  0.2244
  473MPD2    C5 7093   3.548   2.978  13.391  0.0469  0.1434 -0.3005
  473MPD2     H 7094   3.720   2.635  13.383 -0.5891  0.3570  2.7756
  473MPD2    H1 7095   3.447   2.911  13.574 -0.6174  0.1489 -0.1973
  473MPD2    H2 7096   3.654   3.036  13.227 -0.6727 -1.1902 -2.2061
  473MPD2    H3 7097   3.493   3.071  13.388  0.6669  0.5702  1.4052
  473MPD2     N 7098   3.578   2.686  13.605  0.0815 -0.2125  0.5721
  473MPD2    H5 7099   3.522   2.726  13.680 -0.5240 -0.0077  0.0145
  473MPD2    N1 7100   3.775   2.783  13.167 -0.3460 -0.4909  0.2128
  473MPD2    H7 7101   3.791   2.683  13.159  0.4455 -0.4138  0.7599
  474TMC3    C1 7102   3.652   2.538  13.785 -0.1985 -0.3910 -0.2129
  474TMC3    C2 7103   3.557   2.612  13.846 -0.3956  0.3144  0.5302
  474TMC3    C3 7104   3.588   2.703  13.944  0.3506  0.0212  0.0572
  474TMC3    C4 7105   3.788   2.547  13.825 -0.3579  0.2996  0.4181
  474TMC3    C5 7106   3.812   2.636  13.925  0.4049  0.1641 -0.0354
  474TMC3    C6 7107   3.715   2.722  13.979  0.2746  1.0699 -0.0182
  474TMC3     C 7108   3.650   2.571  13.636  0.4628  0.7308  0.7234
  474TMC3     O 7109   3.746   2.513  13.578 -0.0082 -0.4025  0.5584
  474TMC3     H 7110   3.459   2.607  13.799 -0.8129 -2.3643  1.7391
  474TMC3    H1 7111   3.865   2.496  13.768  0.2358  1.9687 -0.2845
  474TMC3    H2 7112   3.730   2.786  14.066 -1.7418  2.3874 -0.6356
  474TMC3    C7 7113   3.947   2.643  13.967  0.0094 -0.2631 -0.1894
  474TMC3    C8 7114   3.496   2.817  13.937 -0.5964 -0.3585  0.4898
  474TMC3    O1 7115   4.024   2.548  13.946  0.1084 -0.3420 -0.1071
  474TMC3    O2 7116   3.382   2.797  13.897 -0.5721 -0.0245  0.6238
  475MPD2     C 7117   2.081   0.188   9.943 -0.2193  0.6234  0.1635
  475MPD2    C1 7118   2.076   0.294  10.034  1.1214 -0.5084 -0.7519
  475MPD2    C2 7119   1.959   0.347  10.084  0.0997 -0.4123 -1.2194
  475MPD2    C3 7120   1.839   0.302  10.030  0.9065 -0.2308  0.8536
  475MPD2    C4 7121   1.846   0.198   9.940 -0.1413  0.0170 -0.3581
  475MPD2    C5 7122   1.958   0.150   9.887 -0.0972  0.0830 -0.3138
  475MPD2     H 7123   1.950   0.424  10.159 -0.7829 -2.8432  1.1540
  475MPD2    H1 7124   1.757   0.146   9.904 -0.2187 -0.7658  0.9967
  475MPD2    H2 7125   2.169   0.134   9.911 -0.1699 -0.1884  1.6911
  475MPD2    H3 7126   1.959   0.058   9.829  0.4782 -0.1136  0.0035
  475MPD2     N 7127   1.723   0.363  10.080 -1.1628  0.0349 -0.8108
  475MPD2    H5 7128   1.739   0.429  10.155 -0.1678 -1.0820 -0.0522
  475MPD2    N1 7129   2.193   0.339  10.103  0.0911 -0.3136  0.7930
  475MPD2    H7 7130   2.167   0.404  10.177 -1.2374 -1.0871  1.0169
  476TMC3    C1 7131   2.393   0.436  10.114  0.1743 -1.1856  0.3176
  476TMC3    C2 7132   2.443   0.513  10.016 -0.0825  0.0842  0.6633
  476TMC3    C3 7133   2.440   0.649  10.046 -0.4837  0.3549  0.7060
  476TMC3    C4 7134   2.355   0.485  10.233 -0.0685  0.0742  0.2290
  476TMC3    C5 7135   2.381   0.615  10.265  0.4736  0.2083  0.5569
  476TMC3    C6 7136   2.430   0.707  10.171  0.8184 -0.1835 -0.6507
  476TMC3     C 7137   2.322   0.321  10.067 -0.4588  0.1113 -0.3512
  476TMC3     O 7138   2.357   0.263   9.965  0.4280 -0.7871 -0.5952
  476TMC3     H 7139   2.455   0.478   9.914  0.2767 -0.1598  0.7874
  476TMC3    H1 7140   2.319   0.421  10.312  1.3265 -2.1649 -0.9674
  476TMC3    H2 7141   2.427   0.815  10.184  0.9347  0.0031 -2.1711
  476TMC3    C7 7142   2.261   0.665  10.325  0.1594 -0.6699  0.3915
  476TMC3    C8 7143   2.353   0.729   9.962 -0.0802 -0.1835 -0.0130
  476TMC3    O1 7144   2.157   0.615  10.286 -0.0111 -0.0333  0.1620
  476TMC3    O2 7145   2.341   0.851   9.979 -0.2085 -0.1243 -0.0958
  477MPD2     C 7146   4.684   2.116  11.567 -0.4467 -0.2953  1.1047
  477MPD2    C1 7147   4.655   1.998  11.498  0.2698 -0.4274  0.2898
  477MPD2    C2 7148   4.678   1.868  11.559  0.2704  0.7566  0.1118
  477MPD2    C3 7149   0.001   1.856  11.684 -0.1529 -0.0307 -0.5045
  477MPD2    C4 7150   0.033   1.972  11.752  0.6957 -0.0919  0.4927
  477MPD2    C5 7151   0.005   2.098  11.698 -0.1426 -0.1290 -0.4759
  477MPD2     H 7152   4.640   1.775  11.518 -1.8107  1.4183  0.5361
  477MPD2    H1 7153   0.092   1.976  11.843  0.6581  0.3454  0.4991
  477MPD2    H2 7154   4.681   2.219  11.533  0.1400 -0.3356  0.9374
  477MPD2    H3 7155   0.025   2.189  11.752  2.4298 -0.8970 -0.1276
  477MPD2     N 7156   0.043   1.727  11.732 -0.4637 -0.6213  0.6297
  477MPD2    H5 7157   0.030   1.649  11.669 -1.5684 -0.4455  0.6431
  477MPD2    N1 7158   4.588   2.018  11.374 -0.0016 -0.1373 -0.5066
  477MPD2    H7 7159   4.565   2.114  11.350 -1.7063 -0.2711  0.5696
  478TMC3    C1 7160   4.492   1.981  11.167 -0.0903  0.2306 -0.2083
  478TMC3    C2 7161   4.422   2.094  11.182  0.2727 -0.1258 -0.1402
  478TMC3    C3 7162   4.358   2.149  11.078  0.6039 -0.1393  0.6724
  478TMC3    C4 7163   4.467   1.909  11.048  0.0146  0.6098 -0.1805
  478TMC3    C5 7164   4.395   1.962  10.945  0.0309 -0.2192  0.1323
  478TMC3    C6 7165   4.349   2.088  10.957 -0.3155 -0.3264  0.0923
  478TMC3     C 7166   4.558   1.916  11.279 -0.0315  0.3498  0.1885
  478TMC3     O 7167   4.591   1.794  11.276 -0.8013 -0.0677 -0.1804
  478TMC3     H 7168   4.420   2.159  11.269 -0.1240 -0.4189  0.0748
  478TMC3    H1 7169   4.517   1.813  11.041 -0.6673  0.2688 -0.4506
  478TMC3    H2 7170   4.287   2.137  10.882  0.3511  1.0924  0.4730
  478TMC3    C7 7171   4.365   1.880  10.831 -0.4480  0.4282  0.6267
  478TMC3    C8 7172   4.248   2.236  11.117  0.4396 -0.6018  0.2571
  478TMC3    O1 7173   4.376   1.757  10.848 -0.7987  0.3942  0.7510
  478TMC3    O2 7174   4.225   2.325  11.039 -0.0941  0.1342 -0.3550
  479MPD2     C 7175   3.292   4.733  14.952 -0.4998 -0.2982 -0.7358
  479MPD2    C1 7176   3.255   4.636  15.049  0.0486  0.0781 -0.0187
  479MPD2    C2 7177   3.255   4.684  15.178 -0.4338  0.2541  0.5477
  479MPD2    C3 7178   3.288   0.078  15.209  0.1045 -0.2741  0.0441
  479MPD2    C4 7179   3.341   0.156  15.113 -0.5485  0.5440 -0.3233
  479MPD2    C5 7180   3.347   0.115  14.983  0.2155 -0.8676 -0.0046
  479MPD2     H 7181   3.214   4.627  15.261  1.4478  1.0141  1.9978
  479MPD2    H1 7182   3.376   0.255  15.140  0.1835 -0.3345  1.8978
  479MPD2    H2 7183   3.306   4.705  14.849  2.4229 -0.7805 -0.2289
  479MPD2    H3 7184   3.387   0.187  14.912  0.9887  0.7664  2.0781
  479MPD2     N 7185   3.287   0.128  15.340  0.4430  0.4557 -0.3434
  479MPD2    H5 7186   3.354   0.201  15.362 -1.0526  2.2202 -1.7001
  479MPD2    N1 7187   3.177   4.535  14.996  0.0588  0.0926 -0.3944
  479MPD2    H7 7188   3.147   4.542  14.899  1.7647  2.7171 -0.7147
  480TMC3    C1 7189   2.969   4.568  15.544  0.0536 -0.0480  0.0517
  480TMC3    C2 7190   2.873   4.581  15.448  0.1997 -0.0673 -0.5802
  480TMC3    C3 7191   2.907   4.665  15.341  0.4107 -0.1251  0.4617
  480TMC3    C4 7192   3.079   4.650  15.546  0.4864  0.2151 -0.4218
  480TMC3    C5 7193   3.110   4.734  15.444 -0.7688  0.0534 -0.6895
  480TMC3    C6 7194   3.019   0.016  15.347  0.2301 -0.1759  0.1361
  480TMC3     C 7195   2.973   4.450  15.628  0.2613 -0.4147 -0.4409
  480TMC3     O 7196   3.081   4.405  15.670  0.2716 -0.3330  0.0879
  480TMC3     H 7197   2.804   4.502  15.422 -0.3077 -0.2101  1.2053
  480TMC3    H1 7198   3.153   4.639  15.624 -0.0949 -0.2805  0.0540
  480TMC3    H2 7199   3.033   0.104  15.286  0.4625  0.1750  0.6959
  480TMC3    C7 7200   3.236   0.075  15.457 -0.1438  0.0886 -0.3765
  480TMC3    C8 7201   2.815   4.687  15.236 -0.2470 -0.1594 -0.1833
  480TMC3    O1 7202   3.276   0.094  15.574  0.0445  0.5203  0.3205
  480TMC3    O2 7203   2.699   4.651  15.237  0.9451 -0.3518 -0.1582
  481MPD2     C 7204   0.416   4.088  13.846 -0.6338 -0.7994 -0.7979
  481MPD2    C1 7205   0.326   3.976  13.837 -0.4297 -0.9024 -0.0657
  481MPD2    C2 7206   0.302   3.908  13.954  0.7753  0.8304 -0.0536
  481MPD2    C3 7207   0.355   3.951  14.076  0.1512  0.0682 -0.6014
  481MPD2    C4 7208   0.439   4.060  14.081 -0.2946  0.4729 -0.1996
  481MPD2    C5 7209   0.475   4.116  13.960  0.1502  1.2081 -0.2733
  481MPD2     H 7210   0.256   3.810  13.948 -1.1281  1.7467 -0.3353
  481MPD2    H1 7211   0.506   4.089  14.161 -2.6009  0.7008  1.6445
  481MPD2    H2 7212   0.442   4.136  13.752  0.5563 -0.0532 -0.0816
  481MPD2    H3 7213   0.544   4.200  13.960  0.3014  1.0852  0.0990
  481MPD2     N 7214   0.344   3.883  14.195  0.4398 -0.0516 -0.2828
  481MPD2    H5 7215   0.404   3.913  14.271 -0.1449  0.1609  0.0966
  481MPD2    N1 7216   0.275   3.943  13.704  1.0393 -0.1454  0.1257
  481MPD2    H7 7217   0.313   4.000  13.628 -0.2894 -2.7544 -2.5044
  482TMC3    C1 7218   0.121   3.858  13.548 -0.0495 -0.0632 -0.5856
  482TMC3    C2 7219   0.053   3.752  13.497  0.8729 -0.6791  0.0873
  482TMC3    C3 7220   0.020   3.761  13.362 -0.2550 -0.1483 -0.3378
  482TMC3    C4 7221   0.172   3.960  13.463  0.0107 -0.0822  0.0750
  482TMC3    C5 7222   0.130   3.965  13.337 -1.0405 -0.8942  1.1242
  482TMC3    C6 7223   0.058   3.865  13.275  0.2170  0.0971  0.3388
  482TMC3     C 7224   0.170   3.858  13.689 -0.2257 -0.2438  0.2184
  482TMC3     O 7225   0.112   3.781  13.768  0.3451 -0.0582  0.2790
  482TMC3     H 7226   0.040   3.656  13.546 -0.5373 -1.5656 -1.9850
  482TMC3    H1 7227   0.218   4.051  13.501 -0.3279 -0.9197  2.4528
  482TMC3    H2 7228   0.022   3.873  13.173 -0.8617  0.8388  0.7767
  482TMC3    C7 7229   0.117   4.099  13.288 -0.4099 -1.0633 -0.8437
  482TMC3    C8 7230   4.667   3.654  13.311 -1.0412 -1.0687 -0.1452
  482TMC3    O1 7231   0.069   4.178  13.367  0.0785  0.3016  0.0793
  482TMC3    O2 7232   4.651   3.548  13.379 -0.0635 -0.2136 -0.1124
  483TMC3    C1 7233   3.468   3.428   1.171  0.4500 -0.8575  0.1075
  483TMC3    C2 7234   3.583   3.481   1.123 -0.3735 -0.4616 -0.9446
  483TMC3    C3 7235   3.672   3.401   1.049  0.2219  0.3378  0.3521
  483TMC3    C4 7236   3.460   3.290   1.187 -0.4220 -0.3363 -0.4175
  483TMC3    C5 7237   3.561   3.210   1.131 -0.1578  0.3158 -0.3276
  483TMC3    C6 7238   3.669   3.266   1.066 -0.1207  0.5799 -0.1812
  483TMC3     C 7239   3.347   3.474   1.109 -0.4712 -0.5773 -0.2664
  483TMC3     O 7240   3.337   3.596   1.095 -0.2399 -0.0251  0.0130
  483TMC3     H 7241   3.585   3.588   1.105 -1.4882 -0.5131 -1.4320
  483TMC3    H1 7242   3.368   3.246   1.221 -0.4447 -0.3871 -0.5438
  483TMC3    H2 7243   3.741   3.207   1.010 -0.0223  0.9587 -0.4500
  483TMC3    C7 7244   3.521   3.092   1.070 -0.1384  0.4627 -0.4873
  483TMC3    C8 7245   3.686   3.445   0.909  1.3038  0.1034  0.6137
  483TMC3    O1 7246   3.403   3.086   1.026  0.3660  0.2181 -0.0503
  483TMC3    O2 7247   3.603   3.525   0.866  0.2355 -0.2004 -0.8237
  484MPD2     C 7248   0.529   0.545  11.907 -0.8328 -0.4499 -0.1143
  484MPD2    C1 7249   0.551   0.599  12.034  0.2234 -0.2351 -0.2023
  484MPD2    C2 7250   0.679   0.624  12.082  0.4193 -0.7304  0.6986
  484MPD2    C3 7251   0.790   0.594  12.003 -0.0187 -0.2542 -0.0624
  484MPD2    C4 7252   0.758   0.540  11.880  0.8865  0.3857  0.6734
  484MPD2    C5 7253   0.636   0.516  11.822  0.0678  0.3173  0.1129
  484MPD2     H 7254   0.692   0.655  12.185  0.9082  0.3567  0.3103
  484MPD2    H1 7255   0.838   0.533  11.808 -0.0715 -2.0144 -0.1278
  484MPD2    H2 7256   0.428   0.521  11.875 -1.7899  1.3817  1.5724
  484MPD2    H3 7257   0.623   0.475  11.723  0.0848 -2.0291  1.0894
  484MPD2     N 7258   0.925   0.621  12.040  0.2234 -0.8646  0.2494
  484MPD2    H5 7259   0.997   0.591  11.975  0.1673 -0.6989  0.1115
  484MPD2    N1 7260   0.432   0.606  12.111 -0.2020 -0.0937  0.0205
  484MPD2    H7 7261   0.347   0.563  12.076 -0.2498 -0.2594  0.3404
  485TMC3    C1 7262   1.106   0.692  12.174 -0.1121  0.7333  0.8239
  485TMC3    C2 7263   1.158   0.689  12.297 -0.5355 -0.8245  0.3454
  485TMC3    C3 7264   1.293   0.689  12.311 -0.0232  0.4627  0.2673
  485TMC3    C4 7265   1.187   0.714  12.062  0.7532  0.1403  0.0224
  485TMC3    C5 7266   1.320   0.722  12.072  0.5424  0.7911 -0.1040
  485TMC3    C6 7267   1.371   0.712  12.198 -0.3911 -0.2483 -1.0509
  485TMC3     C 7268   0.962   0.685  12.155  0.7881  0.2764  0.7100
  485TMC3     O 7269   0.892   0.728  12.241  0.1511 -0.2579  0.3466
  485TMC3     H 7270   1.095   0.674  12.384  0.8609 -0.6516  1.3963
  485TMC3    H1 7271   1.133   0.719  11.968 -0.2585  1.0250  0.6374
  485TMC3    H2 7272   1.479   0.702  12.204 -0.6850 -0.3423  4.3099
  485TMC3    C7 7273   1.397   0.639  11.992 -0.0684  0.2151 -0.0077
  485TMC3    C8 7274   1.358   0.580  12.382  0.1209  0.8863 -0.3250
  485TMC3    O1 7275   1.366   0.524  11.975 -0.1005 -0.5632  0.2168
  485TMC3    O2 7276   1.479   0.578  12.397  0.1229  0.2625 -0.2024
  486MPD2     C 7277   2.920   4.218  12.169 -0.2739 -0.2989 -0.5483
  486MPD2    C1 7278   2.813   4.241  12.255  0.2446 -0.2569  0.1165
  486MPD2    C2 7279   2.727   4.350  12.234 -0.4179  0.0061  0.8225
  486MPD2    C3 7280   2.746   4.440  12.126 -0.6438 -0.6054 -0.1161
  486MPD2    C4 7281   2.853   4.409  12.039  0.0614 -0.1584 -0.6060
  486MPD2    C5 7282   2.932   4.296  12.059 -0.6453 -0.1310  0.1419
  486MPD2     H 7283   2.643   4.372  12.299  0.2467  0.4506  1.5305
  486MPD2    H1 7284   2.867   4.481  11.959  0.2580  1.1065  0.5711
  486MPD2    H2 7285   2.978   4.127  12.180 -0.8831 -0.5605  0.5234
  486MPD2    H3 7286   3.006   4.275  11.983  0.1651 -0.0081  0.8924
  486MPD2     N 7287   2.683   4.565  12.111 -0.2053  0.8110 -0.0453
  486MPD2    H5 7288   2.703   4.620  12.028 -1.1910  1.7489  0.3437
  486MPD2    N1 7289   2.800   4.156  12.364 -0.2845 -0.1016 -0.4977
  486MPD2    H7 7290   2.868   4.081  12.363  0.7773  0.8576  0.6274
  487TMC3    C1 7291   2.745   4.076  12.579  0.3814 -0.3932  0.3310
  487TMC3    C2 7292   2.770   3.947  12.545  0.2187  0.5952 -0.3271
  487TMC3    C3 7293   2.752   3.850  12.648 -0.0685  0.3854 -0.4631
  487TMC3    C4 7294   2.722   4.110  12.708 -0.6367  0.3601  0.2963
  487TMC3    C5 7295   2.747   4.019  12.802 -0.0886 -0.1649  0.3758
  487TMC3    C6 7296   2.769   3.887  12.774 -0.6849  0.1566 -0.3622
  487TMC3     C 7297   2.730   4.181  12.480 -0.0474  0.2291 -0.2196
  487TMC3     O 7298   2.696   4.297  12.511 -0.5123  0.0732  0.2282
  487TMC3     H 7299   2.754   3.920  12.441 -1.8937 -1.3304  0.4867
  487TMC3    H1 7300   2.693   4.214  12.719  1.2152  0.7949  1.0172
  487TMC3    H2 7301   2.748   3.829  12.863  2.6639  0.7425  0.7903
  487TMC3    C7 7302   2.666   4.017  12.919  0.1148 -0.1997 -0.1041
  487TMC3    C8 7303   2.624   3.768  12.637  0.2720  0.4308  0.0287
  487TMC3    O1 7304   2.715   3.977  13.024  0.0461 -0.3570  0.7459
  487TMC3    O2 7305   2.523   3.827  12.593  0.4080 -0.3433 -0.0227
  488MPD2     C 7306   2.906   1.305  15.925 -0.4986  0.3121 -0.6251
  488MPD2    C1 7307   2.941   1.391  16.026 -0.5702 -0.0584 -0.1738
  488MPD2    C2 7308   2.887   1.376  16.155  0.1387 -0.1611  0.7991
  488MPD2    C3 7309   2.789   1.281  16.177 -0.3457  0.0725  0.3639
  488MPD2    C4 7310   2.743   1.215  16.068  0.5551  0.4615 -0.9924
  488MPD2    C5 7311   2.797   1.225  15.942  0.0146 -0.5937  0.8955
  488MPD2     H 7312   2.909   1.446  16.234 -0.1017 -0.8315  1.4662
  488MPD2    H1 7313   2.667   1.139  16.084  0.2922  0.7269 -0.9947
  488MPD2    H2 7314   2.947   1.314  15.825  0.8287 -0.5921 -0.1629
  488MPD2    H3 7315   2.767   1.161  15.859 -1.6458  1.1900  0.1316
  488MPD2     N 7316   2.740   1.271  16.311  0.1110 -0.0211  0.7337
  488MPD2    H5 7317   2.770   1.348  16.369  0.9955  0.8650 -0.8954
  488MPD2    N1 7318   3.038   1.488  16.016  0.4645 -0.5174 -0.1257
  488MPD2    H7 7319   3.050   1.544  16.100  0.3507 -2.1219  0.9356
  489TMC3    C1 7320   2.663   1.169  16.506  0.1114  0.3685  0.5145
  489TMC3    C2 7321   2.739   1.259  16.573 -0.2949  0.3491  0.0863
  489TMC3    C3 7322   2.735   1.254  16.710 -0.4086 -0.1614  0.0338
  489TMC3    C4 7323   2.592   1.077  16.575  0.1397  0.6962  0.0734
  489TMC3    C5 7324   2.591   1.083  16.713  0.2799 -0.2526  0.2836
  489TMC3    C6 7325   2.669   1.165  16.789  0.1818  0.0615 -0.2358
  489TMC3     C 7326   2.664   1.166  16.363  0.0590 -0.1362 -0.1649
  489TMC3     O 7327   2.645   1.055  16.318 -0.4831 -0.3528 -0.1957
  489TMC3     H 7328   2.798   1.338  16.528  2.6847 -1.0850  1.4831
  489TMC3    H1 7329   2.546   0.992  16.526 -3.5863  2.0202  1.2640
  489TMC3    H2 7330   2.674   1.167  16.897  1.0520 -3.4569 -0.1933
  489TMC3    C7 7331   2.533   0.973  16.793 -0.0967 -0.0140 -0.0457
  489TMC3    C8 7332   2.824   1.364  16.766  0.2415  0.2089 -0.2662
  489TMC3    O1 7333   2.560   0.963  16.911  0.4409 -0.5815  0.2657
  489TMC3    O2 7334   2.936   1.375  16.724  0.0794  0.1241  0.4358
  490MPD2     C 7335   3.367   1.095  16.808 -0.2203  0.0121 -0.0602
  490MPD2    C1 7336   3.444   1.025  16.898  0.6679 -0.1270 -0.2239
  490MPD2    C2 7337   3.574   1.051  16.930  0.0759  0.1795 -0.1255
  490MPD2    C3 7338   3.633   1.154  16.865  0.0776  0.2993  0.1103
  490MPD2    C4 7339   3.561   1.217  16.770 -0.6720  0.0248  0.7540
  490MPD2    C5 7340   3.433   1.193  16.739  0.2028  0.0657 -0.0554
  490MPD2     H 7341   3.633   0.988  16.996  0.2322 -0.9448 -1.3400
  490MPD2    H1 7342   3.601   1.306  16.724 -1.2842  0.3078  0.7699
  490MPD2    H2 7343   3.265   1.071  16.782 -0.8750  2.3773  0.3884
  490MPD2    H3 7344   3.372   1.254  16.672  2.8520  0.6195 -1.9784
  490MPD2     N 7345   3.769   1.195  16.891  0.0357 -0.1855  0.0832
  490MPD2    H5 7346   3.796   1.283  16.848  0.7422 -0.5467 -0.2006
  490MPD2    N1 7347   3.391   0.905  16.961 -0.3737 -1.4760 -0.5774
  490MPD2    H7 7348   3.457   0.857  17.022  0.3752 -0.3633 -0.4915
  491TMC3    C1 7349   3.263   0.708  16.993  0.0503 -0.2235  0.6710
  491TMC3    C2 7350   3.287   0.711  17.130  0.1821  0.0142 -0.3739
  491TMC3    C3 7351   3.249   0.598  17.200  0.2317  0.3088  0.4755
  491TMC3    C4 7352   3.215   0.600  16.930 -0.4545  0.9320  0.6489
  491TMC3    C5 7353   3.185   0.483  17.002  0.0399  0.1620  0.0890
  491TMC3    C6 7354   3.206   0.483  17.135 -0.0044  0.4784  0.0493
  491TMC3     C 7355   3.285   0.832  16.914  0.3433 -0.3919 -0.0026
  491TMC3     O 7356   3.226   0.843  16.805  0.3979  0.5139  0.3209
  491TMC3     H 7357   3.344   0.790  17.177  2.0761 -0.7247 -1.4287
  491TMC3    H1 7358   3.182   0.608  16.827  1.4896  1.2686  0.0514
  491TMC3    H2 7359   3.172   0.396  17.189  2.4543  0.5063  1.6357
  491TMC3    C7 7360   3.174   0.362  16.923 -0.2440  0.2029 -0.3704
  491TMC3    C8 7361   3.246   0.601  17.345  0.2219 -0.4425 -0.5179
  491TMC3    O1 7362   3.139   0.384  16.806 -0.0700 -0.0371 -0.1057
  491TMC3    O2 7363   3.230   0.709  17.402  0.1495  0.2077  0.0294
  492MPD2     C 7364   3.892   0.427  11.200  0.5848 -0.2126  0.8496
  492MPD2    C1 7365   3.795   0.380  11.116 -0.2156  0.6750 -0.2689
  492MPD2    C2 7366   3.705   0.295  11.176 -0.4001  0.2224  0.5867
  492MPD2    C3 7367   3.717   0.248  11.309 -0.3054  0.5811 -0.1489
  492MPD2    C4 7368   3.821   0.292  11.382 -0.1061 -0.0146  1.0013
  492MPD2    C5 7369   3.906   0.378  11.332 -0.4354  0.2606 -0.0176
  492MPD2     H 7370   3.622   0.266  11.112 -0.0351 -0.6589  0.5209
  492MPD2    H1 7371   3.831   0.264  11.486 -0.4911 -0.4591  0.9165
  492MPD2    H2 7372   3.963   0.500  11.162  1.7017 -1.7429 -0.0006
  492MPD2    H3 7373   3.990   0.413  11.390  1.1861 -0.2121 -2.1025
  492MPD2     N 7374   3.631   0.150  11.369 -0.2214 -0.3315 -0.3408
  492MPD2    H5 7375   3.655   0.133  11.466  0.2787  0.5965 -0.3074
  492MPD2    N1 7376   3.794   0.427  10.987  0.1213  0.5682  0.1665
  492MPD2    H7 7377   3.861   0.503  10.976 -0.5640  1.2999  1.0624
  493TMC3    C1 7378   3.687   0.495  10.783 -0.2518  1.6239  0.3453
  493TMC3    C2 7379   3.770   0.603  10.781 -0.4435  0.0046 -0.5760
  493TMC3    C3 7380   3.735   0.718  10.725  0.7144 -0.3201 -0.3579
  493TMC3    C4 7381   3.568   0.499  10.711  0.0282  0.5653 -0.5771
  493TMC3    C5 7382   3.539   0.619  10.652  0.4052  0.2186 -0.2150
  493TMC3    C6 7383   3.621   0.726  10.656  0.2488 -0.4250 -0.7939
  493TMC3     C 7384   3.696   0.398  10.890 -0.1539 -0.1316 -0.3058
  493TMC3     O 7385   3.606   0.315  10.897 -0.1486  0.0203  0.6957
  493TMC3     H 7386   3.870   0.598  10.823 -0.4653  0.6878 -0.4498
  493TMC3    H1 7387   3.503   0.412  10.708 -0.8334  1.2291 -1.1911
  493TMC3    H2 7388   3.574   0.823  10.642  2.5091  0.6691 -0.7894
  493TMC3    C7 7389   3.500   0.583  10.514 -0.0724  0.6532 -0.3151
  493TMC3    C8 7390   3.831   0.808  10.664  1.2902 -0.5612 -0.0478
  493TMC3    O1 7391   3.420   0.492  10.508 -0.3363 -0.2394  0.7966
  493TMC3    O2 7392   3.803   0.862  10.560 -0.1049  0.6460 -0.0666
  494TMC3    C1 7393   4.322   2.695   0.151 -0.4038  0.3884  0.0115
  494TMC3    C2 7394   4.348   2.560   0.167  0.6479  0.1782 -0.5585
  494TMC3    C3 7395   4.391   2.499   0.058  0.4788  0.6335  0.6782
  494TMC3    C4 7396   4.325   2.768   0.032 -0.1738  0.3007  0.4580
  494TMC3    C5 7397   4.357   2.690  17.665 -0.2333  0.2130 -0.5819
  494TMC3    C6 7398   4.396   2.559  17.676 -0.1430 -0.2092 -0.9314
  494TMC3     C 7399   4.324   2.768   0.273 -0.2046 -0.1440 -0.5615
  494TMC3     O 7400   4.347   2.700   0.373  0.3663 -0.2402 -0.4428
  494TMC3     H 7401   4.336   2.510   0.262  1.8429  0.5772 -0.2092
  494TMC3    H1 7402   4.333   2.876   0.029  0.8623  0.2043 -0.2077
  494TMC3    H2 7403   4.419   2.499  17.589  1.5770 -1.1132  0.1559
  494TMC3    C7 7404   4.399   2.756  17.546 -0.8831  0.0199 -0.7054
  494TMC3    C8 7405   4.449   2.369   0.090  0.2130 -0.3833  0.4189
  494TMC3    O1 7406   4.509   2.723  17.500  0.0055 -0.0072 -0.3592
  494TMC3    O2 7407   4.499   2.352   0.204  0.0529 -0.2702 -0.0714
  495TMC3    C1 7408   3.254   4.533  14.373  0.2728  0.2335  0.9200
  495TMC3    C2 7409   3.242   4.627  14.272 -0.0844  1.0291  0.4928
  495TMC3    C3 7410   3.137   4.712  14.283 -0.0059 -0.1584 -0.9507
  495TMC3    C4 7411   3.187   4.544  14.490  0.3044  0.2064  0.3319
  495TMC3    C5 7412   3.103   4.648  14.511 -0.1687 -0.3940 -0.4306
  495TMC3    C6 7413   3.087   0.002  14.412  0.0055  0.5712 -0.2218
  495TMC3     C 7414   3.274   4.395  14.345  0.3004  0.0800  0.9886
  495TMC3     O 7415   3.209   4.317  14.416  0.5207  0.7019 -0.2336
  495TMC3     H 7416   3.316   4.621  14.193 -2.8760 -1.4056 -1.9802
  495TMC3    H1 7417   3.204   4.469  14.566  0.4491  0.0056  0.1020
  495TMC3    H2 7418   3.027   0.092  14.421  1.6861  1.5142  1.7339
  495TMC3    C7 7419   3.056   4.677  14.646 -0.4834  0.3438 -0.3993
  495TMC3    C8 7420   3.033   4.682  14.187  0.4202 -0.4000  0.6183
  495TMC3    O1 7421   3.125   4.645  14.741 -0.2183 -0.3469  0.1879
  495TMC3    O2 7422   2.916   4.714  14.205 -0.6048  0.0593  0.0685
  496MPD2     C 7423   0.712   4.538  15.256 -0.2718  0.2945  0.0541
  496MPD2    C1 7424   0.622   4.548  15.155  0.2605  0.7252 -0.1706
  496MPD2    C2 7425   0.485   4.546  15.178 -0.1382 -0.4367 -0.0981
  496MPD2    C3 7426   0.441   4.531  15.309  0.5813  0.3660  1.2523
  496MPD2    C4 7427   0.532   4.532  15.413 -0.2162 -0.4632 -0.2132
  496MPD2    C5 7428   0.666   4.536  15.384 -0.2210 -0.3921 -0.5337
  496MPD2     H 7429   0.408   4.555  15.102 -0.4927  0.4789  0.3704
  496MPD2    H1 7430   0.495   4.528  15.515 -0.3433  1.3899 -0.1900
  496MPD2    H2 7431   0.819   4.540  15.241 -0.4292  0.1987 -1.0630
  496MPD2    H3 7432   0.733   4.541  15.470 -1.7073  0.5030  0.5640
  496MPD2     N 7433   0.302   4.517  15.343 -0.0459  0.2312 -0.7647
  496MPD2    H5 7434   0.273   4.528  15.439 -1.6979 -0.9146 -1.1229
  496MPD2    N1 7435   0.676   4.537  15.025 -0.0873 -0.1328 -0.1722
  496MPD2    H7 7436   0.776   4.517  15.023 -0.2383 -0.9292  0.2423
  497TMC3    C1 7437   0.082   4.451  15.313  0.1333 -0.4846  0.2462
  497TMC3    C2 7438   4.708   4.439  15.228 -0.3836 -0.1788 -0.1276
  497TMC3    C3 7439   4.584   4.416  15.283 -0.6053  0.6460 -0.5300
  497TMC3    C4 7440   0.067   4.436  15.451  0.1698 -0.5125  0.0898
  497TMC3    C5 7441   4.677   4.441  15.507  0.2664 -0.4061 -0.1626
  497TMC3    C6 7442   4.570   4.429  15.422  0.2111 -0.5065  0.2766
  497TMC3     C 7443   0.207   4.486  15.248  0.2498  0.0146  0.8639
  497TMC3     O 7444   0.218   4.463  15.130  0.6875  0.0644  0.5540
  497TMC3     H 7445   4.726   4.454  15.123  1.2425 -2.4450 -0.1663
  497TMC3    H1 7446   0.153   4.417  15.514 -1.3736 -1.3769  1.9057
  497TMC3    H2 7447   4.471   4.413  15.465  0.3494 -1.1122  0.3648
  497TMC3    C7 7448   4.650   4.396  15.647 -0.5018  0.2284  0.1305
  497TMC3    C8 7449   4.470   4.365  15.209  0.4453  0.6001  0.0260
  497TMC3    O1 7450   4.533   4.365  15.664  0.0935  0.4823 -0.5472
  497TMC3    O2 7451   4.382   4.313  15.282 -0.5042  0.1774  0.5173
  498MPD2     C 7452   1.521   0.297   9.284 -0.5246 -0.5350 -0.0574
  498MPD2    C1 7453   1.490   0.392   9.381 -0.4282 -1.4261  0.2190
  498MPD2    C2 7454   1.372   0.383   9.449  0.2091 -0.0597 -0.3098
  498MPD2    C3 7455   1.299   0.265   9.438  0.5975 -0.9170  0.3488
  498MPD2    C4 7456   1.345   0.169   9.347  0.0292  0.5188  0.0852
  498MPD2    C5 7457   1.451   0.187   9.270 -0.4208  0.1208 -0.2850
  498MPD2     H 7458   1.335   0.457   9.519 -1.1458 -0.5918 -0.4515
  498MPD2    H1 7459   1.291   0.075   9.343 -0.2796  0.7305 -0.6091
  498MPD2    H2 7460   1.605   0.310   9.218 -0.8247 -1.6313 -0.6624
  498MPD2    H3 7461   1.485   0.119   9.193 -0.7557  1.3670 -1.5200
  498MPD2     N 7462   1.188   0.258   9.521  0.3625 -0.6138  0.5600
  498MPD2    H5 7463   1.165   0.334   9.585  0.1868 -1.4950  1.5316
  498MPD2    N1 7464   1.571   0.506   9.396  0.0212  0.2300 -0.3015
  498MPD2    H7 7465   1.531   0.588   9.439  1.0682  0.3084  0.5214
  499TMC3    C1 7466   1.757   0.642   9.372  0.8710  0.2094  0.2835
  499TMC3    C2 7467   1.893   0.652   9.405 -0.4330 -0.2038  0.2642
  499TMC3    C3 7468   1.942   0.781   9.410  0.3424  0.3907  0.5319
  499TMC3    C4 7469   1.683   0.753   9.348  0.1986  0.0117 -0.3708
  499TMC3    C5 7470   1.742   0.875   9.343 -0.0687 -0.4005 -0.1112
  499TMC3    C6 7471   1.877   0.891   9.362  0.1526 -0.1962 -0.2415
  499TMC3     C 7472   1.696   0.510   9.353 -0.0532  0.0264 -0.5823
  499TMC3     O 7473   1.774   0.418   9.333  0.2483 -0.0889 -0.0528
  499TMC3     H 7474   1.952   0.568   9.441  1.5874  1.2859  0.4277
  499TMC3    H1 7475   1.575   0.749   9.339  0.1922 -0.1022 -0.2397
  499TMC3    H2 7476   1.923   0.988   9.345 -1.8589  0.6872 -0.6392
  499TMC3    C7 7477   1.668   0.983   9.292  0.4675 -0.3611  0.4721
  499TMC3    C8 7478   2.081   0.798   9.429 -0.6158  0.4334 -0.2001
  499TMC3    O1 7479   1.692   1.089   9.349  0.1624 -0.4996  0.0247
  499TMC3    O2 7480   2.150   0.697   9.451 -0.1538  0.2481 -0.7437
  500MPD2     C 7481   2.782   1.033  10.160 -0.1507 -0.1990 -1.0219
  500MPD2    C1 7482   2.794   1.167  10.114  0.1677  0.3412 -0.4011
  500MPD2    C2 7483   2.729   1.186   9.993 -0.1026 -0.1383 -0.0908
  500MPD2    C3 7484   2.648   1.093   9.923 -0.1791 -0.4623 -0.2692
  500MPD2    C4 7485   2.639   0.970   9.977  0.2613 -0.0288 -0.2600
  500MPD2    C5 7486   2.705   0.935  10.092 -0.6732 -0.1318  0.5505
  500MPD2     H 7487   2.756   1.278   9.943  0.2612 -0.2923 -0.1789
  500MPD2    H1 7488   2.563   0.902   9.939  1.3158 -1.9911  1.1369
  500MPD2    H2 7489   2.832   1.000  10.250  0.7253  3.3666 -0.2033
  500MPD2    H3 7490   2.692   0.835  10.131  2.5297 -1.6543 -2.3649
  500MPD2     N 7491   2.575   1.119   9.806  0.5778 -0.0988  0.7633
  500MPD2    H5 7492   2.529   1.038   9.767 -0.3118  1.0727 -0.6306
  500MPD2    N1 7493   2.878   1.272  10.172  0.0867  0.2679  0.1284
  500MPD2    H7 7494   2.878   1.363  10.129  0.2470  1.0500  1.7854
  501TMC3    C1 7495   2.998   1.389  10.322  0.5003 -0.5703 -0.6521
  501TMC3    C2 7496   2.951   1.505  10.260  0.2542 -0.7690  0.0885
  501TMC3    C3 7497   3.017   1.624  10.287  0.5443  0.2028 -1.0734
  501TMC3    C4 7498   3.118   1.391  10.394  0.0165 -0.0840  0.1310
  501TMC3    C5 7499   3.189   1.508  10.403  0.1391 -0.2322 -0.1477
  501TMC3    C6 7500   3.134   1.627  10.357  0.0717 -0.8537 -0.6342
  501TMC3     C 7501   2.940   1.261  10.289  0.4684 -1.0520  0.3637
  501TMC3     O 7502   2.956   1.169  10.368 -0.1363 -0.5068  0.3199
  501TMC3     H 7503   2.862   1.518  10.200  1.2367  0.2628 -1.1347
  501TMC3    H1 7504   3.152   1.295  10.432  1.5979 -0.1181 -1.3634
  501TMC3    H2 7505   3.183   1.722  10.375 -2.1870  0.3185 -0.6394
  501TMC3    C7 7506   3.319   1.509  10.466 -0.2032 -0.3500 -0.3776
  501TMC3    C8 7507   2.991   1.731  10.192  0.1007 -0.4278 -0.1616
  501TMC3    O1 7508   3.352   1.404  10.521 -1.1210  0.0282  0.5695
  501TMC3    O2 7509   2.873   1.768  10.178  0.2539 -0.5009 -0.0641
  502TMC3    C1 7510   2.741   0.964  14.951 -0.0377 -0.2643 -0.7134
  502TMC3    C2 7511   2.715   1.089  14.903 -0.5689 -0.0845 -0.2834
  502TMC3    C3 7512   2.603   1.113  14.828 -0.2757  0.2036  0.3532
  502TMC3    C4 7513   2.654   0.865  14.922  0.5042  0.1733 -0.2791
  502TMC3    C5 7514   2.549   0.896  14.834  0.1004 -0.3554  0.2402
  502TMC3    C6 7515   2.513   1.025  14.796  0.5409  0.0554  0.2882
  502TMC3     C 7516   2.838   0.944  15.058 -0.3191 -0.4969 -0.7718
  502TMC3     O 7517   2.929   1.021  15.082  0.6300  0.4960  0.7072
  502TMC3     H 7518   2.786   1.166  14.930 -1.1591  0.6551 -0.8328
  502TMC3    H1 7519   2.682   0.762  14.944  0.7700  0.5442  1.1246
  502TMC3    H2 7520   2.433   1.051  14.728 -1.9486 -1.9131  2.4686
  502TMC3    C7 7521   2.447   0.789  14.838 -1.1075 -1.1335  0.5124
  502TMC3    C8 7522   2.580   1.256  14.795  0.5703  0.3058 -0.4693
  502TMC3    O1 7523   2.496   0.679  14.852  0.2710 -0.7425 -0.0083
  502TMC3    O2 7524   2.677   1.322  14.781  0.2890  0.0836 -0.0753
  503MPD2     C 7525   0.044   1.692  16.491 -0.2112  0.5565  0.1320
  503MPD2    C1 7526   0.081   1.741  16.615 -0.3825  0.0435  0.7316
  503MPD2    C2 7527   0.163   1.655  16.690 -0.4525  0.5996  0.4814
  503MPD2    C3 7528   0.202   1.536  16.649  0.2786 -0.3387  0.1740
  503MPD2    C4 7529   0.157   1.484  16.526 -0.1091 -0.4732  0.0281
  503MPD2    C5 7530   0.081   1.570  16.451  0.6599 -0.1030 -0.1061
  503MPD2     H 7531   0.203   1.683  16.787 -2.1125  1.3272  0.9583
  503MPD2    H1 7532   0.183   1.388  16.484  4.0387  0.5951  0.1324
  503MPD2    H2 7533   4.721   1.756  16.426 -0.8073 -0.1737 -0.0608
  503MPD2    H3 7534   0.050   1.540  16.351 -0.7111  0.1974  0.2257
  503MPD2     N 7535   0.270   1.459  16.749  0.0294 -0.1514  0.2454
  503MPD2    H5 7536   0.300   1.514  16.829  1.1932  1.2074 -1.1282
  503MPD2    N1 7537   0.036   1.864  16.669  0.1582  0.3844  0.0676
  503MPD2    H7 7538   0.052   1.871  16.769  1.8710  1.8422 -0.3184
  504TMC3    C1 7539   0.382   1.278  16.840 -0.2218 -0.0237  0.1703
  504TMC3    C2 7540   0.354   1.323  16.963 -0.2274  0.2203 -0.1066
  504TMC3    C3 7541   0.438   1.296  17.070  0.3663 -0.2587 -0.0848
  504TMC3    C4 7542   0.501   1.208  16.820 -0.5610  0.3360 -0.7708
  504TMC3    C5 7543   0.586   1.197  16.924  0.2844  0.0527 -0.3722
  504TMC3    C6 7544   0.562   1.241  17.049  0.2169 -0.6498 -0.5383
  504TMC3     C 7545   0.318   1.334  16.724 -0.0994 -0.1036 -0.1403
  504TMC3     O 7546   0.338   1.269  16.622 -0.1797  0.9148  0.1630
  504TMC3     H 7547   0.257   1.365  16.983  0.3571  2.4723 -1.9666
  504TMC3    H1 7548   0.526   1.170  16.722 -0.1558  2.1738 -1.3726
  504TMC3    H2 7549   0.620   1.235  17.140 -0.5282  0.6112  0.0202
  504TMC3    C7 7550   0.718   1.153  16.885  0.0409  0.6223  0.7780
  504TMC3    C8 7551   0.391   1.341  17.200  0.4171 -0.7078  0.0548
  504TMC3    O1 7552   0.742   1.135  16.767 -0.5681  0.3667 -0.4916
  504TMC3    O2 7553   0.319   1.440  17.194 -0.4735 -0.4346  0.1149
  505MPD2     C 7554   0.313   4.574  10.613  0.1396  0.3053 -0.3884
  505MPD2    C1 7555   0.396   4.468  10.603 -0.2442  0.1673 -0.2351
  505MPD2    C2 7556   0.516   4.472  10.669  0.0975 -0.4837  0.1054
  505MPD2    C3 7557   0.561   4.593  10.724 -0.3097 -0.4319 -0.3531
  505MPD2    C4 7558   0.472   4.695  10.743 -0.4420  0.8147  0.3707
  505MPD2    C5 7559   0.351   4.679  10.685 -0.5565 -0.2740  0.4656
  505MPD2     H 7560   0.578   4.384  10.663  0.3783 -0.3038  0.3894
  505MPD2    H1 7561   0.493   0.059  10.783  0.1503  0.6840  0.3835
  505MPD2    H2 7562   0.213   4.562  10.574 -0.2530 -0.8135  0.9943
  505MPD2    H3 7563   0.281   0.026  10.698 -0.3143 -0.4966  3.0846
  505MPD2     N 7564   0.689   4.591  10.767  0.1082  0.7250  0.3631
  505MPD2    H5 7565   0.734   4.502  10.750  0.2430  0.7129  0.7708
  505MPD2    N1 7566   0.361   4.356  10.511  0.2112 -0.4733  0.3835
  505MPD2    H7 7567   0.289   4.375  10.442  1.2948 -0.3708 -0.7260
  506TMC3    C1 7568   0.369   4.142  10.405  0.1389 -0.0756  0.0766
  506TMC3    C2 7569   0.356   4.200  10.284  0.1053  0.0701  0.6349
  506TMC3    C3 7570   0.402   4.133  10.175  0.8048  0.2218 -0.3990
  506TMC3    C4 7571   0.422   4.015  10.417 -0.4987  0.5456  0.4651
  506TMC3    C5 7572   0.475   3.953  10.306 -0.0531  0.2352 -0.4230
  506TMC3    C6 7573   0.453   4.003  10.183  0.0442  0.0807  0.0070
  506TMC3     C 7574   0.421   4.230  10.505 -0.6210  0.2897  1.0067
  506TMC3     O 7575   0.491   4.174  10.589  0.2059  0.2674  0.6853
  506TMC3     H 7576   0.320   4.300  10.262 -2.5292 -0.8865  0.5257
  506TMC3    H1 7577   0.442   3.975  10.515 -2.0803  2.5535  1.6120
  506TMC3    H2 7578   0.483   3.950  10.094  3.0213  1.2769  0.2957
  506TMC3    C7 7579   0.607   3.905  10.328 -0.3387 -0.3786  0.3596
  506TMC3    C8 7580   0.373   4.190  10.044 -0.0825 -0.0822  1.3633
  506TMC3    O1 7581   0.636   3.821  10.245 -0.4284 -0.1315  0.2050
  506TMC3    O2 7582   0.346   4.113   9.951 -0.2612 -0.1725  0.1296
  507TMC3    C1 7583   0.943   0.754  14.201 -0.0659  0.9364  0.8026
  507TMC3    C2 7584   0.955   0.774  14.067 -0.3760  0.6030 -0.2609
  507TMC3    C3 7585   1.031   0.882  14.025 -0.0386 -0.1304  0.3674
  507TMC3    C4 7586   1.004   0.833  14.291  0.5537 -0.3741 -0.2615
  507TMC3    C5 7587   1.098   0.920  14.246  0.0878 -0.1504  0.3995
  507TMC3    C6 7588   1.113   0.948  14.109  0.0822  0.1818  0.0830
  507TMC3     C 7589   0.830   0.671  14.240 -0.2834  0.0208 -1.2412
  507TMC3     O 7590   0.786   0.598  14.154  0.1425  0.2476  0.7779
  507TMC3     H 7591   0.900   0.718  13.993  0.4775 -0.4473 -0.1096
  507TMC3    H1 7592   0.987   0.827  14.398  0.1933 -0.3282 -0.3167
  507TMC3    H2 7593   1.185   1.018  14.070  1.5834 -1.5829 -0.3149
  507TMC3    C7 7594   1.172   1.004  14.345  0.3036  0.3009 -0.2501
  507TMC3    C8 7595   1.013   0.945  13.893 -0.0548 -0.6380  0.4332
  507TMC3    O1 7596   1.129   1.006  14.461  0.6310 -0.0967 -0.4127
  507TMC3    O2 7597   0.994   0.867  13.797 -0.0623 -0.0192 -0.2840
  508MPD2     C 7598   2.083   3.220  15.657 -0.9073  0.3629  0.5063
  508MPD2    C1 7599   2.078   3.347  15.707  0.6748  1.0130 -0.4306
  508MPD2    C2 7600   2.038   3.454  15.629 -0.0761  0.0628  0.9327
  508MPD2    C3 7601   2.013   3.437  15.496  0.6725  0.1861 -0.0667
  508MPD2    C4 7602   2.026   3.309  15.441  0.2902 -0.4937  0.3115
  508MPD2    C5 7603   2.057   3.202  15.523 -0.6360 -0.6440  0.2200
  508MPD2     H 7604   2.023   3.548  15.682  2.0486  0.9031  0.0114
  508MPD2    H1 7605   2.010   3.278  15.339  3.7843 -0.9132 -0.1305
  508MPD2    H2 7606   2.094   3.130  15.716  3.6354 -0.2299 -1.1998
  508MPD2    H3 7607   2.053   3.099  15.489 -1.9425  0.8951 -4.2073
  508MPD2     N 7608   1.969   3.546  15.417 -0.0959  0.2406  0.2294
  508MPD2    H5 7609   1.954   3.633  15.467  3.1672 -0.1301  1.8021
  508MPD2    N1 7610   2.097   3.379  15.843 -0.4915  0.0689 -0.3981
  508MPD2    H7 7611   2.085   3.474  15.876  0.8008  0.0050  0.2578
  509TMC3    C1 7612   1.803   3.821  15.091 -0.3208 -0.2014 -0.5416
  509TMC3    C2 7613   1.743   3.896  15.188 -0.4199 -0.4814  0.5733
  509TMC3    C3 7614   1.745   3.847  15.318 -0.0700 -0.1640  0.2249
  509TMC3    C4 7615   1.859   3.697  15.118  0.3943 -0.3002  0.0277
  509TMC3    C5 7616   1.858   3.654  15.250 -0.8922 -0.7454 -0.5583
  509TMC3    C6 7617   1.806   3.725  15.352  0.2762  0.7123  0.2498
  509TMC3     C 7618   1.771   3.853  14.958 -0.3526  0.2453  0.6451
  509TMC3     O 7619   1.778   3.760  14.877  0.4742 -0.5286  0.0161
  509TMC3     H 7620   1.689   3.987  15.163 -0.1790 -0.0598  1.5839
  509TMC3    H1 7621   1.924   3.644  15.049 -0.9129 -1.7108 -0.1249
  509TMC3    H2 7622   1.818   3.701  15.457  1.6544 -0.7361 -0.2452
  509TMC3    C7 7623   1.944   3.542  15.280  0.0753 -1.1649  0.5324
  509TMC3    C8 7624   1.769   3.946  15.422 -0.1203 -0.2775  0.3261
  509TMC3    O1 7625   1.979   3.458  15.196 -0.6642 -0.2070  0.4078
  509TMC3    O2 7626   1.701   3.935  15.523 -0.3835 -0.1248  0.2091
  510MPD2     C 7627   4.440   0.390  14.459  0.2341 -0.2598 -0.2381
  510MPD2    C1 7628   4.459   0.250  14.451  0.4784  0.6684 -0.5911
  510MPD2    C2 7629   4.543   0.197  14.356 -0.5914  0.0319 -0.3250
  510MPD2    C3 7630   4.601   0.290  14.270 -0.5837 -0.1220  0.1331
  510MPD2    C4 7631   4.585   0.427  14.291  0.2183 -0.6866  0.3155
  510MPD2    C5 7632   4.505   0.482  14.385  0.2563  0.0088  0.2545
  510MPD2     H 7633   4.575   0.094  14.342  0.7256  0.1123  2.1085
  510MPD2    H1 7634   4.634   0.500  14.228  3.1524 -0.7156  2.5640
  510MPD2    H2 7635   4.391   0.434  14.545 -0.1040 -1.1063  0.0068
  510MPD2    H3 7636   4.485   0.588  14.386  0.5879  0.0884 -1.7263
  510MPD2     N 7637   4.680   0.242  14.165 -0.8124 -0.2866 -0.1495
  510MPD2    H5 7638   4.701   0.143  14.164  1.0593  0.0896  1.9063
  510MPD2    N1 7639   4.379   0.179  14.546 -0.4048  0.8059  0.0191
  510MPD2    H7 7640   4.309   0.233  14.597  2.3240  1.6341  2.8577
  511TMC3    C1 7641   4.272   4.728  14.655  0.5067  0.6053  0.4169
  511TMC3    C2 7642   4.170   0.073  14.694  0.2141  0.1845  0.1427
  511TMC3    C3 7643   4.057   0.012  14.743  0.5578 -0.3431 -0.2686
  511TMC3    C4 7644   4.249   4.591  14.653 -0.0148 -0.6251 -0.7003
  511TMC3    C5 7645   4.131   4.536  14.685  0.1237 -0.1883  1.2024
  511TMC3    C6 7646   4.029   4.612  14.733 -0.3383 -0.1349 -0.2551
  511TMC3     C 7647   4.371   0.047  14.563  0.0507 -0.1179 -0.0325
  511TMC3     O 7648   4.446   4.697  14.520 -0.1736 -0.2866  0.2923
  511TMC3     H 7649   4.192   0.175  14.723  2.0270 -0.5421  1.2847
  511TMC3    H1 7650   4.318   4.519  14.609  1.6928 -0.0321  1.0014
  511TMC3    H2 7651   3.929   4.571  14.735 -0.7916  0.9573 -0.2078
  511TMC3    C7 7652   4.103   4.404  14.638  0.0912  0.3073 -0.2631
  511TMC3    C8 7653   3.964   0.092  14.829 -0.5381  0.1596  0.7129
  511TMC3    O1 7654   4.158   4.373  14.529  0.3221  0.0024 -0.3955
  511TMC3    O2 7655   3.975   0.214  14.802  0.1268 -0.0337 -0.5314
  512TMC3    C1 7656   3.856   4.269  12.600 -1.3076 -0.1923 -1.3959
  512TMC3    C2 7657   3.924   4.220  12.708 -0.0226 -0.9379 -0.0761
  512TMC3    C3 7658   3.869   4.099  12.752  0.5687  0.1158  0.1274
  512TMC3    C4 7659   3.742   4.209  12.537 -1.1126  0.3120  0.1265
  512TMC3    C5 7660   3.694   4.093  12.593 -0.7151 -0.4034  0.8112
  512TMC3    C6 7661   3.760   4.036  12.699 -0.6708  0.2586 -0.3589
  512TMC3     C 7662   3.891   4.398  12.534  0.2170 -0.0610 -0.3404
  512TMC3     O 7663   3.816   4.427  12.444  1.0703 -0.6084 -0.0072
  512TMC3     H 7664   4.001   4.267  12.769 -1.2602  1.3779 -0.2767
  512TMC3    H1 7665   3.679   4.252  12.460 -0.6240 -0.5140 -0.7453
  512TMC3    H2 7666   3.714   3.955  12.753  0.3657  0.5791  0.9948
  512TMC3    C7 7667   3.576   4.027  12.542  0.2939  0.2215  0.0265
  512TMC3    C8 7668   3.929   4.025  12.869  0.0268  0.4242  0.3315
  512TMC3    O1 7669   3.511   4.095  12.462  0.1854  0.3924  0.3244
  512TMC3    O2 7670   3.920   3.906  12.877 -0.2212 -0.0867  1.0000
  513MPD2     C 7671   0.162   3.904  12.559  0.6127  0.3319 -0.3744
  513MPD2    C1 7672   0.225   3.780  12.553  0.7291 -0.0188  0.0391
  513MPD2    C2 7673   0.269   3.724  12.671  0.0576  0.3654  0.1993
  513MPD2    C3 7674   0.257   3.783  12.792  0.4268  0.0330  0.1654
  513MPD2    C4 7675   0.196   3.910  12.795 -0.1548  0.2728  0.1311
  513MPD2    C5 7676   0.159   3.970  12.681  0.4977 -0.7064  0.3027
  513MPD2     H 7677   0.314   3.625  12.670  0.0617  0.3397  2.8323
  513MPD2    H1 7678   0.180   3.967  12.885  0.6016 -1.4807  1.3732
  513MPD2    H2 7679   0.110   3.943  12.472  1.3609  2.1307 -0.0146
  513MPD2    H3 7680   0.114   4.068  12.681 -1.1297 -1.4603  2.1923
  513MPD2     N 7681   0.328   3.727  12.899 -0.6759 -0.3820  0.2186
  513MPD2    H5 7682   0.363   3.632  12.888  1.4862  0.4819 -0.3001
  513MPD2    N1 7683   0.253   3.709  12.434  0.2462 -0.5452 -0.4366
  513MPD2    H7 7684   0.309   3.626  12.450  0.3592 -0.4223 -0.1854
  514TMC3    C1 7685   0.303   3.674  12.208  0.4767  0.1375 -0.7995
  514TMC3    C2 7686   0.374   3.761  12.128  0.4846  0.4442 -0.5208
  514TMC3    C3 7687   0.509   3.756  12.145  0.7490  0.0298  0.3218
  514TMC3    C4 7688   0.354   3.568  12.267  0.4219  0.7766 -0.2793
  514TMC3    C5 7689   0.491   3.562  12.276 -0.9980  0.3096  0.3881
  514TMC3    C6 7690   0.572   3.661  12.224 -0.0715  0.1858 -0.5928
  514TMC3     C 7691   0.230   3.751  12.303 -0.1423  0.1799  0.8500
  514TMC3     O 7692   0.181   3.855  12.260  0.3414 -0.4244 -0.2162
  514TMC3     H 7693   0.331   3.850  12.084 -0.7917 -0.1986 -0.5808
  514TMC3    H1 7694   0.288   3.487  12.295  0.0766  1.3628  0.6079
  514TMC3    H2 7695   0.675   3.671  12.257 -0.6111  2.3331  0.4213
  514TMC3    C7 7696   0.527   3.499  12.403  0.6220  0.5114 -0.1985
  514TMC3    C8 7697   0.586   3.831  12.050  0.0595  0.3195 -0.2730
  514TMC3    O1 7698   0.437   3.497  12.484  0.6251  0.1531 -0.2561
  514TMC3    O2 7699   0.525   3.913  11.976  0.2814 -0.0918 -0.6786
  515MPD2     C 7700   3.553   1.859  14.435 -0.4567 -0.4175 -0.1423
  515MPD2    C1 7701   3.577   1.720  14.420  0.1617 -0.6425 -0.6005
  515MPD2    C2 7702   3.678   1.667  14.490 -0.4155  0.1243  0.6284
  515MPD2    C3 7703   3.760   1.741  14.579  0.0040  0.3498 -0.8869
  515MPD2    C4 7704   3.723   1.873  14.600  0.1674  0.5250  0.5301
  515MPD2    C5 7705   3.622   1.932  14.526 -0.0642  0.2876 -0.2161
  515MPD2     H 7706   3.680   1.558  14.486  1.6296  0.2221 -1.2794
  515MPD2    H1 7707   3.777   1.928  14.676  1.9298 -1.2920  0.5872
  515MPD2    H2 7708   3.480   1.911  14.374  0.3570 -0.7384 -1.3805
  515MPD2    H3 7709   3.611   2.040  14.531 -1.0040  0.2029 -0.4921
  515MPD2     N 7710   3.852   1.693  14.672 -0.0312  0.1104  0.2884
  515MPD2    H5 7711   3.892   1.751  14.745  3.0349  0.4091 -1.6129
  515MPD2    N1 7712   3.504   1.635  14.334  0.4383 -0.0224 -0.2978
  515MPD2    H7 7713   3.529   1.537  14.324 -0.7123 -0.1888 -1.6104
  516TMC3    C1 7714   3.315   1.554  14.214  0.1193  0.2414 -0.1511
  516TMC3    C2 7715   3.222   1.594  14.121 -1.0187 -0.4134  0.9059
  516TMC3    C3 7716   3.109   1.510  14.110  0.0642  0.5568  0.2878
  516TMC3    C4 7717   3.306   1.445  14.299  0.3030 -0.6614  0.0528
  516TMC3    C5 7718   3.188   1.370  14.286  0.6267 -0.0135  0.4831
  516TMC3    C6 7719   3.095   1.395  14.186 -0.6093  0.1041  0.3871
  516TMC3     C 7720   3.403   1.665  14.245  0.4311  0.7863  0.2284
  516TMC3     O 7721   3.354   1.777  14.229  0.4970 -0.4596  0.3537
  516TMC3     H 7722   3.230   1.685  14.063  0.6234 -0.0851  1.6345
  516TMC3    H1 7723   3.370   1.429  14.385 -2.2283 -1.7941  1.7499
  516TMC3    H2 7724   3.006   1.335  14.172 -0.1294 -0.0682 -2.0140
  516TMC3    C7 7725   3.163   1.263  14.381 -0.1728  0.5057 -0.2260
  516TMC3    C8 7726   2.999   1.561  14.032 -0.6093  0.0921 -0.4932
  516TMC3    O1 7727   3.257   1.201  14.420  0.0736  0.3193  0.3828
  516TMC3    O2 7728   2.918   1.469  14.010 -0.0463 -0.4440  0.2150
  517MPD2     C 7729   2.960   3.043  17.387  0.1739 -0.4961  0.0748
  517MPD2    C1 7730   3.089   3.016  17.418 -0.0761  0.8755  0.3074
  517MPD2    C2 7731   3.152   3.103  17.505  0.3482 -0.8756  0.6596
  517MPD2    C3 7732   3.100   3.221  17.551 -0.7677  0.6373 -0.3329
  517MPD2    C4 7733   2.972   3.254  17.507  0.7232  0.5048  0.9924
  517MPD2    C5 7734   2.914   3.165  17.423  0.3071 -0.1649  1.0446
  517MPD2     H 7735   3.253   3.074  17.534  0.5642 -1.6709 -0.8920
  517MPD2    H1 7736   2.913   3.338  17.541 -1.1870 -1.0336  1.4337
  517MPD2    H2 7737   2.899   2.988  17.317 -0.4699 -2.5189  2.2510
  517MPD2    H3 7738   2.819   3.194  17.379  1.0311 -0.8601 -0.9414
  517MPD2     N 7739   3.168   3.303  17.641 -0.1770  0.1753  0.2289
  517MPD2    H5 7740   3.119   3.383  17.678 -1.4923  0.0774 -1.2677
  517MPD2    N1 7741   3.156   2.902  17.367 -0.3571 -0.7230  0.0971
  517MPD2    H7 7742   3.256   2.899  17.383 -0.3370 -1.7312 -0.2020
  518TMC3    C1 7743   3.183   2.693  17.249 -0.0487  0.7104 -0.3017
  518TMC3    C2 7744   3.136   2.560  17.252  0.1975  0.1576  1.4461
  518TMC3    C3 7745   3.229   2.464  17.229 -0.6869 -1.2953  0.4744
  518TMC3    C4 7746   3.306   2.724  17.202 -0.0369  1.0327  0.1327
  518TMC3    C5 7747   3.379   2.620  17.146  0.4778  0.4656  0.4486
  518TMC3    C6 7748   3.348   2.488  17.174  0.3699 -0.1205  0.2656
  518TMC3     C 7749   3.092   2.797  17.308 -0.2649  0.1059  0.7522
  518TMC3     O 7750   2.974   2.772  17.295 -0.1219  0.1556 -0.2521
  518TMC3     H 7751   3.033   2.538  17.278 -0.8376  1.3767 -1.6085
  518TMC3    H1 7752   3.340   2.826  17.195 -1.9775  1.7297  0.7008
  518TMC3    H2 7753   3.411   2.404  17.148 -0.8114 -1.0814  0.5107
  518TMC3    C7 7754   3.501   2.647  17.072  0.7518  0.0266 -0.2675
  518TMC3    C8 7755   3.168   2.333  17.213  0.3951  0.4323 -0.8412
  518TMC3    O1 7756   3.572   2.735  17.107  0.4723 -0.2268  0.5205
  518TMC3    O2 7757   3.232   2.264  17.131 -0.1839 -0.2580  0.6950
  519MPD2     C 7758   0.113   0.645  14.313 -0.2488  0.4984  0.5807
  519MPD2    C1 7759   0.079   0.752  14.239 -0.3284  0.6442  0.3411
  519MPD2    C2 7760   0.133   0.771  14.117  0.4881 -0.1045 -0.9603
  519MPD2    C3 7761   0.223   0.689  14.067 -0.2241 -0.4112  0.0250
  519MPD2    C4 7762   0.275   0.594  14.150 -0.5278 -0.1382 -0.7887
  519MPD2    C5 7763   0.212   0.560  14.268  0.2413  0.2899  0.3134
  519MPD2     H 7764   0.096   0.852  14.054  2.6323  1.4832 -0.1714
  519MPD2    H1 7765   0.348   0.521  14.117  0.5739  0.8092 -0.4275
  519MPD2    H2 7766   0.054   0.609  14.397  0.8779 -0.7677  0.8263
  519MPD2    H3 7767   0.235   0.463  14.309 -1.7996 -0.7132 -0.9048
  519MPD2     N 7768   0.275   0.696  13.935  0.0074  0.2143  0.1494
  519MPD2    H5 7769   0.344   0.628  13.905 -0.2760  0.6284 -1.4981
  519MPD2    N1 7770   4.705   0.830  14.280  0.3154 -0.1960  0.4083
  519MPD2    H7 7771   4.636   0.791  14.343 -0.4161  0.8152  0.2350
  520TMC3    C1 7772   0.285   0.737  13.704 -0.1869  0.4808 -0.5935
  520TMC3    C2 7773   0.216   0.776  13.597  0.0562  0.4783 -0.5698
  520TMC3    C3 7774   0.229   0.724  13.478 -0.0022 -0.3793 -0.5034
  520TMC3    C4 7775   0.391   0.647  13.691  0.5663  0.3299 -0.7608
  520TMC3    C5 7776   0.406   0.592  13.567 -0.3056 -0.1377 -0.3360
  520TMC3    C6 7777   0.322   0.624  13.457  0.1227  0.4962 -0.2655
  520TMC3     C 7778   0.229   0.776  13.837 -0.4200  0.1838  1.0897
  520TMC3     O 7779   0.151   0.867  13.833 -0.0588 -0.2034 -0.3242
  520TMC3     H 7780   0.147   0.858  13.610 -0.1232 -0.1214  2.2898
  520TMC3    H1 7781   0.464   0.621  13.767 -1.6685 -3.1701  0.1954
  520TMC3    H2 7782   0.333   0.569  13.364  2.4182  0.1858  0.1738
  520TMC3    C7 7783   0.514   0.493  13.549 -0.2612 -0.2614 -0.5699
  520TMC3    C8 7784   0.138   0.754  13.373  0.7225 -0.5162 -0.6078
  520TMC3    O1 7785   0.557   0.438  13.653 -0.0739  0.4420 -0.2817
  520TMC3    O2 7786   0.174   0.746  13.255  0.1490  0.4435  0.0989
  521MPD2     C 7787   0.844   4.343  16.965 -0.3961 -0.3351  0.2752
  521MPD2    C1 7788   0.851   4.208  16.924 -0.2664  0.2647  0.3022
  521MPD2    C2 7789   0.976   4.170  16.884  0.2954  0.2704  0.6838
  521MPD2    C3 7790   1.084   4.250  16.864 -0.2054 -0.4863 -0.0759
  521MPD2    C4 7791   1.073   4.381  16.893 -0.2649  0.3764  0.1124
  521MPD2    C5 7792   0.953   4.427  16.947 -0.0444  0.5923 -0.8798
  521MPD2     H 7793   1.010   4.067  16.877 -1.9438 -0.3548 -0.7298
  521MPD2    H1 7794   1.147   4.451  16.854  2.1723 -2.1461  0.2163
  521MPD2    H2 7795   0.754   4.374  17.017 -1.0922 -0.8751 -0.6119
  521MPD2    H3 7796   0.932   4.532  16.960 -3.7590 -0.3277  0.6466
  521MPD2     N 7797   1.199   4.193  16.812 -0.5322  0.0672 -0.0479
  521MPD2    H5 7798   1.205   4.092  16.809 -1.5743  0.0577 -1.9333
  521MPD2    N1 7799   0.739   4.115  16.933 -0.1655 -0.7040  0.4423
  521MPD2    H7 7800   0.660   4.142  16.990 -1.4726  0.1718 -1.7852
  522TMC3    C1 7801   1.377   4.147  16.679  0.0764 -0.1270  0.1179
  522TMC3    C2 7802   1.502   4.181  16.637 -0.0728  0.2090  0.8509
  522TMC3    C3 7803   1.563   4.093  16.556  0.5821 -0.1809  0.4781
  522TMC3    C4 7804   1.307   4.035  16.645  0.2335 -0.3587 -0.0243
  522TMC3    C5 7805   1.372   3.952  16.557 -0.3830  0.2000  0.1689
  522TMC3    C6 7806   1.503   3.977  16.526  0.1340  0.4201  0.6883
  522TMC3     C 7807   1.306   4.248  16.756 -0.2068  0.3950  0.8333
  522TMC3     O 7808   1.337   4.365  16.752  0.0843 -0.0844  0.1842
  522TMC3     H 7809   1.552   4.272  16.669  0.3963  0.5619 -0.8689
  522TMC3    H1 7810   1.210   4.002  16.681 -1.2690  0.8254 -2.9805
  522TMC3    H2 7811   1.546   3.902  16.460 -1.9845  0.1906 -0.4076
  522TMC3    C7 7812   1.316   3.831  16.500  0.2312 -0.0351  0.0055
  522TMC3    C8 7813   1.700   4.116  16.528  1.0415  0.0699 -0.2542
  522TMC3    O1 7814   1.391   3.735  16.477 -0.3756  0.2866 -0.2101
  522TMC3    O2 7815   1.765   4.197  16.596 -0.0799  0.2221 -0.6479
  523MPD2     C 7816   3.129   3.196   9.546 -0.4129 -0.3125  0.6615
  523MPD2    C1 7817   3.201   3.274   9.635 -0.2134 -0.6501 -0.1216
  523MPD2    C2 7818   3.185   3.409   9.633  0.3116  0.5515  0.0976
  523MPD2    C3 7819   3.100   3.465   9.541  0.4623 -0.0259  0.1214
  523MPD2    C4 7820   3.031   3.389   9.455 -0.1737 -0.8182  0.2491
  523MPD2    C5 7821   3.046   3.255   9.453  0.3047 -0.7514 -0.2711
  523MPD2     H 7822   3.243   3.482   9.688 -0.5965  2.0646 -0.9619
  523MPD2    H1 7823   2.958   3.423   9.383 -1.6665 -2.0589  1.1669
  523MPD2    H2 7824   3.130   3.088   9.554 -0.2769 -0.3945 -0.4947
  523MPD2    H3 7825   2.982   3.192   9.393  0.6718 -0.0686 -1.3918
  523MPD2     N 7826   3.082   3.608   9.520 -0.4598  0.4713 -0.5342
  523MPD2    H5 7827   3.004   3.628   9.457 -0.0740  1.7691 -0.5885
  523MPD2    N1 7828   3.283   3.205   9.724 -0.1875  0.3457  0.3474
  523MPD2    H7 7829   3.288   3.107   9.698  2.1550  0.3972  0.5933
  524TMC3    C1 7830   3.075   3.838   9.540  0.5374 -0.1602  0.5068
  524TMC3    C2 7831   3.025   3.840   9.411  0.4172  0.5424 -0.3856
  524TMC3    C3 7832   2.988   3.954   9.353 -0.3906 -0.1616 -0.4923
  524TMC3    C4 7833   3.110   3.950   9.608 -0.5055  0.8212 -0.3368
  524TMC3    C5 7834   3.072   4.067   9.542 -0.6887 -0.5704  0.7003
  524TMC3    C6 7835   3.017   4.068   9.415  0.4407 -0.3098 -0.8438
  524TMC3     C 7836   3.129   3.708   9.590 -0.7218 -0.3148 -0.1236
  524TMC3     O 7837   3.202   3.713   9.690  0.5541  1.0447  0.6488
  524TMC3     H 7838   3.033   3.756   9.344  0.2917  0.5636 -0.4267
  524TMC3    H1 7839   3.141   3.939   9.711  0.9267  2.2997 -0.6135
  524TMC3    H2 7840   2.966   4.159   9.384  3.8192  2.4114  1.5522
  524TMC3    C7 7841   3.078   4.186   9.618 -0.5859  0.6990 -0.2949
  524TMC3    C8 7842   2.939   3.944   9.219 -0.0152 -0.0519 -0.0132
  524TMC3    O1 7843   3.085   4.181   9.739 -0.5052 -0.3708 -0.1899
  524TMC3    O2 7844   2.902   3.830   9.187  0.6904  0.0012 -0.1647
  525MPD2     C 7845   1.574   0.676  13.760  0.1101 -0.0395  0.0090
  525MPD2    C1 7846   1.673   0.716  13.846 -0.1050 -0.3743  0.0615
  525MPD2    C2 7847   1.727   0.839  13.839  0.3979  0.5163 -0.6723
  525MPD2    C3 7848   1.693   0.927  13.740  0.0181  0.1690  0.0443
  525MPD2    C4 7849   1.599   0.889  13.651 -0.1791 -0.5187  0.4331
  525MPD2    C5 7850   1.539   0.766  13.662 -0.6267 -0.0040  0.2151
  525MPD2     H 7851   1.799   0.864  13.917 -1.8748  2.1746  0.8994
  525MPD2    H1 7852   1.571   0.942  13.560  1.3026 -2.7168 -1.3156
  525MPD2    H2 7853   1.528   0.578  13.760 -0.9040  0.4312 -0.2232
  525MPD2    H3 7854   1.457   0.748  13.594 -0.9623  0.0270  0.6118
  525MPD2     N 7855   1.746   1.055  13.743  0.1717 -0.1803  0.1416
  525MPD2    H5 7856   1.710   1.129  13.683  2.6499  0.7183 -0.2294
  525MPD2    N1 7857   1.711   0.633  13.951 -0.1976 -0.0735 -0.7946
  525MPD2    H7 7858   1.800   0.656  13.992 -1.0559  0.5087  0.7629
  526TMC3    C1 7859   1.688   0.456  14.099 -0.0416  0.0900  0.2272
  526TMC3    C2 7860   1.607   0.405  14.202 -0.8255  0.3554 -0.1224
  526TMC3    C3 7861   1.664   0.324  14.295  0.1546  0.5541  0.5331
  526TMC3    C4 7862   1.813   0.407  14.077 -0.5804 -0.4681 -0.5971
  526TMC3    C5 7863   1.867   0.317  14.174  0.2654 -1.1279  0.3548
  526TMC3    C6 7864   1.793   0.285  14.288  0.6507  0.0821 -0.2172
  526TMC3     C 7865   1.626   0.548  14.012  0.3726  0.0061  0.0432
  526TMC3     O 7866   1.503   0.543  13.999  0.3215 -0.3266  0.0219
  526TMC3     H 7867   1.511   0.454  14.220 -1.2210 -0.3617 -0.2781
  526TMC3    H1 7868   1.863   0.433  13.984 -1.1038  1.2193 -0.4036
  526TMC3    H2 7869   1.841   0.234  14.371 -0.6894  0.5989  0.8695
  526TMC3    C7 7870   1.971   0.226  14.145 -0.2163 -0.0045 -0.5031
  526TMC3    C8 7871   1.607   0.328  14.428 -0.7072 -0.1244 -0.5789
  526TMC3    O1 7872   2.008   0.149  14.234 -0.1635  0.4405 -0.1126
  526TMC3    O2 7873   1.605   0.435  14.483  0.4546 -0.7096  0.1762
  527MPD2     C 7874   4.710   3.239   0.757 -0.6226  0.1312 -0.5621
  527MPD2    C1 7875   4.721   3.375   0.774  0.2662 -0.5657  0.5887
  527MPD2    C2 7876   0.106   3.429   0.731 -0.3525  0.4695  0.3855
  527MPD2    C3 7877   0.214   3.351   0.696 -0.2108  0.3442  0.2503
  527MPD2    C4 7878   0.208   3.216   0.707 -0.3783 -0.2869 -0.1834
  527MPD2    C5 7879   0.081   3.163   0.732 -0.0684  0.2876 -0.5549
  527MPD2     H 7880   0.121   3.536   0.738  2.5900  0.1011 -0.4480
  527MPD2    H1 7881   0.286   3.153   0.668  0.6656  0.1938  1.1428
  527MPD2    H2 7882   4.612   3.194   0.762  0.9800 -3.2593  0.4938
  527MPD2    H3 7883   0.068   3.057   0.711  2.7978  0.0287 -1.0355
  527MPD2     N 7884   0.329   3.420   0.646  0.7978  0.2613  0.1316
  527MPD2    H5 7885   0.320   3.518   0.622  2.9466  0.8631  1.7664
  527MPD2    N1 7886   4.619   3.468   0.804 -0.5480  0.1372 -0.3477
  527MPD2    H7 7887   4.646   3.565   0.789  0.0042  0.0517  0.0791
  528TMC3    C1 7888   4.394   3.539   0.856 -0.3866 -0.2824  0.1178
  528TMC3    C2 7889   4.267   3.518   0.808  0.0426 -0.3328  0.1126
  528TMC3    C3 7890   4.174   3.626   0.811  0.5502  0.2323 -0.0596
  528TMC3    C4 7891   4.430   3.662   0.902 -0.0043 -0.1012 -0.2914
  528TMC3    C5 7892   4.338   3.756   0.904 -0.2041 -0.0533  0.3002
  528TMC3    C6 7893   4.213   3.750   0.859 -0.1550 -0.2572 -0.1515
  528TMC3     C 7894   4.488   3.429   0.828 -0.7922 -1.1397  0.3889
  528TMC3     O 7895   4.434   3.324   0.801  0.1301  0.5099 -0.1998
  528TMC3     H 7896   4.246   3.431   0.747 -0.5420  0.7128 -1.1973
  528TMC3    H1 7897   4.526   3.680   0.949 -0.7186  1.2230  0.6643
  528TMC3    H2 7898   4.142   3.831   0.865  1.2943  0.8625  1.8320
  528TMC3    C7 7899   4.357   3.878   0.977 -0.9515  0.0726  0.5107
  528TMC3    C8 7900   4.117   3.635   0.685 -0.9055  0.2783 -0.1734
  528TMC3    O1 7901   4.257   3.935   1.013 -0.2568 -0.2095 -0.2258
  528TMC3    O2 7902   4.179   3.606   0.585  0.6895  0.3306  0.3869
  529MPD2     C 7903   2.340   2.960   0.739  0.3432 -0.3665  0.1135
  529MPD2    C1 7904   2.320   2.835   0.680  0.9922 -0.1792  0.5374
  529MPD2    C2 7905   2.273   2.834   0.553 -0.3114  0.2876  0.1291
  529MPD2    C3 7906   2.253   2.940   0.476  0.0721 -0.6191 -0.0651
  529MPD2    C4 7907   2.287   3.061   0.528  0.4612  0.3901  0.3355
  529MPD2    C5 7908   2.331   3.073   0.657 -1.2788  0.2478 -0.1804
  529MPD2     H 7909   2.264   2.733   0.512 -3.7836  0.8958 -0.6435
  529MPD2    H1 7910   2.287   3.147   0.462  1.0540  1.2769  1.4859
  529MPD2    H2 7911   2.389   2.971   0.836  0.0176  1.5501  0.0685
  529MPD2    H3 7912   2.383   3.164   0.684  1.5376 -1.0644 -1.1138
  529MPD2     N 7913   2.206   2.934   0.343  0.0582  0.5167 -0.4097
  529MPD2    H5 7914   2.212   3.017   0.285  0.5250  2.1345  1.9707
  529MPD2    N1 7915   2.357   2.706   0.743  0.5857  0.7652  0.0656
  529MPD2    H7 7916   2.340   2.627   0.682  0.5354 -0.5431  1.7612
  530TMC3    C1 7917   2.447   2.546   0.875 -0.0718  0.3119  0.5290
  530TMC3    C2 7918   2.539   2.514   0.977  0.2895  0.0252  0.2255
  530TMC3    C3 7919   2.585   2.392   0.991  0.7383 -0.1796  0.1479
  530TMC3    C4 7920   2.394   2.447   0.804  0.1663 -0.0614  0.2923
  530TMC3    C5 7921   2.441   2.322   0.819  0.6537  0.1988  0.4305
  530TMC3    C6 7922   2.548   2.294   0.906 -0.1343  0.5519  0.4360
  530TMC3     C 7923   2.430   2.688   0.851 -0.4941  0.1772  0.2217
  530TMC3     O 7924   2.482   2.769   0.923 -0.3224  0.4640  0.1460
  530TMC3     H 7925   2.578   2.598   1.035 -1.1243 -1.5519  3.4623
  530TMC3    H1 7926   2.316   2.478   0.735  1.1650  0.9303 -0.3903
  530TMC3    H2 7927   2.588   2.195   0.922  1.0340  1.0520  0.6260
  530TMC3    C7 7928   2.364   2.218   0.746  0.1242 -0.1858  0.5125
  530TMC3    C8 7929   2.649   2.347   1.119 -0.2754 -0.1834 -0.5219
  530TMC3    O1 7930   2.281   2.259   0.665 -0.2705 -0.1725 -0.1619
  530TMC3    O2 7931   2.621   2.415   1.216  0.0780 -0.2891 -0.2744
  531MPD2     C 7932   0.849   3.265  12.721 -0.6388  0.6405 -0.4433
  531MPD2    C1 7933   0.735   3.341  12.749  0.0788  0.5327  0.0036
  531MPD2    C2 7934   0.664   3.393  12.637  0.0253 -0.5598 -0.0409
  531MPD2    C3 7935   0.711   3.379  12.509  0.2695  0.0796 -0.4454
  531MPD2    C4 7936   0.835   3.315  12.489  0.0458 -0.4068  0.5354
  531MPD2    C5 7937   0.900   3.258  12.599  0.6725 -0.0694 -0.3291
  531MPD2     H 7938   0.576   3.456  12.647  1.0025  0.6333  1.1228
  531MPD2    H1 7939   0.871   3.306  12.387 -1.3942 -2.9546  0.2412
  531MPD2    H2 7940   0.918   3.225  12.794 -1.1873 -1.4891 -1.0799
  531MPD2    H3 7941   0.997   3.213  12.586  0.0838 -1.4226 -0.0625
  531MPD2     N 7942   0.653   3.448  12.403 -0.0021  0.1657  0.2873
  531MPD2    H5 7943   0.703   3.458  12.315  0.8415  1.1338  0.8663
  531MPD2    N1 7944   0.689   3.359  12.883 -0.9455  0.6836 -0.0810
  531MPD2    H7 7945   0.749   3.317  12.954 -2.1392  0.7855  0.9826
  532TMC3    C1 7946   0.576   3.498  13.039  0.1736  1.1982 -0.1952
  532TMC3    C2 7947   0.468   3.577  13.051 -0.3801 -0.4897  0.1169
  532TMC3    C3 7948   0.470   3.704  13.078  0.2895  0.4691 -0.1089
  532TMC3    C4 7949   0.700   3.548  13.076 -0.9654 -0.5321 -0.4809
  532TMC3    C5 7950   0.701   3.677  13.112 -0.6034  0.0211  0.1322
  532TMC3    C6 7951   0.591   3.760  13.109 -0.3085 -1.0435  0.5256
  532TMC3     C 7952   0.572   3.432  12.912 -0.3861 -0.0039 -1.1740
  532TMC3     O 7953   0.469   3.441  12.852 -0.3312  0.5475 -0.0230
  532TMC3     H 7954   0.373   3.528  13.033  0.7515 -2.7431  0.3073
  532TMC3    H1 7955   0.792   3.501  13.045 -0.5448  0.0896 -0.1714
  532TMC3    H2 7956   0.603   3.867  13.116 -0.7668 -0.9295 -0.4210
  532TMC3    C7 7957   0.822   3.744  13.174 -0.9313 -0.4073  0.3577
  532TMC3    C8 7958   0.372   3.795  13.010  0.5161  0.2522 -0.2892
  532TMC3    O1 7959   0.828   3.868  13.196 -0.0458  0.0532 -0.1135
  532TMC3    O2 7960   0.368   3.912  13.045  0.2983  0.2902 -0.0411
  533TMC3    C1 7961   1.852   1.237  13.847  0.0937  0.3421  0.5534
  533TMC3    C2 7962   1.972   1.291  13.891  0.1464  0.0563 -0.5425
  533TMC3    C3 7963   1.967   1.390  13.991 -0.5878 -0.5032  0.2113
  533TMC3    C4 7964   1.731   1.269  13.906 -0.1546  0.4288  0.2254
  533TMC3    C5 7965   1.739   1.360  14.010  0.0471 -0.5854 -0.8491
  533TMC3    C6 7966   1.850   1.431  14.040  0.7918  0.3504  0.6015
  533TMC3     C 7967   1.857   1.095  13.809  0.2098 -0.6255  0.7804
  533TMC3     O 7968   1.954   1.029  13.849  0.1634  0.1702 -0.2754
  533TMC3     H 7969   2.061   1.246  13.848  1.5257  0.7950  1.5484
  533TMC3    H1 7970   1.647   1.201  13.901 -0.9921  1.5064 -0.6191
  533TMC3    H2 7971   1.850   1.514  14.110  2.5657  1.4480 -0.6924
  533TMC3    C7 7972   1.657   1.337  14.124 -0.1050  0.1744 -0.1203
  533TMC3    C8 7973   2.085   1.435  14.057  0.0540 -0.1107  0.4202
  533TMC3    O1 7974   1.633   1.219  14.144 -0.1007 -0.3665 -0.1439
  533TMC3    O2 7975   2.068   1.525  14.137 -0.6336 -0.5353  0.4089
  534MPD2     C 7976   0.168   1.868   0.490  0.5444  0.1440 -0.1849
  534MPD2    C1 7977   0.136   1.991   0.543  0.1712 -0.8008 -0.8112
  534MPD2    C2 7978   0.006   2.048   0.520  0.0311  0.4190 -0.1126
  534MPD2    C3 7979   4.647   1.987   0.440  0.4915  0.9038  0.1797
  534MPD2    C4 7980   4.684   1.873   0.380  0.4506 -0.3355 -0.4483
  534MPD2    C5 7981   0.072   1.811   0.412 -0.6177  0.1022  0.4625
  534MPD2     H 7982   4.714   2.146   0.559  0.9405  0.0301  1.4912
  534MPD2    H1 7983   4.609   1.814   0.328  1.3975 -0.2067 -1.9666
  534MPD2    H2 7984   0.255   1.808   0.514  1.3401  0.7064 -1.6876
  534MPD2    H3 7985   0.091   1.711   0.376 -2.2221 -0.2231  0.5043
  534MPD2     N 7986   4.513   2.040   0.432  0.3214 -0.7938  0.1240
  534MPD2    H5 7987   4.443   2.005   0.368  0.0539  0.5160 -0.3168
  534MPD2    N1 7988   0.223   2.067   0.623 -0.3353  0.2783  0.2495
  534MPD2    H7 7989   0.182   2.154   0.657 -1.2467  0.5328 -1.5144
  535TMC3    C1 7990   4.326   2.172   0.475 -0.2818  0.3202 -0.4146
  535TMC3    C2 7991   4.254   2.138   0.588 -0.3723 -1.1768  0.0936
  535TMC3    C3 7992   4.118   2.134   0.569  0.4777  0.1714  0.7810
  535TMC3    C4 7993   4.282   2.185   0.350 -0.8046  0.1437  0.1659
  535TMC3    C5 7994   4.146   2.180   0.341  0.1431  0.5237  0.2001
  535TMC3    C6 7995   4.060   2.167   0.451 -0.1924 -0.5406  0.8299
  535TMC3     C 7996   4.468   2.161   0.493 -1.0484  0.1222 -0.5552
  535TMC3     O 7997   4.516   2.233   0.580 -0.0007 -0.0917  0.2609
  535TMC3     H 7998   4.308   2.114   0.679 -2.0278  1.5923  1.7798
  535TMC3    H1 7999   4.347   2.183   0.263  1.1605 -2.4852  1.6783
  535TMC3    H2 8000   3.956   2.148   0.430  0.0577 -0.6059 -0.3650
  535TMC3    C7 8001   4.089   2.242   0.225 -0.1281  0.2935 -0.3084
  535TMC3    C8 8002   4.033   2.108   0.688  0.5050 -0.2673  0.8200
  535TMC3    O1 8003   4.144   2.211   0.119  0.2615  0.6739  0.4352
  535TMC3    O2 8004   3.914   2.079   0.673 -0.0102  0.4356 -0.1532
  536MPD2     C 8005   2.862   0.372  16.329  0.3333 -1.0176 -0.3019
  536MPD2    C1 8006   2.776   0.276  16.287 -0.4450 -0.4508  0.0196
  536MPD2    C2 8007   2.687   0.308  16.184 -0.7024  0.1816  0.1919
  536MPD2    C3 8008   2.705   0.428  16.117  0.2323  0.7001  0.2751
  536MPD2    C4 8009   2.804   0.516  16.159  0.2284  0.5434 -0.5670
  536MPD2    C5 8010   2.879   0.487  16.264 -0.0999  0.6055 -0.5203
  536MPD2     H 8011   2.612   0.236  16.156  0.0309 -0.0208 -1.2742
  536MPD2    H1 8012   2.821   0.607  16.103 -1.8014  1.8800  1.0182
  536MPD2    H2 8013   2.939   0.349  16.401 -0.9447 -1.7815  0.8168
  536MPD2    H3 8014   2.961   0.552  16.295 -0.9563  1.4069  0.0525
  536MPD2     N 8015   2.634   0.467  15.998 -0.3655  0.1295  0.3844
  536MPD2    H5 8016   2.674   0.550  15.954  0.4530 -1.1656 -1.3047
  536MPD2    N1 8017   2.781   0.153  16.357  0.1791  0.4774  0.0624
  536MPD2    H7 8018   2.856   0.143  16.425  1.5731 -3.9287 -2.1104
  537TMC3    C1 8019   2.750   4.664  16.401 -0.6068  0.5459  0.1818
  537TMC3    C2 8020   2.869   4.661  16.467 -0.4686 -0.5160 -0.3225
  537TMC3    C3 8021   2.890   4.546  16.552 -0.0548 -0.4887  0.4182
  537TMC3    C4 8022   2.657   4.559  16.401  0.2944 -1.0588  0.0677
  537TMC3    C5 8023   2.686   4.448  16.476 -0.2464  0.0130 -0.2383
  537TMC3    C6 8024   2.803   4.437  16.548 -0.1947 -0.4425  0.8355
  537TMC3     C 8025   2.706   0.043  16.330  0.3067 -0.0060  0.6693
  537TMC3     O 8026   2.600   0.039  16.266 -0.3042 -0.0791  0.2459
  537TMC3     H 8027   2.950   4.732  16.457 -1.7468  1.2036  1.4903
  537TMC3    H1 8028   2.559   4.581  16.360  0.5184  1.5122  0.9632
  537TMC3    H2 8029   2.818   4.357  16.620  0.3746 -0.5485  0.5988
  537TMC3    C7 8030   2.571   4.360  16.498 -0.5360  0.1447  0.8209
  537TMC3    C8 8031   2.992   4.537  16.659 -0.1181 -0.1420  0.8226
  537TMC3    O1 8032   2.476   4.370  16.420  0.3899 -0.3461 -0.1212
  537TMC3    O2 8033   3.005   4.432  16.717 -0.2060 -0.1566  0.2499
  538TMC3    C1 8034   4.099   2.914  10.932  0.1757  0.1238 -0.1015
  538TMC3    C2 8035   4.204   2.871  10.852 -0.3971  0.2605  0.2549
  538TMC3    C3 8036   4.213   2.932  10.726  0.0764 -0.0617 -0.3693
  538TMC3    C4 8037   3.997   2.986  10.887  0.5218 -0.1071  0.0876
  538TMC3    C5 8038   4.001   3.021  10.754  0.1069  0.7485  0.2382
  538TMC3    C6 8039   4.106   2.998  10.676  0.0291 -0.0293  0.8816
  538TMC3     C 8040   4.112   2.896  11.076 -0.0766 -0.0112 -0.2759
  538TMC3     O 8041   4.094   2.989  11.153  0.5236  0.3484 -0.1395
  538TMC3     H 8042   4.295   2.824  10.886 -2.4171 -1.6012  3.1216
  538TMC3    H1 8043   3.914   3.003  10.955  0.5297  0.0945  0.0487
  538TMC3    H2 8044   4.118   3.017  10.570  0.3463 -4.0278  0.1707
  538TMC3    C7 8045   3.892   3.110  10.702  0.6666  0.0994  0.0804
  538TMC3    C8 8046   4.320   2.886  10.642 -1.1805 -0.0697  0.3388
  538TMC3    O1 8047   3.819   3.162  10.787  0.1015 -0.6853  0.1695
  538TMC3    O2 8048   4.358   2.771  10.662  0.1750 -0.3693  0.1031
  539MPD2     C 8049   4.006   2.187  11.385  0.2246 -0.3886  0.7200
  539MPD2    C1 8050   4.060   2.246  11.275 -0.3818 -0.5766 -0.1391
  539MPD2    C2 8051   3.999   2.352  11.212 -0.1508  0.4732 -0.0197
  539MPD2    C3 8052   3.884   2.401  11.262  0.2406  0.3851 -0.1625
  539MPD2    C4 8053   3.828   2.345  11.373 -0.6875 -0.2408  0.0331
  539MPD2    C5 8054   3.887   2.234  11.429  0.0012  0.5218  0.4764
  539MPD2     H 8055   4.042   2.408  11.130 -0.5899  0.1053 -0.5076
  539MPD2    H1 8056   3.748   2.400  11.420  0.8814  1.0714  1.1852
  539MPD2    H2 8057   4.046   2.107  11.446  3.1025  0.2415 -0.3546
  539MPD2    H3 8058   3.843   2.198  11.521 -1.0121  1.2270  0.2680
  539MPD2     N 8059   3.816   2.520  11.220 -0.1071  0.5360  0.3562
  539MPD2    H5 8060   3.751   2.557  11.288  0.3193  1.8508  0.0521
  539MPD2    N1 8061   4.175   2.186  11.223  0.4370 -0.5891  0.4263
  539MPD2    H7 8062   4.206   2.102  11.271  0.2660 -0.2978  1.0407
  540TMC3    C1 8063   3.777   2.725  11.109 -0.2324 -0.4110  0.2354
  540TMC3    C2 8064   3.746   2.784  10.988 -0.3898  0.5855  0.0669
  540TMC3    C3 8065   3.634   2.862  10.978  0.1478  0.1560 -0.5737
  540TMC3    C4 8066   3.720   2.774  11.227 -0.0832  0.5052  0.6853
  540TMC3    C5 8067   3.607   2.851  11.211  0.3738 -0.3049  0.0318
  540TMC3    C6 8068   3.564   2.896  11.096 -0.5517  0.2690 -0.2360
  540TMC3     C 8069   3.843   2.600  11.108 -0.0672 -0.3250 -0.0128
  540TMC3     O 8070   3.917   2.578  11.014 -0.2167  0.2028 -0.0976
  540TMC3     H 8071   3.789   2.733  10.903 -0.7221 -0.6339  0.6359
  540TMC3    H1 8072   3.735   2.726  11.323 -0.3180 -1.8862 -0.4714
  540TMC3    H2 8073   3.478   2.962  11.089 -1.2506 -0.6452 -0.1905
  540TMC3    C7 8074   3.510   2.836  11.318 -0.0319  0.7585 -0.3291
  540TMC3    C8 8075   3.587   2.914  10.853  0.0001 -0.3414 -0.0695
  540TMC3    O1 8076   3.395   2.832  11.278  0.1068  0.7664 -0.6889
  540TMC3    O2 8077   3.511   3.010  10.850  0.1251  0.1344 -0.0623
  541MPD2     C 8078   1.694   4.269  12.908 -0.5493  0.5648  0.0220
  541MPD2    C1 8079   1.796   4.184  12.883 -1.0282 -0.3487 -0.3362
  541MPD2    C2 8080   1.897   4.235  12.805 -0.1354  0.6338 -0.0674
  541MPD2    C3 8081   1.902   4.374  12.772  0.2325  0.0868 -0.0268
  541MPD2    C4 8082   1.801   4.459  12.815  0.0601 -0.0070 -0.5989
  541MPD2    C5 8083   1.691   4.402  12.880 -0.0241  0.0205  0.3591
  541MPD2     H 8084   1.992   4.181  12.804 -0.6617 -0.3191  0.7014
  541MPD2    H1 8085   1.804   4.559  12.774 -2.7608  0.6424  0.8522
  541MPD2    H2 8086   1.609   4.238  12.969 -1.1104 -0.1522 -1.1277
  541MPD2    H3 8087   1.604   4.460  12.912  0.4802  2.0815 -2.0607
  541MPD2     N 8088   2.005   4.430  12.687  0.0272  0.2646  0.1806
  541MPD2    H5 8089   2.008   4.529  12.667 -1.5350  0.5857  1.5793
  541MPD2    N1 8090   1.791   4.054  12.931  0.2776 -0.2692  0.2720
  541MPD2    H7 8091   1.716   4.029  12.995  0.1117 -0.8964 -0.1616
  542TMC3    C1 8092   2.178   4.404  12.522  0.2114  0.0735  0.2349
  542TMC3    C2 8093   2.238   4.324  12.428  0.3857  0.0443 -0.2002
  542TMC3    C3 8094   2.290   4.383  12.316 -0.0522 -0.0591 -0.1826
  542TMC3    C4 8095   2.177   4.542  12.504  0.6156 -0.2656 -0.4471
  542TMC3    C5 8096   2.212   4.590  12.383 -0.1668  0.4362 -0.3201
  542TMC3    C6 8097   2.267   4.518  12.283  0.1087 -0.0379 -0.2153
  542TMC3     C 8098   2.087   4.342  12.614  0.4499 -0.4101 -0.3439
  542TMC3     O 8099   2.082   4.222  12.599  0.3381 -0.2682 -0.1975
  542TMC3     H 8100   2.243   4.218  12.452  0.5366  0.3253  1.0035
  542TMC3    H1 8101   2.133   4.612  12.574 -0.0116  0.3947 -1.5087
  542TMC3    H2 8102   2.322   4.559  12.200  1.2563  1.0621  1.0865
  542TMC3    C7 8103   2.191   4.727  12.358 -0.2184 -0.1522 -0.6118
  542TMC3    C8 8104   2.361   4.304  12.217 -0.0367 -0.3823  0.1370
  542TMC3    O1 8105   2.193   0.068  12.455  0.1980 -0.1525  0.5766
  542TMC3    O2 8106   2.375   4.357  12.107 -0.8523  0.0932 -0.3383
  543TMC3    C1 8107   1.754   1.224  17.004 -0.5258 -0.0007 -0.0953
  543TMC3    C2 8108   1.647   1.139  17.046 -0.0362  0.9373 -0.8508
  543TMC3    C3 8109   1.667   1.066  17.157 -0.1680  0.2023  0.3249
  543TMC3    C4 8110   1.881   1.221  17.070 -0.6670  0.4855  0.1734
  543TMC3    C5 8111   1.886   1.154  17.182 -0.4173 -0.3119  0.8817
  543TMC3    C6 8112   1.782   1.071  17.232  0.2903 -0.0574 -0.4342
  543TMC3     C 8113   1.755   1.273  16.866  0.1157  0.3253  0.3181
  543TMC3     O 8114   1.867   1.290  16.817 -0.2955  0.1381 -0.2573
  543TMC3     H 8115   1.556   1.147  16.988 -1.6051 -2.6769  1.1037
  543TMC3    H1 8116   1.958   1.291  17.042 -0.1092  0.8860  2.7714
  543TMC3    H2 8117   1.796   1.014  17.323  0.3633 -1.6702 -1.4604
  543TMC3    C7 8118   2.015   1.151  17.246 -0.7038  0.4993  0.3941
  543TMC3    C8 8119   1.565   0.960  17.180  0.3558  0.0313  0.0400
  543TMC3    O1 8120   2.046   1.046  17.305 -0.4038 -0.0327  0.4421
  543TMC3    O2 8121   1.523   0.911  17.078 -0.3891 -0.7572 -0.2210
  544MPD2     C 8122   1.392   0.563  17.461 -0.0810  0.6136 -0.3050
  544MPD2    C1 8123   1.424   0.573  17.322  0.4528  0.5742 -0.1526
  544MPD2    C2 8124   1.477   0.695  17.273 -0.2625 -0.7877 -0.0559
  544MPD2    C3 8125   1.505   0.805  17.356  0.3673  0.0761 -0.1413
  544MPD2    C4 8126   1.462   0.792  17.487 -0.0109 -0.5691  0.1388
  544MPD2    C5 8127   1.405   0.676  17.539  0.3983  0.8078  0.7739
  544MPD2     H 8128   1.507   0.702  17.169  2.3075  0.3531  0.7509
  544MPD2    H1 8129   1.465   0.872  17.560  0.1875 -1.7023  1.3684
  544MPD2    H2 8130   1.359   0.470  17.506  0.8084  0.3807 -0.1336
  544MPD2    H3 8131   1.380   0.669  17.644 -0.4488 -0.1210  0.5068
  544MPD2     N 8132   1.561   0.925  17.316  0.0449 -0.3927  0.0973
  544MPD2    H5 8133   1.595   0.989  17.386 -0.3716  0.2951 -0.3348
  544MPD2    N1 8134   1.415   0.458  17.237 -0.0937  0.8215  0.0447
  544MPD2    H7 8135   1.392   0.369  17.282 -0.5373  0.0465 -1.7316
  545TMC3    C1 8136   1.460   0.307  17.061  0.1018  0.3820  0.1832
  545TMC3    C2 8137   1.575   0.258  17.011  0.7844  0.2659  0.7804
  545TMC3    C3 8138   1.598   0.122  17.027  0.0629  0.1209 -0.4750
  545TMC3    C4 8139   1.361   0.232  17.117  0.4208  0.2671  0.0888
  545TMC3    C5 8140   1.387   0.100  17.135 -0.0790 -0.1730  0.1950
  545TMC3    C6 8141   1.501   0.047  17.091  0.7209  0.0791  0.3142
  545TMC3     C 8142   1.467   0.448  17.109 -0.4075 -0.1714  0.4154
  545TMC3     O 8143   1.533   0.525  17.042  0.0429 -0.8959 -0.2296
  545TMC3     H 8144   1.634   0.327  16.951  0.0724  1.1465  1.1031
  545TMC3    H1 8145   1.264   0.274  17.138  1.5516  2.7839  0.3194
  545TMC3    H2 8146   1.520   4.676  17.107  0.4263  0.2296  1.6412
  545TMC3    C7 8147   1.284   0.013  17.165  0.6550  0.2948 -0.0850
  545TMC3    C8 8148   1.725   0.056  16.992  0.0054 -0.8158  0.8525
  545TMC3    O1 8149   1.176   0.042  17.114  0.2441 -0.0739  0.4950
  545TMC3    O2 8150   1.758   4.685  17.039  0.8119 -0.1134  0.3205
  546MPD2     C 8151   2.899   0.792  17.003 -0.2342 -0.1077  0.0062
  546MPD2    C1 8152   2.893   0.853  16.877  0.6163  0.4465  0.3874
  546MPD2    C2 8153   2.951   0.975  16.854 -0.3083  0.2139  0.9213
  546MPD2    C3 8154   3.020   1.044  16.954 -0.0673 -0.5316  0.3366
  546MPD2    C4 8155   3.017   0.987  17.082 -1.2242  0.8240 -0.4951
  546MPD2    C5 8156   2.963   0.863  17.105  0.6240  0.7671  0.0546
  546MPD2     H 8157   2.942   1.026  16.758  1.9554 -2.0346 -0.4800
  546MPD2    H1 8158   3.052   1.040  17.169 -0.0008 -3.1006  1.4160
  546MPD2    H2 8159   2.862   0.693  17.026  0.8219 -0.6147 -0.4948
  546MPD2    H3 8160   2.972   0.826  17.206 -0.9639 -1.1569 -0.5115
  546MPD2     N 8161   3.062   1.181  16.931  0.0691 -0.9635  0.2541
  546MPD2    H5 8162   3.047   1.222  16.839 -1.0637 -3.3242 -0.6224
  546MPD2    N1 8163   2.833   0.775  16.779  0.7399  0.0416  0.7080
  546MPD2    H7 8164   2.778   0.695  16.808  0.2764  0.1176  0.0581
  547TMC3    C1 8165   2.784   0.705  16.560 -0.0772  0.5839  0.1622
  547TMC3    C2 8166   2.678   0.722  16.471 -0.5268 -0.0895 -0.3225
  547TMC3    C3 8167   2.585   0.622  16.455  0.0483 -0.0953  0.2677
  547TMC3    C4 8168   2.804   0.582  16.618 -0.3099 -0.5228 -0.4068
  547TMC3    C5 8169   2.704   0.488  16.612 -0.1732  0.7717 -0.2332
  547TMC3    C6 8170   2.588   0.510  16.539  0.1715  0.1444  0.2208
  547TMC3     C 8171   2.831   0.816  16.646 -0.1833 -0.1431 -0.3315
  547TMC3     O 8172   2.881   0.913  16.586  0.3804  0.8163 -0.1056
  547TMC3     H 8173   2.662   0.816  16.419  0.8477 -0.1088 -0.7804
  547TMC3    H1 8174   2.892   0.572  16.680  0.5631 -0.7390 -1.6706
  547TMC3    H2 8175   2.505   0.441  16.535 -1.9824  2.7354 -0.3210
  547TMC3    C7 8176   2.713   0.385  16.704 -0.4200 -0.0059 -0.0772
  547TMC3    C8 8177   2.488   0.645  16.347 -0.2768  0.0715  0.2445
  547TMC3    O1 8178   2.796   0.383  16.795 -0.4046 -0.3973 -0.0257
  547TMC3    O2 8179   2.470   0.761  16.307  0.0345  0.0130 -0.3178
  548MPD2     C 8180   3.024   1.247  12.495  0.5586 -0.1522 -0.5025
  548MPD2    C1 8181   2.950   1.126  12.504 -0.5138 -0.3884  0.3153
  548MPD2    C2 8182   3.014   1.012  12.453  0.5398  0.1254 -0.2513
  548MPD2    C3 8183   3.144   1.018  12.399 -0.2892 -0.3895 -0.2016
  548MPD2    C4 8184   3.204   1.143  12.394 -0.0769 -0.3355  0.8128
  548MPD2    C5 8185   3.141   1.252  12.431  0.3649 -0.6344 -0.1123
  548MPD2     H 8186   2.957   0.920  12.447  0.1276  0.2699  1.3423
  548MPD2    H1 8187   3.294   1.163  12.336 -0.6424  1.5919  0.5749
  548MPD2    H2 8188   2.976   1.339  12.526  1.5293  0.0484  0.4093
  548MPD2    H3 8189   3.189   1.349  12.429  2.4036 -1.5612  3.3911
  548MPD2     N 8190   3.206   0.906  12.339 -0.2157  0.6483 -0.2380
  548MPD2    H5 8191   3.158   0.817  12.340 -3.0070  2.1481  0.4792
  548MPD2    N1 8192   2.817   1.129  12.557 -0.2367  0.8075  0.5212
  548MPD2    H7 8193   2.782   1.216  12.597 -2.2297  0.8759 -1.3616
  549TMC3    C1 8194   2.612   1.042  12.634  0.3739  0.5667 -0.1998
  549TMC3    C2 8195   2.554   1.170  12.637 -0.8938 -0.0455  0.0365
  549TMC3    C3 8196   2.432   1.177  12.681 -0.4195 -0.2613 -0.9113
  549TMC3    C4 8197   2.542   0.937  12.682 -0.2588 -0.1513 -1.4517
  549TMC3    C5 8198   2.416   0.944  12.729  0.4605 -1.1142  0.1153
  549TMC3    C6 8199   2.356   1.067  12.722  0.3404 -0.0899 -0.1558
  549TMC3     C 8200   2.734   1.014  12.566 -0.5365 -0.3778 -0.2872
  549TMC3     O 8201   2.758   0.904  12.522 -0.6135 -0.7627 -0.0330
  549TMC3     H 8202   2.619   1.252  12.608 -0.8001 -0.6062 -1.3404
  549TMC3    H1 8203   2.592   0.843  12.701  0.4030  0.6725  0.8173
  549TMC3    H2 8204   2.252   1.078  12.751 -0.2993  0.2379 -2.6210
  549TMC3    C7 8205   2.329   0.832  12.750 -0.0769 -0.6475  0.0390
  549TMC3    C8 8206   2.349   1.288  12.624  0.1434 -0.0068  0.2473
  549TMC3    O1 8207   2.219   0.862  12.792  0.3499 -0.3328  0.1198
  549TMC3    O2 8208   2.227   1.271  12.624 -0.1688 -0.8484 -0.5063
  550TMC3    C1 8209   1.752   3.171  12.195  0.4874  0.0292  0.1311
  550TMC3    C2 8210   1.695   3.226  12.308  0.2005  0.1837 -0.2826
  550TMC3    C3 8211   1.567   3.192  12.331 -0.5708 -0.2062 -0.3810
  550TMC3    C4 8212   1.699   3.072  12.114  0.5201  0.8767 -0.5527
  550TMC3    C5 8213   1.574   3.034  12.149 -0.5642  0.1327  0.3282
  550TMC3    C6 8214   1.504   3.095  12.251 -1.0179 -0.4383  0.1855
  550TMC3     C 8215   1.885   3.203  12.157 -0.0579  0.2518 -0.1905
  550TMC3     O 8216   1.972   3.220  12.245  0.3993 -0.0659  0.2817
  550TMC3     H 8217   1.754   3.291  12.371 -0.1558  0.2460 -0.0168
  550TMC3    H1 8218   1.745   3.041  12.021  1.0387 -1.5347  0.4972
  550TMC3    H2 8219   1.405   3.058  12.273 -1.5458 -0.6112 -2.4205
  550TMC3    C7 8220   1.491   2.992  12.043  0.5779 -0.5371  0.3552
  550TMC3    C8 8221   1.488   3.266  12.424  0.4700 -0.3024  0.8760
  550TMC3    O1 8222   1.372   3.021  12.054 -0.0592 -0.0431 -0.2102
  550TMC3    O2 8223   1.396   3.200  12.465 -0.1334 -0.6584  0.0341
  551TMC3    C1 8224   4.178   1.584  13.417  0.6634 -0.2450 -0.4742
  551TMC3    C2 8225   4.304   1.536  13.376 -0.0505  0.2583 -0.1568
  551TMC3    C3 8226   4.411   1.626  13.372 -0.1673 -0.0528  0.3257
  551TMC3    C4 8227   4.161   1.714  13.449 -0.1583  0.1583  0.2352
  551TMC3    C5 8228   4.267   1.803  13.453 -0.4384 -0.1373 -0.5333
  551TMC3    C6 8229   4.396   1.761  13.403  0.1830  0.0254 -0.3106
  551TMC3     C 8230   4.073   1.523  13.338 -0.3409  0.0330  0.1043
  551TMC3     O 8231   4.092   1.425  13.266 -0.1226  0.0185  0.4689
  551TMC3     H 8232   4.301   1.440  13.325 -2.3446  0.5376 -0.5375
  551TMC3    H1 8233   4.068   1.744  13.496 -0.2431 -3.2505  2.2429
  551TMC3    H2 8234   4.477   1.833  13.415  1.9670 -1.6745 -1.9822
  551TMC3    C7 8235   4.274   1.937  13.522  0.2558  0.5434  0.0569
  551TMC3    C8 8236   4.493   1.610  13.255 -0.9107 -0.8949 -0.3007
  551TMC3    O1 8237   4.382   1.977  13.560  0.0477 -0.1953 -0.1296
  551TMC3    O2 8238   4.551   1.500  13.227  0.0448 -0.1245  0.6818
  552MPD2     C 8239   1.121   3.817  13.696 -0.4594 -0.0588  0.9656
  552MPD2    C1 8240   1.059   3.745  13.800 -0.1521 -0.0130  0.4671
  552MPD2    C2 8241   1.116   3.765  13.928  0.3851 -0.0277  0.3819
  552MPD2    C3 8242   1.243   3.812  13.948  0.2515 -0.3997  0.0179
  552MPD2    C4 8243   1.300   3.880  13.840  0.3853 -0.3010 -0.2158
  552MPD2    C5 8244   1.239   3.884  13.718 -0.1485 -0.2858 -0.7415
  552MPD2     H 8245   1.067   3.713  14.010 -1.8054 -0.7927 -1.4067
  552MPD2    H1 8246   1.399   3.920  13.858 -1.0570  3.7468 -1.2297
  552MPD2    H2 8247   1.085   3.826  13.594  1.1292  0.0118  0.4124
  552MPD2    H3 8248   1.280   3.952  13.645  1.0317 -1.4616 -1.1783
  552MPD2     N 8249   1.311   3.810  14.074  0.2534  0.3174  0.3702
  552MPD2    H5 8250   1.409   3.837  14.071  0.0647  0.6655 -2.3762
  552MPD2    N1 8251   0.951   3.664  13.777 -0.8304 -0.5946  0.2843
  552MPD2    H7 8252   0.897   3.627  13.855 -2.0601 -0.9034 -0.7333
  553TMC3    C1 8253   0.774   3.550  13.658 -0.1273  0.3654 -0.2166
  553TMC3    C2 8254   0.741   3.510  13.530  0.1860  0.4843  0.6078
  553TMC3    C3 8255   0.684   3.388  13.506 -0.0246 -0.7163  0.5116
  553TMC3    C4 8256   0.759   3.468  13.759  0.2367  0.0981 -0.5295
  553TMC3    C5 8257   0.694   3.349  13.735  0.0175  0.8764  0.1822
  553TMC3    C6 8258   0.666   3.299  13.611 -0.4587  0.0919  0.1892
  553TMC3     C 8259   0.877   3.650  13.656  0.0008 -0.0593 -0.1091
  553TMC3     O 8260   0.897   3.706  13.550  0.7685 -0.2821 -0.2831
  553TMC3     H 8261   0.747   3.585  13.452 -0.7843 -0.3839 -0.3222
  553TMC3    H1 8262   0.788   3.504  13.857  2.2596  0.4992 -1.2742
  553TMC3    H2 8263   0.619   3.202  13.601  2.5172 -1.3366 -0.0242
  553TMC3    C7 8264   0.769   3.244  13.809  0.3197 -0.4650 -0.7280
  553TMC3    C8 8265   0.735   3.329  13.380 -0.0522  0.4791 -0.6497
  553TMC3    O1 8266   0.710   3.174  13.891  0.1426  1.4481  0.3395
  553TMC3    O2 8267   0.849   3.369  13.356 -0.6937  0.1618 -0.4196
  554TMC3    C1 8268   2.614   2.260  11.087 -0.7709  0.1176  0.4765
  554TMC3    C2 8269   2.533   2.286  10.979  0.4844  0.4866  0.6208
  554TMC3    C3 8270   2.544   2.401  10.899 -0.2129  0.1597  0.0509
  554TMC3    C4 8271   2.709   2.351  11.129  0.0474 -0.2816 -0.2046
  554TMC3    C5 8272   2.740   2.450  11.038  1.2741  0.5598  0.4479
  554TMC3    C6 8273   2.665   2.466  10.920  0.5615  0.1189  0.6366
  554TMC3     C 8274   2.545   2.177  11.188  0.7581 -0.2752 -0.4983
  554TMC3     O 8275   2.434   2.132  11.162  0.2848  0.8429 -0.1495
  554TMC3     H 8276   2.436   2.237  10.976  0.3873  0.6615  0.9758
  554TMC3    H1 8277   2.764   2.325  11.218 -1.9037  0.5573  1.2405
  554TMC3    H2 8278   2.682   2.547  10.850  0.5922 -1.5412 -1.2800
  554TMC3    C7 8279   2.871   2.512  11.055 -0.3567 -0.1265  0.2682
  554TMC3    C8 8280   2.470   2.432  10.774 -0.4180 -0.8429  0.8618
  554TMC3    O1 8281   2.940   2.449  11.135  0.1132  0.0517  0.3713
  554TMC3    O2 8282   2.493   2.546  10.730 -0.6469  0.2919 -0.4208
  555TMC3    C1 8283   1.897   2.746  15.224  0.1208  0.0067  0.0796
  555TMC3    C2 8284   1.938   2.793  15.349 -0.4572  0.2475 -0.1069
  555TMC3    C3 8285   1.976   2.700  15.440  0.2472  0.1586  0.2434
  555TMC3    C4 8286   1.882   2.612  15.193 -0.6366 -0.6081 -0.2498
  555TMC3    C5 8287   1.916   2.518  15.294  0.3623  0.4386  0.7490
  555TMC3    C6 8288   1.960   2.566  15.412  0.5075  0.9753  0.0523
  555TMC3     C 8289   1.914   2.845  15.119  0.3903  0.2522 -0.3263
  555TMC3     O 8290   1.988   2.939  15.143 -0.1459 -0.4026 -0.1703
  555TMC3     H 8291   1.944   2.901  15.359 -2.5756  0.4158 -0.5435
  555TMC3    H1 8292   1.844   2.593  15.093  0.1587 -1.3520 -0.4097
  555TMC3    H2 8293   1.973   2.495  15.493 -1.3064  0.6519  0.0625
  555TMC3    C7 8294   1.925   2.378  15.258 -0.0418  0.8600  0.4431
  555TMC3    C8 8295   2.016   2.753  15.570 -0.8096 -0.7659  0.0141
  555TMC3    O1 8296   1.942   2.297  15.345 -0.0730  0.0584 -0.1888
  555TMC3    O2 8297   2.014   2.872  15.580  0.0319  0.2710 -1.2038
  556MPD2     C 8298   0.010   4.129  10.305  0.1937 -0.2910 -0.1014
  556MPD2    C1 8299   0.011   4.023  10.385 -0.3716  0.2718 -0.1675
  556MPD2    C2 8300   0.003   3.898  10.331  1.0066  0.2168 -0.5969
  556MPD2    C3 8301   4.717   3.883  10.198  0.8536  0.1240 -0.3971
  556MPD2    C4 8302   4.728   3.994  10.111 -0.2686  0.3992 -0.0289
  556MPD2    C5 8303   0.010   4.119  10.168  0.3499  0.8514  0.3985
  556MPD2     H 8304   0.007   3.816  10.401  0.8949  0.4089 -0.3625
  556MPD2    H1 8305   4.710   3.986  10.005 -0.6862  1.7080 -0.0571
  556MPD2    H2 8306   0.017   4.229  10.347 -1.8044 -1.0157  1.9568
  556MPD2    H3 8307   0.012   4.208  10.106  0.1764 -0.5298 -1.5848
  556MPD2     N 8308   4.700   3.755  10.141 -0.0112  0.1776  0.5935
  556MPD2    H5 8309   4.711   3.678  10.206 -2.4778 -0.6966 -0.0239
  556MPD2    N1 8310   0.030   4.029  10.525  0.5567 -0.3526 -0.5979
  556MPD2    H7 8311   0.042   3.940  10.574  0.2171  0.3599  0.7929
  557TMC3    C1 8312   4.661   3.576   9.994 -0.1846  0.0992  0.1174
  557TMC3    C2 8313   4.670   3.527   9.866  0.9226  0.0885 -0.9454
  557TMC3    C3 8314   4.622   3.401   9.837  0.5098 -0.6988  0.3994
  557TMC3    C4 8315   4.599   3.501  10.090  0.0683 -0.5836  0.8394
  557TMC3    C5 8316   4.554   3.374  10.066  0.1576 -0.0176  0.8124
  557TMC3    C6 8317   4.567   3.323   9.938 -0.5822 -0.0698  0.5097
  557TMC3     C 8318   4.679   3.723  10.009 -0.5364  0.6628 -0.0414
  557TMC3     O 8319   4.670   3.791   9.907  0.1679  0.1174  0.1429
  557TMC3     H 8320   4.714   3.583   9.785  1.9899  2.1124  1.0319
  557TMC3    H1 8321   4.596   3.527  10.195 -2.2014 -0.7356  0.8150
  557TMC3    H2 8322   4.526   3.228   9.906 -0.0265 -0.5933  1.3245
  557TMC3    C7 8323   4.525   3.290  10.178 -0.2048 -0.4271  0.4004
  557TMC3    C8 8324   4.601   3.375   9.697 -0.6589  0.0710  0.5140
  557TMC3    O1 8325   4.468   3.347  10.274 -0.1343 -0.0308 -0.9215
  557TMC3    O2 8326   4.697   3.401   9.627 -0.2693  0.1979 -0.1938
  558TMC3    C1 8327   2.432   1.241   9.667  0.2379  0.4311 -0.2439
  558TMC3    C2 8328   2.326   1.210   9.743  0.0328 -0.3812  0.2627
  558TMC3    C3 8329   2.205   1.252   9.688  0.1678 -0.2515 -0.1080
  558TMC3    C4 8330   2.425   1.321   9.550 -0.1167 -0.4295  0.0584
  558TMC3    C5 8331   2.300   1.359   9.508  0.3236  0.0545 -0.8289
  558TMC3    C6 8332   2.184   1.313   9.565 -0.3169  0.0339 -0.0028
  558TMC3     C 8333   2.556   1.237   9.740  0.3756  0.2503  0.7123
  558TMC3     O 8334   2.609   1.347   9.758  0.0117 -0.2498  0.6289
  558TMC3     H 8335   2.331   1.166   9.842  1.0137 -0.3503  0.2287
  558TMC3    H1 8336   2.520   1.355   9.509 -0.8222  0.9930 -0.3722
  558TMC3    H2 8337   2.086   1.342   9.531 -0.4011  0.0169  0.2266
  558TMC3    C7 8338   2.295   1.477   9.430 -0.2534  0.2549 -0.2522
  558TMC3    C8 8339   2.084   1.244   9.771  0.6989  0.1207  0.3499
  558TMC3    O1 8340   2.402   1.539   9.408  0.0464 -0.1841  0.0384
  558TMC3    O2 8341   1.977   1.254   9.711  0.8619 -0.0110 -0.8411
  559MPD2     C 8342   2.560   2.446   9.950 -0.1466  0.2180 -0.4456
  559MPD2    C1 8343   2.513   2.334  10.009  0.8179 -0.3243 -0.6661
  559MPD2    C2 8344   2.593   2.274  10.108 -0.1063 -0.1895  0.3242
  559MPD2    C3 8345   2.717   2.330  10.135 -0.5242 -0.4377 -0.5992
  559MPD2    C4 8346   2.762   2.447  10.074 -0.0588  0.0347  0.2917
  559MPD2    C5 8347   2.674   2.510   9.991 -0.2079  0.1490 -0.1047
  559MPD2     H 8348   2.556   2.194  10.171  1.1586 -2.0915 -1.3361
  559MPD2    H1 8349   2.856   2.498  10.090  0.3704 -0.2623 -1.3238
  559MPD2    H2 8350   2.502   2.490   9.870  0.3920  0.6869 -0.5799
  559MPD2    H3 8351   2.708   2.595   9.932 -1.9844  1.4175  0.6862
  559MPD2     N 8352   2.784   2.254  10.230  0.1366  0.0276  0.0057
  559MPD2    H5 8353   2.731   2.169  10.247  0.1986 -0.1351 -0.6432
  559MPD2    N1 8354   2.384   2.287   9.960 -0.3634  0.0335 -0.3445
  559MPD2    H7 8355   2.345   2.337   9.880  0.6958  3.1987  1.0818
  560TMC3    C1 8356   2.958   2.176  10.382 -0.3037  0.1950 -0.6832
  560TMC3    C2 8357   2.873   2.085  10.428 -0.0135 -0.1302  0.8603
  560TMC3    C3 8358   2.923   1.982  10.512 -0.6516 -0.6988 -0.2866
  560TMC3    C4 8359   3.094   2.184  10.410  0.4016  0.1301 -0.2907
  560TMC3    C5 8360   3.141   2.077  10.487  0.1161  0.5227  0.3097
  560TMC3    C6 8361   3.058   1.974  10.530  0.0889  1.3187  0.4977
  560TMC3     C 8362   2.915   2.277  10.282  0.0878  0.9709 -0.1030
  560TMC3     O 8363   2.998   2.358  10.239 -0.2308  0.2125  0.3272
  560TMC3     H 8364   2.767   2.099  10.410  0.5754 -0.7544 -3.2686
  560TMC3    H1 8365   3.158   2.261  10.367  0.4735 -0.3142 -0.9773
  560TMC3    H2 8366   3.106   1.902  10.596  0.1747  1.4442  0.5724
  560TMC3    C7 8367   3.283   2.046  10.480  0.2774 -0.4385  0.6845
  560TMC3    C8 8368   2.841   1.861  10.521 -0.4131 -0.0320 -1.0159
  560TMC3    O1 8369   3.302   1.930  10.448 -0.0376 -0.7832 -0.1345
  560TMC3    O2 8370   2.723   1.871  10.489  0.7076 -0.4461  0.3296
  561TMC3    C1 8371   0.458   1.336  10.765 -0.8233 -0.1778 -1.0036
  561TMC3    C2 8372   0.455   1.239  10.864 -0.1717  0.3169 -0.5558
  561TMC3    C3 8373   0.421   1.269  10.993  0.6656 -0.0079 -0.3718
  561TMC3    C4 8374   0.438   1.464  10.801 -0.3895 -0.4480 -0.1310
  561TMC3    C5 8375   0.416   1.502  10.932  0.2042 -0.0867 -0.3372
  561TMC3    C6 8376   0.402   1.403  11.032 -0.6003 -0.0453 -1.1911
  561TMC3     C 8377   0.439   1.298  10.628  0.0765 -0.6891 -0.4028
  561TMC3     O 8378   0.396   1.183  10.607 -0.6264 -0.1481 -0.0509
  561TMC3     H 8379   0.489   1.139  10.837  1.0756  0.5996 -0.0126
  561TMC3    H1 8380   0.440   1.536  10.720 -0.2442 -0.8646 -0.4988
  561TMC3    H2 8381   0.359   1.433  11.126 -1.5404 -2.4541 -0.8328
  561TMC3    C7 8382   0.451   1.639  10.968  0.1058 -0.1181 -0.1288
  561TMC3    C8 8383   0.412   1.171  11.093  0.0792 -0.0585  0.6621
  561TMC3    O1 8384   0.406   1.683  11.070 -0.8134  0.2650  0.8803
  561TMC3    O2 8385   0.388   1.058  11.057 -0.3771  0.8811 -0.3416
  562TMC3    C1 8386   1.900   3.055  16.203  0.4711  0.0150 -0.0062
  562TMC3    C2 8387   1.821   3.164  16.197  0.7569 -0.0780  1.5743
  562TMC3    C3 8388   1.706   3.146  16.121 -1.0685  0.0873 -0.0483
  562TMC3    C4 8389   1.875   2.943  16.121  0.0586  0.4861  0.1516
  562TMC3    C5 8390   1.764   2.940  16.044 -0.2171  0.0687  0.2680
  562TMC3    C6 8391   1.675   3.036  16.047  0.3472  0.2980  0.6858
  562TMC3     C 8392   2.017   3.063  16.287 -0.2219  0.4883  0.2632
  562TMC3     O 8393   2.110   2.996  16.246  0.1064  0.3294  0.3776
  562TMC3     H 8394   1.844   3.259  16.244 -0.4215 -0.3939  2.7846
  562TMC3    H1 8395   1.948   2.864  16.129 -1.5798 -1.0214  0.0543
  562TMC3    H2 8396   1.579   3.029  15.999  0.2104  1.5527  0.7788
  562TMC3    C7 8397   1.758   2.849  15.934  0.4433  0.0189 -0.2101
  562TMC3    C8 8398   1.612   3.260  16.112  0.5809 -0.4771 -0.2336
  562TMC3    O1 8399   1.666   2.879  15.858 -0.4254  0.1977  0.1246
  562TMC3    O2 8400   1.604   3.341  16.205  0.4944 -0.3578 -0.0041
  563MPD2     C 8401   3.919   4.216  15.228 -0.8160 -0.5988  0.1003
  563MPD2    C1 8402   3.981   4.251  15.347 -0.8174 -0.0907  0.5831
  563MPD2    C2 8403   4.077   4.171  15.399  0.2414  0.1696  1.0524
  563MPD2    C3 8404   4.114   4.055  15.343 -0.0893  0.0405  0.5006
  563MPD2    C4 8405   4.054   4.024  15.222 -0.2496  0.3514  0.0751
  563MPD2    C5 8406   3.954   4.101  15.165  0.1759 -0.0419  0.3420
  563MPD2     H 8407   4.111   4.181  15.502  0.1025 -0.2838  1.1440
  563MPD2    H1 8408   4.086   3.930  15.178 -0.8959  0.2502 -0.1795
  563MPD2    H2 8409   3.842   4.274  15.179  0.5319  1.0616 -0.0530
  563MPD2    H3 8410   3.916   4.083  15.065 -1.8777 -1.1829  1.3241
  563MPD2     N 8411   4.218   3.983  15.403  0.1412  0.2598 -0.2554
  563MPD2    H5 8412   4.238   4.010  15.499  0.4637 -2.3278  0.4157
  563MPD2    N1 8413   3.929   4.355  15.422  0.0342  0.0302 -0.4244
  563MPD2    H7 8414   3.831   4.373  15.404  0.2470  1.0120 -0.5873
  564TMC3    C1 8415   3.916   4.315  15.643 -0.0636 -0.0269  0.1040
  564TMC3    C2 8416   3.779   4.303  15.630 -0.1514  0.1879  0.2809
  564TMC3    C3 8417   3.714   4.225  15.724  0.1738  0.0485  0.8858
  564TMC3    C4 8418   3.991   4.243  15.729  0.0174  0.8205 -0.2159
  564TMC3    C5 8419   3.924   4.162  15.826 -0.4029  0.0538  0.0283
  564TMC3    C6 8420   3.789   4.153  15.812 -0.1644 -0.1574  0.0377
  564TMC3     C 8421   3.988   4.384  15.541  0.2440 -0.4411 -0.1004
  564TMC3     O 8422   4.106   4.406  15.561  0.6388 -0.5426  0.2291
  564TMC3     H 8423   3.716   4.362  15.564 -0.4612 -3.0886 -2.3687
  564TMC3    H1 8424   4.098   4.255  15.740  0.1884  0.1546 -1.1236
  564TMC3    H2 8425   3.739   4.094  15.887 -0.9022  1.5822  0.9154
  564TMC3    C7 8426   3.987   4.039  15.840  0.2451  0.1687  0.5983
  564TMC3    C8 8427   3.613   4.135  15.667 -0.5659 -0.5167  0.2207
  564TMC3    O1 8428   3.977   3.973  15.942  0.3621  0.4397  0.4809
  564TMC3    O2 8429   3.567   4.050  15.745  0.0125 -0.3239  0.3940
  565TMC3    C1 8430   0.294   0.046   9.940  0.4849  0.6255 -0.0461
  565TMC3    C2 8431   0.193   4.713  10.007  0.4768  0.5335 -0.4711
  565TMC3    C3 8432   0.100   4.651   9.933  0.2253 -0.0280  0.2841
  565TMC3    C4 8433   0.281   0.084   9.813 -0.6572 -0.5252 -0.0517
  565TMC3    C5 8434   0.180   0.027   9.742 -0.4631  0.0436  0.3585
  565TMC3    C6 8435   0.088   4.677   9.797  0.0429  0.9922 -0.3594
  565TMC3     C 8436   0.404   0.096  10.014 -0.6825  0.3501 -0.6872
  565TMC3     O 8437   0.487   0.158   9.949  0.5297  0.2702 -0.1977
  565TMC3     H 8438   0.208   4.692  10.112  1.4004 -0.1556 -0.7358
  565TMC3    H1 8439   0.344   0.148   9.752  1.0492 -0.6960  1.5391
  565TMC3    H2 8440   4.726   4.678   9.749 -0.5275  0.2741  0.7755
  565TMC3    C7 8441   0.158   0.083   9.605  0.5227 -0.4478  0.6652
  565TMC3    C8 8442   0.001   4.564   9.996  0.0587  0.2585  0.0735
  565TMC3    O1 8443   0.202   0.198   9.587  0.0574  0.8883  0.3741
  565TMC3    O2 8444   4.718   4.580  10.115 -0.6267 -0.1396  0.0693
  566MPD2     C 8445   2.479   2.456  13.739 -0.1767  0.6342 -0.4070
  566MPD2    C1 8446   2.361   2.473  13.672  0.2949 -0.2275  0.1923
  566MPD2    C2 8447   2.308   2.367  13.607  0.4612  0.4675  0.1054
  566MPD2    C3 8448   2.363   2.236  13.614  0.2216  0.4262 -0.2613
  566MPD2    C4 8449   2.475   2.218  13.689  0.1816 -0.2592  0.0650
  566MPD2    C5 8450   2.533   2.328  13.748  0.8381  0.0899  1.1729
  566MPD2     H 8451   2.227   2.382  13.536  1.2964  3.7936 -0.1471
  566MPD2    H1 8452   2.519   2.120  13.700 -1.7498 -1.1762 -0.4414
  566MPD2    H2 8453   2.537   2.538  13.780  0.0950  0.0869  0.2913
  566MPD2    H3 8454   2.627   2.311  13.799  1.5232 -0.4280 -0.2699
  566MPD2     N 8455   2.298   2.122  13.567  0.0502  0.2712  0.4910
  566MPD2    H5 8456   2.353   2.038  13.579  0.0761  0.2610  0.3138
  566MPD2    N1 8457   2.302   2.600  13.670 -0.0043 -0.2912  0.2641
  566MPD2    H7 8458   2.318   2.662  13.749 -0.1467  0.5172 -0.3373
  567TMC3    C1 8459   2.110   2.743  13.618  0.5609 -0.3232  0.4483
  567TMC3    C2 8460   1.986   2.724  13.567 -0.4742  0.1634 -0.7343
  567TMC3    C3 8461   1.876   2.723  13.656 -0.0560 -0.1753  0.0053
  567TMC3    C4 8462   2.128   2.783  13.748 -0.2854 -0.0380  0.7547
  567TMC3    C5 8463   2.018   2.794  13.827  0.3909  0.0002 -0.7885
  567TMC3    C6 8464   1.891   2.770  13.785  0.0192 -0.0866 -0.1516
  567TMC3     C 8465   2.202   2.636  13.577 -0.5467  0.1489 -0.1079
  567TMC3     O 8466   2.188   2.593  13.465 -0.0268  0.0206 -0.7696
  567TMC3     H 8467   1.980   2.672  13.472  0.1063  2.7670 -2.1959
  567TMC3    H1 8468   2.227   2.788  13.792 -0.4594  0.2094  1.1268
  567TMC3    H2 8469   1.809   2.798  13.849  0.8697  1.9619  0.0451
  567TMC3    C7 8470   2.039   2.829  13.962  0.2999 -0.2491  0.3722
  567TMC3    C8 8471   1.744   2.713  13.603 -0.1270  0.2607  0.2917
  567TMC3    O1 8472   2.137   2.899  13.979  0.0820 -0.0874  0.2121
  567TMC3    O2 8473   1.655   2.676  13.680  0.4615 -0.8519  0.2527
  568MPD2     C 8474   3.886   2.623  15.919 -0.2193  0.4745  0.2777
  568MPD2    C1 8475   3.822   2.714  16.004 -0.1812  0.3276 -0.1146
  568MPD2    C2 8476   3.785   2.840  15.970 -0.1971 -0.7115  0.3561
  568MPD2    C3 8477   3.809   2.881  15.837  0.7008  0.1940 -0.1942
  568MPD2    C4 8478   3.871   2.793  15.749  0.4358 -0.0834 -0.0231
  568MPD2    C5 8479   3.899   2.668  15.794  0.3117  0.1376  0.8039
  568MPD2     H 8480   3.733   2.907  16.039 -1.6803 -1.8016  0.3052
  568MPD2    H1 8481   3.886   2.803  15.642  0.7972 -0.5365 -0.0115
  568MPD2    H2 8482   3.922   2.527  15.954  0.1004  0.4931 -0.0071
  568MPD2    H3 8483   3.931   2.595  15.720 -2.2057  1.3181 -1.4409
  568MPD2     N 8484   3.755   3.007  15.800 -0.5185 -0.4083 -0.1595
  568MPD2    H5 8485   3.705   3.057  15.872  1.1761 -0.4115  1.0066
  568MPD2    N1 8486   3.797   2.657  16.132  0.4335  0.4803 -0.1682
  568MPD2    H7 8487   3.843   2.570  16.159 -0.1467  0.3621  0.4310
  569TMC3    C1 8488   3.691   3.201  15.666  0.2756  0.3936 -0.2772
  569TMC3    C2 8489   3.602   3.223  15.765  0.0175 -0.3521  0.1903
  569TMC3    C3 8490   3.553   3.348  15.779  0.1879 -0.5649  0.1795
  569TMC3    C4 8491   3.729   3.294  15.571  0.8774 -0.3042  0.2893
  569TMC3    C5 8492   3.675   3.414  15.585 -0.1494  1.3966 -0.1991
  569TMC3    C6 8493   3.596   3.445  15.690 -0.4816 -0.4249 -0.6738
  569TMC3     C 8494   3.784   3.080  15.686 -0.8394  0.1189 -0.0764
  569TMC3     O 8495   3.880   3.073  15.609 -0.0403  0.2958  0.2941
  569TMC3     H 8496   3.565   3.149  15.835 -1.8816  1.8896  1.5215
  569TMC3    H1 8497   3.802   3.271  15.494  0.3470  0.7032 -0.5138
  569TMC3    H2 8498   3.549   3.542  15.700 -1.8243 -0.8223 -3.1472
  569TMC3    C7 8499   3.688   3.504  15.475 -0.0731  0.4395  0.3340
  569TMC3    C8 8500   3.523   3.393  15.918  0.5336  0.6636  0.1958
  569TMC3    O1 8501   3.732   3.462  15.368 -0.1378  0.0846  0.1340
  569TMC3    O2 8502   3.481   3.309  15.996 -0.7468 -0.3912 -0.5145
  570TMC3    C1 8503   3.180   1.644  15.902 -0.0917  0.1653  0.1149
  570TMC3    C2 8504   3.265   1.662  15.794  0.3478  0.1761  0.5370
  570TMC3    C3 8505   3.339   1.776  15.801 -0.0867  0.0715  0.2317
  570TMC3    C4 8506   3.156   1.739  15.993 -0.6677 -0.2067  1.1502
  570TMC3    C5 8507   3.222   1.859  15.975 -0.0379 -0.2937 -0.7730
  570TMC3    C6 8508   3.317   1.882  15.880 -0.2235  0.6779 -0.5515
  570TMC3     C 8509   3.098   1.529  15.898 -0.6640  0.3334  0.2603
  570TMC3     O 8510   3.095   1.475  15.789 -0.3451  0.5887  0.5587
  570TMC3     H 8511   3.296   1.574  15.738  0.4992 -1.6172  3.3981
  570TMC3    H1 8512   3.086   1.730  16.076 -2.0995  2.5224  0.2162
  570TMC3    H2 8513   3.383   1.968  15.888  0.2121  0.0976  2.1781
  570TMC3    C7 8514   3.199   1.962  16.076 -0.0433  0.7205 -0.2578
  570TMC3    C8 8515   3.440   1.793  15.695 -0.3789  0.7409  0.3170
  570TMC3    O1 8516   3.132   1.928  16.173  0.2084 -0.1193 -0.8869
  570TMC3    O2 8517   3.516   1.892  15.706  0.3945  0.2202 -1.0308
  571MPD2     C 8518   1.401   3.627   0.332 -0.2380 -0.1857 -0.4509
  571MPD2    C1 8519   1.303   3.725   0.304 -0.0719  1.0643 -0.1552
  571MPD2    C2 8520   1.333   3.854   0.346 -0.2217  0.0767  0.4303
  571MPD2    C3 8521   1.442   3.888   0.427 -1.0859  0.9737  0.0252
  571MPD2    C4 8522   1.536   3.788   0.445 -0.4086  0.6669 -0.3497
  571MPD2    C5 8523   1.514   3.659   0.398 -0.2234 -0.0538 -0.0879
  571MPD2     H 8524   1.263   3.933   0.323  0.9628  1.4359  1.4943
  571MPD2    H1 8525   1.627   3.802   0.501 -0.3809  0.7703 -0.4202
  571MPD2    H2 8526   1.397   3.525   0.296  0.7348 -0.6915  0.8589
  571MPD2    H3 8527   1.576   3.580   0.437  0.6357 -0.3451 -2.0802
  571MPD2     N 8528   1.483   4.020   0.461  0.1248  0.0581 -0.0532
  571MPD2    H5 8529   1.572   4.031   0.508 -0.1851 -1.3478  0.8945
  571MPD2    N1 8530   1.194   3.690   0.228 -0.3557 -0.0719 -0.5484
  571MPD2    H7 8531   1.180   3.591   0.209 -1.6972 -0.0341  0.2819
  572TMC3    C1 8532   1.462   4.249   0.466 -0.3181 -0.1086 -0.9421
  572TMC3    C2 8533   1.594   4.257   0.511  0.4427  0.2600 -0.8141
  572TMC3    C3 8534   1.662   4.375   0.483 -0.6874 -0.4888  0.9352
  572TMC3    C4 8535   1.403   4.348   0.390 -0.2180  0.7643  0.3385
  572TMC3    C5 8536   1.488   4.451   0.351  0.0085  0.4187  0.4550
  572TMC3    C6 8537   1.615   4.472   0.405  0.2608  0.1162 -0.5103
  572TMC3     C 8538   1.391   4.120   0.449 -0.1095 -0.0061 -0.2000
  572TMC3     O 8539   1.269   4.121   0.437 -0.3850  0.3016 -0.3819
  572TMC3     H 8540   1.626   4.193   0.593  0.3055  0.3538 -0.6882
  572TMC3    H1 8541   1.309   4.332   0.338 -0.7883  0.6058  1.4331
  572TMC3    H2 8542   1.657   4.569   0.382  0.1691 -0.4543 -3.0659
  572TMC3    C7 8543   1.437   4.541   0.248 -0.1966  0.0935 -1.3259
  572TMC3    C8 8544   1.792   4.392   0.538  0.6293  0.0355  0.3076
  572TMC3    O1 8545   1.316   4.542   0.228 -0.0488 -0.3665 -0.6926
  572TMC3    O2 8546   1.842   4.502   0.537 -0.2667  0.3339 -0.4929
  573MPD2     C 8547   2.118   4.207   0.254  0.4760 -0.2192  0.0744
  573MPD2    C1 8548   2.013   4.296   0.258 -0.7578  0.0123 -0.6789
  573MPD2    C2 8549   1.887   4.246   0.235  0.0297  0.4612  0.9297
  573MPD2    C3 8550   1.869   4.113   0.212 -0.5514 -0.0533  1.3501
  573MPD2    C4 8551   1.977   4.029   0.207 -0.7537 -0.7748 -0.2555
  573MPD2    C5 8552   2.098   4.077   0.238  0.1301  0.2211 -0.7382
  573MPD2     H 8553   1.803   4.314   0.242  0.6583  1.4557 -1.1142
  573MPD2    H1 8554   1.975   3.921   0.201  2.8299 -0.7821 -1.1960
  573MPD2    H2 8555   2.218   4.245   0.273 -0.2546  2.8309 -2.3030
  573MPD2    H3 8556   2.182   4.009   0.224  0.4222  0.9659 -2.5147
  573MPD2     N 8557   1.749   4.059   0.170 -0.5456  0.0213  0.0202
  573MPD2    H5 8558   1.750   3.961   0.144 -0.8196  0.1821 -0.6132
  573MPD2    N1 8559   2.038   4.435   0.274  0.1341  0.5597 -0.5155
  573MPD2    H7 8560   2.135   4.462   0.285  0.0561  0.4665  0.3862
  574TMC3    C1 8561   1.533   4.065   0.061  0.4563  0.4461 -0.4313
  574TMC3    C2 8562   1.441   4.140  17.728 -0.5376  0.8453 -0.0816
  574TMC3    C3 8563   1.348   4.073  17.654  0.1708  0.0228 -0.2909
  574TMC3    C4 8564   1.530   3.930   0.066 -0.2589 -0.7555 -0.2963
  574TMC3    C5 8565   1.434   3.866  17.728 -0.8286 -0.4493  0.2783
  574TMC3    C6 8566   1.348   3.933  17.647 -0.1856  1.2383  0.3383
  574TMC3     C 8567   1.634   4.133   0.140 -0.0118 -0.2455 -0.5136
  574TMC3     O 8568   1.617   4.252   0.155  0.8985 -0.0233  0.3060
  574TMC3     H 8569   1.432   4.243   0.021 -0.0941  1.4237 -1.8214
  574TMC3    H1 8570   1.584   3.871   0.139 -1.2160 -0.4850  0.6374
  574TMC3    H2 8571   1.273   3.875  17.595  0.6730  1.9787 -1.7170
  574TMC3    C7 8572   1.418   3.719  17.726 -0.1338  0.2995  0.5757
  574TMC3    C8 8573   1.251   4.153  17.584 -1.0058 -0.3123  0.0568
  574TMC3    O1 8574   1.314   3.674  17.677 -0.0181 -0.5126  0.3677
  574TMC3    O2 8575   1.139   4.106  17.563  0.1065 -0.0539 -0.1119
  575TMC3    C1 8576   4.398   4.198  10.700 -0.3418  0.7342 -0.3356
  575TMC3    C2 8577   4.323   4.083  10.697  0.2791 -0.3600  0.0403
  575TMC3    C3 8578   4.293   4.034  10.573  0.4875 -0.2432  0.7698
  575TMC3    C4 8579   4.443   4.256  10.584  0.7626 -0.0317  0.2695
  575TMC3    C5 8580   4.431   4.191  10.464 -0.0287 -0.2840  0.4069
  575TMC3    C6 8581   4.346   4.085  10.459 -0.7388  0.0426  0.4105
  575TMC3     C 8582   4.431   4.269  10.827 -0.2052  0.8098 -0.3278
  575TMC3     O 8583   4.493   4.373  10.813 -0.0041  0.3070  0.4520
  575TMC3     H 8584   4.303   4.030  10.789  2.5154 -0.1419  0.6494
  575TMC3    H1 8585   4.493   4.352  10.586 -0.5986  0.7259 -2.7791
  575TMC3    H2 8586   4.338   4.032  10.365 -0.8308  0.1570  0.3543
  575TMC3    C7 8587   4.452   4.285  10.350  0.7203  0.0760 -0.2197
  575TMC3    C8 8588   4.206   3.913  10.556  0.1657 -0.2161  0.5165
  575TMC3    O1 8589   4.518   4.384  10.372  0.4174 -0.0212 -0.1285
  575TMC3    O2 8590   4.205   3.855  10.449 -0.6926  0.2341  0.0859
  576MPD2     C 8591   4.718   1.338  12.510  0.1199  0.2464 -0.0074
  576MPD2    C1 8592   4.667   1.430  12.420  0.1525 -0.1623 -0.2645
  576MPD2    C2 8593   4.564   1.505  12.472 -0.3369  0.2552  0.7423
  576MPD2    C3 8594   4.508   1.491  12.601 -0.6440 -0.2319  1.0507
  576MPD2    C4 8595   4.565   1.393  12.683 -0.2179  0.1281 -0.1166
  576MPD2    C5 8596   4.662   1.318  12.637  0.0747 -0.6227 -0.6380
  576MPD2     H 8597   4.521   1.577  12.403  1.0348  0.5665  0.2214
  576MPD2    H1 8598   4.536   1.376  12.786 -1.4826 -0.4055 -0.5520
  576MPD2    H2 8599   0.066   1.273  12.484  0.4716  1.0670 -0.9659
  576MPD2    H3 8600   4.706   1.243  12.701  0.5046  0.3833  0.2439
  576MPD2     N 8601   4.408   1.585  12.646 -0.0492 -0.4406  0.9053
  576MPD2    H5 8602   4.401   1.670  12.590 -1.4841 -1.1618  0.0007
  576MPD2    N1 8603   4.712   1.462  12.286 -0.0000  0.0322 -0.1156
  576MPD2    H7 8604   4.666   1.538  12.238 -1.4844 -0.2708  0.8099
  577TMC3    C1 8605   0.123   1.430  12.089 -0.0857  0.0075  0.0036
  577TMC3    C2 8606   0.200   1.345  12.013 -0.1976 -0.6762 -0.0139
  577TMC3    C3 8607   0.227   1.370  11.883  0.5759 -1.0764 -0.3885
  577TMC3    C4 8608   0.060   1.535  12.035 -0.2045 -0.0401  0.9374
  577TMC3    C5 8609   0.092   1.562  11.905  0.1672  0.5306 -0.0873
  577TMC3    C6 8610   0.184   1.486  11.831  0.0044  0.0124  0.1271
  577TMC3     C 8611   0.082   1.389  12.224  0.6433  0.6559 -0.4990
  577TMC3     O 8612   0.131   1.289  12.269 -0.1970 -0.4352  0.4070
  577TMC3     H 8613   0.235   1.255  12.062 -0.7000 -1.0100 -0.2688
  577TMC3    H1 8614   0.000   1.603  12.094 -1.2222  0.5770 -0.7977
  577TMC3    H2 8615   0.194   1.504  11.725  0.6010 -1.2904 -0.0382
  577TMC3    C7 8616   0.068   1.698  11.863 -0.3643  0.8068 -0.0719
  577TMC3    C8 8617   0.249   1.256  11.801 -0.7806 -0.3957 -0.3412
  577TMC3    O1 8618   0.077   1.775  11.957 -0.2308  0.0331  0.1376
  577TMC3    O2 8619   0.216   1.151  11.857  0.3250 -0.3822 -0.4217
  578MPD2     C 8620   2.856   2.709   1.222 -0.1067 -0.4077  0.0710
  578MPD2    C1 8621   2.879   2.673   1.093 -0.4656 -0.1934  0.0287
  578MPD2    C2 8622   2.964   2.565   1.070 -0.2731 -0.0377 -0.2642
  578MPD2    C3 8623   3.009   2.489   1.176 -0.1386 -0.2667 -0.1571
  578MPD2    C4 8624   2.967   2.516   1.303 -0.0021 -0.3684 -0.3679
  578MPD2    C5 8625   2.900   2.629   1.325 -0.4004  0.2879  0.5054
  578MPD2     H 8626   2.981   2.535   0.967 -0.5032 -0.7744 -0.0886
  578MPD2    H1 8627   2.997   2.461   1.391 -0.1268  2.2949  1.3461
  578MPD2    H2 8628   2.787   2.784   1.259 -0.2313 -1.2974  1.6810
  578MPD2    H3 8629   2.866   2.660   1.423 -1.4486 -2.3002  0.9567
  578MPD2     N 8630   3.090   2.378   1.141 -1.1258 -0.0557  0.5078
  578MPD2    H5 8631   3.090   2.348   1.044 -1.3891 -0.2756  0.5733
  578MPD2    N1 8632   2.815   2.749   0.993 -0.0026  0.5930 -0.4398
  578MPD2    H7 8633   2.758   2.830   1.017 -2.5295 -1.1923 -0.4566
  579TMC3    C1 8634   3.251   2.213   1.178 -0.3006  0.0222  0.4746
  579TMC3    C2 8635   3.371   2.195   1.232 -0.3840 -0.9780  0.1233
  579TMC3    C3 8636   3.463   2.113   1.167 -0.2966 -0.0215 -0.2994
  579TMC3    C4 8637   3.206   2.131   1.079  0.3219  0.5324 -0.2435
  579TMC3    C5 8638   3.296   2.053   1.017 -0.3437 -0.4478  0.0218
  579TMC3    C6 8639   3.426   2.035   1.059 -0.7368  0.2119  0.2735
  579TMC3     C 8640   3.156   2.308   1.241 -0.5886  0.2935  0.5382
  579TMC3     O 8641   3.168   2.323   1.363 -0.0600  0.3211 -0.2228
  579TMC3     H 8642   3.403   2.275   1.298 -1.0734 -0.5620 -0.0505
  579TMC3    H1 8643   3.103   2.128   1.045  0.1856 -2.0037  0.4488
  579TMC3    H2 8644   3.493   1.963   1.013 -1.6855  0.0300 -0.8477
  579TMC3    C7 8645   3.249   1.971   0.903  0.0813  0.3795  0.2148
  579TMC3    C8 8646   3.601   2.159   1.174 -0.4261  0.2090 -0.0713
  579TMC3    O1 8647   3.325   1.880   0.872  0.5700 -0.0010 -0.0785
  579TMC3    O2 8648   3.629   2.223   1.277 -0.1619 -0.2166 -0.0697
  580TMC3    C1 8649   2.169   1.257  11.714  0.7334 -0.1830  0.0467
  580TMC3    C2 8650   2.284   1.289  11.778 -0.8767 -0.6867  0.0202
  580TMC3    C3 8651   2.375   1.196  11.810  0.0926 -0.3670  0.0643
  580TMC3    C4 8652   2.144   1.124  11.692  0.2007 -0.2537 -0.5022
  580TMC3    C5 8653   2.230   1.026  11.744 -0.3017 -0.2640  0.6687
  580TMC3    C6 8654   2.352   1.060  11.793  0.0825 -0.5886 -0.0784
  580TMC3     C 8655   2.156   1.342  11.596  0.0336 -0.7773 -0.0641
  580TMC3     O 8656   2.156   1.283  11.485 -0.0508 -0.6079  0.6132
  580TMC3     H 8657   2.321   1.391  11.776 -1.7347 -0.3718  0.7056
  580TMC3    H1 8658   2.055   1.106  11.632  0.1243 -0.5557 -0.3011
  580TMC3    H2 8659   2.429   0.986  11.809  0.5301 -0.2610 -0.7300
  580TMC3    C7 8660   2.215   0.895  11.688  1.2082  0.2729  0.5959
  580TMC3    C8 8661   2.511   1.249  11.792  0.1107 -0.8819  0.2240
  580TMC3    O1 8662   2.155   0.887  11.582  0.4560 -0.0008  0.5835
  580TMC3    O2 8663   2.535   1.353  11.853  0.3565 -0.7116  0.0656
  581MPD2     C 8664   4.517   0.316  14.932  0.2105  0.5258 -0.1445
  581MPD2    C1 8665   4.576   0.442  14.951  0.0304  0.4843  0.6071
  581MPD2    C2 8666   4.507   0.553  14.897  0.1859 -0.6678  0.5126
  581MPD2    C3 8667   4.394   0.535  14.815  0.6051 -0.0203  0.2950
  581MPD2    C4 8668   4.336   0.412  14.801 -0.6039  0.7243 -0.1908
  581MPD2    C5 8669   4.399   0.304  14.870 -0.1259  0.1983  0.6051
  581MPD2     H 8670   4.542   0.654  14.915  0.0228 -0.7426  1.2616
  581MPD2    H1 8671   4.245   0.384  14.750 -0.3199  0.0806 -0.3463
  581MPD2    H2 8672   4.569   0.225  14.960 -2.1088 -0.7817 -0.1410
  581MPD2    H3 8673   4.358   0.204  14.866  2.6656 -0.9406  0.9314
  581MPD2     N 8674   4.329   0.643  14.750  0.3835 -0.1121 -0.5756
  581MPD2    H5 8675   4.379   0.731  14.755  0.4962 -0.2701  1.2223
  581MPD2    N1 8676   4.707   0.439  15.011 -0.6677 -0.5088 -0.4685
  581MPD2    H7 8677   4.734   0.347  15.042 -1.8839 -0.5417  0.5202
  582TMC3    C1 8678   0.173   0.493  15.124  1.0204  0.0027 -0.3949
  582TMC3    C2 8679   0.227   0.582  15.212 -0.7996 -0.0288  0.5413
  582TMC3    C3 8680   0.310   0.532  15.302 -0.0230  0.0637  0.3339
  582TMC3    C4 8681   0.203   0.357  15.129 -0.0006 -0.8746  0.1590
  582TMC3    C5 8682   0.287   0.312  15.223 -0.3045 -0.8531 -0.5355
  582TMC3    C6 8683   0.343   0.396  15.315  0.0344  0.6617  0.6986
  582TMC3     C 8684   0.052   0.542  15.048 -0.2306 -0.2736 -0.6149
  582TMC3     O 8685   0.029   0.660  15.043 -0.4127 -0.1296  0.0459
  582TMC3     H 8686   0.206   0.688  15.219  1.7788  0.5730 -0.8465
  582TMC3    H1 8687   0.168   0.287  15.054  0.2258 -2.1254  1.2271
  582TMC3    H2 8688   0.421   0.371  15.385  1.1531  1.6518 -0.1957
  582TMC3    C7 8689   0.308   0.168  15.230 -0.5184 -0.1729 -0.8609
  582TMC3    C8 8690   0.344   0.618  15.417  0.1323  0.1686  0.5820
  582TMC3    O1 8691   0.429   0.149  15.232 -0.1474 -0.0267 -0.5479
  582TMC3    O2 8692   0.280   0.719  15.438  0.0538  0.2160  0.0601
  583MPD2     C 8693   0.235   2.323  16.482  0.3637  0.5416  0.2497
  583MPD2    C1 8694   0.210   2.429  16.397  0.0316 -0.2694 -1.0220
  583MPD2    C2 8695   0.154   2.538  16.451  0.5293 -0.0459 -0.1656
  583MPD2    C3 8696   0.137   2.549  16.593 -0.6264 -0.3436 -0.4015
  583MPD2    C4 8697   0.176   2.444  16.677  0.6352 -0.0868 -0.4380
  583MPD2    C5 8698   0.219   2.328  16.619 -0.4196 -0.1962 -0.3347
  583MPD2     H 8699   0.125   2.617  16.382 -1.6937  1.2451  2.2385
  583MPD2    H1 8700   0.171   2.443  16.786 -0.1677 -0.7767 -0.4838
  583MPD2    H2 8701   0.260   2.223  16.449 -1.9995  0.5559 -1.5683
  583MPD2    H3 8702   0.254   2.249  16.684 -0.8161  0.6728  0.9278
  583MPD2     N 8703   0.078   2.660  16.645 -0.3871 -0.1918 -0.6321
  583MPD2    H5 8704   0.051   2.738  16.586  0.8282  1.1093  0.5491
  583MPD2    N1 8705   0.214   2.427  16.252  0.8988 -0.2070 -0.3107
  583MPD2    H7 8706   0.187   2.507  16.195  1.9187 -0.0086 -0.5122
  584TMC3    C1 8707   0.019   2.811  16.814 -0.0611 -0.2939 -0.6719
  584TMC3    C2 8708   0.049   2.924  16.736  0.3473  1.0243  0.7345
  584TMC3    C3 8709   0.011   3.046  16.788  0.1840 -0.2492 -0.0472
  584TMC3    C4 8710   4.725   2.825  16.947  0.2237 -0.1337  0.1521
  584TMC3    C5 8711   4.727   2.955  16.998 -0.4450 -0.6073 -0.6105
  584TMC3    C6 8712   4.718   3.064  16.918  0.3470 -1.0973  0.0750
  584TMC3     C 8713   0.042   2.668  16.772  0.2585  0.0968 -0.2608
  584TMC3     O 8714   0.019   2.586  16.863  0.2449 -0.0557 -0.3772
  584TMC3     H 8715   0.094   2.921  16.637  0.3194  3.0885  0.6620
  584TMC3    H1 8716   4.704   2.741  17.013  1.0447 -1.5989 -1.4747
  584TMC3    H2 8717   4.676   3.157  16.953  2.3876  0.5276 -1.8019
  584TMC3    C7 8718   4.635   2.956  17.109  0.5970 -0.2383 -0.0481
  584TMC3    C8 8719   0.024   3.164  16.696  0.5842 -0.7343  0.0071
  584TMC3    O1 8720   4.693   2.921  17.213 -0.0479 -0.4645  0.3267
  584TMC3    O2 8721   0.006   3.137  16.578 -0.5632  0.0914  0.5973
  585MPD2     C 8722   3.683   1.773  17.429  0.6389  0.4187 -0.2420
  585MPD2    C1 8723   3.780   1.825  17.346 -0.2794 -0.7033  0.6430
  585MPD2    C2 8724   3.859   1.741  17.268 -0.1814 -0.2231  0.1064
  585MPD2    C3 8725   3.850   1.604  17.279  0.1489  0.4061 -0.1628
  585MPD2    C4 8726   3.775   1.551  17.378 -0.9506  0.1679  0.4510
  585MPD2    C5 8727   3.693   1.637  17.448  0.0966  0.7204  0.1546
  585MPD2     H 8728   3.936   1.780  17.202 -0.6726  0.6246  0.0326
  585MPD2    H1 8729   3.765   1.447  17.406 -1.3401  0.0433 -0.1601
  585MPD2    H2 8730   3.607   1.837  17.474  0.0966  0.6138 -1.4262
  585MPD2    H3 8731   3.627   1.587  17.517  0.6020  0.2896  0.3189
  585MPD2     N 8732   3.927   1.513  17.216 -1.4758 -0.6556  1.0254
  585MPD2    H5 8733   3.896   1.417  17.225  1.7127 -1.6525  1.5735
  585MPD2    N1 8734   3.785   1.965  17.326 -0.4051  0.2262  0.0169
  585MPD2    H7 8735   3.727   2.026  17.383 -0.5949 -1.5363  1.6970
  586TMC3    C1 8736   4.052   1.420  17.052  0.0051  0.2774 -0.7052
  586TMC3    C2 8737   4.180   1.391  17.034  0.0826 -0.2081  0.1203
  586TMC3    C3 8738   4.201   1.260  16.998  0.0280 -0.7213 -0.3516
  586TMC3    C4 8739   3.948   1.338  17.015  0.4290 -0.5969 -0.7554
  586TMC3    C5 8740   3.974   1.212  16.975 -0.1102  0.0954 -0.1858
  586TMC3    C6 8741   4.100   1.167  16.976 -0.2901 -0.1881 -0.1423
  586TMC3     C 8742   4.031   1.536  17.135  0.4954  1.1759 -1.2209
  586TMC3     O 8743   4.093   1.635  17.108  0.3124  0.4451  0.3028
  586TMC3     H 8744   4.250   1.460  17.079  1.5153 -1.3143 -0.4261
  586TMC3    H1 8745   3.845   1.369  17.033  0.6065 -1.9633  2.6180
  586TMC3    H2 8746   4.124   1.078  16.919 -1.5764 -0.8999  0.4098
  586TMC3    C7 8747   3.865   1.125  16.949  0.2460  0.1661  0.3560
  586TMC3    C8 8748   4.341   1.205  17.007  0.3867  0.2795  0.0554
  586TMC3    O1 8749   3.875   1.006  16.977 -0.3057 -0.4101 -0.0350
  586TMC3    O2 8750   4.348   1.085  16.990 -0.1038 -0.0469  0.1431
  587TMC3    C1 8751   1.484   0.075  16.197 -0.5943  0.1133 -0.1454
  587TMC3    C2 8752   1.586   0.135  16.265 -0.0659  0.2195 -0.7427
  587TMC3    C3 8753   1.717   0.105  16.233  0.3438 -0.0149  0.3863
  587TMC3    C4 8754   1.514   4.715  16.104  0.2337 -0.5164  0.3685
  587TMC3    C5 8755   1.647   4.690  16.071 -0.2441 -0.6274  0.0183
  587TMC3    C6 8756   1.751   0.020  16.132 -0.1355  0.7355  0.3553
  587TMC3     C 8757   1.352   0.092  16.250 -0.0079 -0.6277  0.0236
  587TMC3     O 8758   1.336   0.178  16.337 -0.1135  0.3419  0.2968
  587TMC3     H 8759   1.566   0.180  16.361 -0.0909 -1.5505  0.0842
  587TMC3    H1 8760   1.436   4.659  16.053 -0.6070  1.2218 -0.2926
  587TMC3    H2 8761   1.857   0.012  16.111  0.0340  0.6461  1.2189
  587TMC3    C7 8762   1.684   4.615  15.951 -0.0462 -0.1902 -0.3195
  587TMC3    C8 8763   1.821   0.195  16.283 -0.3336 -0.4684  0.9240
  587TMC3    O1 8764   1.790   4.639  15.893  0.0234 -0.3028 -0.4430
  587TMC3    O2 8765   1.934   0.155  16.293 -0.1871  0.4564 -0.0995
  588TMC3    C1 8766   3.834   2.087   9.454 -0.0490 -0.0089  0.4055
  588TMC3    C2 8767   3.778   1.970   9.491  0.1491 -0.4612  0.7438
  588TMC3    C3 8768   3.843   1.884   9.568  0.8890  0.0308 -0.1123
  588TMC3    C4 8769   3.965   2.115   9.489  0.8857  0.2937 -1.0562
  588TMC3    C5 8770   4.030   2.021   9.560 -0.1203  0.1391  0.3315
  588TMC3    C6 8771   3.973   1.908   9.606  0.0591  0.2441  0.3125
  588TMC3     C 8772   3.742   2.208   9.455  0.0142  0.3206  0.2766
  588TMC3     O 8773   3.623   2.183   9.473 -0.4849 -0.5772  0.2698
  588TMC3     H 8774   3.679   1.948   9.453  0.8671  0.0782 -1.4148
  588TMC3    H1 8775   4.027   2.193   9.444 -0.0876  1.3541 -0.5577
  588TMC3    H2 8776   4.035   1.848   9.672 -0.2359  0.6366  0.9408
  588TMC3    C7 8777   4.153   2.060   9.625  0.4401  0.3751  0.0668
  588TMC3    C8 8778   3.774   1.767   9.604  0.0134 -0.5142  1.1248
  588TMC3    O1 8779   4.221   1.970   9.666  0.2463 -0.0778 -0.8270
  588TMC3    O2 8780   3.654   1.770   9.588  0.8840  0.4870 -0.2764
  589TMC3    C1 8781   3.516   0.356   0.453  0.0714  0.2203 -0.3219
  589TMC3    C2 8782   3.646   0.321   0.467 -0.6381 -0.6350  0.4241
  589TMC3    C3 8783   3.668   0.185   0.469 -0.1656  0.4048 -0.3341
  589TMC3    C4 8784   3.410   0.270   0.453 -0.2321 -0.3412  0.3510
  589TMC3    C5 8785   3.440   0.137   0.455 -0.2378  0.1721 -0.0509
  589TMC3    C6 8786   3.567   0.094   0.450  0.3133  0.2691  0.6362
  589TMC3     C 8787   3.475   0.491   0.427  0.1454 -0.0157 -0.1071
  589TMC3     O 8788   3.371   0.495   0.364  0.1098 -0.0663 -0.0935
  589TMC3     H 8789   3.720   0.399   0.458 -0.9588 -0.4290 -0.4801
  589TMC3    H1 8790   3.308   0.303   0.441 -0.7110 -1.2041  2.0878
  589TMC3    H2 8791   3.578   4.722   0.461  0.1858  0.3438  1.4603
  589TMC3    C7 8792   3.342   0.036   0.416 -0.1569 -0.7321  0.0165
  589TMC3    C8 8793   3.813   0.156   0.491 -0.1236 -0.5770  0.3353
  589TMC3    O1 8794   3.384   4.664   0.375 -0.2621  0.2282  0.3920
  589TMC3    O2 8795   3.888   0.254   0.486  0.0354 -0.3632  0.2754
  590MPD2     C 8796   2.724   3.136  16.233 -0.1914 -0.5290  0.4565
  590MPD2    C1 8797   2.666   3.265  16.248  0.7322  0.1068  0.1625
  590MPD2    C2 8798   2.744   3.377  16.232  0.1227 -0.1284 -0.0087
  590MPD2    C3 8799   2.877   3.373  16.213 -0.0008  0.2548  0.0779
  590MPD2    C4 8800   2.939   3.247  16.208 -0.5270  0.0549 -0.0071
  590MPD2    C5 8801   2.861   3.132  16.225  0.7769 -0.4355 -0.2256
  590MPD2     H 8802   2.686   3.467  16.241  0.7212  0.0866  1.7849
  590MPD2    H1 8803   3.041   3.230  16.176 -0.2100 -0.2054  1.1543
  590MPD2    H2 8804   2.669   3.043  16.236 -2.0027  0.5129 -1.4566
  590MPD2    H3 8805   2.913   3.038  16.211  0.2116 -0.7185 -0.3892
  590MPD2     N 8806   2.950   3.499  16.190  0.5014 -0.3857 -1.2658
  590MPD2    H5 8807   2.885   3.576  16.207  1.3064  0.0526 -0.2118
  590MPD2    N1 8808   2.522   3.267  16.256  0.1313 -0.7490 -0.2571
  590MPD2    H7 8809   2.488   3.172  16.244 -1.3042 -0.3679  0.8489
  591TMC3    C1 8810   3.115   3.630  16.105  0.2069 -1.0892 -0.4899
  591TMC3    C2 8811   3.203   3.611  15.998 -0.5271  0.8814  0.0720
  591TMC3    C3 8812   3.194   3.697  15.897  0.0519  0.2500 -0.5555
  591TMC3    C4 8813   3.024   3.730  16.110  0.1553  0.5439 -0.0812
  591TMC3    C5 8814   3.026   3.819  16.010 -0.2049  0.4396 -0.9537
  591TMC3    C6 8815   3.112   3.811  15.899 -1.1708  0.0699 -0.0516
  591TMC3     C 8816   3.086   3.517  16.182 -0.6441 -0.0599  0.5054
  591TMC3     O 8817   3.175   3.435  16.205  0.0877 -0.1494  0.5710
  591TMC3     H 8818   3.274   3.529  16.006 -2.2126 -0.6484 -0.7797
  591TMC3    H1 8819   2.955   3.745  16.192  2.1259  1.2340  1.4647
  591TMC3    H2 8820   3.115   3.881  15.817  0.6270  0.2489  0.1646
  591TMC3    C7 8821   2.910   3.904  15.998  0.4804  0.0186  0.2000
  591TMC3    C8 8822   3.242   3.637  15.769 -0.3177  0.8753  0.0897
  591TMC3    O1 8823   2.804   3.871  16.048 -0.8284 -0.2437  0.2198
  591TMC3    O2 8824   3.304   3.535  15.774 -0.0234 -0.0845 -0.4668
  592MPD2     C 8825   3.396   0.459  11.229  0.8315  0.1347  0.1160
  592MPD2    C1 8826   3.394   0.467  11.368 -0.2540 -0.6243 -0.1456
  592MPD2    C2 8827   3.301   0.381  11.431  0.0119  0.4107 -0.0139
  592MPD2    C3 8828   3.225   0.290  11.358 -0.3177  0.1892  0.2397
  592MPD2    C4 8829   3.239   0.291  11.219 -0.4773  0.4189 -0.0001
  592MPD2    C5 8830   3.324   0.373  11.157 -0.6332 -0.0617  0.2939
  592MPD2     H 8831   3.293   0.392  11.539 -0.4509  0.3760 -0.0452
  592MPD2    H1 8832   3.196   0.209  11.162 -0.0678  0.1673  0.0530
  592MPD2    H2 8833   3.461   0.524  11.172 -0.5231  1.0001 -0.4373
  592MPD2    H3 8834   3.338   0.357  11.051  0.3715  1.6350  0.1662
  592MPD2     N 8835   3.141   0.205  11.428 -0.3626 -0.4096 -0.0420
  592MPD2    H5 8836   3.157   0.204  11.528 -1.7945 -1.2820  0.1755
  592MPD2    N1 8837   3.481   0.555  11.430 -0.8356 -0.6750  0.3594
  592MPD2    H7 8838   3.542   0.607  11.368 -1.1481 -0.3336  0.3330
  593TMC3    C1 8839   3.591   0.677  11.600  0.5929  0.1009  0.5939
  593TMC3    C2 8840   3.583   0.751  11.717 -0.2020  0.2993  0.1902
  593TMC3    C3 8841   3.678   0.841  11.746 -0.0616 -0.1702  0.1894
  593TMC3    C4 8842   3.702   0.686  11.520 -0.3909  0.0319  0.5160
  593TMC3    C5 8843   3.793   0.775  11.551 -0.4579  0.0476  0.4837
  593TMC3    C6 8844   3.785   0.860  11.663 -0.0993  0.3014  0.7435
  593TMC3     C 8845   3.493   0.578  11.571 -0.6771 -0.4752 -0.6031
  593TMC3     O 8846   3.438   0.526  11.667  0.2299  0.3655 -0.4297
  593TMC3     H 8847   3.487   0.748  11.767  0.4445  1.1123  1.4638
  593TMC3    H1 8848   3.723   0.629  11.430 -0.5318  1.1378 -0.2170
  593TMC3    H2 8849   3.862   0.934  11.681  1.4912 -0.9979 -0.7337
  593TMC3    C7 8850   3.880   0.815  11.448  0.2913  0.4143  0.4852
  593TMC3    C8 8851   3.672   0.913  11.874 -0.3656 -0.3642 -0.3867
  593TMC3    O1 8852   3.846   0.789  11.330 -0.5364  0.3954  0.1372
  593TMC3    O2 8853   3.556   0.941  11.905  0.6103 -0.3579  0.2342
  594MPD2     C 8854   2.003   3.736  14.610  0.9518 -1.6215 -0.3103
  594MPD2    C1 8855   1.930   3.793  14.517 -0.0955  0.3792 -0.5368
  594MPD2    C2 8856   1.983   3.891  14.429  0.6802 -0.5666  0.3159
  594MPD2    C3 8857   2.111   3.935  14.448  0.1101 -0.1278 -0.8673
  594MPD2    C4 8858   2.180   3.886  14.554  0.3024 -1.2429  0.4163
  594MPD2    C5 8859   2.131   3.785  14.630 -0.5168 -0.4033  0.5226
  594MPD2     H 8860   1.923   3.927  14.347  2.0827  1.8640  0.3810
  594MPD2    H1 8861   2.282   3.918  14.572 -0.5680  1.7755 -0.0803
  594MPD2    H2 8862   1.964   3.669  14.686  0.4388  0.4422  1.2650
  594MPD2    H3 8863   2.188   3.750  14.715 -0.4211 -1.6998 -0.0728
  594MPD2     N 8864   2.167   4.029  14.361 -0.0727  0.1950 -0.0686
  594MPD2    H5 8865   2.102   4.067  14.293  0.9877  0.7740 -0.7658
  594MPD2    N1 8866   1.795   3.744  14.497 -0.3263 -0.1283 -0.1646
  594MPD2    H7 8867   1.773   3.667  14.559  0.3748 -0.5140 -0.3961
  595TMC3    C1 8868   2.474   4.223  14.080 -0.3942 -0.1928  0.0308
  595TMC3    C2 8869   2.434   4.143  14.180 -0.6915  0.1591  0.3766
  595TMC3    C3 8870   2.326   4.176  14.254 -0.0529 -0.7627  0.1008
  595TMC3    C4 8871   2.405   4.335  14.045  1.5664 -0.0053  0.3885
  595TMC3    C5 8872   2.288   4.356  14.111 -0.4351 -0.0215  0.1267
  595TMC3    C6 8873   2.240   4.282  14.216 -0.6762  0.2104 -0.2639
  595TMC3     C 8874   2.617   4.211  14.030 -0.1441 -0.3388  0.5298
  595TMC3     O 8875   2.673   4.105  14.027  0.6066  0.1154  0.6914
  595TMC3     H 8876   2.492   4.055  14.207  0.0297  0.7471  0.7381
  595TMC3    H1 8877   2.443   4.397  13.964  0.1315 -1.5280 -1.4652
  595TMC3    H2 8878   2.141   4.297  14.258  0.0144 -1.6010  1.9920
  595TMC3    C7 8879   2.207   4.478  14.097  0.4995 -0.2837 -0.1691
  595TMC3    C8 8880   2.301   4.068  14.353  0.2170 -0.0009 -0.0059
  595TMC3    O1 8881   2.117   4.502  14.181 -0.2412 -0.1363 -0.7260
  595TMC3    O2 8882   2.397   4.023  14.413 -0.4023  0.4325 -0.2382
  596MPD2     C 8883   0.949   2.187  16.431  0.4239 -0.0406  0.3297
  596MPD2    C1 8884   0.907   2.293  16.354 -0.4028  0.5848 -0.6274
  596MPD2    C2 8885   0.887   2.284  16.221  0.6777  0.1811 -0.5317
  596MPD2    C3 8886   0.914   2.169  16.155 -0.4606 -0.0276 -0.3557
  596MPD2    C4 8887   0.957   2.062  16.231  0.2371  0.2377  0.5208
  596MPD2    C5 8888   0.977   2.069  16.367  0.0354 -0.1590  0.0870
  596MPD2     H 8889   0.864   2.372  16.162  0.5634  0.6030  0.1437
  596MPD2    H1 8890   0.970   1.965  16.185 -2.7954 -0.0613  0.2800
  596MPD2    H2 8891   0.982   2.194  16.534  1.2397  0.2414  0.0542
  596MPD2    H3 8892   1.013   1.979  16.415  1.7933  2.2195  3.2241
  596MPD2     N 8893   0.897   2.156  16.015 -0.2421  0.0394 -0.4466
  596MPD2    H5 8894   0.914   2.064  15.975 -1.2606 -0.0902 -0.6076
  596MPD2    N1 8895   0.896   2.426  16.410 -0.9021  0.7214 -0.3822
  596MPD2    H7 8896   0.874   2.505  16.350 -0.1153  0.9209 -0.4003
  597TMC3    C1 8897   0.919   2.600  16.549  0.1528 -0.4345  0.4037
  597TMC3    C2 8898   0.990   2.665  16.452  0.4879 -0.9132  0.7659
  597TMC3    C3 8899   0.971   2.803  16.447  0.5328 -0.3459 -0.2068
  597TMC3    C4 8900   0.845   2.664  16.648 -0.2440 -0.2302  1.1023
  597TMC3    C5 8901   0.826   2.798  16.636  0.5631 -0.2015 -0.4819
  597TMC3    C6 8902   0.888   2.865  16.538 -0.2910 -0.1885 -0.0537
  597TMC3     C 8903   0.900   2.457  16.538 -0.0110  0.2771  0.9337
  597TMC3     O 8904   0.900   2.384  16.635 -0.4371 -0.3900 -0.3431
  597TMC3     H 8905   1.051   2.617  16.376 -0.8887 -0.1257 -0.8447
  597TMC3    H1 8906   0.797   2.614  16.731 -2.5888 -0.4563 -0.3881
  597TMC3    H2 8907   0.870   2.971  16.533 -2.9091 -0.7200 -2.1475
  597TMC3    C7 8908   0.722   2.858  16.718 -0.5407 -0.2985 -0.5528
  597TMC3    C8 8909   1.013   2.874  16.329  0.0714  0.0307 -0.0844
  597TMC3    O1 8910   0.700   2.808  16.829  0.2076  0.2222 -0.0732
  597TMC3    O2 8911   0.948   2.969  16.292  0.0834 -0.5700  0.1885
  598TMC3    C1 8912   3.843   3.603  15.040 -0.5478 -0.4685 -0.0368
  598TMC3    C2 8913   3.769   3.489  15.007 -0.3099  0.9324  0.3651
  598TMC3    C3 8914   3.674   3.492  14.912  0.6597  0.3606  0.3653
  598TMC3    C4 8915   3.812   3.722  14.979  0.7315  0.3560 -0.3893
  598TMC3    C5 8916   3.697   3.721  14.900 -0.4198 -0.2370 -0.3735
  598TMC3    C6 8917   3.632   3.606  14.861  0.1396 -0.1524  0.3166
  598TMC3     C 8918   3.954   3.599  15.138 -0.4824  0.5173 -0.0067
  598TMC3     O 8919   4.038   3.689  15.114 -0.0771  0.1442  0.0254
  598TMC3     H 8920   3.802   3.393  15.045  1.0725  1.8470  1.4814
  598TMC3    H1 8921   3.876   3.807  14.999  1.4621 -0.5588  1.0834
  598TMC3    H2 8922   3.540   3.609  14.804 -0.6885  2.1132  1.7717
  598TMC3    C7 8923   3.675   3.831  14.801  0.2373  0.0860 -0.2099
  598TMC3    C8 8924   3.686   3.381  14.809  0.0389  0.3907  0.8284
  598TMC3    O1 8925   3.624   3.792  14.693  0.8219  0.1509 -0.6714
  598TMC3    O2 8926   3.734   3.273  14.844 -0.1633 -0.3323  0.2811
  599MPD2     C 8927   3.873   1.349  15.321 -0.1087 -0.0506  0.6823
  599MPD2    C1 8928   3.822   1.220  15.329  0.2469 -0.4357 -0.5465
  599MPD2    C2 8929   3.700   1.193  15.387  0.9956  0.5089 -0.1910
  599MPD2    C3 8930   3.643   1.291  15.465  0.4169 -0.3895 -0.4641
  599MPD2    C4 8931   3.696   1.417  15.456  0.0267  0.1863 -0.2388
  599MPD2    C5 8932   3.811   1.449  15.387 -0.1064  0.0594 -0.4007
  599MPD2     H 8933   3.660   1.093  15.377 -2.5794  1.9469 -0.1267
  599MPD2    H1 8934   3.645   1.492  15.516 -0.5141 -1.4095  1.2786
  599MPD2    H2 8935   3.972   1.358  15.278 -0.2370 -1.5521  0.0365
  599MPD2    H3 8936   3.849   1.550  15.390 -1.5059  0.5980 -0.6689
  599MPD2     N 8937   3.531   1.276  15.553  0.4831  0.3111  0.4662
  599MPD2    H5 8938   3.504   1.364  15.595  0.2438  0.2486  0.4441
  599MPD2    N1 8939   3.904   1.107  15.287  0.1385 -0.5610  0.1485
  599MPD2    H7 8940   4.004   1.124  15.275 -0.1739  0.9699 -0.2437
  600TMC3    C1 8941   3.371   1.173  15.684  0.5982  0.2523 -0.0234
  600TMC3    C2 8942   3.265   1.094  15.691  0.3170  0.0771  0.3140
  600TMC3    C3 8943   3.185   1.102  15.804 -0.3086 -0.2442 -0.1599
  600TMC3    C4 8944   3.412   1.246  15.795 -0.4925  0.3029  0.1288
  600TMC3    C5 8945   3.335   1.248  15.904  0.6581  0.4039  0.2398
  600TMC3    C6 8946   3.224   1.171  15.916  0.2495 -0.1793 -0.2353
  600TMC3     C 8947   3.467   1.158  15.581  0.2361  0.3160  0.3837
  600TMC3     O 8948   3.469   1.047  15.528  0.0999 -0.0585 -0.3472
  600TMC3     H 8949   3.235   1.035  15.605 -1.0195 -0.9844  1.5094
  600TMC3    H1 8950   3.519   1.263  15.799 -0.2679 -1.8865  3.0552
  600TMC3    H2 8951   3.150   1.192  15.992 -0.0150  0.1721 -0.5881
  600TMC3    C7 8952   3.363   1.355  16.000 -0.7826 -0.1409  0.1363
  600TMC3    C8 8953   3.082   1.005  15.826 -0.3455  0.3144 -0.4720
  600TMC3    O1 8954   3.293   1.366  16.097 -0.1851  0.0749 -0.5612
  600TMC3    O2 8955   3.053   0.979  15.941 -0.0031 -1.2945  0.3603
  601MPD2     C 8956   1.510   0.106  17.568  0.3109 -0.0153 -0.0300
  601MPD2    C1 8957   1.391   0.059  17.624  0.1638  0.1011 -0.0807
  601MPD2    C2 8958   1.396   4.713  17.735 -0.0599 -0.3324 -0.0811
  601MPD2    C3 8959   1.517   4.670   0.051 -0.0619 -0.0985  0.8046
  601MPD2    C4 8960   1.629   4.701  17.718 -0.5559 -0.7454  0.3165
  601MPD2    C5 8961   1.632   0.059  17.619  0.8022  0.0159  0.0413
  601MPD2     H 8962   1.301   4.694   0.046  0.2191 -0.3593  0.4389
  601MPD2    H1 8963   1.723   4.663   0.019 -2.0630 -0.7086  3.8982
  601MPD2    H2 8964   1.513   0.173  17.483  1.4838  0.8243  0.6746
  601MPD2    H3 8965   1.724   0.101  17.583  0.0046  0.6472 -1.2444
  601MPD2     N 8966   1.536   4.584   0.164 -0.6852 -0.3167  0.0101
  601MPD2    H5 8967   1.632   4.558   0.181 -0.6096  0.5023  0.8574
  601MPD2    N1 8968   1.266   0.095  17.571  0.4800  0.0061 -0.8064
  601MPD2    H7 8969   1.179   0.058  17.608 -0.1657 -1.2164 -3.5667
  602TMC3    C1 8970   1.108   0.208  17.437  0.0039 -0.2751 -0.5570
  602TMC3    C2 8971   1.075   0.335  17.398 -0.2432  0.4490 -0.1408
  602TMC3    C3 8972   0.968   0.340  17.314 -0.5386  0.1625 -0.3388
  602TMC3    C4 8973   1.033   0.098  17.401 -0.5102  0.4269 -0.6781
  602TMC3    C5 8974   0.921   0.116  17.333 -0.6138  0.2083  0.0860
  602TMC3    C6 8975   0.890   0.234  17.281  0.2498 -0.4119 -0.1704
  602TMC3     C 8976   1.243   0.188  17.474  0.1853  0.2462 -0.3348
  602TMC3     O 8977   1.324   0.263  17.415  0.0135 -0.9210 -0.0143
  602TMC3     H 8978   1.135   0.424  17.412 -0.8935  0.7637  0.6287
  602TMC3    H1 8979   1.065   0.002  17.439 -0.1096  0.7661 -0.1746
  602TMC3    H2 8980   0.796   0.250  17.230  1.0720  1.0520 -1.2387
  602TMC3    C7 8981   0.851   4.733  17.280  0.4916 -0.1748 -1.1407
  602TMC3    C8 8982   0.934   0.460  17.243  0.2297 -0.1506 -0.2428
  602TMC3    O1 8983   0.814   4.649  17.360 -0.6053  0.4248  0.0239
  602TMC3    O2 8984   0.976   0.564  17.289  0.2280  0.0735 -0.2119
  603TMC3    C1 8985   4.123   4.397  10.936 -0.2213  0.0593 -1.0891
  603TMC3    C2 8986   4.113   4.355  11.060 -0.3954  0.7349 -0.0966
  603TMC3    C3 8987   4.129   4.444  11.155  0.0950 -0.2195 -0.2424
  603TMC3    C4 8988   4.121   4.533  10.913  0.1151  0.6104  0.3662
  603TMC3    C5 8989   4.139   4.622  11.019  0.2639 -0.2514  0.8926
  603TMC3    C6 8990   4.163   4.577  11.141 -0.6288  0.2679  0.3153
  603TMC3     C 8991   4.049   4.309  10.844  0.0493  0.3552  0.1560
  603TMC3     O 8992   3.988   4.215  10.893 -0.1438  0.0790  0.6135
  603TMC3     H 8993   4.105   4.251  11.090  2.7194  0.6326  0.3125
  603TMC3    H1 8994   4.107   4.562  10.809 -0.5922 -0.5376  0.1424
  603TMC3    H2 8995   4.164   4.648  11.223 -2.4698 -0.0101  0.5661
  603TMC3    C7 8996   4.142   0.026  10.996 -0.1446 -0.0682  0.3711
  603TMC3    C8 8997   4.127   4.392  11.289 -0.2062 -0.1118  0.4373
  603TMC3    O1 8998   4.191   0.100  11.082  0.4488  0.2560  0.4533
  603TMC3    O2 8999   4.074   4.284  11.315  0.5312  0.6744  0.3830
  604MPD2     C 9000   0.126   3.532  15.853 -0.0178  0.1910 -0.2393
  604MPD2    C1 9001   0.052   3.426  15.803  0.2931 -0.4878 -0.5817
  604MPD2    C2 9002   0.067   3.383  15.668 -0.0629  0.6714  0.8671
  604MPD2    C3 9003   0.173   3.432  15.601  0.1567  0.2146 -0.7736
  604MPD2    C4 9004   0.255   3.522  15.656  0.2451 -0.5546  0.1711
  604MPD2    C5 9005   0.227   3.584  15.779  0.2206 -0.3497 -0.0714
  604MPD2     H 9006   0.009   3.301  15.627  0.4475  0.2559  0.9883
  604MPD2    H1 9007   0.339   3.568  15.606 -0.3479 -0.0311 -0.3462
  604MPD2    H2 9008   0.105   3.583  15.946 -1.3337 -0.0999 -0.3854
  604MPD2    H3 9009   0.293   3.660  15.818 -0.7496 -0.1746  1.2148
  604MPD2     N 9010   0.202   3.378  15.470  0.2420 -0.9936  0.1165
  604MPD2    H5 9011   0.126   3.324  15.430 -0.3449 -0.2383  0.1892
  604MPD2    N1 9012   4.686   3.374  15.889  0.0117 -0.2827  0.2199
  604MPD2    H7 9013   4.683   3.415  15.982 -0.9449 -1.3465  0.6664
  605TMC3    C1 9014   4.470   3.302  15.937  0.0403 -0.4093  0.6846
  605TMC3    C2 9015   4.505   3.304  16.066  1.0158  0.0255  0.3693
  605TMC3    C3 9016   4.452   3.392  16.155 -0.7584 -0.5162  0.3386
  605TMC3    C4 9017   4.360   3.376  15.893 -0.4106 -0.5343  0.3678
  605TMC3    C5 9018   4.300   3.449  15.981  0.0179  0.7288  0.1286
  605TMC3    C6 9019   4.343   3.461  16.112 -0.1488  0.6013  0.0750
  605TMC3     C 9020   4.582   3.293  15.842 -0.4512  0.4470  0.3091
  605TMC3     O 9021   4.547   3.259  15.732 -0.2112  0.3238 -0.6361
  605TMC3     H 9022   4.581   3.233  16.097  0.8512 -1.2033 -2.0029
  605TMC3    H1 9023   4.339   3.376  15.786  0.8786  2.6537  0.1307
  605TMC3    H2 9024   4.290   3.537  16.168  1.0881  1.0007  0.7115
  605TMC3    C7 9025   4.212   3.549  15.930  0.5673 -0.0992 -0.2249
  605TMC3    C8 9026   4.562   3.461  16.231 -0.5305 -0.2131  0.0029
  605TMC3    O1 9027   4.208   3.648  16.000 -0.1974 -1.0611  0.5056
  605TMC3    O2 9028   4.677   3.434  16.194 -0.2743  0.2681  0.2102
  606TMC3    C1 9029   1.195   3.356  17.350  0.4464 -0.6859 -0.4922
  606TMC3    C2 9030   1.319   3.360  17.416  0.4717 -0.6672  0.1827
  606TMC3    C3 9031   1.373   3.234  17.441 -0.5528 -0.4575 -0.5685
  606TMC3    C4 9032   1.122   3.243  17.334  0.2005  0.3995  0.0439
  606TMC3    C5 9033   1.181   3.126  17.352 -0.2343  0.3908 -0.1769
  606TMC3    C6 9034   1.310   3.120  17.395 -0.0768 -0.6429  0.0311
  606TMC3     C 9035   1.133   3.478  17.294 -0.6740  0.3126 -0.3368
  606TMC3     O 9036   1.009   3.480  17.298  0.0896 -0.1421  0.3097
  606TMC3     H 9037   1.360   3.456  17.444  0.9872 -0.4282 -1.4303
  606TMC3    H1 9038   1.020   3.237  17.297  0.4706  1.1063 -0.8307
  606TMC3    H2 9039   1.362   3.025  17.402  1.4104 -0.1758 -4.8699
  606TMC3    C7 9040   1.129   3.021  17.263  0.9945  0.3811  0.4073
  606TMC3    C8 9041   1.517   3.213  17.462 -0.6432  0.1165  0.6095
  606TMC3    O1 9042   1.052   3.054  17.172 -0.2230  0.4489 -0.2621
  606TMC3    O2 9043   1.545   3.094  17.482  0.1029 -0.1674  0.2873
  607MPD2     C 9044   3.323   4.052  11.420 -0.0588 -0.7206  0.6128
  607MPD2    C1 9045   3.292   4.146  11.520  0.5065 -0.3801 -0.1316
  607MPD2    C2 9046   3.247   4.099  11.646  0.2843  0.6651 -0.6559
  607MPD2    C3 9047   3.242   3.966  11.677  0.8354 -0.2566 -0.1799
  607MPD2    C4 9048   3.272   3.873  11.583  0.5704  0.4474 -0.8843
  607MPD2    C5 9049   3.314   3.916  11.453 -0.2720 -0.7332 -0.2854
  607MPD2     H 9050   3.209   4.165  11.723 -1.3323 -1.5058  0.4038
  607MPD2    H1 9051   3.265   3.766  11.596 -3.5384  0.9161  0.7206
  607MPD2    H2 9052   3.362   4.080  11.322  1.0000 -0.8314  0.9975
  607MPD2    H3 9053   3.339   3.839  11.381  1.6872 -0.3272 -0.0502
  607MPD2     N 9054   3.233   3.934  11.818 -0.4442 -0.3413 -0.3706
  607MPD2    H5 9055   3.243   4.005  11.889  0.8115 -1.4262  0.5226
  607MPD2    N1 9056   3.316   4.288  11.519  0.4177  0.9099  0.0040
  607MPD2    H7 9057   3.283   4.340  11.600 -0.2886 -0.4951  0.6189
  608TMC3    C1 9058   3.412   4.494  11.463  0.2709  0.1190  0.3099
  608TMC3    C2 9059   3.447   4.514  11.591  0.4022  0.2750  0.0528
  608TMC3    C3 9060   3.490   4.638  11.623  0.2935 -0.0152 -0.2409
  608TMC3    C4 9061   3.426   4.588  11.365 -0.4366  0.7551 -0.0647
  608TMC3    C5 9062   3.469   4.715  11.403 -0.5465  0.2427 -0.6916
  608TMC3    C6 9063   3.500   0.005  11.536 -0.2939  0.1984  1.2268
  608TMC3     C 9064   3.384   4.361  11.423  0.3022  0.6393 -0.0894
  608TMC3     O 9065   3.432   4.317  11.320 -0.2783  0.5291 -0.1282
  608TMC3     H 9066   3.459   4.426  11.653 -2.5868 -0.0691  0.1727
  608TMC3    H1 9067   3.429   4.563  11.260  0.5800  3.8340 -0.7879
  608TMC3    H2 9068   3.536   0.098  11.577  1.1361  0.5024 -0.7395
  608TMC3    C7 9069   3.528   0.073  11.305 -0.0990 -0.0037  0.2553
  608TMC3    C8 9070   3.537   4.650  11.763 -0.5426  0.1388 -0.0993
  608TMC3    O1 9071   3.489   0.054  11.190  0.3501 -0.3220 -0.0299
  608TMC3    O2 9072   3.624   4.732  11.794  0.5302  0.0886  0.3340
  609TMC3    C1 9073   2.114   3.617   8.869 -0.2477 -0.1214 -0.1673
  609TMC3    C2 9074   2.101   3.569   8.741  0.0165 -0.2700 -1.0214
  609TMC3    C3 9075   2.158   3.453   8.706  0.5445 -0.3315  0.8961
  609TMC3    C4 9076   2.184   3.544   8.958  0.1477  0.4366  0.7010
  609TMC3    C5 9077   2.239   3.423   8.922  0.0160  0.4144  0.4508
  609TMC3    C6 9078   2.238   3.385   8.790 -0.0246  0.0974 -0.3469
  609TMC3     C 9079   2.046   3.739   8.913 -0.3863 -0.4968 -0.3357
  609TMC3     O 9080   1.967   3.795   8.841  0.0800  0.1654 -0.2014
  609TMC3     H 9081   2.056   3.630   8.663 -0.2596  2.7113  1.4956
  609TMC3    H1 9082   2.197   3.575   9.060 -0.2946 -0.9044  1.1733
  609TMC3    H2 9083   2.285   3.290   8.767 -1.7700 -1.3833  2.2487
  609TMC3    C7 9084   2.341   3.375   9.015  0.8608 -0.4551 -0.0113
  609TMC3    C8 9085   2.168   3.424   8.561 -0.1003 -0.4320 -0.1926
  609TMC3    O1 9086   2.370   3.444   9.109 -0.3806  0.0165  0.3527
  609TMC3    O2 9087   2.076   3.452   8.489  0.1650  0.6253  0.5053
  610TMC3    C1 9088   4.081   4.361  12.188  0.3339  0.4396 -0.6093
  610TMC3    C2 9089   4.026   4.356  12.063  0.9161  0.2740 -0.6934
  610TMC3    C3 9090   4.015   4.470  11.990  0.7978 -1.0996  0.3083
  610TMC3    C4 9091   4.161   4.473  12.225  0.3966  0.5561 -0.1904
  610TMC3    C5 9092   4.158   4.582  12.136  0.0365 -0.1359 -0.2674
  610TMC3    C6 9093   4.090   4.582  12.022  0.3222 -0.2474  0.5739
  610TMC3     C 9094   4.096   4.235  12.268  0.2331  0.3889 -0.6502
  610TMC3     O 9095   4.008   4.152  12.269  0.4423 -0.0943 -0.1225
  610TMC3     H 9096   4.011   4.256  12.023 -2.0028  1.8944 -3.6384
  610TMC3    H1 9097   4.205   4.487  12.323  0.1255 -1.3408  0.2183
  610TMC3    H2 9098   4.087   4.667  11.954  2.3294 -1.3970 -0.9526
  610TMC3    C7 9099   4.252   4.683  12.164 -0.4050  0.0404 -0.5673
  610TMC3    C8 9100   3.939   4.463  11.864 -0.4756 -0.4242 -0.4262
  610TMC3    O1 9101   4.228   0.062  12.124 -0.1231  0.1540 -0.3786
  610TMC3    O2 9102   3.967   4.528  11.766 -0.2156  0.7104 -0.3963
  611MPD2     C 9103   3.208   4.587  10.056 -0.3595 -0.2242  0.0832
  611MPD2    C1 9104   3.183   4.667  10.164  0.8343 -0.1189  0.8092
  611MPD2    C2 9105   3.291   0.019  10.201  0.1052  0.3088 -0.6247
  611MPD2    C3 9106   3.408   0.032  10.121 -0.5523  0.5180 -0.2568
  611MPD2    C4 9107   3.418   4.682  10.014  0.0703 -0.2134 -0.2775
  611MPD2    C5 9108   3.325   4.594   9.989 -0.0088 -0.5726  0.1439
  611MPD2     H 9109   3.286   0.081  10.291  0.8594 -3.5120  2.0429
  611MPD2    H1 9110   3.499   4.691   9.942 -1.9769  1.0913 -2.3965
  611MPD2    H2 9111   3.132   4.517  10.023  1.2342 -0.7508 -2.4313
  611MPD2    H3 9112   3.334   4.522   9.908 -2.7632  1.3343 -1.8199
  611MPD2     N 9113   3.516   0.126  10.130  0.4437  0.2243 -0.4664
  611MPD2    H5 9114   3.575   0.135  10.048  0.7322 -0.4781 -0.3302
  611MPD2    N1 9115   3.061   4.641  10.234 -0.1196 -0.4772  0.0537
  611MPD2    H7 9116   2.991   4.578  10.197  0.7740 -0.2785 -1.9841
  612TMC3    C1 9117   3.655   0.273  10.236 -0.0504 -0.1970 -0.7883
  612TMC3    C2 9118   3.711   0.306  10.353  0.0393  0.2451 -0.4559
  612TMC3    C3 9119   3.797   0.412  10.347  0.0049  0.7849  0.7101
  612TMC3    C4 9120   3.668   0.345  10.115 -0.1552 -0.7009 -0.0367
  612TMC3    C5 9121   3.757   0.451  10.123 -1.1878 -0.1754 -0.0140
  612TMC3    C6 9122   3.817   0.491  10.239 -0.3591 -0.0776  0.0608
  612TMC3     C 9123   3.552   0.176  10.249 -0.1289 -0.5156 -0.0789
  612TMC3     O 9124   3.507   0.141  10.359 -0.7611  0.2143 -0.1183
  612TMC3     H 9125   3.705   0.240  10.438  1.8307 -0.4846 -0.8957
  612TMC3    H1 9126   3.611   0.328  10.024  0.4595 -1.0461 -0.3563
  612TMC3    H2 9127   3.893   0.568  10.238 -0.4963  0.0563 -0.0995
  612TMC3    C7 9128   3.783   0.513   9.992 -0.2002 -0.1408 -0.5065
  612TMC3    C8 9129   3.876   0.447  10.470 -0.1978 -0.3516 -0.8197
  612TMC3    O1 9130   3.732   0.460   9.892 -0.6894  0.7136  0.3636
  612TMC3    O2 9131   3.920   0.562  10.480 -0.5794 -0.5154 -0.7188
  613MPD2     C 9132   2.409   1.853  16.608  0.3688 -0.4991  0.0547
  613MPD2    C1 9133   2.365   1.976  16.567 -0.2655  0.1062 -0.7921
  613MPD2    C2 9134   2.271   1.969  16.461 -0.8353  0.0165  0.5261
  613MPD2    C3 9135   2.218   1.845  16.415  0.1519 -0.8340 -0.1898
  613MPD2    C4 9136   2.266   1.727  16.465  0.4336 -0.2203 -0.0197
  613MPD2    C5 9137   2.362   1.737  16.556 -0.5480 -0.0482  0.7408
  613MPD2     H 9138   2.228   2.057  16.415  1.3522  1.9157  2.0926
  613MPD2    H1 9139   2.247   1.628  16.424 -1.8520  0.3087 -0.2087
  613MPD2    H2 9140   2.497   1.852  16.671 -0.2722 -0.7046  0.9446
  613MPD2    H3 9141   2.412   1.647  16.591 -1.0020 -1.1701 -1.5203
  613MPD2     N 9142   2.117   1.837  16.309 -0.6453 -0.2582 -0.7596
  613MPD2    H5 9143   2.094   1.745  16.271 -0.5915 -0.3213 -0.6395
  613MPD2    N1 9144   2.418   2.093  16.627 -0.2878 -0.4031 -0.2057
  613MPD2    H7 9145   2.472   2.077  16.712  1.0513 -2.0500 -1.3734
  614TMC3    C1 9146   2.415   2.254  16.432 -0.3675  0.2770 -0.3026
  614TMC3    C2 9147   2.472   2.163  16.346  0.7512 -0.3560 -0.1030
  614TMC3    C3 9148   2.477   2.195  16.214 -0.0346  0.4815  0.1234
  614TMC3    C4 9149   2.370   2.377  16.385  0.0145  0.6619  0.4524
  614TMC3    C5 9150   2.382   2.403  16.245  0.2609 -0.3812  0.1349
  614TMC3    C6 9151   2.436   2.319  16.157  0.3568 -0.1149 -0.1705
  614TMC3     C 9152   2.410   2.226  16.581  0.2957 -0.7628 -0.1030
  614TMC3     O 9153   2.429   2.331  16.648  0.3962 -0.0286 -0.3083
  614TMC3     H 9154   2.509   2.064  16.368  0.3357 -0.2904  0.8955
  614TMC3    H1 9155   2.314   2.439  16.454 -2.6583  0.7503 -1.8261
  614TMC3    H2 9156   2.457   2.343  16.054 -0.5808  0.8554 -0.1358
  614TMC3    C7 9157   2.316   2.522  16.195  0.4214  0.1989 -0.1282
  614TMC3    C8 9158   2.481   2.084  16.126 -0.7260  0.7465 -0.0280
  614TMC3    O1 9159   2.295   2.612  16.273  0.0733  0.0573  0.2784
  614TMC3    O2 9160   2.436   1.978  16.177 -0.2105 -0.0721  0.1698
  615MPD2     C 9161   1.696   3.420  15.589  0.1979  0.6652  0.0068
  615MPD2    C1 9162   1.621   3.531  15.629 -0.1010  0.9943  0.4623
  615MPD2    C2 9163   1.526   3.577  15.542  0.4168  0.1021 -0.0103
  615MPD2    C3 9164   1.507   3.527  15.413 -0.3375 -0.2510  0.4916
  615MPD2    C4 9165   1.585   3.423  15.380 -0.2800  0.6514  0.4045
  615MPD2    C5 9166   1.667   3.367  15.466 -0.5191 -0.0962 -0.5312
  615MPD2     H 9167   1.476   3.668  15.573  0.5153  0.1287  0.0699
  615MPD2    H1 9168   1.581   3.376  15.283  0.4318 -1.4048  1.3716
  615MPD2    H2 9169   1.767   3.363  15.648 -0.2146 -1.4006 -1.4980
  615MPD2    H3 9170   1.721   3.278  15.437 -0.5204  0.2800 -1.6912
  615MPD2     N 9171   1.423   3.588  15.315 -0.0059  0.9935 -0.1144
  615MPD2    H5 9172   1.439   3.551  15.222 -1.5145 -2.7486  1.0992
  615MPD2    N1 9173   1.643   3.594  15.754  0.1242  0.8566  0.4269
  615MPD2    H7 9174   1.582   3.673  15.772 -0.9341 -0.0427  0.7992
  616TMC3    C1 9175   1.751   3.667  15.943 -0.0951  0.7581 -0.2995
  616TMC3    C2 9176   1.873   3.739  15.952  0.0882  0.0932  0.3640
  616TMC3    C3 9177   1.876   3.852  16.030  0.5026  0.4519  0.0774
  616TMC3    C4 9178   1.641   3.702  16.006 -0.2192 -0.3264  0.1100
  616TMC3    C5 9179   1.655   3.806  16.095 -0.4693  1.2641 -0.1901
  616TMC3    C6 9180   1.763   3.888  16.097 -0.4787 -0.0558 -0.4618
  616TMC3     C 9181   1.740   3.561  15.847  0.5890  0.7088  0.2293
  616TMC3     O 9182   1.834   3.477  15.840  0.1130  0.3871  0.3709
  616TMC3     H 9183   1.940   3.718  15.870  0.3964 -0.9750  0.8907
  616TMC3    H1 9184   1.559   3.632  16.019  0.4668 -1.6020 -2.4499
  616TMC3    H2 9185   1.747   3.981  16.150  0.8747  0.5470 -1.1221
  616TMC3    C7 9186   1.527   3.864  16.127 -0.0436  0.0024  0.2198
  616TMC3    C8 9187   1.980   3.945  15.999  0.0229 -0.2664  0.6628
  616TMC3    O1 9188   1.533   3.943  16.220  0.0010 -0.0640 -0.1589
  616TMC3    O2 9189   2.090   3.899  15.964 -0.3858  0.0606  0.4802
  617MPD2     C 9190   0.238   2.211  13.820 -0.2312 -0.1152  0.6033
  617MPD2    C1 9191   0.245   2.079  13.860 -0.1497 -0.3268  0.4759
  617MPD2    C2 9192   0.126   2.001  13.877  0.1739 -0.5713 -0.9543
  617MPD2    C3 9193   0.008   2.059  13.847  0.2230  0.9479  0.9992
  617MPD2    C4 9194   0.004   2.187  13.794 -0.2974  0.1370 -0.8123
  617MPD2    C5 9195   0.115   2.257  13.787  0.3446 -0.0089 -0.0992
  617MPD2     H 9196   0.132   1.905  13.926 -1.2558  0.6645  1.5964
  617MPD2    H1 9197   4.647   2.228  13.755 -0.2052  0.6861 -0.4521
  617MPD2    H2 9198   0.325   2.267  13.789  0.1993 -0.6432  0.8310
  617MPD2    H3 9199   0.115   2.352  13.735  0.2489 -0.6879 -1.3552
  617MPD2     N 9200   4.617   2.003  13.867  0.2872 -0.1141 -0.4150
  617MPD2    H5 9201   4.540   2.060  13.833  0.0075 -1.0676 -1.3732
  617MPD2    N1 9202   0.370   2.018  13.876  0.4141  0.5092  0.2513
  617MPD2    H7 9203   0.453   2.075  13.865  1.4080 -0.9922  0.0285
  618TMC3    C1 9204   0.513   1.828  13.847 -0.2828 -0.0800  0.3819
  618TMC3    C2 9205   0.541   1.695  13.869 -0.1784  0.2098  0.9892
  618TMC3    C3 9206   0.636   1.631  13.795 -0.2109  0.0720 -0.0570
  618TMC3    C4 9207   0.583   1.900  13.751  0.6455  0.2541  0.2443
  618TMC3    C5 9208   0.684   1.834  13.685 -0.3439 -0.4547  0.3066
  618TMC3    C6 9209   0.713   1.704  13.706  0.1858 -1.3402 -0.5638
  618TMC3     C 9210   0.385   1.884  13.905 -0.2505  0.0715 -0.6378
  618TMC3     O 9211   0.321   1.809  13.974 -1.3426 -0.6524  0.1104
  618TMC3     H 9212   0.483   1.645  13.946  0.2253  1.2879  2.0036
  618TMC3    H1 9213   0.548   1.997  13.716 -0.9945 -0.5916 -0.5008
  618TMC3    H2 9214   0.805   1.656  13.676  1.0018  1.5312 -2.6899
  618TMC3    C7 9215   0.774   1.927  13.611  0.4691 -0.0136 -0.9695
  618TMC3    C8 9216   0.640   1.479  13.801 -0.3520 -0.6055 -0.0280
  618TMC3    O1 9217   0.783   2.040  13.659  0.6800  0.3661  0.7627
  618TMC3    O2 9218   0.585   1.438  13.901 -0.1725  0.0601 -0.0072
  619MPD2     C 9219   1.190   2.696  13.702 -0.0713  0.0002 -0.2342
  619MPD2    C1 9220   1.129   2.807  13.645  0.6585 -0.0441 -0.0043
  619MPD2    C2 9221   0.994   2.807  13.651  0.1144  0.1242 -0.2343
  619MPD2    C3 9222   0.919   2.712  13.706  0.3484  0.4160 -0.2634
  619MPD2    C4 9223   0.979   2.597  13.753  0.2114 -0.4223  0.3811
  619MPD2    C5 9224   1.118   2.589  13.743  0.3312  0.4686 -0.8414
  619MPD2     H 9225   0.944   2.885  13.595 -2.0462 -1.4144 -0.4251
  619MPD2    H1 9226   0.936   2.508  13.796  0.2388 -0.0480  1.1921
  619MPD2    H2 9227   1.298   2.688  13.699  0.2047  3.4967 -0.2062
  619MPD2    H3 9228   1.170   2.504  13.784  0.7615  1.8559  1.4482
  619MPD2     N 9229   0.783   2.723  13.707  0.7228 -0.1829 -0.0498
  619MPD2    H5 9230   0.729   2.645  13.742 -0.2727 -0.5582 -2.3934
  619MPD2    N1 9231   1.192   2.914  13.582 -0.1098 -0.3028 -0.1829
  619MPD2    H7 9232   1.133   2.985  13.542 -0.9238  1.0727  3.4235
  620TMC3    C1 9233   1.365   3.018  13.481  0.0450 -0.3025  0.2352
  620TMC3    C2 9234   1.295   2.971  13.371  0.2042  0.0089  0.4059
  620TMC3    C3 9235   1.296   3.052  13.257  0.0207  1.3490 -0.6473
  620TMC3    C4 9236   1.410   3.147  13.491 -1.0233 -0.3271 -0.5066
  620TMC3    C5 9237   1.420   3.221  13.380  0.2932 -0.1234 -0.2969
  620TMC3    C6 9238   1.369   3.169  13.264  0.0889  0.2333  0.2416
  620TMC3     C 9239   1.323   2.944  13.596  0.3680  0.2981  1.0162
  620TMC3     O 9240   1.402   2.896  13.680 -0.2105 -0.2612 -0.8361
  620TMC3     H 9241   1.275   2.867  13.348 -0.5620  0.0074  1.0904
  620TMC3    H1 9242   1.441   3.182  13.588  0.4683  1.2050 -1.5581
  620TMC3    H2 9243   1.354   3.225  13.172  1.5730  2.1961  1.1995
  620TMC3    C7 9244   1.385   3.360  13.405  0.3228 -0.2479 -0.4647
  620TMC3    C8 9245   1.159   3.066  13.208  0.3140  0.1305 -0.5445
  620TMC3    O1 9246   1.425   3.435  13.497 -0.1445 -0.0287  0.1379
  620TMC3    O2 9247   1.123   3.179  13.184  0.2263 -0.4780  0.0708
  621MPD2     C 9248   1.807   4.273   9.522 -0.1819  0.1582  0.3878
  621MPD2    C1 9249   1.838   4.157   9.587 -0.7804 -0.6974 -0.2571
  621MPD2    C2 9250   1.964   4.147   9.647 -0.0066  0.2110 -0.3964
  621MPD2    C3 9251   2.064   4.238   9.633 -0.0822 -0.5858  0.7139
  621MPD2    C4 9252   2.035   4.348   9.552  0.3727  0.1221 -0.2047
  621MPD2    C5 9253   1.911   4.365   9.503 -0.0067  0.7580 -0.6658
  621MPD2     H 9254   1.978   4.055   9.703 -1.8639 -0.1381 -0.5080
  621MPD2    H1 9255   2.109   4.425   9.534 -1.4586  1.9038 -0.1189
  621MPD2    H2 9256   1.708   4.289   9.479  1.0061  0.2024 -2.3162
  621MPD2    H3 9257   1.895   4.450   9.438  0.6331  0.3248 -1.3954
  621MPD2     N 9258   2.187   4.200   9.689  0.5570 -0.5070 -0.1311
  621MPD2    H5 9259   2.187   4.119   9.750  2.6320  0.1095  0.7158
  621MPD2    N1 9260   1.738   4.061   9.633 -0.7494  0.3098 -0.5417
  621MPD2    H7 9261   1.770   3.975   9.677  0.1181  1.3554  0.8479
  622TMC3    C1 9262   1.523   3.977   9.694 -0.3483 -0.0938 -0.5224
  622TMC3    C2 9263   1.412   4.028   9.760 -0.4520  0.9657 -0.6724
  622TMC3    C3 9264   1.369   3.956   9.866  0.1251  0.3339  0.7323
  622TMC3    C4 9265   1.590   3.867   9.737 -0.1124 -0.2104 -0.1885
  622TMC3    C5 9266   1.545   3.811   9.853  0.2482  0.6408 -0.3807
  622TMC3    C6 9267   1.438   3.850   9.922 -0.5120 -0.1533  0.3402
  622TMC3     C 9268   1.603   4.083   9.637  0.5722 -0.1610  0.4471
  622TMC3     O 9269   1.544   4.191   9.616  0.0122  0.5539 -0.0412
  622TMC3     H 9270   1.360   4.117   9.729 -0.3110  1.1586 -0.3521
  622TMC3    H1 9271   1.676   3.827   9.685 -0.2415 -3.2647  1.9220
  622TMC3    H2 9272   1.409   3.811  10.019  0.4692 -0.6419  0.4387
  622TMC3    C7 9273   1.591   3.678   9.875  0.0497 -0.0459 -0.3226
  622TMC3    C8 9274   1.267   4.006   9.950 -1.1058  0.3940 -0.0661
  622TMC3    O1 9275   1.576   3.638   9.991 -0.4793 -0.0736 -0.1352
  622TMC3    O2 9276   1.285   3.988  10.070  0.2650 -0.6218  0.1193
  623MPD2     C 9277   0.237   3.782  15.452 -0.2055 -0.3240  0.2917
  623MPD2    C1 9278   0.144   3.811  15.548 -0.8693  0.1624 -0.4833
  623MPD2    C2 9279   0.190   3.884  15.661 -0.1464  0.0734  0.1509
  623MPD2    C3 9280   0.320   3.923  15.671  0.0353 -0.7550  0.4323
  623MPD2    C4 9281   0.409   3.911  15.574 -0.3828  0.6620  0.3009
  623MPD2    C5 9282   0.360   3.845  15.466 -0.5705 -0.7952 -0.1860
  623MPD2     H 9283   0.136   3.910  15.751 -1.3501  0.5162 -0.6975
  623MPD2    H1 9284   0.512   3.941  15.565 -0.6490  1.2292 -0.9378
  623MPD2    H2 9285   0.219   3.732  15.358 -1.6884  0.7185  0.0190
  623MPD2    H3 9286   0.428   3.840  15.381 -1.8192  2.4425 -1.3545
  623MPD2     N 9287   0.359   3.977  15.793 -0.3976 -0.6118  0.3915
  623MPD2    H5 9288   0.290   3.966  15.866 -0.3016 -0.8994  0.4395
  623MPD2    N1 9289   0.012   3.765  15.548  0.2001  0.3559  0.4286
  623MPD2    H7 9290   4.694   3.785  15.632  1.2360  1.7232  0.7561
  624TMC3    C1 9291   0.625   3.858  16.102 -0.1300 -0.2990 -0.1299
  624TMC3    C2 9292   0.527   3.777  16.142  0.8263 -0.0933 -0.2942
  624TMC3    C3 9293   0.399   3.820  16.112  0.2638  0.2269 -0.2892
  624TMC3    C4 9294   0.604   3.977  16.029 -0.2669 -0.2119 -0.0639
  624TMC3    C5 9295   0.478   4.005  15.982  0.0772  0.3172  0.2007
  624TMC3    C6 9296   0.370   3.933  16.034  0.2819  0.2822  0.3255
  624TMC3     C 9297   0.744   3.859  16.174  0.1494 -0.1649  0.4013
  624TMC3     O 9298   0.803   3.965  16.186 -0.1489  0.5841 -0.0105
  624TMC3     H 9299   0.543   3.699  16.216  1.6060 -1.1396 -1.5794
  624TMC3    H1 9300   0.689   4.039  16.002  0.4584 -1.0018  0.3673
  624TMC3    H2 9301   0.265   3.946  16.009 -0.3331 -1.5524  1.9883
  624TMC3    C7 9302   0.483   4.016  15.834 -0.2640 -0.4161 -0.1014
  624TMC3    C8 9303   0.282   3.747  16.161 -0.1788 -0.4175 -0.2558
  624TMC3    O1 9304   0.588   4.034  15.768  0.4395  0.2397  0.2723
  624TMC3    O2 9305   0.269   3.627  16.170 -0.1188  0.1372  0.2655
  625MPD2     C 9306   1.003   0.544   0.347 -0.2541  0.1779 -0.3409
  625MPD2    C1 9307   1.024   0.678   0.370 -0.6218  1.2085 -0.3286
  625MPD2    C2 9308   1.150   0.719   0.409 -1.1794  0.2192  0.0916
  625MPD2    C3 9309   1.246   0.624   0.425  0.2236 -0.6239  0.0708
  625MPD2    C4 9310   1.232   0.493   0.401  0.3665  0.5120  0.4242
  625MPD2    C5 9311   1.110   0.454   0.364 -0.2645  0.2461 -0.1518
  625MPD2     H 9312   1.180   0.822   0.424  1.0792 -0.7522  2.4372
  625MPD2    H1 9313   1.320   0.429   0.410 -0.0934 -0.3454 -1.2180
  625MPD2    H2 9314   0.904   0.508   0.321 -0.6647  0.9186  0.1862
  625MPD2    H3 9315   1.110   0.348   0.342  1.4093  0.1666  0.2835
  625MPD2     N 9316   1.373   0.678   0.459  0.8542  0.3080 -0.5470
  625MPD2    H5 9317   1.371   0.770   0.503 -1.5479 -0.3187  0.6501
  625MPD2    N1 9318   0.919   0.773   0.355  0.2310 -0.5922 -0.2260
  625MPD2    H7 9319   0.936   0.868   0.388 -0.0668 -0.8137  0.5801
  626TMC3    C1 9320   0.716   0.857   0.290  0.8228  0.0224 -0.5489
  626TMC3    C2 9321   0.657   0.890   0.171  0.0046  0.1213 -0.4707
  626TMC3    C3 9322   0.622   1.025   0.165  0.0897  0.3708  0.5793
  626TMC3    C4 9323   0.740   0.949   0.391 -0.0915 -0.1310  0.0980
  626TMC3    C5 9324   0.685   1.074   0.382 -0.0750 -0.0755 -0.7005
  626TMC3    C6 9325   0.623   1.117   0.267  0.2486  0.5759  0.3415
  626TMC3     C 9326   0.808   0.746   0.282  0.4063  0.0223 -0.2626
  626TMC3     O 9327   0.778   0.653   0.210 -0.5962  0.1704 -0.5501
  626TMC3     H 9328   0.651   0.829   0.082  1.1177  0.2771 -0.6513
  626TMC3    H1 9329   0.793   0.924   0.482 -0.8611  1.4195  0.9646
  626TMC3    H2 9330   0.603   1.223   0.259  0.6906  0.7332  1.3352
  626TMC3    C7 9331   0.634   1.125   0.510  0.5463 -0.1442  0.8610
  626TMC3    C8 9332   0.577   1.072   0.034  0.1156 -0.3280 -0.4855
  626TMC3    O1 9333   0.708   1.118   0.611  0.5518  1.0296  0.4852
  626TMC3    O2 9334   0.612   1.013  17.670 -0.1028  0.7879 -0.6545
  627MPD2     C 9335   3.844   0.850  14.059  0.2180  0.2766 -0.2989
  627MPD2    C1 9336   3.875   0.741  14.139  0.4058 -0.0258  0.4136
  627MPD2    C2 9337   3.820   0.619  14.115 -0.1430  0.5287 -0.5649
  627MPD2    C3 9338   3.756   0.591  13.997  0.0222 -0.1617 -0.3262
  627MPD2    C4 9339   3.711   0.697  13.924  0.1551 -0.2958 -0.4850
  627MPD2    C5 9340   3.749   0.824  13.958 -0.1740 -0.3573 -0.7411
  627MPD2     H 9341   3.857   0.541  14.180  0.1274  1.7381  0.7541
  627MPD2    H1 9342   3.650   0.680  13.836 -0.0725 -0.7358 -0.2446
  627MPD2    H2 9343   3.878   0.953  14.067  0.2345  0.1282  1.6110
  627MPD2    H3 9344   3.714   0.910  13.903 -3.4330  1.1450  3.6787
  627MPD2     N 9345   3.710   0.462  13.962  0.4942  0.4988  0.2451
  627MPD2    H5 9346   3.640   0.462  13.889 -1.5678 -1.8856  2.1963
  627MPD2    N1 9347   3.955   0.758  14.253  0.0622  0.1944  0.2973
  627MPD2    H7 9348   3.982   0.673  14.302 -0.9945 -0.0909  0.4005
  628TMC3    C1 9349   4.106   0.867  14.410 -0.7050  0.7948 -0.2219
  628TMC3    C2 9350   4.111   0.757  14.491 -0.4495  0.5279 -0.3254
  628TMC3    C3 9351   4.186   0.760  14.606 -0.6823  0.4444  0.6015
  628TMC3    C4 9352   4.154   0.984  14.444 -0.7125 -0.3671 -0.4149
  628TMC3    C5 9353   4.230   0.993  14.556  0.2830  0.4263  0.1368
  628TMC3    C6 9354   4.248   0.884  14.639 -0.6582  0.5540 -0.8660
  628TMC3     C 9355   4.028   0.874  14.287 -0.1593 -0.0109 -0.6128
  628TMC3     O 9356   4.037   0.981  14.219 -0.4513 -0.1180  0.0303
  628TMC3     H 9357   4.069   0.661  14.460  1.7090 -0.7465  0.7028
  628TMC3    H1 9358   4.162   1.065  14.373  0.5623 -1.8793 -1.9969
  628TMC3    H2 9359   4.285   0.904  14.739 -0.2885  0.1712 -0.9259
  628TMC3    C7 9360   4.298   1.112  14.601  0.5551  0.1977 -0.4979
  628TMC3    C8 9361   4.219   0.637  14.672 -0.4073  0.2777 -1.1091
  628TMC3    O1 9362   4.376   1.103  14.694 -0.2698  0.0634  0.4135
  628TMC3    O2 9363   4.133   0.553  14.664  0.2364  0.3324 -0.3050
  629MPD2     C 9364   2.160   4.425  16.081 -0.6592 -0.2931  0.3874
  629MPD2    C1 9365   2.232   4.306  16.089 -0.8603 -0.1983  0.4902
  629MPD2    C2 9366   2.151   4.192  16.073 -0.2935 -0.0008  0.3061
  629MPD2    C3 9367   2.019   4.192  16.044 -0.3824  0.1442  0.4389
  629MPD2    C4 9368   1.956   4.315  16.025 -0.0425  0.2094  0.0700
  629MPD2    C5 9369   2.030   4.427  16.044 -0.3120  0.2063  0.7933
  629MPD2     H 9370   2.193   4.094  16.093  1.6028  1.0229  1.3407
  629MPD2    H1 9371   1.848   4.314  16.008  0.2655  2.3851 -2.1171
  629MPD2    H2 9372   2.205   4.522  16.100 -0.4720 -0.3936  0.4534
  629MPD2    H3 9373   1.974   4.520  16.047  1.5256  1.2018  3.4077
  629MPD2     N 9374   1.938   4.075  16.024 -0.0867  0.4287  0.6516
  629MPD2    H5 9375   1.839   4.079  16.004  0.0955  1.4903 -0.0660
  629MPD2    N1 9376   2.373   4.308  16.121 -0.4662  0.8696  0.1051
  629MPD2    H7 9377   2.420   4.394  16.148  1.4177  0.3013 -1.4602
  630TMC3    C1 9378   2.585   4.225  16.138 -0.1428 -0.2490  0.1176
  630TMC3    C2 9379   2.652   4.339  16.093  0.3979 -0.0160  0.5205
  630TMC3    C3 9380   2.788   4.352  16.123  0.2865  0.6018  0.5944
  630TMC3    C4 9381   2.655   4.128  16.208 -0.1073  0.6311  0.1586
  630TMC3    C5 9382   2.792   4.141  16.219  0.3172 -0.7182 -0.1216
  630TMC3    C6 9383   2.858   4.258  16.182  0.5397  0.2840 -0.4748
  630TMC3     C 9384   2.446   4.194  16.112  0.0797 -0.2254  0.5658
  630TMC3     O 9385   2.414   4.082  16.080 -0.2440  0.0484  0.2938
  630TMC3     H 9386   2.593   4.412  16.038 -1.9162 -3.1571 -1.1689
  630TMC3    H1 9387   2.609   4.030  16.218  0.6123  0.1418 -1.2776
  630TMC3    H2 9388   2.963   4.277  16.202  0.8352 -4.0290  2.0279
  630TMC3    C7 9389   2.851   4.060  16.330 -0.2758 -0.9344 -0.9576
  630TMC3    C8 9390   2.859   4.481  16.106  0.0961 -0.5120  0.2683
  630TMC3    O1 9391   2.779   3.978  16.386 -0.1375  0.1543  0.8948
  630TMC3    O2 9392   2.964   4.499  16.169 -0.1531 -0.0713  0.1943
  631MPD2     C 9393   0.515   3.967  14.920  0.4662 -0.2105  0.5110
  631MPD2    C1 9394   0.614   3.993  14.831  0.3822 -0.1914 -0.0102
  631MPD2    C2 9395   0.735   3.928  14.839 -0.4215  0.6242  0.2284
  631MPD2    C3 9396   0.751   3.836  14.943  0.1598 -0.5525 -0.1421
  631MPD2    C4 9397   0.641   3.793  15.016 -0.0700 -0.3453 -0.3315
  631MPD2    C5 9398   0.518   3.856  14.996 -0.1790  0.2063 -0.2139
  631MPD2     H 9399   0.817   3.966  14.780 -0.0830 -0.1959  0.1641
  631MPD2    H1 9400   0.648   3.718  15.095  2.7765  0.6128  0.3523
  631MPD2    H2 9401   0.417   4.012  14.915 -0.0726 -1.2155  2.2663
  631MPD2    H3 9402   0.431   3.826  15.054 -0.9835 -1.8425 -2.4814
  631MPD2     N 9403   0.880   3.778  14.963  0.4806  0.0180 -0.0783
  631MPD2    H5 9404   0.951   3.814  14.899  2.0719 -1.7002  0.7110
  631MPD2    N1 9405   0.582   4.097  14.737  0.2005  0.2788 -0.1615
  631MPD2    H7 9406   0.498   4.154  14.745  0.8028  1.0929  0.3771
  632TMC3    C1 9407   0.671   4.297  14.652  0.0213  0.0190  0.4545
  632TMC3    C2 9408   0.618   4.366  14.760  0.9031 -0.3084 -0.2160
  632TMC3    C3 9409   0.664   4.487  14.792  0.2815 -0.1913  0.1168
  632TMC3    C4 9410   0.776   4.351  14.592  0.8958  0.3166  0.3431
  632TMC3    C5 9411   0.830   4.468  14.633 -0.6013 -0.2033  0.3918
  632TMC3    C6 9412   0.780   4.539  14.741 -0.2366 -0.4007 -0.1764
  632TMC3     C 9413   0.684   4.152  14.657  0.2308  0.6243  0.7853
  632TMC3     O 9414   0.793   4.111  14.621 -0.3435  0.4077 -0.6306
  632TMC3     H 9415   0.532   4.328  14.815 -2.4711  0.7460 -4.7057
  632TMC3    H1 9416   0.818   4.301  14.505 -1.7111 -0.2005 -0.6230
  632TMC3    H2 9417   0.819   4.633  14.777  0.0862 -0.0145 -1.5327
  632TMC3    C7 9418   0.935   4.523  14.542 -1.1316  0.3936  0.8400
  632TMC3    C8 9419   0.603   4.550  14.908  0.1909 -0.1314  0.5303
  632TMC3    O1 9420   0.963   4.449  14.446  0.0116 -0.1667 -0.6815
  632TMC3    O2 9421   0.481   4.568  14.898 -0.0942 -0.6437  0.1039
  633MPD2     C 9422   0.561   2.495  17.167 -0.6648 -0.4371 -0.0425
  633MPD2    C1 9423   0.626   2.391  17.096  0.4497 -0.6803 -0.4176
  633MPD2    C2 9424   0.717   2.306  17.156 -0.1864 -0.1003 -0.4771
  633MPD2    C3 9425   0.749   2.334  17.290 -0.4809 -0.5226  0.0632
  633MPD2    C4 9426   0.701   2.446  17.353  0.1251  0.5134 -0.0299
  633MPD2    C5 9427   0.611   2.521  17.288  0.3789 -0.1188 -0.1386
  633MPD2     H 9428   0.753   2.218  17.104  0.8774  1.0015 -1.5949
  633MPD2    H1 9429   0.733   2.475  17.452  0.4159 -0.3312  0.1216
  633MPD2    H2 9430   0.467   2.540  17.136 -0.7553  0.2442  1.2535
  633MPD2    H3 9431   0.572   2.609  17.338  0.1094 -1.8743  2.7506
  633MPD2     N 9432   0.828   2.243  17.365  0.6487  0.4310  0.2264
  633MPD2    H5 9433   0.857   2.264  17.460 -2.2572 -1.4906  1.5445
  633MPD2    N1 9434   0.598   2.365  16.961 -0.3243 -0.2878  0.0105
  633MPD2    H7 9435   0.642   2.281  16.924 -1.7641 -0.2214 -1.8352
  634TMC3    C1 9436   0.552   2.423  16.722  0.5412  0.3782 -0.3319
  634TMC3    C2 9437   0.584   2.301  16.670  1.0616 -0.1963  0.0625
  634TMC3    C3 9438   0.568   2.274  16.536 -0.4925 -0.2811 -0.4055
  634TMC3    C4 9439   0.544   2.531  16.632  0.3975  0.6243  0.2833
  634TMC3    C5 9440   0.544   2.500  16.496  0.3135  0.4261 -0.0254
  634TMC3    C6 9441   0.552   2.375  16.447  0.3585 -0.4542  0.4615
  634TMC3     C 9442   0.546   2.455  16.872 -0.3435 -0.2242 -0.1051
  634TMC3     O 9443   0.516   2.572  16.896 -0.1607  0.3695  0.3942
  634TMC3     H 9444   0.594   2.221  16.742  0.4330  0.4057  0.8271
  634TMC3    H1 9445   0.533   2.631  16.674 -2.1298  0.8688 -0.9990
  634TMC3    H2 9446   0.557   2.362  16.340 -0.0361 -0.4619  0.4455
  634TMC3    C7 9447   0.501   2.604  16.401  0.1046 -0.0246  0.0945
  634TMC3    C8 9448   0.604   2.140  16.497  0.4265  0.5133  0.1878
  634TMC3    O1 9449   0.512   2.594  16.279  0.8896 -0.1814  0.6887
  634TMC3    O2 9450   0.622   2.054  16.580 -0.2423  0.1632  0.7213
  635TMC3    C1 9451   1.020   3.716   0.073  0.5198 -0.5817  0.0028
  635TMC3    C2 9452   0.966   3.800  17.721  0.3746 -0.3513  0.0171
  635TMC3    C3 9453   0.933   3.752  17.602 -0.2621 -0.4906  0.2564
  635TMC3    C4 9454   1.015   3.577   0.061  0.2243 -0.2116  0.2869
  635TMC3    C5 9455   0.969   3.531  17.680  0.0271 -0.7294  0.2126
  635TMC3    C6 9456   0.927   3.616  17.583  0.0047 -0.5555  0.0389
  635TMC3     C 9457   1.098   3.778   0.179  0.6893 -0.2441  0.2809
  635TMC3     O 9458   1.075   3.902   0.186  0.0128  0.3707  0.1937
  635TMC3     H 9459   0.978   3.907  17.731  2.2413 -0.6935  1.5262
  635TMC3    H1 9460   1.054   3.502   0.128  1.2177  0.1039  0.0667
  635TMC3    H2 9461   0.912   3.572  17.485 -0.4654  0.2528 -0.2512
  635TMC3    C7 9462   0.974   3.391  17.653  0.1476 -0.4118  0.3138
  635TMC3    C8 9463   0.865   3.830  17.506 -0.2692 -0.4541 -0.4879
  635TMC3    O1 9464   1.032   3.321  17.732  0.0724  0.1794 -0.3470
  635TMC3    O2 9465   0.797   3.767  17.428  0.1242 -0.4978 -0.4755
  636MPD2     C 9466   1.741   2.604  15.770 -0.6240  0.0891 -0.3271
  636MPD2    C1 9467   1.802   2.603  15.889  0.0249 -0.3248  0.3682
  636MPD2    C2 9468   1.872   2.489  15.931  0.0881  0.2060  0.1486
  636MPD2    C3 9469   1.861   2.375  15.856  0.4966  0.5640 -0.6647
  636MPD2    C4 9470   1.793   2.374  15.736 -0.1646  0.0878 -0.0646
  636MPD2    C5 9471   1.741   2.495  15.687 -0.0334 -0.0294  0.1930
  636MPD2     H 9472   1.933   2.486  16.021  1.2431  0.1250 -0.6419
  636MPD2    H1 9473   1.769   2.283  15.682 -2.3445  0.7114 -0.1667
  636MPD2    H2 9474   1.708   2.696  15.723  4.0730  2.0726  0.2413
  636MPD2    H3 9475   1.670   2.492  15.605  1.4375 -0.3019 -1.0820
  636MPD2     N 9476   1.918   2.258  15.910  0.6163 -0.3242  0.2847
  636MPD2    H5 9477   1.949   2.262  16.006 -4.2165 -2.2103  1.8859
  636MPD2    N1 9478   1.819   2.726  15.956  0.0322 -0.0826 -0.2598
  636MPD2    H7 9479   1.885   2.722  16.033 -0.5116 -1.3152  0.1331
  637TMC3    C1 9480   1.976   2.021  15.919  0.4564  0.4386  0.2696
  637TMC3    C2 9481   1.945   2.011  16.056  0.0347 -0.2053  0.5968
  637TMC3    C3 9482   1.992   1.903  16.126  0.0612  0.5187 -0.2152
  637TMC3    C4 9483   2.054   1.926  15.854 -0.7636  0.8538  1.0172
  637TMC3    C5 9484   2.111   1.826  15.932 -0.8582 -0.6053  0.0218
  637TMC3    C6 9485   2.068   1.806  16.057 -0.2939 -0.7473 -0.1765
  637TMC3     C 9486   1.938   2.137  15.842 -0.7759  0.4361  0.1654
  637TMC3     O 9487   1.947   2.120  15.723  0.3538 -0.1725  0.2273
  637TMC3     H 9488   1.879   2.078  16.109  0.7885  1.2468 -0.2777
  637TMC3    H1 9489   2.061   1.917  15.746 -0.9289 -0.5586  1.1214
  637TMC3    H2 9490   2.098   1.715  16.109 -1.3177 -1.2612 -0.4780
  637TMC3    C7 9491   2.170   1.720  15.859  0.2687 -0.1747  0.1131
  637TMC3    C8 9492   2.048   1.945  16.257 -0.6554 -0.0047 -0.9320
  637TMC3    O1 9493   2.120   1.610  15.887 -0.1366  0.2307  0.0451
  637TMC3    O2 9494   2.037   2.060  16.289  0.1760 -0.1359  0.2004
  638MPD2     C 9495   1.633   1.536  14.431 -0.1253  0.4186  0.3614
  638MPD2    C1 9496   1.625   1.422  14.347 -0.4382 -0.2850  0.4576
  638MPD2    C2 9497   1.576   1.304  14.406  0.3127  0.1285 -0.8155
  638MPD2    C3 9498   1.549   1.291  14.537  0.0497  0.3415  0.7575
  638MPD2    C4 9499   1.567   1.399  14.619 -0.4107  0.5351 -0.3899
  638MPD2    C5 9500   1.603   1.519  14.563 -0.9651 -0.1628  0.4210
  638MPD2     H 9501   1.551   1.216  14.346  0.0864 -0.0375 -0.4765
  638MPD2    H1 9502   1.549   1.398  14.726 -0.6587 -1.6277 -0.4473
  638MPD2    H2 9503   1.659   1.633  14.392 -0.7506  0.3454 -0.2442
  638MPD2    H3 9504   1.619   1.599  14.634 -0.7339  0.9544 -0.8873
  638MPD2     N 9505   1.512   1.161  14.591  0.4960 -0.2257  0.6508
  638MPD2    H5 9506   1.471   1.089  14.533  0.6618 -0.0333  0.2972
  638MPD2    N1 9507   1.657   1.439  14.211 -0.1146 -0.0623  0.7603
  638MPD2    H7 9508   1.688   1.533  14.190 -0.6062 -0.3153 -1.0756
  639TMC3    C1 9509   1.504   0.990  14.747  0.1081 -0.8214  0.2004
  639TMC3    C2 9510   1.419   0.932  14.657 -1.1746  0.3415 -0.1179
  639TMC3    C3 9511   1.444   0.806  14.608  0.9266 -0.5866  1.1238
  639TMC3    C4 9512   1.612   0.922  14.789 -0.0385 -0.4796 -0.5082
  639TMC3    C5 9513   1.621   0.787  14.754  0.1016 -0.1564  0.4529
  639TMC3    C6 9514   1.537   0.730  14.664  0.0008 -0.1760  0.5328
  639TMC3     C 9515   1.531   1.123  14.727  0.5936 -0.1117 -0.4556
  639TMC3     O 9516   1.584   1.184  14.816 -0.7133 -0.3520 -0.2478
  639TMC3     H 9517   1.326   0.978  14.625 -0.4475  0.2009 -2.4584
  639TMC3    H1 9518   1.693   0.964  14.848 -0.4919  0.0469 -0.2583
  639TMC3    H2 9519   1.542   0.626  14.635  0.8916 -0.1910  0.7305
  639TMC3    C7 9520   1.726   0.705  14.799  0.1812  0.3322  0.3694
  639TMC3    C8 9521   1.325   0.733  14.584 -0.6046 -0.3519  0.8162
  639TMC3    O1 9522   1.707   0.582  14.818  0.1373 -0.4694 -0.3135
  639TMC3    O2 9523   1.226   0.756  14.654 -0.2922 -0.4107 -0.1560
  640MPD2     C 9524   2.432   4.674   9.479  0.3493 -0.4410  0.5454
  640MPD2    C1 9525   2.332   4.607   9.410  0.0625  0.1503 -0.3012
  640MPD2    C2 9526   2.203   4.652   9.431  0.4833  0.2010 -0.3625
  640MPD2    C3 9527   2.177   0.033   9.511 -0.5977  0.1648 -0.9752
  640MPD2    C4 9528   2.279   0.095   9.573 -0.3234 -0.1162  0.3112
  640MPD2    C5 9529   2.403   0.034   9.574 -0.0861  0.8085  0.5974
  640MPD2     H 9530   2.121   4.615   9.371  0.1381 -1.0369  0.8544
  640MPD2    H1 9531   2.261   0.175   9.645 -1.3701  0.4909 -0.6306
  640MPD2    H2 9532   2.538   4.656   9.464  0.5297  0.6665  0.5244
  640MPD2    H3 9533   2.474   0.077   9.643  2.7688 -2.0022 -0.6177
  640MPD2     N 9534   2.051   0.085   9.524 -0.0710  0.0993  0.1093
  640MPD2    H5 9535   2.039   0.179   9.560 -0.9434 -0.3478  0.9703
  640MPD2    N1 9536   2.376   4.504   9.326  0.1943 -0.2884 -0.4121
  640MPD2    H7 9537   2.470   4.469   9.345  0.6773  2.0051  1.3950
  641TMC3    C1 9538   2.353   4.306   9.206 -0.2011  0.2175 -0.2873
  641TMC3    C2 9539   2.451   4.262   9.287 -0.2129 -0.3257 -0.1239
  641TMC3    C3 9540   2.526   4.152   9.238 -0.5002 -0.4731 -0.3411
  641TMC3    C4 9541   2.321   4.247   9.083 -0.0920  0.6303 -0.4995
  641TMC3    C5 9542   2.393   4.133   9.044 -0.2203  0.3273  0.5903
  641TMC3    C6 9543   2.501   4.095   9.118  0.8126 -0.2880  0.0371
  641TMC3     C 9544   2.295   4.433   9.241  1.0892  0.0157 -0.0830
  641TMC3     O 9545   2.184   4.459   9.194 -0.1091  0.0382 -0.5348
  641TMC3     H 9546   2.471   4.302   9.386  2.3922 -1.3571 -0.2344
  641TMC3    H1 9547   2.257   4.298   9.013 -0.5808  0.8012  0.0679
  641TMC3    H2 9548   2.564   4.011   9.090  1.0298 -0.7002  1.7416
  641TMC3    C7 9549   2.345   4.063   8.929  0.4960  0.0421 -0.3160
  641TMC3    C8 9550   2.578   4.049   9.329 -0.6403 -0.3005  1.0603
  641TMC3    O1 9551   2.263   4.129   8.864  0.5330 -0.1317 -0.1608
  641TMC3    O2 9552   2.538   3.934   9.310 -0.1062 -0.3127  0.2795
  642TMC3    C1 9553   3.396   0.769  12.260 -0.3660 -0.1155  0.2218
  642TMC3    C2 9554   3.526   0.761  12.249 -0.6458 -0.1080 -1.4301
  642TMC3    C3 9555   3.584   0.651  12.199 -0.4124 -0.5201  0.3492
  642TMC3    C4 9556   3.312   0.670  12.215  0.2327  0.5552  0.2142
  642TMC3    C5 9557   3.375   0.560  12.160  0.4708  0.6990 -0.3821
  642TMC3    C6 9558   3.513   0.544  12.153 -0.2611  0.1540  0.4396
  642TMC3     C 9559   3.339   0.896  12.303 -0.0394 -0.7034 -0.5456
  642TMC3     O 9560   3.423   0.991  12.310  0.3228  0.5036 -0.2729
  642TMC3     H 9561   3.596   0.840  12.275  0.6440 -1.6446 -0.2131
  642TMC3    H1 9562   3.206   0.688  12.206  0.2551  1.8029  2.2558
  642TMC3    H2 9563   3.565   0.457  12.116  1.3886  1.1746  0.3597
  642TMC3    C7 9564   3.296   0.437  12.113 -0.3503  0.0026  0.6960
  642TMC3    C8 9565   3.720   0.653  12.148 -0.0633 -0.5246  0.6591
  642TMC3    O1 9566   3.347   0.351  12.041  0.0644 -0.3305  0.4574
  642TMC3    O2 9567   3.793   0.732  12.203 -0.5007  0.1140  0.3822
  643TMC3    C1 9568   2.389   0.361  17.436  0.0452  0.2980 -0.5530
  643TMC3    C2 9569   2.260   0.350  17.397 -0.2013  0.3930 -0.1075
  643TMC3    C3 9570   2.229   0.258  17.302  0.0589  0.4099  0.0580
  643TMC3    C4 9571   2.489   0.278  17.399 -0.7200  0.4434 -0.3741
  643TMC3    C5 9572   2.457   0.187  17.304  0.3565 -0.4587 -0.3160
  643TMC3    C6 9573   2.325   0.168  17.261  0.7131 -0.2866  1.0579
  643TMC3     C 9574   2.421   0.498  17.457 -0.2172 -0.2644  0.0941
  643TMC3     O 9575   2.362   0.576  17.385 -0.1832 -0.3781  0.1975
  643TMC3     H 9576   2.182   0.415  17.435  0.3738 -0.1678  2.0222
  643TMC3    H1 9577   2.594   0.304  17.410 -0.3520 -1.6697  1.2286
  643TMC3    H2 9578   2.306   0.109  17.173  3.4381  1.1068 -0.4670
  643TMC3    C7 9579   2.550   0.178  17.192 -0.5064  0.4476 -0.6864
  643TMC3    C8 9580   2.149   0.307  17.194 -0.0332 -0.5579  0.3523
  643TMC3    O1 9581   2.632   0.271  17.183  0.2942 -0.4311 -0.1395
  643TMC3    O2 9582   2.079   0.228  17.131 -0.4194  0.5356  0.0419
  644MPD2     C 9583   3.056   0.817   9.163  0.0068 -0.5935 -0.1297
  644MPD2    C1 9584   2.980   0.714   9.116 -0.5761  0.1260  0.0030
  644MPD2    C2 9585   2.858   0.737   9.057  0.2558 -0.1580 -0.6217
  644MPD2    C3 9586   2.805   0.858   9.073 -0.0714  0.0357 -0.2624
  644MPD2    C4 9587   2.875   0.961   9.127 -0.3313 -0.4199  0.6109
  644MPD2    C5 9588   3.003   0.938   9.176 -0.3673  0.5613 -0.1420
  644MPD2     H 9589   2.789   0.663   9.018 -1.8408  1.2338  0.4308
  644MPD2    H1 9590   2.835   1.061   9.143 -0.1253 -0.3238  0.5261
  644MPD2    H2 9591   3.157   0.792   9.193  0.4693  1.6119  0.1475
  644MPD2    H3 9592   3.061   1.021   9.216 -0.5106  0.5305  0.1283
  644MPD2     N 9593   2.677   0.870   9.015 -0.1589  0.5105  0.2069
  644MPD2    H5 9594   2.629   0.792   8.970  1.4046 -0.0671 -0.4544
  644MPD2    N1 9595   3.042   0.580   9.118 -0.1230  0.3669 -0.0640
  644MPD2    H7 9596   3.129   0.568   9.168 -0.9176 -2.9084  0.5038
  645TMC3    C1 9597   2.463   0.970   8.972  0.1905  0.7738 -0.1346
  645TMC3    C2 9598   2.397   1.074   8.910  0.1220 -0.4437 -0.0191
  645TMC3    C3 9599   2.259   1.054   8.888 -0.1027 -0.5021 -0.2353
  645TMC3    C4 9600   2.395   0.866   9.027  0.9296 -0.2710 -0.5815
  645TMC3    C5 9601   2.263   0.851   9.002  0.0584 -0.0441 -0.3335
  645TMC3    C6 9602   2.194   0.946   8.935  0.4081 -0.6468  0.2108
  645TMC3     C 9603   2.607   0.987   9.002 -0.2524  0.2414 -0.6637
  645TMC3     O 9604   2.646   1.100   9.024 -0.4749 -0.3788 -0.1391
  645TMC3     H 9605   2.455   1.162   8.883  1.2713 -1.7477 -1.7322
  645TMC3    H1 9606   2.454   0.797   9.087 -1.6949 -0.3234  1.8952
  645TMC3    H2 9607   2.086   0.939   8.934  0.4406 -1.1607  0.4776
  645TMC3    C7 9608   2.190   0.731   9.050  0.4879  0.2389 -0.0269
  645TMC3    C8 9609   2.199   1.122   8.792  0.0588 -0.4272 -0.5210
  645TMC3    O1 9610   2.072   0.732   9.061  0.2190 -0.1611  0.3076
  645TMC3    O2 9611   2.085   1.087   8.763 -0.3984 -0.0740  0.5204
  646MPD2     C 9612   1.873   4.602  13.942  0.2455 -0.2968  0.0967
  646MPD2    C1 9613   1.805   4.654  14.050  0.4627 -0.3312 -0.1322
  646MPD2    C2 9614   1.703   0.014  14.022 -0.3298  0.3625  0.0718
  646MPD2    C3 9615   1.676   0.047  13.895 -0.6192  0.2480  0.7162
  646MPD2    C4 9616   1.734   4.718  13.787 -0.4699 -0.4265  0.8299
  646MPD2    C5 9617   1.835   4.632  13.812  0.2235 -0.5827 -0.0179
  646MPD2     H 9618   1.646   0.070  14.095 -1.2446 -0.7734  0.2382
  646MPD2    H1 9619   1.704   0.008  13.685  0.9589  0.0255  0.5285
  646MPD2    H2 9620   1.960   4.538  13.952 -0.4067 -1.4053 -1.3546
  646MPD2    H3 9621   1.885   4.580  13.731  2.3480  0.7570  0.4348
  646MPD2     N 9622   1.576   0.149  13.871 -0.2358  0.3374  0.0822
  646MPD2    H5 9623   1.511   0.180  13.943 -0.4575 -1.3083  0.5791
  646MPD2    N1 9624   1.846   4.613  14.182 -0.2386 -0.5066 -0.6902
  646MPD2    H7 9625   1.925   4.549  14.187  0.3887  0.3561  0.5697
  647TMC3    C1 9626   1.855   4.583  14.403 -0.5417  0.4693 -0.4151
  647TMC3    C2 9627   1.770   4.564  14.510  0.2772 -0.5276 -0.0638
  647TMC3    C3 9628   1.829   4.560  14.635  0.6635 -1.0680  0.5677
  647TMC3    C4 9629   1.985   4.618  14.422 -0.1708 -0.3372  0.2081
  647TMC3    C5 9630   2.037   4.595  14.546 -0.0658  0.2716 -0.7997
  647TMC3    C6 9631   1.961   4.575  14.660  0.1832 -0.6290 -0.1041
  647TMC3     C 9632   1.779   4.639  14.299  0.0773  0.8234 -0.7922
  647TMC3     O 9633   1.674   4.695  14.315 -0.1804 -0.0686  0.2797
  647TMC3     H 9634   1.664   4.544  14.498 -0.3281  2.2168  0.6690
  647TMC3    H1 9635   2.043   4.664  14.342 -0.2707  0.7353  0.7430
  647TMC3    H2 9636   2.015   4.539  14.748 -1.7116  1.6677  1.9783
  647TMC3    C7 9637   2.177   4.584  14.566  0.1207 -0.6903 -0.0296
  647TMC3    C8 9638   1.780   4.449  14.718 -0.5224 -0.1639  0.3805
  647TMC3    O1 9639   2.219   4.599  14.677 -0.0129  0.0064  0.3063
  647TMC3    O2 9640   1.824   4.436  14.832 -0.6378 -0.2600  0.3727
  648TMC3    C1 9641   0.912   2.228  15.786 -0.3429  0.1673 -0.2933
  648TMC3    C2 9642   1.003   2.125  15.768  0.6048  0.4278 -0.2736
  648TMC3    C3 9643   1.045   2.101  15.640  0.1070  0.2593  0.3154
  648TMC3    C4 9644   0.889   2.319  15.685  0.3990 -0.4853 -0.1431
  648TMC3    C5 9645   0.950   2.299  15.560  0.1692 -0.6637 -0.3157
  648TMC3    C6 9646   1.037   2.195  15.540 -0.0188 -0.2636 -0.3551
  648TMC3     C 9647   0.865   2.255  15.922  0.4558 -0.7565 -0.1725
  648TMC3     O 9648   0.819   2.368  15.943 -0.9133  0.2777 -0.3868
  648TMC3     H 9649   1.034   2.056  15.845 -1.3925 -0.6576 -0.4560
  648TMC3    H1 9650   0.819   2.399  15.704  0.2261 -1.2037  2.2558
  648TMC3    H2 9651   1.084   2.178  15.443 -1.1998 -2.1504 -0.6074
  648TMC3    C7 9652   0.919   2.384  15.450 -0.3198 -0.5942 -0.0431
  648TMC3    C8 9653   1.122   1.977  15.618 -0.0431  0.4258  0.3579
  648TMC3    O1 9654   0.910   2.336  15.339 -0.7047  0.4886  0.4046
  648TMC3    O2 9655   1.178   1.993  15.511 -0.5503 -0.8448  0.1328
  649TMC3    C1 9656   0.524   3.119  12.381 -0.0969  0.4300  0.6715
  649TMC3    C2 9657   0.630   3.035  12.380  0.2870  1.1042 -0.3958
  649TMC3    C3 9658   0.668   2.979  12.501  0.2483 -0.8826 -0.1362
  649TMC3    C4 9659   0.455   3.159  12.488 -0.9066 -0.0501 -0.1464
  649TMC3    C5 9660   0.489   3.104  12.612  0.4487  0.0823  0.4765
  649TMC3    C6 9661   0.594   3.014  12.616  0.2355 -0.3163  0.5028
  649TMC3     C 9662   0.480   3.184  12.257 -0.4557 -0.4061 -0.7263
  649TMC3     O 9663   0.367   3.227  12.265 -0.2555  0.3987 -0.3918
  649TMC3     H 9664   0.680   3.005  12.289 -0.4372 -1.3837  0.0503
  649TMC3    H1 9665   0.377   3.234  12.485 -1.8835 -1.0956 -0.6625
  649TMC3    H2 9666   0.622   2.972  12.712 -0.9426 -0.7599  0.6539
  649TMC3    C7 9667   0.381   3.060  12.700  0.0566  0.7113  0.0649
  649TMC3    C8 9668   0.798   2.921  12.519 -0.5176  0.9759 -0.2910
  649TMC3    O1 9669   0.273   3.087  12.650 -0.3941 -0.7718  0.7214
  649TMC3    O2 9670   0.837   2.925  12.637  0.0890 -0.2807  0.0833
  650TMC3    C1 9671   2.565   0.027  12.182  0.7316 -0.4711 -0.1767
  650TMC3    C2 9672   2.529   0.105  12.293  0.3414 -0.3659 -0.0531
  650TMC3    C3 9673   2.469   0.227  12.267  0.0243 -0.2117  0.6958
  650TMC3    C4 9674   2.540   0.063  12.054 -0.2074  0.5522 -0.8733
  650TMC3    C5 9675   2.496   0.193  12.034  0.3798  0.6981 -0.1853
  650TMC3    C6 9676   2.467   0.275  12.137  0.2774  0.1506 -0.1058
  650TMC3     C 9677   2.617   4.626  12.213  0.5613  0.0324 -0.7019
  650TMC3     O 9678   2.615   4.590  12.332 -0.8839  0.1399  0.1567
  650TMC3     H 9679   2.542   0.074  12.396  1.1799 -0.4671 -0.1837
  650TMC3    H1 9680   2.537   4.728  11.972  1.4404 -3.0270  2.1004
  650TMC3    H2 9681   2.434   0.378  12.131 -1.6083 -0.3864  0.8619
  650TMC3    C7 9682   2.475   0.242  11.900 -0.1150  0.2258  0.4458
  650TMC3    C8 9683   2.444   0.322  12.374  0.3993 -0.3454 -0.0265
  650TMC3    O1 9684   2.477   0.163  11.804  0.0449  0.3352  0.1474
  650TMC3    O2 9685   2.475   0.438  12.350 -0.2090 -0.2804 -0.4804
  651MPD2     C 9686   1.466   1.775  10.236 -0.6698  0.5351  0.0949
  651MPD2    C1 9687   1.452   1.909  10.241  0.4350  0.9470 -0.0024
  651MPD2    C2 9688   1.559   1.985  10.198  0.1862  0.4148  0.3050
  651MPD2    C3 9689   1.678   1.932  10.146 -0.3606  0.3123 -0.3488
  651MPD2    C4 9690   1.682   1.794  10.140 -1.0140 -0.0861 -0.3354
  651MPD2    C5 9691   1.579   1.716  10.186  0.2211 -0.3374  0.5350
  651MPD2     H 9692   1.544   2.092  10.197 -1.7396  0.1524  0.5426
  651MPD2    H1 9693   1.765   1.738  10.097 -0.2303  1.6966 -1.1765
  651MPD2    H2 9694   1.392   1.705  10.272  0.1173 -0.0180  0.6450
  651MPD2    H3 9695   1.589   1.609  10.173 -0.1967 -0.5426  1.8881
  651MPD2     N 9696   1.770   2.021  10.090  0.7245 -0.5490  0.3125
  651MPD2    H5 9697   1.753   2.117  10.062 -2.5443 -0.0467  3.9401
  651MPD2    N1 9698   1.340   1.976  10.290 -0.6115  0.4463  0.1837
  651MPD2    H7 9699   1.331   2.076  10.275 -0.8938  0.3035 -0.6050
  652TMC3    C1 9700   2.183   2.174   9.950 -0.1733  0.4429  0.4309
  652TMC3    C2 9701   2.115   2.062   9.997 -0.4090 -0.6089 -0.3073
  652TMC3    C3 9702   1.978   2.069   9.985 -0.3526  1.1478  0.5455
  652TMC3    C4 9703   2.117   2.286   9.912 -0.4636  0.1439  0.2342
  652TMC3    C5 9704   1.983   2.284   9.902 -0.8714 -0.3875  0.8796
  652TMC3    C6 9705   1.909   2.172   9.925 -0.2005  0.4269 -0.2900
  652TMC3     C 9706   2.316   2.184  10.008 -0.2962 -0.2228 -0.2534
  652TMC3     O 9707   2.343   2.109  10.104 -0.2498 -0.3558  0.6724
  652TMC3     H 9708   2.167   1.974  10.034  1.5688 -0.5577 -3.0210
  652TMC3    H1 9709   2.158   2.385   9.892 -1.8147  0.2383 -2.0372
  652TMC3    H2 9710   1.801   2.181   9.918 -0.2387  0.9690  0.9532
  652TMC3    C7 9711   1.908   2.403   9.881  0.5237  0.4605  0.4636
  652TMC3    C8 9712   1.897   1.976  10.066 -0.3156  0.0391  0.3847
  652TMC3    O1 9713   1.825   2.399   9.792 -0.1292 -0.4593  0.5514
  652TMC3    O2 9714   1.953   1.873  10.097 -0.3019 -0.4298 -0.1981
  653MPD2     C 9715   0.283   2.482  17.387 -0.0739 -0.5978 -0.0676
  653MPD2    C1 9716   0.227   2.574  17.297 -0.2688 -0.0307 -0.2412
  653MPD2    C2 9717   0.163   2.525  17.188 -0.0896 -0.1418  0.6329
  653MPD2    C3 9718   0.159   2.387  17.162 -0.0672  0.6920 -0.0980
  653MPD2    C4 9719   0.214   2.304  17.253  0.4723 -1.0329 -0.5776
  653MPD2    C5 9720   0.280   2.348  17.360  0.2431 -0.1570 -0.5138
  653MPD2     H 9721   0.115   2.595  17.121  1.4338  0.2564 -0.0309
  653MPD2    H1 9722   0.210   2.196  17.239 -2.8710 -1.1513  1.5270
  653MPD2    H2 9723   0.324   2.515  17.482  3.1128 -1.9710 -0.9478
  653MPD2    H3 9724   0.313   2.275  17.434  0.4068  2.4356  1.9749
  653MPD2     N 9725   0.088   2.352  17.047 -0.2752 -0.1669 -0.2404
  653MPD2    H5 9726   0.056   2.428  16.988 -1.5086 -1.6318 -1.4598
  653MPD2    N1 9727   0.217   2.719  17.324 -0.5248 -0.0125  0.3611
  653MPD2    H7 9728   0.155   2.774  17.266 -0.3002 -0.2130 -0.0680
  654TMC3    C1 9729   4.730   2.218  16.876 -0.3161 -0.1294  0.5109
  654TMC3    C2 9730   4.620   2.294  16.861 -0.3807 -0.1870 -0.3010
  654TMC3    C3 9731   4.542   2.266  16.751 -1.0247 -0.0296 -0.4066
  654TMC3    C4 9732   0.024   2.111  16.797  0.0135 -0.6589 -0.7817
  654TMC3    C5 9733   4.667   2.080  16.701  0.3840 -0.1633  0.4338
  654TMC3    C6 9734   4.566   2.167  16.663  0.8176 -0.0092 -0.4501
  654TMC3     C 9735   0.065   2.216  16.999 -0.1243 -0.4879  1.1744
  654TMC3     O 9736   0.108   2.108  17.041 -0.0063  0.4426 -0.0113
  654TMC3     H 9737   4.595   2.370  16.935 -1.9891 -1.5914  0.5900
  654TMC3    H1 9738   0.100   2.040  16.826 -0.6324 -0.9889  0.1050
  654TMC3    H2 9739   4.517   2.158  16.566 -0.4560  1.6638  0.0352
  654TMC3    C7 9740   4.687   1.958  16.615 -0.7977 -0.0093 -0.3283
  654TMC3    C8 9741   4.425   2.348  16.722  0.2360  0.6484  0.9626
  654TMC3    O1 9742   4.622   1.946  16.509  0.0903  0.9909  1.1209
  654TMC3    O2 9743   4.331   2.306  16.650 -0.9487  0.2387 -0.1892
  655MPD2     C 9744   1.551   2.358  15.396 -0.0756 -0.4101 -0.1020
  655MPD2    C1 9745   1.510   2.465  15.322 -0.0647  0.4991 -0.0696
  655MPD2    C2 9746   1.546   2.468  15.187  0.5394 -0.6870  0.2156
  655MPD2    C3 9747   1.604   2.358  15.127 -0.1107 -0.3201  0.5835
  655MPD2    C4 9748   1.634   2.252  15.198 -0.4872  0.9661 -0.5922
  655MPD2    C5 9749   1.618   2.259  15.333  0.1367  0.2855 -0.6741
  655MPD2     H 9750   1.511   2.560  15.141  1.6027  1.7739  4.3610
  655MPD2    H1 9751   1.673   2.158  15.160 -1.0951 -0.5592  2.5533
  655MPD2    H2 9752   1.546   2.340  15.503  2.2564  1.6951  0.3571
  655MPD2    H3 9753   1.651   2.170  15.384 -0.6151  0.1867 -0.3602
  655MPD2     N 9754   1.621   2.349  14.985  0.3298 -0.1004 -1.0815
  655MPD2    H5 9755   1.631   2.256  14.948  2.1020 -0.1254 -0.5378
  655MPD2    N1 9756   1.439   2.571  15.385  0.0218  0.3925  0.7763
  655MPD2    H7 9757   1.416   2.655  15.334  2.0767  1.2396  1.2146
  656TMC3    C1 9758   1.301   2.688  15.531  0.0922 -0.9594 -0.1362
  656TMC3    C2 9759   1.197   2.678  15.624 -0.3190  0.6578  0.2471
  656TMC3    C3 9760   1.122   2.788  15.649  0.8644 -0.1928 -0.1784
  656TMC3    C4 9761   1.330   2.810  15.465  0.6060  0.2322  0.4600
  656TMC3    C5 9762   1.241   2.902  15.473  0.0774  0.5756 -0.1070
  656TMC3    C6 9763   1.136   2.903  15.564  0.1375 -0.0180  0.0812
  656TMC3     C 9764   1.381   2.567  15.506  0.4108  0.3078 -0.9880
  656TMC3     O 9765   1.348   2.466  15.566  0.3777  0.2987 -0.3260
  656TMC3     H 9766   1.180   2.580  15.666 -0.2361  1.4266  2.0866
  656TMC3    H1 9767   1.416   2.823  15.401 -1.5763  2.4734 -1.9751
  656TMC3    H2 9768   1.096   3.000  15.589  0.3131  0.0844 -0.0349
  656TMC3    C7 9769   1.203   2.963  15.350 -0.2807  0.1706 -0.2720
  656TMC3    C8 9770   1.006   2.769  15.729 -0.3985 -0.2087  0.2901
  656TMC3    O1 9771   1.295   2.976  15.269  0.2471 -0.2009  0.6401
  656TMC3    O2 9772   0.984   2.648  15.747  0.1137  0.2066 -0.0549
  657TMC3    C1 9773   0.239   1.725  14.910  0.4571 -0.8117 -0.0754
  657TMC3    C2 9774   0.235   1.631  15.008  0.3471  0.0837  0.5696
  657TMC3    C3 9775   0.152   1.646  15.120  0.4242 -0.3488  0.3361
  657TMC3    C4 9776   0.151   1.833  14.910 -0.5199  0.4947 -0.0832
  657TMC3    C5 9777   0.059   1.840  15.022 -0.1686  0.4095  0.3764
  657TMC3    C6 9778   0.060   1.746  15.123  0.3249  0.3492  0.5014
  657TMC3     C 9779   0.354   1.727  14.817 -0.0429  0.2859 -0.5289
  657TMC3     O 9780   0.359   1.820  14.736 -0.0994 -0.2645 -0.0174
  657TMC3     H 9781   0.302   1.546  15.013  2.1149  1.3260 -2.5564
  657TMC3    H1 9782   0.159   1.909  14.833 -0.7740  0.4082 -0.1955
  657TMC3    H2 9783   4.724   1.765  15.202 -0.4184 -0.8996  0.1437
  657TMC3    C7 9784   4.695   1.946  15.030 -0.2144  0.2470 -0.5149
  657TMC3    C8 9785   0.183   1.585  15.247  0.6661 -0.2597  0.2926
  657TMC3    O1 9786   4.610   1.940  15.113 -0.1660  0.2204 -0.2897
  657TMC3    O2 9787   0.092   1.590  15.329 -0.3176  0.0734  0.0035
  658MPD2     C 9788   1.980   2.738  14.457  0.4072 -0.5381 -0.1776
  658MPD2    C1 9789   1.888   2.664  14.388  0.1027  0.2460  0.5169
  658MPD2    C2 9790   1.866   2.688  14.254  0.3789  0.5231 -0.4799
  658MPD2    C3 9791   1.950   2.773  14.189  0.5544  0.6681 -0.8495
  658MPD2    C4 9792   2.046   2.839  14.263  0.9961 -0.2086 -0.1068
  658MPD2    C5 9793   2.063   2.815  14.394 -0.2339  0.0282  0.3433
  658MPD2     H 9794   1.780   2.643  14.205  1.8427 -2.4567 -0.3294
  658MPD2    H1 9795   2.126   2.896  14.216 -0.1517  1.6450  0.2296
  658MPD2    H2 9796   1.991   2.731  14.565 -0.4328  0.6640 -0.0108
  658MPD2    H3 9797   2.135   2.877  14.447 -0.2399 -0.1492  0.5571
  658MPD2     N 9798   1.945   2.770  14.045  0.1539  0.2597  0.1984
  658MPD2    H5 9799   1.885   2.703  13.999  0.8900 -0.1088 -0.2217
  658MPD2    N1 9800   1.811   2.576  14.468  0.0100  0.3594 -0.3492
  658MPD2    H7 9801   1.837   2.549  14.562  1.5103  0.0199 -0.8596
  659TMC3    C1 9802   1.621   2.458  14.542  0.3424  0.2417 -0.0675
  659TMC3    C2 9803   1.667   2.484  14.669  0.2734 -0.1681 -0.2611
  659TMC3    C3 9804   1.622   2.400  14.761  0.6080 -0.6418 -0.7376
  659TMC3    C4 9805   1.529   2.366  14.506  0.0890  0.3391 -0.1898
  659TMC3    C5 9806   1.484   2.287  14.604 -1.0126  0.6482 -0.7448
  659TMC3    C6 9807   1.538   2.295  14.732  0.6011  0.5224  0.2063
  659TMC3     C 9808   1.692   2.515  14.431 -0.4787  0.9314 -0.0542
  659TMC3     O 9809   1.633   2.518  14.322 -0.0334  0.4734 -0.2429
  659TMC3     H 9810   1.730   2.567  14.700 -2.6671  1.2057  2.0143
  659TMC3    H1 9811   1.508   2.354  14.400  2.7454  3.5771 -1.0964
  659TMC3    H2 9812   1.492   2.235  14.810  0.2147  0.4034 -0.1117
  659TMC3    C7 9813   1.359   2.203  14.593 -0.6944  0.7203 -1.0863
  659TMC3    C8 9814   1.632   2.453  14.897  0.0939  0.1679  0.0613
  659TMC3    O1 9815   1.339   2.119  14.679 -0.4664  0.0479 -0.0548
  659TMC3    O2 9816   1.657   2.573  14.917 -0.2400  0.4253  0.2695
  660MPD2     C 9817   0.039   0.890  12.619  0.4208 -0.2895 -0.1903
  660MPD2    C1 9818   4.640   0.927  12.593  0.1195 -0.8209  0.0259
  660MPD2    C2 9819   4.536   0.876  12.683 -0.1596 -0.2152  0.0239
  660MPD2    C3 9820   4.573   0.810  12.799 -0.3590 -0.1137  0.1798
  660MPD2    C4 9821   4.703   0.786  12.825  0.0092 -0.0236 -0.5663
  660MPD2    C5 9822   0.068   0.823  12.732 -0.7631 -0.1154 -0.2634
  660MPD2     H 9823   4.432   0.890  12.658 -0.1613  1.6559  1.0598
  660MPD2    H1 9824   0.008   0.735  12.912 -2.4363 -0.6008  0.1986
  660MPD2    H2 9825   0.118   0.922  12.552  2.5624  2.0432  3.4461
  660MPD2    H3 9826   0.171   0.806  12.758 -0.8876 -1.9438 -0.9479
  660MPD2     N 9827   4.481   0.773  12.897 -0.1900 -0.3953  0.5601
  660MPD2    H5 9828   4.521   0.729  12.980  2.3901  1.0901  0.1083
  660MPD2    N1 9829   4.608   1.014  12.478  0.6540  0.5554  0.1202
  660MPD2    H7 9830   4.689   1.024  12.417 -0.2350 -0.8431 -1.2866
  661TMC3    C1 9831   4.490   1.176  12.347  0.6261 -0.1375  0.9314
  661TMC3    C2 9832   4.563   1.137  12.237 -1.0092 -0.1718 -0.2245
  661TMC3    C3 9833   4.513   1.182  12.116 -0.1313  0.6670  0.1100
  661TMC3    C4 9834   4.372   1.251  12.338 -0.4898  0.5568  0.5151
  661TMC3    C5 9835   4.332   1.290  12.213  0.0393 -0.5936  0.0026
  661TMC3    C6 9836   4.402   1.254  12.097 -0.3819  0.0582 -0.3961
  661TMC3     C 9837   4.488   1.082  12.457  0.8930  0.2375  0.8240
  661TMC3     O 9838   4.388   1.083  12.522  0.2485  0.0219  0.2414
  661TMC3     H 9839   4.644   1.066  12.240  0.5764  1.6440  0.0848
  661TMC3    H1 9840   4.316   1.278  12.426 -0.8824  1.5043 -0.0312
  661TMC3    H2 9841   4.365   1.278  11.998  0.2330  1.1127 -0.3670
  661TMC3    C7 9842   4.186   1.308  12.213 -0.0723 -0.1985 -0.0817
  661TMC3    C8 9843   4.571   1.127  11.994  0.2318  0.1100  0.3488
  661TMC3    O1 9844   4.142   1.401  12.283  0.0063 -0.6886 -0.0002
  661TMC3    O2 9845   4.630   1.021  12.002 -0.0667  0.3346 -1.1687
  662MPD2     C 9846   0.087   1.162  17.196 -0.3382  0.9024 -0.2634
  662MPD2    C1 9847   4.722   1.063  17.191 -0.0445 -0.0124  0.4338
  662MPD2    C2 9848   4.592   1.104  17.153 -0.7181 -0.5149 -0.0596
  662MPD2    C3 9849   4.559   1.234  17.126 -0.2580 -0.4480 -0.2810
  662MPD2    C4 9850   4.660   1.333  17.149  0.6059  0.2963 -0.0395
  662MPD2    C5 9851   0.049   1.293  17.182  0.0290  0.4734  0.0628
  662MPD2     H 9852   4.515   1.027  17.156 -0.6020 -0.6657 -0.9750
  662MPD2    H1 9853   4.642   1.438  17.135 -0.2370  0.1718  0.0966
  662MPD2    H2 9854   0.188   1.127  17.214 -0.4122  0.1023 -1.4613
  662MPD2    H3 9855   0.126   1.370  17.185  2.1698 -1.6141 -1.5045
  662MPD2     N 9856   4.437   1.284  17.071  0.0434 -0.5285 -0.2068
  662MPD2    H5 9857   4.422   1.384  17.060  0.7089 -0.6315 -2.1885
  662MPD2    N1 9858   0.016   0.924  17.216 -0.6892 -0.0287  0.1303
  662MPD2    H7 9859   4.676   0.864  17.184  0.2838 -0.5167 -1.1945
  663TMC3    C1 9860   0.121   0.727  17.286 -0.3253  0.2676 -0.5320
  663TMC3    C2 9861   0.172   0.656  17.389  0.2437  0.0833  0.1406
  663TMC3    C3 9862   0.154   0.522  17.392 -0.3174  0.3555  0.4833
  663TMC3    C4 9863   0.054   0.668  17.178 -0.4405 -0.7703 -0.4958
  663TMC3    C5 9864   0.026   0.537  17.195  0.8378 -0.5261  0.3797
  663TMC3    C6 9865   0.076   0.460  17.297 -0.6165 -0.2512 -0.0471
  663TMC3     C 9866   0.128   0.872  17.276  0.1722 -0.7306 -0.3387
  663TMC3     O 9867   0.222   0.930  17.330 -0.4879  0.1295  0.0983
  663TMC3     H 9868   0.245   0.703  17.454 -1.1417  0.7430  1.2185
  663TMC3    H1 9869   0.030   0.723  17.088  0.9311  2.1610  0.9174
  663TMC3    H2 9870   0.057   0.354  17.301  1.8282 -0.8293 -3.1014
  663TMC3    C7 9871   4.701   0.470  17.080 -0.2643 -0.1838 -0.4482
  663TMC3    C8 9872   0.130   0.480  17.532 -0.8853  0.1439  0.1477
  663TMC3    O1 9873   4.693   0.542  16.980 -0.6168 -0.4142 -0.0680
  663TMC3    O2 9874   0.221   0.523  17.603  0.2468  0.4071 -0.6969
  664MPD2     C 9875   2.647   3.448  17.420  0.2239  0.5548 -0.2903
  664MPD2    C1 9876   2.664   3.582  17.417  0.8289 -0.3430  1.3041
  664MPD2    C2 9877   2.656   3.664  17.531 -0.0427 -0.1176  0.3824
  664MPD2    C3 9878   2.625   3.603  17.647  0.4319 -0.3131 -0.4765
  664MPD2    C4 9879   2.597   3.468  17.654  0.2107  0.3009 -0.3696
  664MPD2    C5 9880   2.609   3.386  17.542  0.3334 -0.1176  0.0148
  664MPD2     H 9881   2.667   3.772  17.522  0.8166 -0.3844 -1.5636
  664MPD2    H1 9882   2.557   3.416   0.001  1.2720  1.3764  0.7741
  664MPD2    H2 9883   2.658   3.374  17.342 -0.2284  1.8339 -1.5649
  664MPD2    H3 9884   2.596   3.279  17.546  2.1130 -0.5188 -5.0121
  664MPD2     N 9885   2.600   3.685   0.017  0.0342 -0.6805 -0.3497
  664MPD2    H5 9886   2.616   3.785   0.002  0.6362 -0.7778 -0.3661
  664MPD2    N1 9887   2.667   3.653  17.293  0.1004  0.5559  0.1747
  664MPD2    H7 9888   2.669   3.755  17.297  0.8220  0.5478  0.0023
  665TMC3    C1 9889   2.543   3.765   0.224 -0.2519  0.3676 -0.0533
  665TMC3    C2 9890   2.538   3.741   0.355  0.3326 -0.0527 -0.3124
  665TMC3    C3 9891   2.507   3.844   0.446 -0.0357  0.7213  0.1750
  665TMC3    C4 9892   2.506   3.895   0.173  0.4682  0.6761  0.1962
  665TMC3    C5 9893   2.493   3.993   0.266  0.4923 -0.3463 -0.6233
  665TMC3    C6 9894   2.484   3.968   0.399  0.4899  0.1493 -0.0338
  665TMC3     C 9895   2.551   3.643   0.139  0.4403 -0.9990  0.3630
  665TMC3     O 9896   2.527   3.527   0.177 -0.1549 -0.3676 -0.1191
  665TMC3     H 9897   2.552   3.638   0.383  0.8363  0.2547  0.5847
  665TMC3    H1 9898   2.480   3.916   0.070  0.1771 -1.0375 -0.0842
  665TMC3    H2 9899   2.454   4.040   0.473  0.6439  0.1712  0.0072
  665TMC3    C7 9900   2.484   4.125   0.214  0.5249  0.1526  0.1930
  665TMC3    C8 9901   2.506   3.822   0.589  0.0158  0.8192  0.0008
  665TMC3    O1 9902   2.422   4.126   0.107 -0.0148 -0.1197  0.1465
  665TMC3    O2 9903   2.513   3.923   0.658 -0.3675 -0.0794 -0.4162
  666TMC3    C1 9904   2.401   4.223   9.770  0.1588 -0.4948  0.2719
  666TMC3    C2 9905   2.435   4.093   9.788 -0.5947 -0.2908  1.1419
  666TMC3    C3 9906   2.510   4.064   9.897 -0.2288  0.1722 -0.0791
  666TMC3    C4 9907   2.462   4.325   9.836  0.2982 -0.5051 -0.3282
  666TMC3    C5 9908   2.547   4.293   9.940 -0.3652 -0.2454  0.1615
  666TMC3    C6 9909   2.572   4.161   9.970 -0.2324 -0.1073 -0.2013
  666TMC3     C 9910   2.306   4.266   9.671 -0.1214  1.4366 -1.0636
  666TMC3     O 9911   2.330   4.372   9.625 -0.7330 -0.0070  1.0106
  666TMC3     H 9912   2.411   4.023   9.708 -0.0793  1.0082 -0.1480
  666TMC3    H1 9913   2.439   4.430   9.820 -1.3798 -0.8315  0.0288
  666TMC3    H2 9914   2.615   4.140  10.067 -0.6679 -2.1302 -0.4428
  666TMC3    C7 9915   2.533   4.366  10.068  0.6948 -0.1103 -0.0597
  666TMC3    C8 9916   2.456   3.947   9.971 -0.8625  1.0946  0.1660
  666TMC3    O1 9917   2.609   4.345  10.155 -0.0040 -0.7081  0.4125
  666TMC3    O2 9918   2.380   3.869   9.913 -0.4975 -0.0095  0.7914
  667MPD2     C 9919   3.355   3.730  14.316  0.7430 -0.8228 -0.0302
  667MPD2    C1 9920   3.382   3.760  14.448  0.1880 -0.0736 -0.2611
  667MPD2    C2 9921   3.354   3.663  14.545  0.2324  0.0568  0.0902
  667MPD2    C3 9922   3.293   3.543  14.517 -0.4598 -0.4511  0.0704
  667MPD2    C4 9923   3.270   3.515  14.382 -0.1978 -0.6202 -0.4674
  667MPD2    C5 9924   3.304   3.605  14.285  0.0369  0.2312 -0.0453
  667MPD2     H 9925   3.385   3.690  14.646 -0.0479  2.8192 -0.5689
  667MPD2    H1 9926   3.224   3.424  14.345  0.1765 -1.3184  0.7606
  667MPD2    H2 9927   3.372   3.801  14.235 -2.0622 -1.7284 -1.4363
  667MPD2    H3 9928   3.298   3.570  14.183  0.9255 -1.4484  0.4774
  667MPD2     N 9929   3.267   3.444  14.616  0.0326  0.7200  0.5847
  667MPD2    H5 9930   3.233   3.351  14.593 -0.4569  0.9844  0.2288
  667MPD2    N1 9931   3.438   3.880  14.491  1.2740  0.4962 -0.0387
  667MPD2    H7 9932   3.460   3.890  14.590 -0.8831 -2.5739  0.7461
  668TMC3    C1 9933   3.471   4.108  14.510  0.1334 -0.3549  0.0993
  668TMC3    C2 9934   3.541   4.218  14.473  0.3792 -0.6078  0.3884
  668TMC3    C3 9935   3.573   4.307  14.571 -0.2662 -0.2144 -0.2472
  668TMC3    C4 9936   3.412   4.096  14.633  0.3834  0.1423 -0.3685
  668TMC3    C5 9937   3.447   4.187  14.728 -0.3023  0.3320 -0.4620
  668TMC3    C6 9938   3.524   4.292  14.697  0.6110  0.0637 -0.4751
  668TMC3     C 9939   3.465   3.994  14.418 -0.0188  0.9829  0.1292
  668TMC3     O 9940   3.487   4.015  14.296  0.2306 -0.3638  0.2583
  668TMC3     H 9941   3.586   4.219  14.375 -0.7538  1.4505 -0.1139
  668TMC3    H1 9942   3.344   4.014  14.656  0.5399  0.1919  0.2644
  668TMC3    H2 9943   3.558   4.357  14.776 -2.6462 -0.8406  1.6854
  668TMC3    C7 9944   3.386   4.201  14.858 -0.6160  0.3411 -0.0543
  668TMC3    C8 9945   3.627   4.439  14.534 -0.5692 -0.3214 -0.0688
  668TMC3    O1 9946   3.445   4.262  14.950 -0.4668 -0.1417 -0.0730
  668TMC3    O2 9947   3.557   4.532  14.565  0.1418 -0.8382  0.0468
  669TMC3    C1 9948   1.417   3.579  14.496  0.4265  0.2979  0.2742
  669TMC3    C2 9949   1.327   3.618  14.396  0.1717 -0.4092 -0.4226
  669TMC3    C3 9950   1.363   3.711  14.297  0.8091 -0.7963 -0.1943
  669TMC3    C4 9951   1.547   3.633  14.497  0.6808  0.1673 -0.2037
  669TMC3    C5 9952   1.581   3.712  14.392  0.0737 -1.0484  0.1262
  669TMC3    C6 9953   1.492   3.745  14.299 -0.3675 -0.3683 -0.4923
  669TMC3     C 9954   1.380   3.479  14.593 -0.3341  0.5710  0.1771
  669TMC3     O 9955   1.266   3.470  14.628 -0.1595  0.9183 -0.0752
  669TMC3     H 9956   1.220   3.599  14.402  0.1874 -0.7080 -1.0361
  669TMC3    H1 9957   1.609   3.627  14.586  2.2526 -0.9033 -1.3640
  669TMC3    H2 9958   1.522   3.819  14.225  0.4733 -0.6021 -0.3807
  669TMC3    C7 9959   1.708   3.780  14.398 -0.8170  0.0324 -0.2578
  669TMC3    C8 9960   1.270   3.743  14.189 -0.0855 -0.6465 -0.5231
  669TMC3    O1 9961   1.722   3.861  14.309  0.2530  0.0153  0.2696
  669TMC3    O2 9962   1.159   3.700  14.228 -0.1169  0.1484  0.5342
  670MPD2     C 9963   4.640   1.483  13.634 -0.2239  0.0536  0.0256
  670MPD2    C1 9964   4.719   1.384  13.674  0.1869  0.2482 -0.0688
  670MPD2    C2 9965   4.701   1.310  13.796 -0.0701 -0.1452  0.5586
  670MPD2    C3 9966   4.577   1.333  13.862 -0.2134 -0.8542  0.2015
  670MPD2    C4 9967   4.498   1.444  13.820  0.0911 -0.3665  0.3684
  670MPD2    C5 9968   4.535   1.513  13.708 -0.5297  0.5387  0.4184
  670MPD2     H 9969   0.025   1.223  13.822  0.3981  0.2384  0.7711
  670MPD2    H1 9970   4.412   1.480  13.875 -0.4531  0.5035 -1.0513
  670MPD2    H2 9971   4.640   1.541  13.542  0.0525 -0.9545 -0.6180
  670MPD2    H3 9972   4.474   1.592  13.665 -0.8098  0.0296 -0.1226
  670MPD2     N 9973   4.541   1.259  13.975  0.4597  0.2590 -0.3989
  670MPD2    H5 9974   4.609   1.197  14.017 -1.8709 -2.1046 -0.1122
  670MPD2    N1 9975   0.102   1.368  13.604 -0.1256  0.0758 -0.3333
  670MPD2    H7 9976   0.126   1.435  13.532  2.0976 -0.6255 -0.2674
  671TMC3    C1 9977   4.404   1.124  14.112  0.7851  0.8513 -0.3789
  671TMC3    C2 9978   4.509   1.120  14.204  0.1637  0.5818 -0.6204
  671TMC3    C3 9979   4.539   0.993  14.248  0.0042 -0.1971 -0.3813
  671TMC3    C4 9980   4.309   1.029  14.091 -0.0696  0.2431  1.1286
  671TMC3    C5 9981   4.347   0.909  14.149  0.4296 -0.4949  0.1840
  671TMC3    C6 9982   4.453   0.890  14.232 -0.4181 -0.2238  0.1940
  671TMC3     C 9983   4.414   1.237  14.023  0.1424  0.3675 -0.1220
  671TMC3     O 9984   4.309   1.277  13.977 -0.4156 -0.8949  0.6283
  671TMC3     H 9985   4.586   1.196  14.206 -0.2495  0.9738  0.6717
  671TMC3    H1 9986   4.218   1.048  14.037 -0.6658 -1.8511  1.3724
  671TMC3    H2 9987   4.465   0.793  14.279 -0.1570 -1.6601 -2.8559
  671TMC3    C7 9988   4.306   0.781  14.086 -0.4626  0.4118  0.9427
  671TMC3    C8 9989   4.680   0.963  14.235 -0.2003  0.0052  0.1186
  671TMC3    O1 9990   4.359   0.681  14.124 -0.3283 -0.1227 -0.4979
  671TMC3    O2 9991   0.016   1.044  14.169 -0.2627  0.3915  0.0408
  672MPD2     C 9992   0.334   2.422   0.378 -0.0099 -0.7190 -0.5811
  672MPD2    C1 9993   0.424   2.318   0.370  0.8904  0.3640  0.2653
  672MPD2    C2 9994   0.547   2.344   0.422 -0.7685  0.5271  0.5256
  672MPD2    C3 9995   0.591   2.475   0.456  0.6756 -0.4752  0.0877
  672MPD2    C4 9996   0.497   2.573   0.445 -0.0327 -0.5063 -0.4276
  672MPD2    C5 9997   0.369   2.541   0.415  0.3108 -0.1376  0.5092
  672MPD2     H 9998   0.619   2.265   0.432 -1.2584 -0.0184 -0.2720
  672MPD2    H1 9999   0.496   2.676   0.479 -2.0246 -1.0458  1.1179
  672MPD2    H210000   0.232   2.419   0.341  0.8795 -2.6693 -2.8694
  672MPD2    H310001   0.300   2.624   0.413  1.2782  0.6021 -1.7291
  672MPD2     N10002   0.723   2.510   0.502 -0.8058 -0.1689  0.1223
  672MPD2    H510003   0.739   2.610   0.497  4.2966 -0.8968  1.5882
  672MPD2    N110004   0.388   2.198   0.299 -0.2056 -0.0096 -0.3714
  672MPD2    H710005   0.293   2.180   0.267 -0.1811 -2.3881  0.9028
  673TMC3    C110006   0.407   1.977   0.223 -0.3318 -0.4065 -0.1863
  673TMC3    C210007   0.487   1.870   0.228 -0.1397 -0.3762  0.2220
  673TMC3    C310008   0.431   1.755   0.184  0.4150  0.6371 -0.3753
  673TMC3    C410009   0.276   1.977   0.177  0.0227  0.3545  0.6779
  673TMC3    C510010   0.233   1.855   0.139 -0.2166 -0.2933 -0.6349
  673TMC3    C610011   0.308   1.747   0.138  0.0831 -0.5169 -0.4680
  673TMC3     C10012   0.471   2.103   0.252 -0.5331 -0.5297  0.1089
  673TMC3     O10013   0.590   2.105   0.245 -0.2544  0.5351  1.1501
  673TMC3     H10014   0.590   1.880   0.260  0.5942 -2.6699 -1.4638
  673TMC3    H110015   0.233   2.070   0.143 -1.7877 -1.6337 -2.4247
  673TMC3    H210016   0.256   1.656   0.108 -0.7610 -0.1992  0.0223
  673TMC3    C710017   0.114   1.850   0.055  0.3567  0.3648  0.8909
  673TMC3    C810018   0.511   1.639   0.156 -0.7064 -0.0917 -0.4429
  673TMC3    O110019   0.098   1.754  17.718  0.2025 -0.3382  0.1248
  673TMC3    O210020   0.466   1.548   0.086 -0.0983 -0.4007  0.0518
  674MPD2     C10021   4.560   2.434  17.256 -0.1490 -0.2807  0.8442
  674MPD2    C110022   4.506   2.307  17.257  0.0623 -0.8422  0.1898
  674MPD2    C210023   4.368   2.291  17.238 -0.3296  0.1221 -0.4567
  674MPD2    C310024   4.284   2.397  17.227  0.4054 -0.2967  0.8084
  674MPD2    C410025   4.337   2.527  17.231 -0.8556 -0.3078  0.1156
  674MPD2    C510026   4.474   2.536  17.246 -1.1159 -0.7711  0.2389
  674MPD2     H10027   4.318   2.195  17.235 -1.3405  0.6590 -0.7397
  674MPD2    H110028   4.276   2.617  17.237  0.2646  0.5377 -1.0802
  674MPD2    H210029   4.665   2.453  17.275 -1.0596  2.9946  2.6741
  674MPD2    H310030   4.521   2.633  17.245  1.3358 -1.9913 -3.7893
  674MPD2     N10031   4.150   2.375  17.230 -0.1502  0.0124  0.1367
  674MPD2    H510032   4.121   2.280  17.250 -2.2507  0.6266  0.0609
  674MPD2    N110033   4.590   2.202  17.284  0.1683  0.3086 -0.4326
  674MPD2    H710034   4.687   2.224  17.300 -0.3169  1.8508  0.3830
  675TMC3    C110035   4.673   1.990  17.309 -0.5921  0.7896  1.1762
  675TMC3    C210036   4.645   1.860  17.314 -0.3259 -0.8334  0.4170
  675TMC3    C310037   0.002   1.772  17.369  0.1062 -0.1193  0.5902
  675TMC3    C410038   0.045   2.038  17.380 -0.1529 -0.1293 -0.0807
  675TMC3    C510039   0.131   1.945  17.432 -0.3890 -0.0767 -0.5800
  675TMC3    C610040   0.118   1.809  17.427 -0.6122 -0.1109  0.1943
  675TMC3     C10041   4.557   2.072  17.283  0.8460 -1.2709 -0.2317
  675TMC3     O10042   4.453   2.018  17.252  0.3309 -0.4410  0.4927
  675TMC3     H10043   4.556   1.813  17.273  0.0334 -1.6797  0.6022
  675TMC3    H110044   0.070   2.144  17.385  0.7095 -0.3149 -0.5133
  675TMC3    H210045   0.176   1.735  17.480  0.7623  2.3780  2.1527
  675TMC3    C710046   0.235   1.997  17.509  0.1945  0.0014 -0.5512
  675TMC3    C810047   4.674   1.645  17.404  0.0271  0.5125  0.2348
  675TMC3    O110048   0.209   2.092  17.577  0.4156  0.1355  0.0352
  675TMC3    O210049   4.598   1.592  17.325  0.0112 -0.4619  0.2671
  676MPD2     C10050   2.873   4.474  10.866 -0.2528  0.8229 -0.4869
  676MPD2    C110051   2.760   4.435  10.939  0.0462  0.3386  0.4702
  676MPD2    C210052   2.737   4.299  10.950  0.3536 -0.8532  0.7147
  676MPD2    C310053   2.827   4.207  10.904 -0.9849 -0.8128  0.0241
  676MPD2    C410054   2.947   4.243  10.855 -0.3099  0.0823  0.3202
  676MPD2    C510055   2.968   4.379  10.833  0.9709 -0.5161  0.7642
  676MPD2     H10056   2.645   4.272  10.999  0.7936  0.1740  2.1179
  676MPD2    H110057   3.019   4.170  10.818 -2.6069 -0.1500 -3.7458
  676MPD2    H210058   2.887   4.577  10.834 -1.6568  1.7065  1.6834
  676MPD2    H310059   3.056   4.417  10.783  2.2055 -1.2356  2.3848
  676MPD2     N10060   2.801   4.065  10.912  0.1824 -0.4402  0.3167
  676MPD2    H510061   2.862   4.001  10.862  2.2558  2.2549 -0.6489
  676MPD2    N110062   2.655   4.510  10.987  0.8012 -0.1836 -0.2069
  676MPD2    H710063   2.569   4.463  11.014  1.4120 -0.8770  0.5296
  677TMC3    C110064   2.532   4.713  11.033  0.1016 -0.2165 -0.0702
  677TMC3    C210065   2.412   4.643  11.032  0.2694  0.8817 -0.8751
  677TMC3    C310066   2.316   4.697  11.119  1.0598 -0.1111 -0.1721
  677TMC3    C410067   2.545   0.097  11.110 -0.0078 -0.2517  0.4302
  677TMC3    C510068   2.444   0.139  11.196  0.1939 -0.0881  0.6906
  677TMC3    C610069   2.326   0.073  11.199  0.0719 -0.6500  0.0467
  677TMC3     C10070   2.657   4.649  10.990 -0.4208  0.2421  0.2339
  677TMC3     O10071   2.757   4.717  10.976  0.1431  0.4664 -0.1950
  677TMC3     H10072   2.396   4.547  10.984  1.2178  0.1467  0.2902
  677TMC3    H110073   2.641   0.148  11.104 -0.2802  0.4093  1.6974
  677TMC3    H210074   2.245   0.104  11.264  0.5085 -0.6844  0.6001
  677TMC3    C710075   2.482   0.200  11.330  0.5183  0.0918  0.3777
  677TMC3    C810076   2.193   4.619  11.134 -0.8118 -0.9976  0.0838
  677TMC3    O110077   2.402   0.196  11.424 -0.0544  0.0076  0.1686
  677TMC3    O210078   2.115   4.631  11.040 -0.4614 -0.1154  0.4686
  678MPD2     C10079   4.191   4.577   0.625  0.1802 -0.0529 -0.4313
  678MPD2    C110080   4.080   4.497   0.616  0.0972 -0.3370 -0.5198
  678MPD2    C210081   3.965   4.565   0.590  0.2834 -0.6104 -0.7656
  678MPD2    C310082   3.960   4.701   0.549 -0.1978  0.7492 -0.4170
  678MPD2    C410083   4.069   0.045   0.561  0.0823  0.1567 -0.8757
  678MPD2    C510084   4.186   4.709   0.591  0.3248 -0.3016 -0.1099
  678MPD2     H10085   3.873   4.509   0.573 -1.1772  1.0820  1.5204
  678MPD2    H110086   4.070   0.146   0.522 -1.2819  0.3236 -0.4813
  678MPD2    H210087   4.288   4.530   0.640  1.5390  2.5046 -1.1738
  678MPD2    H310088   4.278   0.031   0.598 -1.0521  1.8350  0.4647
  678MPD2     N10089   3.836   0.026   0.521 -0.6426  0.1518  0.2838
  678MPD2    H510090   3.753   4.703   0.529  1.3993 -2.4280  2.5618
  678MPD2    N110091   4.087   4.357   0.634  0.0142 -0.3820  0.6657
  678MPD2    H710092   3.997   4.319   0.607  1.8353 -4.2862 -0.0638
  679TMC3    C110093   4.314   3.961   0.576  0.2280 -0.1999  0.3308
  679TMC3    C210094   4.298   4.070   0.656 -0.4015 -1.0770 -0.3126
  679TMC3    C310095   4.182   4.137   0.642  0.7377  0.2833  0.6958
  679TMC3    C410096   4.220   3.922   0.483  0.2447  0.2158  0.1629
  679TMC3    C510097   4.108   3.997   0.468 -0.3873 -0.7957  0.5697
  679TMC3    C610098   4.092   4.103   0.547 -0.2817  0.3238  0.1091
  679TMC3     C10099   4.440   3.893   0.567  0.1645  0.4217 -0.2454
  679TMC3     O10100   4.548   3.949   0.590  0.5318 -0.2887  0.1165
  679TMC3     H10101   4.374   4.095   0.729  1.0324 -1.2813 -1.7418
  679TMC3    H110102   4.230   3.844   0.409 -0.1892  0.3060  0.0091
  679TMC3    H210103   3.991   4.141   0.558 -0.3245 -0.6325  3.0711
  679TMC3    C710104   4.106   4.041   0.323  0.5401  0.6219 -0.8632
  679TMC3    C810105   4.196   4.283   0.673 -0.1597 -0.8630  0.1853
  679TMC3    O110106   4.165   3.973   0.243  0.0667  0.3196  0.0709
  679TMC3    O210107   4.309   4.317   0.705 -0.0084  0.3646  0.1897
  680MPD2     C10108   4.331   3.493  12.978  0.0568 -0.0357  0.1376
  680MPD2    C110109   4.420   3.422  13.053  0.4637  0.4629 -0.2643
  680MPD2    C210110   4.507   3.488  13.135  0.3040 -0.3466 -0.3878
  680MPD2    C310111   4.515   3.629  13.132  0.3756  0.2555 -0.2476
  680MPD2    C410112   4.434   3.695  13.048 -0.8089 -0.1213 -0.4304
  680MPD2    C510113   4.341   3.626  12.973 -0.1739  0.3629 -0.4773
  680MPD2     H10114   4.556   3.435  13.217  0.6255 -1.4630 -1.2902
  680MPD2    H110115   4.435   3.801  13.030  2.2091 -0.2034 -0.8125
  680MPD2    H210116   4.267   3.446  12.904  1.5458 -2.2409  0.2502
  680MPD2    H310117   4.274   3.683  12.909 -3.4832 -1.4462  1.3886
  680MPD2     N10118   4.598   3.704  13.209  0.0927 -0.0930 -0.6156
  680MPD2    H510119   4.609   3.804  13.197 -2.8167  0.3134  0.1266
  680MPD2    N110120   4.411   3.284  13.071  0.3231  0.1890 -0.4424
  680MPD2    H710121   4.486   3.236  13.120  2.6305  1.1220 -3.0187
  681TMC3    C110122   4.337   3.065  13.036  0.6508  0.1416  0.5305
  681TMC3    C210123   4.233   2.997  13.092  0.3803 -0.2423  0.1124
  681TMC3    C310124   4.258   2.869  13.124 -0.1952  0.7064 -0.0366
  681TMC3    C410125   4.470   3.022  13.036 -0.1221  0.3186 -0.1370
  681TMC3    C510126   4.482   2.892  13.085  0.6911  0.0777 -0.1287
  681TMC3    C610127   4.379   2.812  13.122 -0.4578 -0.7089  1.2701
  681TMC3     C10128   4.305   3.202  13.036 -0.0704 -0.0388  0.4631
  681TMC3     O10129   4.193   3.234  12.996  0.4464 -0.1907 -0.0044
  681TMC3     H10130   4.135   3.043  13.102 -0.5231 -2.1209 -0.0783
  681TMC3    H110131   4.560   3.080  13.022  0.3459 -0.9394 -2.3794
  681TMC3    H210132   4.388   2.709  13.153  0.8840 -1.2444 -0.9381
  681TMC3    C710133   4.625   2.840  13.094 -0.0395 -0.2752 -0.4181
  681TMC3    C810134   4.176   2.817  13.231  0.6903 -0.7414 -0.2944
  681TMC3    O110135   4.658   2.737  13.152 -0.2810  0.1537  0.3956
  681TMC3    O210136   4.102   2.722  13.208  0.2804 -0.1136  0.4620
  682MPD2     C10137   1.419   0.229  10.727  0.2352  0.2193  0.4575
  682MPD2    C110138   1.440   0.104  10.675 -0.4183 -0.6816  0.7295
  682MPD2    C210139   1.398   4.725  10.741  0.3786  0.2563  0.0833
  682MPD2    C310140   1.332   4.734  10.862 -0.3412  0.5627  0.4611
  682MPD2    C410141   1.338   0.121  10.927 -0.0105 -0.1860  0.6155
  682MPD2    C510142   1.372   0.234  10.857  0.5915  0.0527  0.3769
  682MPD2     H10143   1.405   4.631  10.688 -2.9004  0.1261 -0.1240
  682MPD2    H110144   1.308   0.137  11.030  0.3362 -0.6306  0.7833
  682MPD2    H210145   1.428   0.319  10.668 -1.8243  0.3193  0.2970
  682MPD2    H310146   1.378   0.332  10.903  0.5856  0.0311  0.4234
  682MPD2     N10147   1.296   4.630  10.946  0.0888 -0.0872 -0.3499
  682MPD2    H510148   1.266   4.652  11.041 -0.4408  1.0452 -0.7830
  682MPD2    N110149   1.506   0.084  10.555  0.2234 -0.2823  0.3972
  682MPD2    H710150   1.523   4.722  10.528  0.5968  0.0362 -0.5040
  683TMC3    C110151   1.340   4.335  11.248  0.0156 -0.7860 -0.3390
  683TMC3    C210152   1.292   4.212  11.212 -0.2150 -0.4352 -0.0352
  683TMC3    C310153   1.250   4.194  11.087  0.2429 -0.6159  0.5721
  683TMC3    C410154   1.340   4.432  11.155  0.2991 -0.3180  0.0465
  683TMC3    C510155   1.296   4.406  11.027  0.3336 -0.0341 -0.5402
  683TMC3    C610156   1.249   4.286  10.987 -0.5689  0.4115  0.2261
  683TMC3     C10157   1.391   4.362  11.381  0.8468 -0.7013 -0.4154
  683TMC3     O10158   1.426   4.482  11.394 -0.5073 -0.2322 -0.1920
  683TMC3     H10159   1.276   4.133  11.285 -1.0295  0.5835  0.8870
  683TMC3    H110160   1.369   4.533  11.183 -0.8901  0.5122 -1.7406
  683TMC3    H210161   1.195   4.272  10.894 -0.5314 -0.6239  0.3585
  683TMC3    C710162   1.317   4.497  10.918 -0.3217 -0.0162 -0.0543
  683TMC3    C810163   1.228   4.053  11.044  1.0881  0.7194 -0.0367
  683TMC3    O110164   1.339   4.444  10.810 -0.2514 -0.1017 -0.2590
  683TMC3    O210165   1.146   4.031  10.955 -0.0967  0.5710  0.3160
  684MPD2     C10166   4.399   3.930  16.078 -0.1300 -0.5572  0.0577
  684MPD2    C110167   4.383   4.007  15.965  0.0234  0.3210 -0.5498
  684MPD2    C210168   4.345   4.139  15.972  0.4700 -0.6650  0.1447
  684MPD2    C310169   4.328   4.194  16.096  0.1714 -0.3426  0.5629
  684MPD2    C410170   4.329   4.113  16.204  0.2079 -0.3306 -0.6292
  684MPD2    C510171   4.363   3.982  16.199 -0.2326 -0.8849 -0.8424
  684MPD2     H10172   4.347   4.189  15.876  1.2228  1.2338  1.1408
  684MPD2    H110173   4.311   4.152  16.303 -2.4365 -1.2874 -0.7392
  684MPD2    H210174   4.429   3.826  16.078 -0.3897 -0.6288 -1.1199
  684MPD2    H310175   4.372   3.926  16.291 -1.8915 -0.6932 -0.5599
  684MPD2     N10176   4.302   4.334  16.119 -0.4897  0.0205  0.6521
  684MPD2    H510177   4.290   4.359  16.216  2.7345  0.7190  0.8647
  684MPD2    N110178   4.384   3.941  15.836 -0.0237 -0.2867 -0.4323
  684MPD2    H710179   4.362   3.996  15.753 -2.3196 -0.3323  0.1537
  685TMC3    C110180   4.446   3.787  15.671  0.0583 -0.1895 -0.0028
  685TMC3    C210181   4.359   3.841  15.576  0.2619 -0.4432 -0.4062
  685TMC3    C310182   4.380   3.820  15.442  0.1489  0.3388 -0.2911
  685TMC3    C410183   4.535   3.691  15.636 -0.0069 -0.1367  0.6924
  685TMC3    C510184   4.559   3.676  15.497 -0.0533 -0.2126  0.5175
  685TMC3    C610185   4.480   3.734  15.400 -0.1414  0.1595 -0.2385
  685TMC3     C10186   4.445   3.818  15.805 -0.8768 -0.7378 -0.0715
  685TMC3     O10187   4.525   3.752  15.874 -0.2188  0.4350 -0.0165
  685TMC3     H10188   4.276   3.896  15.619  0.8164  0.0780 -0.0010
  685TMC3    H110189   4.600   3.641  15.707  2.6633 -0.8662 -2.2684
  685TMC3    H210190   4.509   3.737  15.296  1.9427 -0.4945  0.3274
  685TMC3    C710191   4.695   3.680  15.458  0.3829 -0.0505 -0.6914
  685TMC3    C810192   4.286   3.874  15.347  0.8680  0.3465 -0.1368
  685TMC3    O110193   4.732   3.633  15.352  0.6486 -0.2894 -0.3905
  685TMC3    O210194   4.302   3.845  15.230  0.0435  0.3576  1.1516
  686MPD2     C10195   1.081   4.139  14.734 -0.4581  0.0246 -0.3550
  686MPD2    C110196   1.126   4.107  14.861 -0.3245 -1.0584  0.6646
  686MPD2    C210197   1.226   4.008  14.861  0.4185 -0.1862 -0.0645
  686MPD2    C310198   1.261   3.936  14.748 -0.5617 -0.3228  0.2138
  686MPD2    C410199   1.231   3.980  14.622  0.1411  0.0990  0.2590
  686MPD2    C510200   1.136   4.083  14.618  0.5818  0.1742 -0.2151
  686MPD2     H10201   1.267   3.995  14.960  0.6834 -0.2028 -0.1776
  686MPD2    H110202   1.273   3.944  14.529 -1.9629 -3.6815  0.7782
  686MPD2    H210203   0.999   4.209  14.727  0.7055  1.5256  1.2017
  686MPD2    H310204   1.100   4.126  14.525 -0.8739 -0.5350  0.0224
  686MPD2     N10205   1.339   3.821  14.768  0.2378  0.7279 -0.1156
  686MPD2    H510206   1.390   3.807  14.681 -0.0974 -1.3303  0.0034
  686MPD2    N110207   1.063   4.150  14.980  0.0065  0.5827 -0.5617
  686MPD2    H710208   0.982   4.207  14.962 -0.0560  0.8912  0.7095
  687TMC3    C110209   1.274   3.753  14.993 -0.0968  0.0752  0.2702
  687TMC3    C210210   1.140   3.723  14.976  0.1465 -0.5074 -0.1013
  687TMC3    C310211   1.067   3.699  15.090  1.2259 -0.1953  0.1869
  687TMC3    C410212   1.331   3.730  15.112 -0.1625  0.5548 -0.1595
  687TMC3    C510213   1.254   3.724  15.222 -0.2223 -0.0295 -0.5746
  687TMC3    C610214   1.123   3.689  15.215  0.2271  0.6713 -0.6832
  687TMC3     C10215   1.366   3.746  14.881 -0.2092  0.3847 -0.3010
  687TMC3     O10216   1.450   3.659  14.891 -0.2837 -0.2168 -0.2702
  687TMC3     H10217   1.093   3.712  14.879  1.5206 -1.0736 -0.7034
  687TMC3    H110218   1.433   3.765  15.121  0.5082 -0.8240 -2.2388
  687TMC3    H210219   1.067   3.669  15.306  3.0887  1.1367  1.1814
  687TMC3    C710220   1.314   3.672  15.343  0.1861 -0.2788  0.2698
  687TMC3    C810221   0.922   3.711  15.079 -0.1939  0.2767  0.0531
  687TMC3    O110222   1.271   3.710  15.450 -0.7061 -0.8468  0.4826
  687TMC3    O210223   0.864   3.688  15.183 -0.2464 -0.1492  0.2283
  688MPD2     C10224   0.374   3.232  16.821 -0.5187  0.2420  0.0150
  688MPD2    C110225   0.400   3.116  16.891 -0.4117 -0.4757 -0.1965
  688MPD2    C210226   0.501   3.031  16.836 -0.2008  0.8779  0.0533
  688MPD2    C310227   0.568   3.058  16.717 -0.6328  0.0353 -0.2103
  688MPD2    C410228   0.536   3.171  16.648  0.1046  0.6773 -0.4318
  688MPD2    C510229   0.437   3.252  16.701 -0.3305 -0.7980 -0.4103
  688MPD2     H10230   0.536   2.947  16.895  1.1153 -0.0675 -2.0598
  688MPD2    H110231   0.586   3.199  16.556 -2.2231  0.5444 -1.7209
  688MPD2    H210232   0.306   3.309  16.857  0.5082  1.6141 -1.0039
  688MPD2    H310233   0.414   3.341  16.642  1.2012  0.0152  0.2021
  688MPD2     N10234   0.666   2.975  16.659 -0.6768 -0.2774 -0.4145
  688MPD2    H510235   0.709   3.013  16.575  0.7829  1.2236  1.0169
  688MPD2    N110236   0.348   3.074  17.016 -0.4529  0.1588 -0.5331
  688MPD2    H710237   0.373   2.981  17.048 -1.5427 -0.1478 -0.5834
  689TMC3    C110238   0.254   3.105  17.231  0.0435 -0.9684 -0.0924
  689TMC3    C210239   0.270   3.206  17.327  0.1480 -0.3394  0.2935
  689TMC3    C310240   0.303   3.161  17.456 -0.1746  0.1676  0.6157
  689TMC3    C410241   0.252   2.973  17.255  0.9450 -0.7321  0.4023
  689TMC3    C510242   0.286   2.935  17.383 -0.6694  0.0225  0.0291
  689TMC3    C610243   0.304   3.026  17.482  0.4071 -0.1776  0.0922
  689TMC3     C10244   0.270   3.154  17.100  0.0215 -0.2300  0.4296
  689TMC3     O10245   0.231   3.269  17.077 -0.3509  0.2573  0.1523
  689TMC3     H10246   0.280   3.313  17.311 -2.3392  0.3634  3.3867
  689TMC3    H110247   0.240   2.903  17.174 -2.6437 -1.6908  1.7753
  689TMC3    H210248   0.348   2.974  17.567 -0.8693 -0.6685  0.4614
  689TMC3    C710249   0.293   2.791  17.417  0.2081  0.0253  0.2782
  689TMC3    C810250   0.356   3.250  17.555  0.1881 -0.7174 -0.1751
  689TMC3    O110251   0.381   2.757  17.495 -0.9844 -0.0677  0.2555
  689TMC3    O210252   0.380   3.199  17.664  0.9379 -0.0747 -0.1131
  690MPD2     C10253   2.794   0.261  15.495 -0.0629  0.6175 -0.2249
  690MPD2    C110254   2.733   0.269  15.369  0.8552 -0.2296  0.4062
  690MPD2    C210255   2.803   0.335  15.273 -0.2557 -0.4732 -0.4030
  690MPD2    C310256   2.934   0.377  15.284  0.3846  1.0288 -0.2416
  690MPD2    C410257   2.992   0.380  15.407 -0.0782 -0.2666  0.8805
  690MPD2    C510258   2.916   0.322  15.506 -0.4418  0.3966 -0.3585
  690MPD2     H10259   2.752   0.353  15.179 -2.3945  1.5139  1.1401
  690MPD2    H110260   3.090   0.422  15.426  1.0115 -1.0930 -2.9586
  690MPD2    H210261   2.746   0.207  15.576 -0.4204  1.5331  0.1838
  690MPD2    H310262   2.964   0.321  15.604  2.9747  3.3954 -1.9839
  690MPD2     N10263   2.990   0.441  15.170  0.0117  0.1472  0.3647
  690MPD2    H510264   2.939   0.446  15.082  0.2905  2.3125  0.3235
  690MPD2    N110265   2.608   0.209  15.336  0.7627  0.6901 -0.3577
  690MPD2    H710266   2.583   0.212  15.238  2.0971 -2.8269 -0.7867
  691TMC3    C110267   2.431   0.049  15.364 -0.6685 -0.9940 -0.0069
  691TMC3    C210268   2.408   0.038  15.229 -0.0850 -0.6873 -0.3337
  691TMC3    C310269   2.335   4.670  15.174  0.3142  0.6048  0.0309
  691TMC3    C410270   2.379   4.691  15.453 -0.4930 -0.4577  0.0001
  691TMC3    C510271   2.301   4.589  15.398  0.0225  0.2714  0.7703
  691TMC3    C610272   2.260   4.587  15.260 -0.0437 -0.4292 -0.0291
  691TMC3     C10273   2.519   0.153  15.425  0.8171  0.1748  0.0900
  691TMC3     O10274   2.512   0.153  15.547  0.0943 -0.1728 -0.3841
  691TMC3     H10275   2.447   0.111  15.159 -1.1910  1.1872  0.9775
  691TMC3    H110276   2.403   4.690  15.559  2.4872 -1.5910 -0.6941
  691TMC3    H210277   2.193   4.520  15.206 -1.5312  0.4297  0.7614
  691TMC3    C710278   2.216   4.517  15.488 -0.2554  0.2927 -0.6420
  691TMC3    C810279   2.264   4.725  15.063  1.1373  0.0359 -0.0280
  691TMC3    O110280   2.207   4.557  15.602 -0.0305  0.5643  0.5229
  691TMC3    O210281   2.337   0.027  14.970  0.5205 -0.1499  0.1278
  692TMC3    C110282   3.947   0.876  15.302  0.5778 -0.4554  0.3231
  692TMC3    C210283   4.073   0.911  15.349 -0.1726 -0.7898  0.0373
  692TMC3    C310284   4.152   0.804  15.401 -0.1272 -0.2381 -0.7952
  692TMC3    C410285   3.902   0.752  15.327 -0.1330  0.9334 -0.1505
  692TMC3    C510286   3.974   0.661  15.395  0.2911  0.1869  0.8587
  692TMC3    C610287   4.098   0.684  15.439 -0.1993  0.0609 -0.5274
  692TMC3     C10288   3.853   0.979  15.275  0.4494 -0.8187 -0.1121
  692TMC3     O10289   3.741   0.946  15.247  0.6121  0.6585  0.6319
  692TMC3     H10290   4.120   0.999  15.305  0.9525 -0.8313  1.1358
  692TMC3    H110291   3.809   0.729  15.276 -0.3874 -0.0294  0.7311
  692TMC3    H210292   4.169   0.602  15.448  1.3897  0.9149 -5.1619
  692TMC3    C710293   3.930   0.517  15.380 -0.1667  0.1194  0.2901
  692TMC3    C810294   4.249   0.839  15.498 -0.2285 -0.1596 -0.0578
  692TMC3    O110295   3.876   0.476  15.276 -0.8031  0.1987 -0.3793
  692TMC3    O210296   4.289   0.756  15.575  0.1078 -0.0901 -0.2264
  693MPD2     C10297   3.618   3.350  10.343  0.1027  0.1920 -0.5674
  693MPD2    C110298   3.583   3.307  10.474 -0.0867 -0.3225 -0.1362
  693MPD2    C210299   3.673   3.238  10.553  0.5366 -0.3574  0.0300
  693MPD2    C310300   3.802   3.210  10.500  0.1794 -0.6727  0.1331
  693MPD2    C410301   3.833   3.249  10.372  0.0138  0.9132  0.1796
  693MPD2    C510302   3.742   3.322  10.300  0.2207 -0.2148  0.4740
  693MPD2     H10303   3.645   3.213  10.655 -1.1147 -1.6931 -0.7538
  693MPD2    H110304   3.929   3.224  10.327  0.8426 -2.7616  4.1116
  693MPD2    H210305   3.565   3.430  10.292 -0.7968  0.3005  0.5402
  693MPD2    H310306   3.774   3.361  10.204  0.0272 -0.0125  0.4947
  693MPD2     N10307   3.896   3.140  10.568 -0.6632 -0.7866 -0.0087
  693MPD2    H510308   3.976   3.102  10.518 -0.2791  0.0018 -0.0035
  693MPD2    N110309   3.454   3.318  10.525  0.2483 -0.5737 -0.2733
  693MPD2    H710310   3.433   3.288  10.620  2.0877  3.2022  1.2973
  694TMC3    C110311   3.215   3.342  10.518 -0.2734  0.6170 -0.7491
  694TMC3    C210312   3.113   3.310  10.435 -0.7968  0.0417  0.2658
  694TMC3    C310313   3.004   3.241  10.484 -0.1163  0.4577  0.8837
  694TMC3    C410314   3.214   3.309  10.649  0.1162 -0.6426  0.4497
  694TMC3    C510315   3.108   3.238  10.697  0.0748  0.2710  0.5107
  694TMC3    C610316   3.008   3.200  10.615  0.3068 -0.0309 -0.4431
  694TMC3     C10317   3.338   3.365  10.453 -0.1508  0.0080  0.0609
  694TMC3     O10318   3.336   3.404  10.338 -0.0883 -0.0717 -0.4987
  694TMC3     H10319   3.113   3.345  10.333 -0.7561  0.4657  0.4082
  694TMC3    H110320   3.303   3.318  10.710 -0.0767 -1.8288  0.9144
  694TMC3    H210321   2.918   3.150  10.649 -1.2006  0.4016 -3.7505
  694TMC3    C710322   3.148   3.137  10.790  0.6385  0.2041  0.4184
  694TMC3    C810323   2.900   3.189  10.391  0.1823 -0.1262  0.1731
  694TMC3    O110324   3.262   3.148  10.835  0.1478  0.2712 -0.4407
  694TMC3    O210325   2.841   3.082  10.421  0.1686  0.1518  0.6750
  695MPD2     C10326   4.656   0.911  13.227 -0.3135 -0.1789  0.1061
  695MPD2    C110327   4.640   0.851  13.351 -0.2785 -0.1842 -0.7925
  695MPD2    C210328   4.519   0.867  13.413 -0.3877  0.2017 -0.3312
  695MPD2    C310329   4.413   0.943  13.353  0.6786 -0.0297  0.3281
  695MPD2    C410330   4.434   1.000  13.225  0.4742  0.2702  0.3023
  695MPD2    C510331   4.554   0.984  13.167  0.0390 -0.2050  0.4869
  695MPD2     H10332   4.502   0.819  13.509  0.8103 -0.5799 -0.5168
  695MPD2    H110333   4.359   1.048  13.163  0.0403 -0.8171 -0.0239
  695MPD2    H210334   0.017   0.907  13.175  0.0556 -0.4897  0.8156
  695MPD2    H310335   4.575   1.029  13.071 -0.4740 -2.1771 -0.5401
  695MPD2     N10336   4.293   0.952  13.425  0.2581  0.3892  0.2835
  695MPD2    H510337   4.285   0.907  13.516 -0.6832 -0.9704 -0.4707
  695MPD2    N110338   0.005   0.780  13.414 -0.1006  0.5500 -0.0427
  695MPD2    H710339   4.719   0.746  13.507 -0.6113 -0.4652 -0.5267
  696TMC3    C110340   4.079   1.008  13.497  0.7525 -0.4017 -0.1041
  696TMC3    C210341   4.040   0.889  13.542 -1.4038  0.0618  0.0639
  696TMC3    C310342   3.918   0.891  13.606 -0.8088  0.4767  0.0744
  696TMC3    C410343   4.014   1.122  13.524  0.2310 -0.3185 -0.0464
  696TMC3    C510344   3.892   1.117  13.570 -0.5098  0.8132 -0.1761
  696TMC3    C610345   3.843   1.003  13.619  0.8878 -0.8012  0.6546
  696TMC3     C10346   4.177   1.017  13.391  0.1906 -0.6658 -0.7073
  696TMC3     O10347   4.156   1.076  13.283  0.2378 -0.0341 -0.2140
  696TMC3     H10348   4.095   0.798  13.525  0.0791  0.9973 -0.1899
  696TMC3    H110349   4.029   1.200  13.450  0.3323 -0.0318  0.2725
  696TMC3    H210350   3.743   0.999  13.661  0.6657 -2.3291 -0.0176
  696TMC3    C710351   3.827   1.244  13.594 -0.3241  0.4542  0.5972
  696TMC3    C810352   3.834   0.772  13.613  0.0392  0.2644  0.2197
  696TMC3    O110353   3.713   1.235  13.645 -0.3851 -0.2301  0.3396
  696TMC3    O210354   3.720   0.788  13.566 -0.0809 -0.2790  0.4119
  697MPD2     C10355   3.892   2.785  15.294 -0.0552 -0.5593 -0.9890
  697MPD2    C110356   3.884   2.726  15.167  0.6188  0.2438  0.8191
  697MPD2    C210357   3.888   2.810  15.053 -0.1105  0.1347 -0.1074
  697MPD2    C310358   3.905   2.946  15.060  0.5298  0.7776 -0.4871
  697MPD2    C410359   3.910   2.997  15.188 -0.3468 -0.1392 -0.3134
  697MPD2    C510360   3.899   2.922  15.294  0.1042  0.8252  0.0205
  697MPD2     H10361   3.877   2.762  14.956  1.8143 -0.3698 -0.0685
  697MPD2    H110362   3.920   3.103  15.206  0.5600 -0.2055 -0.3913
  697MPD2    H210363   3.886   2.736  15.390 -2.3246  3.7029  1.0597
  697MPD2    H310364   3.909   2.976  15.387 -1.7106  1.4894 -0.1800
  697MPD2     N10365   3.917   3.023  14.937  0.3890  0.4586  0.2950
  697MPD2    H510366   3.886   2.981  14.849  3.5803  1.1079 -1.1354
  697MPD2    N110367   3.874   2.582  15.151  0.0711  0.0262  0.2347
  697MPD2    H710368   3.864   2.550  15.056 -0.2986 -0.3099  0.3866
  698TMC3    C110369   4.003   3.189  14.794  0.0868  0.3221 -0.0919
  698TMC3    C210370   4.104   3.284  14.792  0.2027  0.4060  0.8145
  698TMC3    C310371   4.194   3.281  14.688  0.1643  0.6119  1.0992
  698TMC3    C410372   3.998   3.087  14.696 -0.0616 -0.2082 -0.8744
  698TMC3    C510373   4.092   3.092  14.596 -0.5906 -0.2757  0.2423
  698TMC3    C610374   4.182   3.196  14.584  0.0128  0.1159 -0.2395
  698TMC3     C10375   3.974   3.144  14.929  0.2831  0.3197 -0.0546
  698TMC3     O10376   4.017   3.211  15.019  0.1498  0.1166  0.4575
  698TMC3     H10377   4.110   3.358  14.870 -0.0626  0.1263  1.1011
  698TMC3    H110378   3.922   3.011  14.703 -0.6834  0.8137  3.6569
  698TMC3    H210379   4.239   3.205  14.492  0.3870  0.1200 -0.0075
  698TMC3    C710380   4.057   3.025  14.470 -0.3312 -0.1314  0.8898
  698TMC3    C810381   4.322   3.345  14.703  0.2091  0.4813 -0.5311
  698TMC3    O110382   3.943   2.977  14.464  0.2901 -0.1289 -0.1795
  698TMC3    O210383   4.400   3.315  14.614  0.8744  1.3752  0.1140
  699TMC3    C110384   4.278   0.758  13.020  0.5468  0.9371 -0.3929
  699TMC3    C210385   4.319   0.637  13.081 -0.0666 -0.0670 -0.4000
  699TMC3    C310386   4.240   0.587  13.180  0.5075 -0.1153  0.5240
  699TMC3    C410387   4.159   0.817  13.046 -0.4051 -0.4642 -0.5013
  699TMC3    C510388   4.092   0.761  13.154  0.3973 -0.2053  0.8783
  699TMC3    C610389   4.126   0.645  13.216  0.3600 -0.0175 -0.4619
  699TMC3     C10390   4.345   0.805  12.897  0.1534  0.8736  0.0050
  699TMC3     O10391   4.277   0.870  12.815  0.3186  0.2780  0.2295
  699TMC3     H10392   4.416   0.590  13.065 -0.1926 -0.5756  0.3008
  699TMC3    H110393   4.144   0.919  13.012 -1.3637 -0.2443  0.5343
  699TMC3    H210394   4.066   0.596  13.291  1.6966 -1.0106 -0.0510
  699TMC3    C710395   3.956   0.810  13.184  0.3579 -0.3551  0.0661
  699TMC3    C810396   4.315   0.525  13.295 -0.2044 -0.3290  0.2834
  699TMC3    O110397   3.901   0.739  13.267 -0.2391 -0.8919 -0.9353
  699TMC3    O210398   4.433   0.541  13.298  0.5388  0.1347  0.7728
  700TMC3    C110399   3.005   3.351  17.011  0.5949  0.3492  0.8947
  700TMC3    C210400   3.044   3.224  17.000  0.3574  0.3628 -0.2722
  700TMC3    C310401   3.132   3.181  17.088 -0.4767 -0.5258  0.5252
  700TMC3    C410402   3.052   3.432  17.103 -0.2596 -0.6031 -0.7467
  700TMC3    C510403   3.141   3.385  17.189  0.5171 -1.2478  0.5587
  700TMC3    C610404   3.186   3.257  17.187  1.1511  0.3119 -0.1128
  700TMC3     C10405   2.975   3.408  16.881 -0.0375 -0.3550 -0.2218
  700TMC3     O10406   2.873   3.370  16.827  0.8072 -0.1907 -0.3338
  700TMC3     H10407   3.014   3.171  16.910  0.7436 -0.1580 -0.0913
  700TMC3    H110408   3.011   3.532  17.106 -3.4780 -1.9263 -0.2240
  700TMC3    H210409   3.274   3.222  17.240 -1.5710 -4.2823  1.3518
  700TMC3    C710410   3.187   3.470  17.299  0.0116 -0.2127 -0.1570
  700TMC3    C810411   3.192   3.048  17.066 -0.4347 -1.1556 -0.2451
  700TMC3    O110412   3.300   3.459  17.347  0.8641 -0.0365 -0.3104
  700TMC3    O210413   3.309   3.033  17.096  0.4358 -0.2818 -0.3295
  701TMC3    C110414   3.268   2.025  15.359  0.1364  0.7082 -0.3039
  701TMC3    C210415   3.251   1.990  15.226  0.8327  0.0183  0.3397
  701TMC3    C310416   3.345   2.038  15.138  0.0624  0.4267 -0.6121
  701TMC3    C410417   3.356   2.123  15.392  0.2913 -0.3036  0.0269
  701TMC3    C510418   3.451   2.161  15.302  0.1796 -0.5977 -0.2926
  701TMC3    C610419   3.443   2.125  15.170  0.3126  0.0668 -0.0633
  701TMC3     C10420   3.187   1.955  15.460  0.1710  0.4266  0.5606
  701TMC3     O10421   3.180   2.001  15.574  0.2867  0.3326  0.7560
  701TMC3     H10422   3.175   1.922  15.192  2.5096 -0.4870 -2.3780
  701TMC3    H110423   3.338   2.160  15.492 -0.8129  1.0977 -0.7003
  701TMC3    H210424   3.514   2.161  15.096  1.6856 -2.5243 -0.0167
  701TMC3    C710425   3.503   2.299  15.324  0.2202 -1.2066 -0.2851
  701TMC3    C810426   3.354   1.991  14.999  0.3531  0.1402  0.3117
  701TMC3    O110427   3.500   2.371  15.228  0.6235  0.3927  0.1879
  701TMC3    O210428   3.467   1.974  14.950 -0.8290  0.0656  0.0729
  702MPD2     C10429   2.766   3.867  10.354 -0.1495  0.8420 -0.4885
  702MPD2    C110430   2.765   3.926  10.474  0.0135 -0.8901  0.2193
  702MPD2    C210431   2.783   4.059  10.482 -0.0933 -0.0329  0.3826
  702MPD2    C310432   2.785   4.144  10.375  0.3554 -0.1135  0.1199
  702MPD2    C410433   2.784   4.078  10.254  0.4710  0.6411 -0.8904
  702MPD2    C510434   2.768   3.941  10.243 -0.2975 -0.1790 -0.5920
  702MPD2     H10435   2.790   4.101  10.582 -0.6247 -0.6582  0.6816
  702MPD2    H110436   2.791   4.137  10.164  1.4434  0.9859 -0.5796
  702MPD2    H210437   2.739   3.762  10.345  1.0436  0.2638  2.7481
  702MPD2    H310438   2.750   3.895  10.147 -3.3445  2.8979 -1.5007
  702MPD2     N10439   2.786   4.281  10.383 -0.2769 -0.3880  0.4099
  702MPD2    H510440   2.812   4.329  10.298 -0.5544  1.1985  1.2184
  702MPD2    N110441   2.738   3.859  10.605  0.2486  1.0690  0.2589
  702MPD2    H710442   2.745   3.923  10.684 -0.5957  0.9162  0.4531
  703TMC3    C110443   2.777   4.489  10.491  1.2459 -0.0897  0.2610
  703TMC3    C210444   2.703   4.575  10.570  0.3146 -0.1279 -0.9251
  703TMC3    C310445   2.735   4.708  10.573  0.8347  0.2833 -0.7781
  703TMC3    C410446   2.878   4.539  10.414 -0.5074 -0.1338  0.1792
  703TMC3    C510447   2.902   4.672  10.416 -0.1785 -0.0472 -0.2148
  703TMC3    C610448   2.835   0.022  10.499 -0.3155 -0.6087 -0.5975
  703TMC3     C10449   2.746   4.351  10.495  0.1152 -0.2305 -0.7109
  703TMC3     O10450   2.692   4.318  10.601 -0.7514 -0.3522  0.3904
  703TMC3     H10451   2.624   4.529  10.627  0.4961  1.9225  0.9598
  703TMC3    H110452   2.925   4.466  10.349 -0.4021 -0.2369  0.3717
  703TMC3    H210453   2.869   0.125  10.499 -0.0385 -0.7027  0.3060
  703TMC3    C710454   3.023   4.723  10.342  0.2031  1.1329  0.2955
  703TMC3    C810455   2.661   0.070  10.651 -0.0288  0.4084  0.2329
  703TMC3    O110456   3.069   0.091  10.389 -0.0033 -0.7459  0.3393
  703TMC3    O210457   2.710   0.175  10.687  0.7116  0.5405 -0.5912
  704TMC3    C110458   0.742   2.061  12.803  0.2722 -0.5301  0.4543
  704TMC3    C210459   0.876   2.061  12.768 -0.5171  0.0036  0.6301
  704TMC3    C310460   0.952   1.948  12.794  0.0785  0.0832  0.4346
  704TMC3    C410461   0.688   1.959  12.878 -0.0116  1.4828 -0.5884
  704TMC3    C510462   0.772   1.846  12.906  0.0883 -0.0167  0.3696
  704TMC3    C610463   0.903   1.841  12.863  0.6562 -0.6901  0.2028
  704TMC3     C10464   0.653   2.089  12.688  0.0547  0.2059  0.1058
  704TMC3     O10465   0.534   2.102  12.713 -0.1293 -0.2775  0.2520
  704TMC3     H10466   0.913   2.138  12.701 -0.4089  0.5199  1.2814
  704TMC3    H110467   0.583   1.965  12.905  0.0043  0.4804 -0.3298
  704TMC3    H210468   0.962   1.751  12.877  1.1446 -0.2775  0.8017
  704TMC3    C710469   0.707   1.709  12.921 -0.2591 -1.0480  0.3083
  704TMC3    C810470   1.025   1.909  12.672  0.5900  0.0014 -0.2253
  704TMC3    O110471   0.773   1.615  12.876 -0.2635  0.5763  0.2392
  704TMC3    O210472   1.006   1.976  12.569  0.2719  0.2277 -0.2162
  705MPD2     C10473   4.398   0.651  16.132  0.2823  0.5309  0.3081
  705MPD2    C110474   4.411   0.788  16.120  0.8496 -0.3115 -0.5725
  705MPD2    C210475   4.295   0.859  16.102 -0.0642  0.6571  0.2529
  705MPD2    C310476   4.171   0.803  16.101 -0.0442  0.2300 -0.5145
  705MPD2    C410477   4.163   0.662  16.118 -0.0151 -0.6230  0.0322
  705MPD2    C510478   4.277   0.587  16.135 -0.3948  0.2424 -0.7647
  705MPD2     H10479   4.305   0.961  16.066  2.7818 -0.2426 -1.5103
  705MPD2    H110480   4.068   0.609  16.118 -0.5404  0.3168  0.6459
  705MPD2    H210481   4.486   0.589  16.130  1.5986  2.4277 -0.3157
  705MPD2    H310482   4.263   0.484  16.166  0.3171 -0.0787 -1.5084
  705MPD2     N10483   4.044   0.864  16.088  0.2605  0.0505  0.2982
  705MPD2    H510484   3.960   0.807  16.081 -0.1680  0.5078  1.7485
  705MPD2    N110485   4.533   0.857  16.109 -0.6877  0.5686  0.1378
  705MPD2    H710486   4.534   0.956  16.132  4.2614  0.4472  0.5071
  706TMC3    C110487   0.260   0.910  16.074  0.4940  0.1601  0.0563
  706TMC3    C210488   0.247   1.044  16.093 -0.1347  0.1484  0.2483
  706TMC3    C310489   0.121   1.094  16.093  0.5193 -0.3704 -0.0714
  706TMC3    C410490   0.155   0.826  16.044 -0.1178  1.2630 -0.0643
  706TMC3    C510491   0.034   0.882  16.051  0.1022 -0.5622 -0.6211
  706TMC3    C610492   0.010   1.011  16.086 -0.3568  0.3061 -1.0012
  706TMC3     C10493   0.381   0.864  16.012  0.0119 -0.5855 -0.0914
  706TMC3     O10494   0.489   0.911  16.058  0.1622 -0.0112  0.7730
  706TMC3     H10495   0.334   1.108  16.104 -0.4188  0.6316 -0.3280
  706TMC3    H110496   0.157   0.722  16.015 -1.6755  1.6054 -1.4144
  706TMC3    H210497   4.647   1.055  16.071  0.1619  2.2754  1.2913
  706TMC3    C710498   4.652   0.799  16.059  0.3824 -0.2990 -0.4609
  706TMC3    C810499   0.109   1.243  16.095  0.2481  0.3022 -0.0527
  706TMC3    O110500   4.674   0.688  16.010 -0.9247  0.1072 -0.1240
  706TMC3    O210501   4.731   1.278  16.052  0.1520  0.2841  0.5008
  707TMC3    C110502   1.791   4.669   0.851  0.1002 -0.9857  0.2312
  707TMC3    C210503   1.906   4.690   0.929  0.3745  0.1719  0.0251
  707TMC3    C310504   1.943   4.582   1.008 -0.0333  0.2179 -0.0706
  707TMC3    C410505   1.732   4.550   0.845 -0.0625  0.8832  0.7253
  707TMC3    C510506   1.778   4.447   0.920 -0.8710  0.8519 -0.0160
  707TMC3    C610507   1.879   4.466   1.011 -0.4872 -0.1819  0.0520
  707TMC3     C10508   1.759   0.040   0.759 -0.1686 -0.0747 -0.0507
  707TMC3     O10509   1.841   0.130   0.745  0.4696  1.0297 -0.3327
  707TMC3     H10510   1.970   0.042   0.925  0.9459 -0.3630 -2.2067
  707TMC3    H110511   1.670   4.513   0.764  1.5386  0.8293 -0.4624
  707TMC3    H210512   1.916   4.381   1.069 -2.1862  0.0059  1.4078
  707TMC3    C710513   1.721   4.315   0.908  0.5079  0.4901 -0.1313
  707TMC3    C810514   2.060   4.599   1.096 -0.3001 -0.0797  0.1257
  707TMC3    O110515   1.792   4.229   0.957 -0.2105 -0.2121 -0.7679
  707TMC3    O210516   2.092   4.712   1.104  0.4347  0.2954 -0.1218
  708MPD2     C10517   2.849   3.457  13.467  0.7622 -0.0614 -0.0908
  708MPD2    C110518   2.752   3.457  13.566 -0.3124  0.0648 -0.0994
  708MPD2    C210519   2.785   3.488  13.695 -0.2139 -0.4981  0.7777
  708MPD2    C310520   2.914   3.520  13.729  0.2288 -0.3250 -0.7679
  708MPD2    C410521   3.010   3.513  13.634 -0.7944 -0.6231  0.2166
  708MPD2    C510522   2.983   3.474  13.507  0.4027  0.4354 -0.1489
  708MPD2     H10523   2.705   3.493  13.768 -0.6975  0.8519  0.1694
  708MPD2    H110524   3.112   3.544  13.655 -0.9185 -1.6490  2.4070
  708MPD2    H210525   2.832   3.423  13.365 -0.9364 -2.8796  1.1575
  708MPD2    H310526   3.064   3.457  13.436  1.2660 -1.1087  1.2066
  708MPD2     N10527   2.944   3.565  13.863 -0.2644  1.2327 -0.2018
  708MPD2    H510528   3.036   3.606  13.873  0.7205 -0.7465 -1.2204
  708MPD2    N110529   2.617   3.423  13.544  0.2426  0.6635  0.0792
  708MPD2    H710530   2.557   3.423  13.626  0.2813  0.3767  0.1078
  709TMC3    C110531   2.422   3.416  13.428  0.0886 -0.3176  0.1713
  709TMC3    C210532   2.361   3.504  13.344  0.4661  0.4478  0.7193
  709TMC3    C310533   2.297   3.605  13.409 -0.0310  0.6912  0.4484
  709TMC3    C410534   2.380   3.393  13.558 -0.7179 -0.2497  0.5408
  709TMC3    C510535   2.298   3.489  13.613  0.6864  0.4940  1.1302
  709TMC3    C610536   2.261   3.599  13.538  0.0522 -0.0706 -0.7223
  709TMC3     C10537   2.563   3.422  13.418  0.1166 -0.4228  0.5776
  709TMC3     O10538   2.613   3.434  13.308 -0.3563 -0.4422  0.1194
  709TMC3     H10539   2.410   3.528  13.251 -3.4582  1.7233 -1.0402
  709TMC3    H110540   2.418   3.311  13.618  3.1046  2.6517  2.1135
  709TMC3    H210541   2.212   3.682  13.586  0.5791 -0.4744  0.5263
  709TMC3    C710542   2.346   3.517  13.744  0.8397  0.0746  0.0757
  709TMC3    C810543   2.237   3.707  13.325  0.3119  0.3299  0.0398
  709TMC3    O110544   2.435   3.447  13.784 -0.1105  0.7733 -0.2401
  709TMC3    O210545   2.124   3.749  13.348  0.0648  0.3852 -0.5176
  710TMC3    C110546   3.976   0.307   0.189 -0.5752  0.3316 -0.1654
  710TMC3    C210547   4.092   0.365   0.155 -0.6670  0.0424  0.1267
  710TMC3    C310548   4.200   0.287   0.167 -1.5019  1.1667 -0.2632
  710TMC3    C410549   3.963   0.175   0.203 -0.3616  0.2233 -0.3231
  710TMC3    C510550   4.077   0.101   0.207 -0.2325 -0.4465  0.1263
  710TMC3    C610551   4.204   0.153   0.196  0.1628 -0.3911 -0.4131
  710TMC3     C10552   3.859   0.379   0.165  0.3446 -0.0040  0.6165
  710TMC3     O10553   3.768   0.305   0.127 -0.2841 -0.2545 -0.2231
  710TMC3     H10554   4.108   0.467   0.122  3.8500 -1.4554 -2.2466
  710TMC3    H110555   3.871   0.123   0.227 -0.1544  0.0447  0.0782
  710TMC3    H210556   4.292   0.090   0.195 -1.4235 -2.5868 -0.4686
  710TMC3    C710557   4.070   4.689   0.208  0.5389 -0.1426 -0.9021
  710TMC3    C810558   4.314   0.342   0.094  0.0974  0.1748  0.7003
  710TMC3    O110559   3.970   4.650   0.261  0.2823  0.0530 -0.2777
  710TMC3    O210560   4.308   0.421   0.004  0.6291 -0.2648 -0.3268
  711TMC3    C110561   3.973   1.541  14.793 -1.1278 -0.3496  0.3115
  711TMC3    C210562   3.970   1.631  14.899 -0.3060 -0.0519 -0.1099
  711TMC3    C310563   4.048   1.603  15.005  0.0470  0.8213  0.7480
  711TMC3    C410564   4.049   1.437  14.793  0.3207  0.1511 -0.6962
  711TMC3    C510565   4.129   1.407  14.899  0.4458 -0.2387  0.6059
  711TMC3    C610566   4.132   1.491  15.013 -0.1961 -0.0050 -0.3418
  711TMC3     C10567   3.901   1.568  14.674  0.8207 -0.8312 -0.8230
  711TMC3     O10568   3.882   1.476  14.593 -0.8014  0.1229  0.2079
  711TMC3     H10569   3.901   1.714  14.902  0.1084  0.3546 -1.7763
  711TMC3    H110570   4.049   1.379  14.701  0.7731  1.5654 -1.5893
  711TMC3    H210571   4.181   1.462  15.106  0.6313 -2.9688 -1.7069
  711TMC3    C710572   4.148   1.268  14.925 -0.7414  0.5355 -0.0239
  711TMC3    C810573   4.018   1.679  15.123 -0.4717 -1.1747 -0.0357
  711TMC3    O110574   4.221   1.240  15.020  0.3355  0.1087  0.2101
  711TMC3    O210575   3.904   1.718  15.135  0.0651 -0.1305  0.0430
  712MPD2     C10576   0.229   2.126  13.432  0.3207 -0.5431 -0.4958
  712MPD2    C110577   0.152   2.238  13.411  0.2175  0.7554 -0.0487
  712MPD2    C210578   0.211   2.364  13.428 -0.5500 -0.4365 -0.1559
  712MPD2    C310579   0.343   2.379  13.459 -0.1846  0.0980  0.0075
  712MPD2    C410580   0.416   2.261  13.472 -0.3277 -0.2853  0.4517
  712MPD2    C510581   0.362   2.138  13.451  0.7412  0.9382 -0.5837
  712MPD2     H10582   0.143   2.449  13.430 -2.4026 -1.9628  0.8039
  712MPD2    H110583   0.516   2.275  13.510 -0.0939  0.9666 -0.6500
  712MPD2    H210584   0.191   2.028  13.404  0.8909 -0.2552 -2.2923
  712MPD2    H310585   0.413   2.043  13.464  1.0157  1.0116 -1.1381
  712MPD2     N10586   0.403   2.502  13.497  0.3282  0.5297  1.0624
  712MPD2    H510587   0.501   2.496  13.522  0.7945 -0.3094 -0.9650
  712MPD2    N110588   0.010   2.240  13.388 -0.2235  0.4956 -0.3855
  712MPD2    H710589   4.709   2.334  13.372  0.3908  0.6073 -1.1066
  713TMC3    C110590   0.413   2.735  13.550 -0.2144 -0.6982  0.6586
  713TMC3    C210591   0.522   2.705  13.626  0.4638  0.4433  0.6934
  713TMC3    C310592   0.568   2.818  13.695  0.9115 -0.1795 -0.8377
  713TMC3    C410593   0.347   2.855  13.546  0.6672  0.3169 -0.8867
  713TMC3    C510594   0.400   2.953  13.624 -0.3165 -0.3307  0.7505
  713TMC3    C610595   0.501   2.939  13.706  0.4776 -0.3390  0.0666
  713TMC3     C10596   0.343   2.622  13.485  0.0431  0.1023  0.4491
  713TMC3     O10597   0.245   2.642  13.423  0.4101 -0.0264  0.1749
  713TMC3     H10598   0.589   2.620  13.616  1.1145  1.1875 -1.2742
  713TMC3    H110599   0.261   2.877  13.483  2.8691  0.9412 -3.7061
  713TMC3    H210600   0.548   3.023  13.756  1.2318 -1.0667  0.5829
  713TMC3    C710601   0.355   3.088  13.605 -0.2712  0.3397 -0.3744
  713TMC3    C810602   0.712   2.832  13.683 -0.1966 -0.0403 -0.4031
  713TMC3    O110603   0.388   3.170  13.691 -0.3960  0.1393  0.3020
  713TMC3    O210604   0.752   2.946  13.665  0.0356  0.2298 -0.2516
  714MPD2     C10605   2.971   2.025   1.389 -0.0564  0.4477  0.3378
  714MPD2    C110606   2.971   1.987   1.260  0.3054 -0.4187  0.2848
  714MPD2    C210607   2.884   2.055   1.167  0.3168 -0.1068 -0.0616
  714MPD2    C310608   2.808   2.165   1.208 -0.1118 -0.3169  0.8082
  714MPD2    C410609   2.811   2.201   1.339 -0.1244 -0.0860 -0.2917
  714MPD2    C510610   2.879   2.123   1.425 -0.1399  0.1197  0.3334
  714MPD2     H10611   2.876   2.019   1.065 -1.0980  0.5974 -0.1946
  714MPD2    H110612   2.738   2.269   1.380 -0.6658 -1.2626  0.6888
  714MPD2    H210613   3.019   1.971   1.469  0.9548  2.3442  1.0220
  714MPD2    H310614   2.871   2.161   1.527  1.7070 -1.1767  0.9641
  714MPD2     N10615   2.729   2.236   1.105 -0.3642 -0.3176  0.1114
  714MPD2    H510616   2.737   2.210   1.007  0.7392 -0.4727  0.2498
  714MPD2    N110617   3.041   1.868   1.224  0.3687  0.4706 -0.1673
  714MPD2    H710618   3.104   1.820   1.287 -0.5662 -0.4492  0.0478
  715TMC3    C110619   3.098   1.684   1.093  1.3476 -0.1749  0.6587
  715TMC3    C210620   3.070   1.583   0.997 -0.3216  0.3193 -0.4163
  715TMC3    C310621   3.177   1.523   0.937  0.4055 -0.0960 -0.3264
  715TMC3    C410622   3.227   1.713   1.122  0.0146 -0.2298  0.2984
  715TMC3    C510623   3.326   1.630   1.070 -0.0596  0.5329  0.1594
  715TMC3    C610624   3.305   1.534   0.984 -0.1201  0.4586  0.2087
  715TMC3     C10625   3.014   1.796   1.112 -0.1869  0.7254 -0.4879
  715TMC3     O10626   2.920   1.795   1.033 -0.5168 -0.0707 -0.2054
  715TMC3     H10627   2.968   1.558   0.969  0.4104 -2.4243 -0.5764
  715TMC3    H110628   3.257   1.802   1.176  1.4696 -1.1709  1.0570
  715TMC3    H210629   3.392   1.493   0.934 -1.4161 -2.4188  0.3606
  715TMC3    C710630   3.459   1.668   1.108 -0.1768  0.7078 -0.1563
  715TMC3    C810631   3.149   1.428   0.828 -0.1827  0.5489 -0.6929
  715TMC3    O110632   3.558   1.640   1.040  0.1170  0.1533 -1.0156
  715TMC3    O210633   3.237   1.346   0.799 -0.2943  0.4805 -0.1559
  716MPD2     C10634   2.744   4.104   9.643 -0.7185  0.3618 -0.3270
  716MPD2    C110635   2.696   4.028   9.541  0.1711  0.7507 -0.2693
  716MPD2    C210636   2.700   3.888   9.553  0.7749 -0.6736 -0.2392
  716MPD2    C310637   2.756   3.830   9.658  0.2090  0.0112 -0.4878
  716MPD2    C410638   2.810   3.905   9.765 -0.0995  1.1440 -0.2056
  716MPD2    C510639   2.810   4.042   9.749 -0.3603 -0.6017 -0.7975
  716MPD2     H10640   2.666   3.829   9.468 -2.5014 -0.9282  1.2655
  716MPD2    H110641   2.852   3.860   9.854 -1.5113  1.6304  0.7173
  716MPD2    H210642   2.748   4.210   9.621 -4.4674  0.4117 -0.7895
  716MPD2    H310643   2.839   4.096   9.838  1.2851 -1.1415 -0.9950
  716MPD2     N10644   2.759   3.691   9.661 -0.6090 -0.3805 -0.4969
  716MPD2    H510645   2.743   3.644   9.572  1.8140  1.1240 -1.7433
  716MPD2    N110646   2.642   4.104   9.438  0.8625  0.3945 -0.0327
  716MPD2    H710647   2.653   4.205   9.438 -1.1168  0.6203 -0.0923
  717TMC3    C110648   2.763   3.477   9.731 -0.3728 -0.4746 -0.3862
  717TMC3    C210649   2.691   3.448   9.622  0.1404  0.0569 -0.2088
  717TMC3    C310650   2.683   3.318   9.579  0.5629  0.1381 -0.0631
  717TMC3    C410651   2.814   3.378   9.813 -0.0062  0.0187 -0.8304
  717TMC3    C510652   2.792   3.245   9.777  0.4215  0.1882 -0.6795
  717TMC3    C610653   2.725   3.214   9.660 -0.2453  0.6741  0.0526
  717TMC3     C10654   2.790   3.611   9.765  0.2120 -0.6608  0.7519
  717TMC3     O10655   2.840   3.641   9.873 -0.2986  0.1603 -0.9228
  717TMC3     H10656   2.651   3.521   9.553 -3.6115 -0.5173  1.3716
  717TMC3    H110657   2.870   3.398   9.904 -1.4509 -0.1180  0.0873
  717TMC3    H210658   2.716   3.111   9.629  2.8552  0.3794  0.1630
  717TMC3    C710659   2.869   3.144   9.840  0.7462  0.6079  0.4467
  717TMC3    C810660   2.643   3.299   9.446 -0.6487  0.4772 -0.2843
  717TMC3    O110661   2.849   3.031   9.804  0.2946  0.0913  0.1464
  717TMC3    O210662   2.620   3.399   9.380 -0.7706  1.0522 -0.1521
  718MPD2     C10663   1.672   2.768  12.348  0.1791  0.1226 -0.0306
  718MPD2    C110664   1.621   2.644  12.305 -0.7479  0.6158  0.0189
  718MPD2    C210665   1.573   2.554  12.399 -0.0490 -0.9803  0.6654
  718MPD2    C310666   1.561   2.589  12.537  0.0115 -0.7286 -0.3184
  718MPD2    C410667   1.614   2.711  12.574 -0.1508 -0.6489  0.0337
  718MPD2    C510668   1.673   2.798  12.481  0.3829  0.8323 -0.0461
  718MPD2     H10669   1.535   2.456  12.372  0.6035 -1.2985  0.8964
  718MPD2    H110670   1.615   2.742  12.678 -1.4852  0.4991 -0.2891
  718MPD2    H210671   1.739   2.831  12.290 -0.7089  1.0021 -0.1090
  718MPD2    H310672   1.710   2.891  12.523  1.7883  0.1080  0.3100
  718MPD2     N10673   1.507   2.494  12.621  0.2154 -0.8203 -0.2353
  718MPD2    H510674   1.468   2.411  12.577  0.2871 -1.1120  0.2597
  718MPD2    N110675   1.645   2.597  12.173 -0.7721  0.1411 -0.5550
  718MPD2    H710676   1.720   2.642  12.122  0.7971 -2.7178 -0.7399
  719TMC3    C110677   1.667   2.434  11.997 -0.0716 -0.5167 -0.7008
  719TMC3    C210678   1.614   2.314  11.955  0.4367 -0.0866  0.2282
  719TMC3    C310679   1.704   2.212  11.948 -0.3542 -0.0807 -0.9629
  719TMC3    C410680   1.802   2.450  12.014  0.2822  0.4799  0.5713
  719TMC3    C510681   1.886   2.352  11.977 -0.0815 -0.6005  0.4257
  719TMC3    C610682   1.842   2.229  11.956 -0.0993  0.2083 -0.2725
  719TMC3     C10683   1.600   2.478  12.119  0.1252 -0.3612  0.0331
  719TMC3     O10684   1.496   2.418  12.156 -0.0018  0.3309  0.1981
  719TMC3     H10685   1.509   2.292  11.938  0.6313  0.0689 -1.1649
  719TMC3    H110686   1.844   2.547  12.036  0.8833  0.5814 -0.9961
  719TMC3    H210687   1.918   2.152  11.953 -0.9702 -0.6032 -2.0852
  719TMC3    C710688   2.031   2.381  11.975 -0.2928  0.2645  0.8669
  719TMC3    C810689   1.660   2.088  12.008 -0.5878 -0.0796  0.1401
  719TMC3    O110690   2.059   2.486  11.920 -0.2087  0.1090  0.4910
  719TMC3    O210691   1.723   1.987  11.979 -0.4160 -0.1610 -0.1363
  720MPD2     C10692   0.465   4.453  13.634 -0.1104 -0.0616  0.2252
  720MPD2    C110693   0.532   4.510  13.526  0.6420  0.0079 -0.7807
  720MPD2    C210694   0.668   4.539  13.536 -0.0506  0.8683  0.4154
  720MPD2    C310695   0.728   4.533  13.657 -0.1562 -0.1802  0.3186
  720MPD2    C410696   0.661   4.471  13.764 -0.6267 -0.8906 -0.2471
  720MPD2    C510697   0.533   4.438  13.754 -0.2193 -0.4393 -0.1088
  720MPD2     H10698   0.719   4.597  13.460 -2.3690  1.8387 -0.3983
  720MPD2    H110699   0.707   4.439  13.857  1.8124  1.3209 -0.6950
  720MPD2    H210700   0.359   4.430  13.636 -0.4944  1.7188  0.5822
  720MPD2    H310701   0.481   4.390  13.836  1.8769 -1.8951  0.3656
  720MPD2     N10702   0.860   4.578  13.677 -0.0287  0.2699 -0.6112
  720MPD2    H510703   0.906   4.623  13.598 -3.8894 -1.6471 -3.9231
  720MPD2    N110704   0.475   4.529  13.394  0.4093 -0.0247 -0.0003
  720MPD2    H710705   0.529   4.576  13.322  2.0936 -1.8459  0.0869
  721TMC3    C110706   1.056   4.664  13.775  0.1888 -0.2438 -0.4817
  721TMC3    C210707   1.097   4.724  13.891 -0.1182 -0.3948 -0.0845
  721TMC3    C310708   1.234   4.715  13.916 -0.1277  0.5256 -0.0215
  721TMC3    C410709   1.140   4.623  13.676  1.1561  0.0200 -0.2972
  721TMC3    C510710   1.275   4.630  13.699 -0.2386 -0.0294 -0.4285
  721TMC3    C610711   1.323   4.673  13.816 -0.1602  0.4439  0.2518
  721TMC3     C10712   0.930   4.595  13.793  0.4680  0.6124  0.3743
  721TMC3     O10713   0.897   4.575  13.911  0.2327  1.0749 -0.9304
  721TMC3     H10714   1.025   0.029  13.961 -1.0125  0.8682 -1.7393
  721TMC3    H110715   1.102   4.581  13.584  2.2041 -1.3927 -0.0801
  721TMC3    H210716   1.431   4.669  13.830 -0.1957 -2.2850 -0.1267
  721TMC3    C710717   1.371   4.557  13.616 -0.7789  0.7407 -0.1428
  721TMC3    C810718   1.274   0.026  14.053 -0.1385  0.5496  0.2807
  721TMC3    O110719   1.488   4.581  13.631  0.1975  0.3166  0.6020
  721TMC3    O210720   1.362   0.115  14.061 -0.1543  0.0587  0.4746
  722MPD2     C10721   4.391   2.963  12.726  0.0904 -0.6922 -0.2771
  722MPD2    C110722   4.372   3.093  12.687 -0.4784  0.2689 -1.0796
  722MPD2    C210723   4.246   3.128  12.640 -0.3571 -0.0206  0.0315
  722MPD2    C310724   4.145   3.043  12.620 -0.2163  0.5200  0.6100
  722MPD2    C410725   4.167   2.915  12.673 -0.2903  0.0360  0.0172
  722MPD2    C510726   4.284   2.875  12.727 -0.2078  0.0098 -0.1179
  722MPD2     H10727   4.235   3.229  12.601 -1.4468 -1.0667 -2.3592
  722MPD2    H110728   4.098   2.832  12.669  2.9225 -2.6062 -0.6492
  722MPD2    H210729   4.480   2.929  12.777  0.2008  0.0672  0.0316
  722MPD2    H310730   4.297   2.775  12.767 -0.1247 -0.2828 -0.8760
  722MPD2     N10731   4.038   3.089  12.547 -0.1213  0.2928  0.0295
  722MPD2    H510732   4.030   3.188  12.528 -1.7745  0.0789 -0.3848
  722MPD2    N110733   4.470   3.196  12.696 -0.1719 -0.0041  0.0316
  722MPD2    H710734   4.441   3.290  12.671 -0.1729 -0.0843 -0.2792
  723TMC3    C110735   3.849   3.083  12.406 -0.6100 -0.1502  0.0611
  723TMC3    C210736   3.761   2.997  12.329 -0.3701  0.0920 -0.1087
  723TMC3    C310737   3.636   3.048  12.297 -0.2876 -0.3405  0.0996
  723TMC3    C410738   3.805   3.207  12.445 -0.4575  1.0070  0.5699
  723TMC3    C510739   3.687   3.255  12.409 -0.1944  1.0190 -0.5383
  723TMC3    C610740   3.600   3.179  12.334 -1.0663  0.3012 -0.1110
  723TMC3     C10741   3.953   3.005  12.481  0.7641 -0.2957 -0.2197
  723TMC3     O10742   3.957   2.886  12.463 -0.0206  0.2880  0.3310
  723TMC3     H10743   3.777   2.891  12.313  1.4445  0.4308 -0.4758
  723TMC3    H110744   3.872   3.258  12.513  0.6005  0.8932 -0.3751
  723TMC3    H210745   3.505   3.222  12.304 -1.6525 -0.6316  0.4137
  723TMC3    C710746   3.650   3.382  12.461  0.2618 -0.5366 -0.7598
  723TMC3    C810747   3.532   2.953  12.251  0.6462 -0.2770 -0.2638
  723TMC3    O110748   3.712   3.428  12.555 -0.1596  0.0644  0.0300
  723TMC3    O210749   3.455   2.995  12.164 -0.3621 -0.4197 -0.2018
  724TMC3    C110750   3.862   1.270   9.438  0.5614 -1.1345  0.1888
  724TMC3    C210751   3.820   1.396   9.404 -0.1150  0.0073 -0.4393
  724TMC3    C310752   3.913   1.485   9.353  0.6623  0.0507 -0.5561
  724TMC3    C410753   3.980   1.219   9.402  0.1180 -0.5430  0.4504
  724TMC3    C510754   4.067   1.299   9.331  0.2055  0.2752  0.3846
  724TMC3    C610755   4.034   1.436   9.313  0.3498  0.1988 -0.5467
  724TMC3     C10756   3.770   1.177   9.494  0.1704 -0.8340 -0.0461
  724TMC3     O10757   3.819   1.067   9.510  0.3163 -0.2922  0.1171
  724TMC3     H10758   3.736   1.433   9.462 -0.1176 -0.7248  0.0314
  724TMC3    H110759   4.012   1.120   9.431  0.0052 -0.9239 -0.7300
  724TMC3    H210760   4.114   1.504   9.283 -0.5808  0.6664 -1.9975
  724TMC3    C710761   4.204   1.254   9.309 -0.3290 -0.0553 -0.1149
  724TMC3    C810762   3.864   1.620   9.316  0.5391 -0.0587  0.4685
  724TMC3    O110763   4.287   1.336   9.277  0.2660  0.3553 -0.1114
  724TMC3    O210764   3.747   1.637   9.285  0.6336 -0.5298 -0.0994
  725TMC3    C110765   1.378   4.225  12.309 -0.1076  0.6643  0.3073
  725TMC3    C210766   1.374   4.265  12.172  0.6260  0.3431  0.1704
  725TMC3    C310767   1.353   4.174  12.072  0.6596  0.5127  0.2781
  725TMC3    C410768   1.352   4.096  12.339 -0.0178 -0.4827 -0.1552
  725TMC3    C510769   1.340   4.008  12.238  0.8267  0.0772 -0.0576
  725TMC3    C610770   1.349   4.036  12.103  0.1911 -0.1880  0.1960
  725TMC3     C10771   1.456   4.306  12.395  0.2049  0.7080 -0.9731
  725TMC3     O10772   1.427   4.307  12.512 -0.1399  0.0218  0.0731
  725TMC3     H10773   1.385   4.371  12.150  0.4128  0.2875 -0.1988
  725TMC3    H110774   1.359   4.070  12.444  0.3351 -1.0874 -0.3304
  725TMC3    H210775   1.335   3.962  12.025  0.5129 -0.4153  0.3539
  725TMC3    C710776   1.358   3.870  12.273  0.7466 -0.1964 -0.4084
  725TMC3    C810777   1.258   4.221  11.964  0.6890  1.0354 -0.6845
  725TMC3    O110778   1.389   3.791  12.188  0.4325  0.1838  0.2762
  725TMC3    O210779   1.177   4.137  11.927  0.1205  0.6383  0.6228
  726MPD2     C10780   3.938   1.615  10.132 -0.1770  0.3498 -0.4511
  726MPD2    C110781   3.799   1.619  10.099 -0.2619  0.6258  0.6286
  726MPD2    C210782   3.707   1.524  10.149 -0.2448 -0.6497 -0.1978
  726MPD2    C310783   3.749   1.420  10.236  0.0230  0.4220  0.5460
  726MPD2    C410784   3.884   1.421  10.273 -0.5453  0.3073  0.4463
  726MPD2    C510785   3.969   1.505  10.215  0.4851 -0.2344  0.4239
  726MPD2     H10786   3.600   1.529  10.134 -0.0624  0.5270 -1.1936
  726MPD2    H110787   3.913   1.345  10.345  1.2880 -0.4535 -1.1016
  726MPD2    H210788   4.016   1.669  10.079  1.4375 -0.1901  1.3919
  726MPD2    H310789   4.075   1.489  10.225  0.7241  0.1119 -1.5522
  726MPD2     N10790   3.660   1.321  10.279 -0.4948 -0.8638 -0.1032
  726MPD2    H510791   3.697   1.243  10.332 -0.6909 -0.8536  0.0493
  726MPD2    N110792   3.743   1.728  10.022 -0.0934 -0.2170 -0.2639
  726MPD2    H710793   3.642   1.737  10.018 -0.0376 -1.3849 -4.8147
  727TMC3    C110794   3.737   1.934   9.910  0.7695 -0.1281 -0.2779
  727TMC3    C210795   3.798   2.050   9.866 -0.4789  0.0269 -0.3922
  727TMC3    C310796   3.722   2.147   9.801  0.1829  0.0129  0.7971
  727TMC3    C410797   3.606   1.909   9.865  0.2320  0.1662 -0.5670
  727TMC3    C510798   3.542   2.010   9.797  0.0824 -0.2748 -0.3133
  727TMC3    C610799   3.589   2.135   9.770 -0.1824 -0.0147 -0.2851
  727TMC3     C10800   3.818   1.826   9.964  0.8350  0.3797 -0.5374
  727TMC3     O10801   3.939   1.846   9.952 -0.0375 -0.4265  0.0429
  727TMC3     H10802   3.900   2.074   9.896 -1.0635  1.5474  0.4004
  727TMC3    H110803   3.552   1.818   9.882  2.9309 -1.6245 -1.5604
  727TMC3    H210804   3.533   2.195   9.699 -0.0892  1.0510  0.5412
  727TMC3    C710805   3.411   1.990   9.742 -0.3291 -0.1246  0.1962
  727TMC3    C810806   3.792   2.270   9.802  0.8980 -0.4755  0.0268
  727TMC3    O110807   3.335   1.910   9.796 -0.1493 -0.2753 -0.1262
  727TMC3    O210808   3.902   2.262   9.752  0.2410  0.4286 -0.1032
  728TMC3    C110809   3.142   0.538  15.030  0.1351 -0.5055 -0.7141
  728TMC3    C210810   3.267   0.504  14.975 -0.4391  0.3637 -0.4304
  728TMC3    C310811   3.304   0.555  14.854  0.1427 -0.5403  0.1191
  728TMC3    C410812   3.053   0.619  14.964 -0.4288 -0.1263 -0.2793
  728TMC3    C510813   3.101   0.675  14.845  0.1526  0.0350  0.1952
  728TMC3    C610814   3.223   0.644  14.786  1.0292 -0.3539  0.2730
  728TMC3     C10815   3.121   0.485  15.164 -0.3095 -0.8685 -0.2220
  728TMC3     O10816   3.219   0.466  15.235 -0.6838  0.0994  0.4387
  728TMC3     H10817   3.340   0.448  15.031 -0.6937  0.3319 -0.1281
  728TMC3    H110818   2.964   0.662  15.008  0.8610  1.8625  0.4092
  728TMC3    H210819   3.243   0.682  14.687  1.2720 -1.6613 -0.1800
  728TMC3    C710820   2.995   0.735  14.761  1.6273 -0.0973 -0.0076
  728TMC3    C810821   3.424   0.494  14.800 -0.6513 -0.2370 -0.5634
  728TMC3    O110822   2.880   0.709  14.792  0.6848  0.1391 -0.5267
  728TMC3    O210823   3.515   0.456  14.867  0.4014  0.2008  0.3337
  729MPD2     C10824   1.089   1.462  16.899 -0.3242  0.5056  0.0804
  729MPD2    C110825   1.134   1.583  16.847  0.2109  0.2319  1.3719
  729MPD2    C210826   1.163   1.688  16.938  0.5172  0.3424  0.4948
  729MPD2    C310827   1.157   1.658  17.072  0.1927 -0.0557 -0.0906
  729MPD2    C410828   1.118   1.536  17.118 -0.3269 -0.7149  0.1085
  729MPD2    C510829   1.075   1.439  17.033  0.3239  0.4678 -0.3813
  729MPD2     H10830   1.161   1.789  16.899 -0.2196  0.3410  0.5292
  729MPD2    H110831   1.121   1.508  17.223 -2.2052 -0.9879  0.0785
  729MPD2    H210832   1.054   1.387  16.828 -0.2713  0.4689  0.0929
  729MPD2    H310833   1.032   1.344  17.063 -0.2295  1.2492  1.2911
  729MPD2     N10834   1.157   1.752  17.176 -0.7626 -0.6654 -0.5614
  729MPD2    H510835   1.127   1.723  17.268 -0.2917  2.0547  0.4691
  729MPD2    N110836   1.143   1.599  16.708 -0.1311  0.0506 -0.1360
  729MPD2    H710837   1.103   1.526  16.650  0.5778 -0.9488  0.6369
  730TMC3    C110838   1.164   1.971  17.274  0.0480  0.3778 -0.6860
  730TMC3    C210839   1.240   2.083  17.266  0.4849  0.4904 -0.3781
  730TMC3    C310840   1.183   2.191  17.328 -0.0392 -0.1285 -0.2709
  730TMC3    C410841   1.038   1.967  17.325 -0.0530 -0.3256 -0.5480
  730TMC3    C510842   0.986   2.077  17.392  0.9357  0.3876 -0.2257
  730TMC3    C610843   1.069   2.186  17.405 -0.1609  0.2062  0.2608
  730TMC3     C10844   1.198   1.882  17.164 -0.0945 -0.0615 -0.5584
  730TMC3     O10845   1.269   1.925  17.074 -0.0095 -0.7143 -0.2971
  730TMC3     H10846   1.332   2.089  17.210  0.8311  0.2232  0.1634
  730TMC3    H110847   0.970   1.886  17.302  0.4717 -0.7578 -0.5649
  730TMC3    H210848   1.039   2.269  17.469  1.4177  0.0966  1.1420
  730TMC3    C710849   0.864   2.115  17.332  0.5702 -0.6106 -0.1067
  730TMC3    C810850   1.189   2.304  17.244 -0.2503 -0.5342 -0.1847
  730TMC3    O110851   0.803   2.045  17.253  0.3122 -0.0651 -0.2196
  730TMC3    O210852   1.181   2.287  17.121 -0.3265 -0.0616 -0.2576
  731MPD2     C10853   0.918   3.814  11.676 -0.0081  0.3013 -0.2562
  731MPD2    C110854   0.920   3.693  11.729 -0.9022  0.1805 -0.4266
  731MPD2    C210855   0.849   3.671  11.850  0.6123  0.6659  0.3055
  731MPD2    C310856   0.769   3.777  11.904  0.1311  0.9416  0.5653
  731MPD2    C410857   0.774   3.905  11.845 -0.2208 -0.6513 -0.1806
  731MPD2    C510858   0.850   3.918  11.733 -0.2046 -0.7798  0.6487
  731MPD2     H10859   0.844   3.571  11.891  0.9257  0.5221 -0.0096
  731MPD2    H110860   0.725   3.992  11.887 -0.3325 -0.0204 -1.5986
  731MPD2    H210861   0.974   3.826  11.584  1.0453 -0.1085  0.3364
  731MPD2    H310862   0.855   4.012  11.679  0.3300  0.6422  3.1905
  731MPD2     N10863   0.699   3.760  12.027 -0.2664 -0.6890  0.0942
  731MPD2    H510864   0.715   3.668  12.066 -1.3649 -0.9862 -0.1576
  731MPD2    N110865   0.990   3.592  11.658 -0.1805 -0.1322 -0.4256
  731MPD2    H710866   1.034   3.623  11.572  0.4206  0.0933 -0.0339
  732TMC3    C110867   1.039   3.384  11.574  0.6262  0.6102  0.6048
  732TMC3    C210868   0.958   3.412  11.468 -0.2107  0.4212  0.3948
  732TMC3    C310869   0.985   3.334  11.353  0.6874  0.2220  0.6198
  732TMC3    C410870   1.135   3.283  11.587  0.2425 -0.0178  0.1678
  732TMC3    C510871   1.147   3.206  11.475 -0.1826  0.1764  0.5205
  732TMC3    C610872   1.070   3.239  11.366  0.2673 -0.4057  0.9769
  732TMC3     C10873   1.011   3.462  11.689  0.2606 -0.2274 -0.3243
  732TMC3     O10874   1.029   3.408  11.796  0.2355  0.3256 -0.3623
  732TMC3     H10875   0.866   3.466  11.485  0.2189  1.4293 -0.4982
  732TMC3    H110876   1.179   3.271  11.685  2.6367  0.2030 -0.8965
  732TMC3    H210877   1.093   3.191  11.272  0.7298  0.6276  0.5519
  732TMC3    C710878   1.241   3.100  11.466  0.4591 -0.7519  0.9895
  732TMC3    C810879   0.889   3.360  11.242 -0.3750  0.6169  0.8646
  732TMC3    O110880   1.233   3.011  11.385 -0.0436  1.0551  0.3375
  732TMC3    O210881   0.866   3.264  11.168  0.1369  0.2977 -0.0739
  733TMC3    C110882   1.314   2.257  12.959 -0.4637 -0.0900 -0.4939
  733TMC3    C210883   1.375   2.374  12.927  0.7400  0.1443 -0.3540
  733TMC3    C310884   1.460   2.380  12.815 -0.7133  0.1389  0.2396
  733TMC3    C410885   1.323   2.150  12.881  0.6149 -0.4288 -0.2251
  733TMC3    C510886   1.394   2.161  12.766 -0.3425  0.0140  0.6286
  733TMC3    C610887   1.469   2.268  12.733 -0.0230  0.4404  0.1772
  733TMC3     C10888   1.181   2.294  13.013  0.1966 -0.8760 -0.2306
  733TMC3     O10889   1.150   2.413  13.011 -0.7614 -0.0366  0.1501
  733TMC3     H10890   1.374   2.463  12.989  0.5185  0.0721 -0.2575
  733TMC3    H110891   1.257   2.064  12.879 -0.1602  0.1572  0.5245
  733TMC3    H210892   1.546   2.273  12.657  1.4412  0.5859  1.6436
  733TMC3    C710893   1.386   2.049  12.675  0.0212 -0.1968 -0.7469
  733TMC3    C810894   1.506   2.505  12.759  0.6610 -0.4031  0.7447
  733TMC3    O110895   1.405   1.933  12.716 -0.2859 -1.0883  0.3499
  733TMC3    O210896   1.550   2.587  12.837 -0.1410 -0.2988 -0.0555
  734MPD2     C10897   3.603   4.400  12.199 -0.2351  0.4269  0.1351
  734MPD2    C110898   3.502   4.336  12.130 -0.0369  0.0979 -0.0365
  734MPD2    C210899   3.450   4.405  12.020 -0.4612 -0.4122 -0.0044
  734MPD2    C310900   3.515   4.517  11.971  0.0509 -0.1374 -0.3640
  734MPD2    C410901   3.611   4.575  12.046 -0.6999  0.5992 -0.0603
  734MPD2    C510902   3.646   4.525  12.166  0.6625  0.2623  0.4530
  734MPD2     H10903   3.366   4.380  11.956  0.5712  1.0379 -1.9595
  734MPD2    H110904   3.665   4.666  12.020  0.7439 -0.2747 -0.1387
  734MPD2    H210905   3.648   4.353  12.286  0.3180  1.4655  0.4103
  734MPD2    H310906   3.728   4.566  12.224  2.0676 -0.9952 -0.6560
  734MPD2     N10907   3.474   4.557  11.844  0.2114 -0.0103 -0.9252
  734MPD2    H510908   3.394   4.504  11.812  1.3551 -1.6678 -1.0657
  734MPD2    N110909   3.448   4.207  12.167  0.4386 -0.4177 -1.1335
  734MPD2    H710910   3.492   4.158  12.244  0.7034 -2.2959 -2.4852
  735TMC3    C110911   3.333   4.005  12.132  0.4009 -0.2576 -0.4412
  735TMC3    C210912   3.231   3.937  12.065 -0.1822  0.1810  0.1223
  735TMC3    C310913   3.271   3.821  12.009 -0.7958  0.2727  0.2507
  735TMC3    C410914   3.448   3.946  12.173  0.0733 -0.0699 -0.4061
  735TMC3    C510915   3.482   3.819  12.122 -0.2566  0.2789  0.1338
  735TMC3    C610916   3.396   3.765  12.031 -0.7855  0.3324 -0.3822
  735TMC3     C10917   3.340   4.145  12.098  0.1436 -0.1819  0.0409
  735TMC3     O10918   3.266   4.182  12.007 -0.0053 -0.3589  0.4151
  735TMC3     H10919   3.135   3.985  12.049  0.0176  0.7145  0.5176
  735TMC3    H110920   3.512   3.982  12.253  0.4128 -1.6146  0.0228
  735TMC3    H210921   3.429   3.681  11.972 -0.0543  0.1546  0.2845
  735TMC3    C710922   3.617   3.768  12.134 -0.6378 -0.1998 -0.0472
  735TMC3    C810923   3.235   3.809  11.871 -0.1007 -0.6191 -0.3598
  735TMC3    O110924   3.700   3.859  12.152 -0.3681  0.5526  0.3703
  735TMC3    O210925   3.230   3.695  11.817  0.0510  0.1052 -0.1490
  736MPD2     C10926   3.749   3.407  12.099 -0.5162  0.1903 -0.0032
  736MPD2    C110927   3.750   3.547  12.115  0.0107  0.3984 -0.5803
  736MPD2    C210928   3.875   3.605  12.101  0.0524  0.2986 -0.6859
  736MPD2    C310929   3.997   3.530  12.088 -0.6335 -0.0087  0.3542
  736MPD2    C410930   3.987   3.396  12.104  0.0068  0.3283  0.6718
  736MPD2    C510931   3.867   3.334  12.096  0.3898 -0.3666  0.4863
  736MPD2     H10932   3.887   3.712  12.099  1.6067  0.1845  1.4966
  736MPD2    H110933   4.076   3.333  12.104 -0.4366 -0.2953  0.5713
  736MPD2    H210934   3.655   3.357  12.081 -0.0628 -0.2571 -1.1007
  736MPD2    H310935   3.860   3.226  12.103 -0.3729 -0.3883 -0.5698
  736MPD2     N10936   4.121   3.590  12.064 -0.0524  0.0486 -0.0642
  736MPD2    H510937   4.187   3.525  12.022  1.6958  1.2301  0.8801
  736MPD2    N110938   3.633   3.626  12.122  0.7147  0.1650  0.1180
  736MPD2    H710939   3.544   3.577  12.114  0.9291 -0.0697 -0.9243
  737TMC3    C110940   4.241   3.780  11.985  0.1345 -0.2464  0.1744
  737TMC3    C210941   4.262   3.913  11.994  0.4626 -0.1824  0.4784
  737TMC3    C310942   4.290   3.974  11.879 -0.2351  0.0309 -0.0371
  737TMC3    C410943   4.265   3.708  11.867  0.4384  0.6247 -0.0296
  737TMC3    C510944   4.320   3.774  11.758  0.0423 -0.3190 -0.2171
  737TMC3    C610945   4.328   3.909  11.765  0.5017 -0.1766  0.1175
  737TMC3     C10946   4.144   3.727  12.078 -1.2775 -0.0402  0.0854
  737TMC3     O10947   4.077   3.808  12.142  0.1953 -0.2801  0.4412
  737TMC3     H10948   4.225   3.973  12.076  0.7561  1.2228 -0.4264
  737TMC3    H110949   4.253   3.600  11.863  0.5557  0.7344 -2.9264
  737TMC3    H210950   4.360   3.967  11.679  2.5697 -1.1862  0.2161
  737TMC3    C710951   4.393   3.702  11.657  0.1292  0.3587  0.1463
  737TMC3    C810952   4.292   4.114  11.876 -0.2166 -0.0151  0.7177
  737TMC3    O110953   4.406   3.584  11.672  0.0790 -0.7769 -0.2593
  737TMC3    O210954   4.334   4.174  11.977 -0.1458 -0.8340 -0.3235
  738MPD2     C10955   4.453   3.525  14.998 -0.6043  0.2251  0.5374
  738MPD2    C110956   4.438   3.494  14.865 -0.3410  0.6429  0.3081
  738MPD2    C210957   4.523   3.544  14.776  0.2310 -0.3478 -0.5838
  738MPD2    C310958   4.641   3.601  14.820 -0.0814  0.3489 -0.2020
  738MPD2    C410959   4.656   3.636  14.952 -0.2945 -0.1535  0.2480
  738MPD2    C510960   4.558   3.597  15.043  0.1763  0.2632  0.3519
  738MPD2     H10961   4.513   3.520  14.671 -0.1321  1.0049 -0.8503
  738MPD2    H110962   0.002   3.695  14.993 -0.3981  1.7141 -2.2552
  738MPD2    H210963   4.392   3.488  15.080  0.0060  1.3267  1.4829
  738MPD2    H310964   4.578   3.612  15.148  2.4159 -2.7575  0.3667
  738MPD2     N10965   0.013   3.634  14.730  1.2378  0.0435  0.9859
  738MPD2    H510966   0.091   3.680  14.777  0.1944  2.4629  0.3554
  738MPD2    N110967   4.336   3.417  14.824  0.3017  0.0652  0.1407
  738MPD2    H710968   4.262   3.405  14.892  0.5117 -1.2342  0.1381
  739TMC3    C110969   0.139   3.651  14.532 -0.2831 -0.2158 -0.2810
  739TMC3    C210970   0.135   3.693  14.407 -0.9823 -0.4523  0.2635
  739TMC3    C310971   0.252   3.734  14.350 -0.5025  0.9891 -0.5912
  739TMC3    C410972   0.257   3.648  14.609  0.6519  0.1185 -0.0371
  739TMC3    C510973   0.375   3.697  14.554 -0.7064 -0.2479 -0.1399
  739TMC3    C610974   0.372   3.731  14.420 -0.3752 -0.4702 -0.1364
  739TMC3     C10975   0.018   3.607  14.595 -0.1350 -0.2370  0.3689
  739TMC3     O10976   4.679   3.537  14.531 -0.1082  0.2763 -0.3276
  739TMC3     H10977   0.039   3.704  14.358  0.4009 -1.0739 -2.6098
  739TMC3    H110978   0.249   3.614  14.711  2.8731  1.0565  0.4553
  739TMC3    H210979   0.466   3.755  14.372 -0.0076 -1.1001  0.2829
  739TMC3    C710980   0.493   3.662  14.613  0.4436 -0.3909  0.5330
  739TMC3    C810981   0.249   3.788  14.218  0.9400 -0.5926 -0.3523
  739TMC3    O110982   0.492   3.570  14.697  0.0781  0.9168  0.4427
  739TMC3    O210983   0.155   3.752  14.157  0.1898  0.5463 -0.1309
  740TMC3    C110984   0.061   0.246  13.956 -0.5512 -0.6964  0.4847
  740TMC3    C210985   0.153   0.147  13.986  0.1749  1.0861  0.2153
  740TMC3    C310986   0.255   0.122  13.902 -0.0712  0.3598  0.1175
  740TMC3    C410987   0.062   0.319  13.839  0.3972 -1.0028  0.1890
  740TMC3    C510988   0.168   0.284  13.751 -0.2816 -0.2108 -0.1005
  740TMC3    C610989   0.272   0.199  13.783  0.6465 -0.6441  0.1514
  740TMC3     C10990   4.721   0.318  14.057 -0.3241  0.2966 -0.2970
  740TMC3     O10991   4.695   0.427  14.019  0.0767  0.1652  0.4853
  740TMC3     H10992   0.143   0.091  14.079 -2.3012  1.0150 -0.0996
  740TMC3    H110993   4.715   0.381  13.804 -0.2883 -1.6090  0.7536
  740TMC3    H210994   0.358   0.185  13.718 -1.0789  0.6329 -2.4303
  740TMC3    C710995   0.148   0.330  13.622 -0.0788  0.0374  0.2943
  740TMC3    C810996   0.361   0.023  13.925 -0.3118  0.0955 -0.9240
  740TMC3    O110997   0.071   0.424  13.601  0.2224 -0.7270  0.1511
  740TMC3    O210998   0.458   0.032  13.850  0.1057  0.4575 -0.0379
  741TMC3    C110999   0.009   4.033  14.283  0.4375  0.3901 -0.5387
  741TMC3    C211000   4.633   3.961  14.254  0.3199 -0.2000  0.4695
  741TMC3    C311001   4.579   3.884  14.350  0.1111  0.3854  0.5251
  741TMC3    C411002   0.061   4.040  14.413  0.2453  0.0951 -0.4342
  741TMC3    C511003   4.727   3.971  14.508  0.1906  0.0505 -0.0454
  741TMC3    C611004   4.621   3.887  14.478 -1.1164 -0.2429  0.6089
  741TMC3     C11005   0.071   4.124  14.188  0.0249  0.2050 -0.0743
  741TMC3     O11006   0.150   4.207  14.230 -0.0623  0.2872 -0.1396
  741TMC3     H11007   4.589   3.964  14.154 -0.3782 -2.1802  0.7142
  741TMC3    H111008   0.154   4.092  14.435  1.4154 -2.3180  0.3260
  741TMC3    H211009   4.566   3.839  14.559 -0.0052 -0.5995  1.1586
  741TMC3    C711010   0.044   3.979  14.640 -0.3220 -0.2616 -0.5192
  741TMC3    C811011   4.492   3.784  14.300  0.1291  0.2556 -0.4068
  741TMC3    O111012   0.166   3.995  14.661  0.0838  0.1780 -0.1138
  741TMC3    O211013   4.417   3.725  14.378  0.3960 -0.2123 -0.1725
  742TMC3    C111014   4.614   2.724  15.223 -0.9673 -0.5316 -0.1221
  742TMC3    C211015   4.542   2.743  15.112  0.5730 -0.3779  0.2868
  742TMC3    C311016   4.596   2.710  14.991  0.3922  0.1676 -0.2338
  742TMC3    C411017   4.731   2.649  15.221  0.9011 -0.2092  0.1539
  742TMC3    C511018   0.048   2.625  15.097  0.0897 -0.3188  0.2655
  742TMC3    C611019   4.723   2.654  14.985 -0.3388  0.4700  0.9639
  742TMC3     C11020   4.579   2.801  15.343  0.5688  0.1487  0.3772
  742TMC3     O11021   4.456   2.815  15.358 -0.2195  0.5885 -0.4904
  742TMC3     H11022   4.459   2.814  15.110 -0.4533 -1.5229  3.1707
  742TMC3    H111023   0.057   2.626  15.307  2.3209  1.7629 -0.3238
  742TMC3    H211024   0.026   2.614  14.892  0.0508 -0.4621  1.5261
  742TMC3    C711025   0.133   2.511  15.080  0.8528  0.1060 -0.3533
  742TMC3    C811026   4.531   2.719  14.862  0.2857 -0.3693 -0.2590
  742TMC3    O111027   0.203   2.506  14.982  0.0744 -0.3737  0.0651
  742TMC3    O211028   4.613   2.736  14.770 -0.5888 -0.5915  0.3403
  743MPD2     C11029   3.114   4.217   1.561 -0.3885  0.1772  0.1964
  743MPD2    C111030   3.075   4.111   1.478  0.2588  0.4230  0.0340
  743MPD2    C211031   3.157   4.064   1.377  0.1575  0.7055  0.9466
  743MPD2    C311032   3.285   4.116   1.367 -0.0578 -0.1755  0.0418
  743MPD2    C411033   3.326   4.222   1.454 -0.4367  0.0905 -0.0119
  743MPD2    C511034   3.242   4.275   1.542 -0.0948  0.8082  0.2871
  743MPD2     H11035   3.133   3.979   1.314 -0.8101  2.0501 -0.4875
  743MPD2    H111036   3.409   4.289   1.431 -1.7376  1.8250  0.3782
  743MPD2    H211037   3.051   4.247   1.644 -1.8976 -0.7624 -0.6101
  743MPD2    H311038   3.276   4.359   1.602  1.5577  0.3600 -0.0038
  743MPD2     N11039   3.372   4.067   1.270  0.1109  0.3094  0.2319
  743MPD2    H511040   3.330   4.009   1.198 -0.0807 -0.3090  0.8472
  743MPD2    N111041   2.948   4.058   1.504 -0.4182  0.2318  0.1436
  743MPD2    H711042   2.889   4.114   1.565  0.2853 -1.0770  2.0344
  744TMC3    C111043   2.761   3.932   1.443 -0.0290 -0.2482 -0.3123
  744TMC3    C211044   2.685   4.047   1.424 -0.0798 -0.2866 -0.4192
  744TMC3    C311045   2.575   4.035   1.347 -0.1590 -0.0935  0.0115
  744TMC3    C411046   2.714   3.817   1.392  0.0987  0.5534  0.3112
  744TMC3    C511047   2.602   3.809   1.322  0.0069 -0.1956 -0.1329
  744TMC3    C611048   2.536   3.920   1.283 -0.1714 -0.1752 -0.5063
  744TMC3     C11049   2.906   3.939   1.455  0.7924  0.1409 -0.3884
  744TMC3     O11050   2.962   3.843   1.407 -0.2578 -0.0639  0.6259
  744TMC3     H11051   2.731   4.145   1.429  0.9167 -0.7607 -0.1547
  744TMC3    H111052   2.767   3.724   1.408 -0.1761  0.0728 -1.4769
  744TMC3    H211053   2.441   3.912   1.231  0.5592 -0.1826 -1.8470
  744TMC3    C711054   2.586   3.689   1.242  0.8856 -0.7483  0.2137
  744TMC3    C811055   2.513   4.158   1.286 -0.2115  0.3771  0.6568
  744TMC3    O111056   2.618   3.583   1.289  0.0632 -0.2709 -0.2401
  744TMC3    O211057   2.445   4.129   1.188  0.9228 -0.7265 -0.4110
  745TMC3    C111058   4.531   2.163  13.323 -0.2887 -0.2966  0.3323
  745TMC3    C211059   4.460   2.218  13.424  0.3198 -1.0083 -0.2832
  745TMC3    C311060   4.354   2.293  13.388  0.5920 -0.2417 -0.1492
  745TMC3    C411061   4.500   2.177  13.191 -0.2323  0.5359 -0.1579
  745TMC3    C511062   4.384   2.246  13.164  0.4135  0.2825  0.0335
  745TMC3    C611063   4.309   2.302  13.266 -0.1745  0.3716 -0.7004
  745TMC3     C11064   4.674   2.130  13.346  0.2538 -0.5567  0.4803
  745TMC3     O11065   4.715   2.025  13.307 -0.2812 -0.4757  0.4230
  745TMC3     H11066   4.487   2.198  13.527 -0.2641 -3.2008 -0.5693
  745TMC3    H111067   4.565   2.130  13.118  2.1376  1.3020  1.4550
  745TMC3    H211068   4.228   2.370  13.240  0.2060  0.9463 -0.3721
  745TMC3    C711069   4.396   2.336  13.048 -0.8132  0.4099  0.6199
  745TMC3    C811070   4.318   2.411  13.465 -0.0316 -0.3070  0.6697
  745TMC3    O111071   4.294   2.384  13.000 -0.0800  0.1339 -0.2571
  745TMC3    O211072   4.229   2.481  13.421 -0.1696 -0.0066 -0.0486
  746TMC3    C111073   2.666   3.871  10.948  0.4380 -0.0255  0.0173
  746TMC3    C211074   2.733   3.807  10.850 -0.5324  1.0010  0.1455
  746TMC3    C311075   2.679   3.706  10.774 -0.8121  0.9435  0.5193
  746TMC3    C411076   2.539   3.833  10.959  0.6781 -0.2135 -0.6821
  746TMC3    C511077   2.487   3.735  10.880 -0.4107 -0.2314 -0.8334
  746TMC3    C611078   2.548   3.668  10.786  0.1864 -0.0339 -0.4044
  746TMC3     C11079   2.690   4.012  10.981  0.0622  0.3570 -0.9817
  746TMC3     O11080   2.596   4.067  11.041 -0.0726 -0.4746 -0.3375
  746TMC3     H11081   2.839   3.817  10.830  0.1847 -0.7505  3.1221
  746TMC3    H111082   2.472   3.892  11.020  0.2458  0.2916 -1.6541
  746TMC3    H211083   2.499   3.595  10.723  1.6261 -0.4546 -1.0282
  746TMC3    C711084   2.343   3.716  10.890 -0.1228 -0.4052  0.1971
  746TMC3    C811085   2.708   3.725  10.634 -0.0730  0.1687 -0.1338
  746TMC3    O111086   2.296   3.687  10.786 -0.4370 -0.0784  0.3377
  746TMC3    O211087   2.690   3.635  10.553 -0.6302 -0.0532  0.3349
  747TMC3    C111088   0.069   4.099  10.739  0.5670 -0.5414 -0.2035
  747TMC3    C211089   4.710   4.015  10.795  0.9053  0.6175  0.1875
  747TMC3    C311090   4.707   4.006  10.928 -0.0729 -0.0197 -0.5235
  747TMC3    C411091   0.131   4.199  10.809 -0.0538 -0.6024  0.0040
  747TMC3    C511092   0.109   4.205  10.941 -0.8724  0.3148  0.3948
  747TMC3    C611093   0.041   4.101  11.005  0.6833 -0.0498 -0.5159
  747TMC3     C11094   0.053   4.141  10.599 -0.2183 -0.2913  0.0060
  747TMC3     O11095   0.059   4.259  10.568  0.6249 -0.3990  0.3687
  747TMC3     H11096   4.649   3.954  10.729  0.6755 -0.6273  1.5417
  747TMC3    H111097   0.197   4.269  10.758 -0.9359  1.7166  2.0773
  747TMC3    H211098   0.036   4.089  11.113  0.4873 -0.7104 -0.6006
  747TMC3    C711099   0.203   4.288  11.019  0.1577 -0.1328 -0.8155
  747TMC3    C811100   4.634   3.892  10.986  0.3922 -0.5083  0.5987
  747TMC3    O111101   0.162   4.394  11.061  0.1094  0.3408  0.0456
  747TMC3    O211102   4.577   3.813  10.912  0.8390  0.0607 -0.0502
  748MPD2     C11103   1.835   0.678   0.881 -0.4552 -0.4922 -0.3630
  748MPD2    C111104   1.951   0.699   0.947  0.1633 -0.0050 -0.1858
  748MPD2    C211105   2.034   0.795   0.887  0.0768 -0.3897 -0.8580
  748MPD2    C311106   1.990   0.871   0.779 -0.0050 -0.5410 -0.0739
  748MPD2    C411107   1.868   0.841   0.716 -0.1691  0.7650 -0.1121
  748MPD2    C511108   1.789   0.739   0.769  0.2068 -0.2664 -0.4016
  748MPD2     H11109   2.133   0.817   0.925 -0.1900 -3.1511  1.4503
  748MPD2    H111110   1.830   0.900   0.634  2.1347 -1.3945 -2.7177
  748MPD2    H211111   1.757   0.618   0.927 -0.3647 -0.5638 -0.3032
  748MPD2    H311112   1.693   0.714   0.724 -0.4927 -0.6600  1.3138
  748MPD2     N11113   2.081   0.965   0.731 -0.3440  0.1681 -0.5525
  748MPD2    H511114   2.172   0.965   0.778  0.3091  0.7987 -1.8361
  748MPD2    N111115   1.982   0.645   1.070 -0.0801  0.2895  0.2547
  748MPD2    H711116   1.907   0.585   1.104 -1.0334  1.2742 -0.1072
  749TMC3    C111117   2.183   1.075   0.553  0.2881  0.2333  0.4512
  749TMC3    C211118   2.292   1.005   0.585 -0.4392 -0.0758 -0.3744
  749TMC3    C311119   2.414   1.067   0.562 -0.2765 -0.7080 -0.1445
  749TMC3    C411120   2.180   1.198   0.503 -0.2963  0.1831  0.3708
  749TMC3    C511121   2.301   1.259   0.482  0.6653 -0.9107 -0.1757
  749TMC3    C611122   2.419   1.196   0.513 -0.6621  0.1805 -0.0062
  749TMC3     C11123   2.057   1.035   0.614 -0.2244 -0.0465  0.1616
  749TMC3     O11124   1.953   1.075   0.564 -0.3379 -0.0919  0.4403
  749TMC3     H11125   2.285   0.908   0.633  0.7267  0.2835  0.5512
  749TMC3    H111126   2.085   1.248   0.495  0.4948  1.6277  0.0170
  749TMC3    H211127   2.514   1.248   0.503 -0.7707  0.1449 -1.1174
  749TMC3    C711128   2.316   1.395   0.441  0.3564  0.0796  0.0476
  749TMC3    C811129   2.535   1.007   0.606  0.0251  0.1443 -0.4055
  749TMC3    O111130   2.422   1.457   0.460 -0.5689  0.1058  0.1507
  749TMC3    O211131   2.636   1.077   0.607 -0.2747 -0.1264  0.1947
  750MPD2     C11132   2.904   1.170  10.938 -0.0020 -1.0093 -0.3419
  750MPD2    C111133   2.774   1.210  10.918 -0.2840 -0.2917 -0.5142
  750MPD2    C211134   2.691   1.119  10.853 -0.3830  0.5237 -0.1296
  750MPD2    C311135   2.733   0.992  10.831  0.0883  0.8055  0.3772
  750MPD2    C411136   2.868   0.956  10.853  0.0304 -0.2355 -0.1974
  750MPD2    C511137   2.952   1.050  10.904  0.3812 -0.1889  0.4043
  750MPD2     H11138   2.588   1.147  10.831 -0.9196 -1.7500 -0.4870
  750MPD2    H111139   2.899   0.853  10.840 -0.9063 -0.6252  0.6018
  750MPD2    H211140   2.976   1.248  10.958  0.2706 -0.7849 -2.2022
  750MPD2    H311141   3.055   1.029  10.931  0.1405 -0.0432  1.4229
  750MPD2     N11142   2.648   0.886  10.804 -0.7052 -0.0712  0.6673
  750MPD2    H511143   2.693   0.795  10.793 -0.5345  0.3958 -2.5157
  750MPD2    N111144   2.728   1.340  10.962  0.3976  0.0445 -0.4411
  750MPD2    H711145   2.791   1.392  11.023 -0.5101 -0.4358  0.9004
  751TMC3    C111146   2.458   0.766  10.732 -0.0363 -0.4413  0.2129
  751TMC3    C211147   2.334   0.732  10.772 -0.0373 -0.4038 -0.3357
  751TMC3    C311148   2.277   0.614  10.730  0.0779 -0.0939  0.3334
  751TMC3    C411149   2.539   0.673  10.663  0.3219  0.2101  0.5022
  751TMC3    C511150   2.478   0.558  10.632  0.1974 -0.1180  0.2006
  751TMC3    C611151   2.351   0.521  10.663  0.2893 -0.1469  0.2225
  751TMC3     C11152   2.510   0.887  10.787  0.0978  0.4452 -0.2552
  751TMC3     O11153   2.435   0.979  10.787  0.1233 -0.4683  0.2502
  751TMC3     H11154   2.271   0.806  10.821 -2.3022 -1.2755 -1.9443
  751TMC3    H111155   2.639   0.697  10.628  0.0175 -0.3084 -0.7364
  751TMC3    H211156   2.311   0.422  10.643 -1.1234  0.6096 -0.7314
  751TMC3    C711157   2.567   0.470  10.554  0.0534 -0.1804 -0.5134
  751TMC3    C811158   2.138   0.583  10.746 -0.1883 -0.0577  0.8479
  751TMC3    O111159   2.682   0.507  10.527 -0.2197 -0.3310 -0.2630
  751TMC3    O211160   2.101   0.510  10.657  0.0690 -0.0373 -0.3377
  752TMC3    C111161   1.310   2.627  16.693 -0.3683 -0.3137 -0.1572
  752TMC3    C211162   1.360   2.551  16.794  0.4795 -1.2884 -0.5850
  752TMC3    C311163   1.352   2.596  16.925 -0.5454 -0.4432 -0.3933
  752TMC3    C411164   1.253   2.752  16.714 -0.2707 -0.3774  0.1509
  752TMC3    C511165   1.259   2.797  16.848 -0.6206 -0.0588 -0.7831
  752TMC3    C611166   1.305   2.718  16.950 -0.2418  0.2300 -0.2955
  752TMC3     C11167   1.300   2.567  16.561 -0.0878  0.0025  0.4976
  752TMC3     O11168   1.294   2.645  16.462 -0.1811 -0.1701 -0.7950
  752TMC3     H11169   1.420   2.465  16.768  0.8354 -1.2144 -0.0084
  752TMC3    H111170   1.230   2.817  16.630  0.6525  1.1833  1.1042
  752TMC3    H211171   1.283   2.748  17.052  0.0733 -1.0893  0.1602
  752TMC3    C711172   1.242   2.934  16.868  0.5260  0.2817  0.0693
  752TMC3    C811173   1.433   2.534  17.028 -0.1486  0.1068  0.8666
  752TMC3    O111174   1.161   3.000  16.803  0.0657 -0.2935  0.4721
  752TMC3    O211175   1.457   2.612  17.120 -0.4542 -0.5541  0.1673
  753TMC3    C111176   3.773   2.821  12.738 -0.6254 -0.6031 -0.0838
  753TMC3    C211177   3.826   2.885  12.846  0.5676 -0.0257 -0.6644
  753TMC3    C311178   3.869   2.810  12.954 -0.1080  0.0902 -0.5450
  753TMC3    C411179   3.766   2.687  12.729  0.1630  0.5465  0.1256
  753TMC3    C511180   3.803   2.614  12.837 -0.1196 -0.2943  0.1411
  753TMC3    C611181   3.857   2.673  12.950  0.2449 -0.0473  0.0787
  753TMC3     C11182   3.668   2.879  12.661  0.2884  0.1791  0.0582
  753TMC3     O11183   3.633   2.811  12.564 -0.3585  0.0874 -0.0410
  753TMC3     H11184   3.808   2.990  12.863 -0.2091 -0.7362  2.9139
  753TMC3    H111185   3.737   2.628  12.642  1.7306 -0.1332  0.0703
  753TMC3    H211186   3.908   2.622  13.030 -2.0909 -2.2687  0.1165
  753TMC3    C711187   3.768   2.476  12.844 -0.4100 -0.3674 -0.3011
  753TMC3    C811188   3.829   2.871  13.078  0.1649  0.0908  0.8060
  753TMC3    O111189   3.849   2.406  12.902  0.0421 -0.0387 -0.0036
  753TMC3    O211190   3.848   2.990  13.093  0.1798 -0.1116 -0.0130
  754MPD2     C11191   2.158   0.639  13.161  0.5050 -0.3513 -0.1822
  754MPD2    C111192   2.171   0.515  13.108 -0.1537  0.6039 -0.0795
  754MPD2    C211193   2.058   0.451  13.053 -0.4720  0.5460  0.2527
  754MPD2    C311194   1.930   0.519  13.049  0.0813  0.5996 -0.0371
  754MPD2    C411195   1.921   0.644  13.106  0.0240  0.0327 -1.0567
  754MPD2    C511196   2.033   0.697  13.164  0.1334 -0.0183  0.8216
  754MPD2     H11197   2.070   0.347  13.026 -0.9350  0.2676  1.1057
  754MPD2    H111198   1.828   0.696  13.126  2.1545  2.2440  3.0447
  754MPD2    H211199   2.240   0.699  13.200 -1.5683  3.0497 -1.0237
  754MPD2    H311200   2.020   0.792  13.215 -1.9269  1.4263 -2.4297
  754MPD2     N11201   1.812   0.456  13.000  0.9675  0.1988  0.4072
  754MPD2    H511202   1.730   0.515  12.989  1.7777  1.4783  1.1602
  754MPD2    N111203   2.296   0.471  13.069  1.0150 -0.5578  0.0596
  754MPD2    H711204   2.287   0.382  13.021 -1.0679 -0.1860 -0.2395
  755MPD2     C11205   0.874   0.517  12.824 -0.0842 -0.1615  0.0906
  755MPD2    C111206   0.973   0.564  12.904  0.3913  0.0952  0.0058
  755MPD2    C211207   1.083   0.488  12.934 -0.3253 -0.5885 -0.0974
  755MPD2    C311208   1.104   0.363  12.875  0.0009  0.0647  0.4980
  755MPD2    C411209   0.995   0.309  12.801  0.3398  1.3326 -0.2146
  755MPD2    C511210   0.882   0.385  12.778 -0.2927  0.1408  0.6142
  755MPD2     H11211   1.160   0.524  13.001 -0.8664  3.1411 -1.4896
  755MPD2    H111212   1.006   0.214  12.751 -0.4147  1.8202 -1.3117
  755MPD2    H211213   0.786   0.573  12.794  0.4215  0.8439  0.4902
  755MPD2    H311214   0.798   0.348  12.722  0.5360  2.1455 -1.9768
  755MPD2     N11215   1.220   0.286  12.893  0.5859  0.0168  0.0032
  755MPD2    H511216   1.226   0.202  12.836 -2.7458 -0.4898  0.3589
  755MPD2    N111217   0.962   0.695  12.967  0.3302 -0.4731  0.0670
  755MPD2    H711218   1.048   0.743  12.987  0.2331  0.6906 -2.3292
  756MPD2     C11219   2.199   1.731   9.329  0.2922 -0.7872  1.3562
  756MPD2    C111220   2.120   1.616   9.334  0.1975 -0.2047 -0.0397
  756MPD2    C211221   2.001   1.611   9.264  0.4270 -0.1434 -0.2671
  756MPD2    C311222   1.950   1.718   9.202  0.1476  0.3074 -0.3438
  756MPD2    C411223   2.027   1.835   9.200 -0.3371  0.2311  0.7556
  756MPD2    C511224   2.148   1.835   9.261 -0.1674 -0.0591 -0.7848
  756MPD2     H11225   1.950   1.515   9.261  0.8235 -0.3347 -0.8727
  756MPD2    H111226   2.009   1.923   9.139 -1.4557 -0.2542  0.3725
  756MPD2    H211227   2.297   1.744   9.374  0.2562  2.1388  0.5872
  756MPD2    H311228   2.209   1.922   9.239 -0.7299  0.0991 -1.7461
  756MPD2     N11229   1.824   1.708   9.135 -0.2083 -1.1415  0.1388
  756MPD2    H511230   1.774   1.621   9.152 -0.2388 -1.5384 -2.0353
  756MPD2    N111231   2.170   1.495   9.384 -0.6878  0.0470  0.0002
  756MPD2    H711232   2.099   1.427   9.408  0.2500 -0.4520  1.3394
  757MPD2     C11233   1.374   0.977   9.079  0.3233 -0.1382  0.0230
  757MPD2    C111234   1.488   1.031   9.131  0.0616  0.6337  0.3558
  757MPD2    C211235   1.517   1.164   9.120 -0.4239 -0.3438  0.4049
  757MPD2    C311236   1.433   1.241   9.047 -0.6359 -0.1171  0.8704
  757MPD2    C411237   1.318   1.189   8.987  0.7231  0.4350  0.6417
  757MPD2    C511238   1.293   1.053   9.003 -0.4326 -0.8746 -0.1578
  757MPD2     H11239   1.613   1.199   9.157  0.4130  0.7312 -2.8465
  757MPD2    H111240   1.246   1.237   8.923 -0.1481 -0.0564  1.2600
  757MPD2    H211241   1.352   0.871   9.078 -0.6524  0.0646 -0.2262
  757MPD2    H311242   1.204   1.015   8.954 -1.6597  0.5100  0.9793
  757MPD2     N11243   1.473   1.371   9.031  0.6309  0.2174 -0.2394
  757MPD2    H511244   1.559   1.398   9.078 -0.2331  1.2299  0.7633
  757MPD2    N111245   1.575   0.943   9.198 -0.3970 -0.2810 -0.0295
  757MPD2    H711246   1.572   0.844   9.174  0.7852 -0.0761 -1.0207
  758MPD2     C11247   2.075   0.888  15.491  0.3318  0.4942 -0.0089
  758MPD2    C111248   2.069   0.809  15.601 -1.0363 -0.2077 -0.4902
  758MPD2    C211249   1.980   0.834  15.694  0.5372 -0.4274 -0.0082
  758MPD2    C311250   1.899   0.944  15.687  0.8874  0.1496 -0.2399
  758MPD2    C411251   1.910   1.031  15.583  0.3055  0.8162  0.0090
  758MPD2    C511252   1.995   0.993  15.477 -0.5763 -0.2265  0.6264
  758MPD2     H11253   2.001   0.783  15.788  2.8495  0.1413 -0.2128
  758MPD2    H111254   1.845   1.118  15.581 -0.1703  0.4669  0.3346
  758MPD2    H211255   2.146   0.870  15.411  1.4727 -1.8379  1.5432
  758MPD2    H311256   2.023   1.062  15.397 -0.3499 -1.6699 -0.5452
  758MPD2     N11257   1.809   0.975  15.789 -0.8255 -0.4523 -0.2530
  758MPD2    H511258   1.780   1.072  15.797  0.6635  0.0116 -0.4239
  758MPD2    N111259   2.165   0.711  15.608  0.7429  0.5963  0.3621
  758MPD2    H711260   2.245   0.726  15.548  0.8898  0.8827  0.6358
  759MPD2     C11261   0.826   3.838   9.175  0.1912 -0.2962 -0.7032
  759MPD2    C111262   0.818   3.970   9.218  0.1219  0.4079 -0.0489
  759MPD2    C211263   0.927   4.051   9.201 -0.5457  0.7340 -0.4600
  759MPD2    C311264   1.039   4.007   9.132  0.8844  0.1318  0.1844
  759MPD2    C411265   1.044   3.879   9.083 -0.0509 -0.2614 -0.3614
  759MPD2    C511266   0.938   3.792   9.104 -0.5895  0.2024 -0.7105
  759MPD2     H11267   0.927   4.153   9.238  1.6167  0.1943  1.0245
  759MPD2    H111268   1.127   3.837   9.027  0.1431 -1.8359  1.1138
  759MPD2    H211269   0.743   3.769   9.192 -1.8634  2.6561  1.0944
  759MPD2    H311270   0.957   3.689   9.076  1.4598  0.7527 -1.3408
  759MPD2     N11271   1.145   4.092   9.110  0.4201  0.5451  0.2175
  759MPD2    H511272   1.121   4.187   9.133  1.0490  0.4791  1.1775
  759MPD2    N111273   0.705   4.024   9.277 -0.6679 -0.5635  0.0463
  759MPD2    H711274   0.721   4.118   9.313  1.1653 -0.3121 -1.3998
  760MPD2     C11275   0.753   0.664  11.548  0.2446 -0.1224 -0.1678
  760MPD2    C111276   0.857   0.711  11.623  0.1220  0.5148 -0.3720
  760MPD2    C211277   0.983   0.652  11.619 -0.2735  0.0182 -0.1212
  760MPD2    C311278   0.999   0.529  11.562  0.5758  0.1076  0.2362
  760MPD2    C411279   0.890   0.475  11.490  0.8410  0.0999  0.1276
  760MPD2    C511280   0.768   0.544  11.482 -0.2672  0.0934 -0.1662
  760MPD2     H11281   1.055   0.707  11.679 -0.6138  1.7538 -1.3046
  760MPD2    H111282   0.883   0.377  11.443  2.0677 -0.5199  1.2370
  760MPD2    H211283   0.654   0.707  11.549  0.2666  0.0611 -3.2921
  760MPD2    H311284   0.687   0.498  11.426 -2.1481  1.9265  1.0222
  760MPD2     N11285   1.116   0.461  11.556 -0.3660  0.7637  0.0454
  760MPD2    H511286   1.105   0.365  11.524 -0.9671  0.9987 -0.4329
  760MPD2    N111287   0.853   0.835  11.691  0.2393  0.2369  0.1086
  760MPD2    H711288   0.937   0.875  11.732  1.2607 -2.0274  0.2147
  761MPD2     C11289   1.766   0.476  11.055  0.4154  0.0057 -0.3445
  761MPD2    C111290   1.807   0.407  10.942  0.0777 -0.2281  0.5437
  761MPD2    C211291   1.910   0.463  10.874  0.2089 -0.3848  0.1266
  761MPD2    C311292   1.963   0.588  10.915  0.4216  0.1731  0.5294
  761MPD2    C411293   1.910   0.658  11.020 -0.2197 -0.3146 -0.0226
  761MPD2    C511294   1.810   0.598  11.093 -0.1587 -0.6263 -0.3499
  761MPD2     H11295   1.956   0.406  10.794  0.2876  0.6121 -0.5325
  761MPD2    H111296   1.936   0.755  11.060  0.8770  0.5300 -2.7922
  761MPD2    H211297   1.685   0.443  11.119  1.5474 -0.4522  0.8440
  761MPD2    H311298   1.759   0.654  11.171  1.3048 -1.1227  0.9809
  761MPD2     N11299   2.076   0.641  10.849 -0.1030  0.2135 -0.0887
  761MPD2    H511300   2.122   0.717  10.898  1.9127  0.0128 -1.6608
  761MPD2    N111301   1.756   0.276  10.923  0.5569  0.1998 -0.5608
  761MPD2    H711302   1.699   0.242  11.000 -2.0630  1.4182 -1.9649
  762MPD2     C11303   2.199   0.212  10.825 -0.3955 -0.1519  0.1047
  762MPD2    C111304   2.185   0.092  10.764 -0.5338  0.0249 -0.2759
  762MPD2    C211305   2.302   0.034  10.715  0.2374  0.6235  0.0699
  762MPD2    C311306   2.427   0.092  10.722  0.4635 -0.0092 -0.1783
  762MPD2    C411307   2.443   0.209  10.796  0.0275 -0.3701  0.2703
  762MPD2    C511308   2.330   0.264  10.851 -0.0121  0.3290  0.1441
  762MPD2     H11309   2.282   4.680  10.657 -0.5128  0.6157  0.3483
  762MPD2    H111310   2.537   0.261  10.810  0.4683 -0.6010 -1.8421
  762MPD2    H211311   2.117   0.272  10.863  1.1377  1.3531  1.0242
  762MPD2    H311312   2.334   0.357  10.908 -0.2049  0.2872  0.2267
  762MPD2     N11313   2.529   0.026  10.659 -0.4421 -0.1052  0.3325
  762MPD2    H511314   2.510   4.674  10.610 -1.0277 -0.6670  1.5625
  762MPD2    N111315   2.061   0.039  10.754  0.2405  0.7010 -0.3243
  762MPD2    H711316   1.984   0.096  10.787 -0.4269 -0.2676 -0.2078
  763MPD2     C11317   3.921   0.862  15.692 -0.7454 -0.0317  0.2522
  763MPD2    C111318   3.803   0.932  15.663  0.6846  0.7068 -0.5462
  763MPD2    C211319   3.808   1.068  15.686 -0.3587  0.5535  0.3177
  763MPD2    C311320   3.921   1.130  15.746 -0.2574  0.1424 -0.7930
  763MPD2    C411321   4.031   1.056  15.781 -0.4557 -0.0762 -0.1543
  763MPD2    C511322   4.032   0.925  15.755 -0.6138  0.2983 -0.0502
  763MPD2     H11323   3.721   1.129  15.663  0.4416  2.2139  1.6513
  763MPD2    H111324   4.118   1.099  15.830  0.0182 -0.3913 -0.7212
  763MPD2    H211325   3.940   0.763  15.653 -0.0386  0.5599 -0.9283
  763MPD2    H311326   4.109   0.855  15.787  1.3887  2.2752 -0.5703
  763MPD2     N11327   3.931   1.267  15.782 -0.3536 -0.3364  0.5940
  763MPD2    H511328   4.024   1.298  15.806 -1.0667  0.2113  2.7200
  763MPD2    N111329   3.697   0.868  15.588 -0.4661 -0.2955  0.4882
  763MPD2    H711330   3.617   0.922  15.557 -1.0497 -0.7055  1.2883
  764MPD2     C11331   2.021   2.282  17.209 -0.2292 -0.7704  0.4737
  764MPD2    C111332   2.006   2.411  17.168 -0.3294 -0.2298 -0.8922
  764MPD2    C211333   2.044   2.513  17.254  0.0274 -0.1268  0.2428
  764MPD2    C311334   2.100   2.489  17.376  0.2186  0.2042  0.0988
  764MPD2    C411335   2.111   2.360  17.422 -0.5846 -0.2859  0.0661
  764MPD2    C511336   2.075   2.258  17.337 -0.8084 -0.1357 -0.1278
  764MPD2     H11337   2.030   2.616  17.224  0.2496  0.0117  0.6074
  764MPD2    H111338   2.155   2.337  17.519 -2.1175  0.0492  0.8422
  764MPD2    H211339   1.977   2.196  17.161  0.3641 -1.6120  1.4313
  764MPD2    H311340   2.072   2.160  17.383 -1.5893 -0.7652 -1.5136
  764MPD2     N11341   2.130   2.603  17.466 -0.5185 -0.7044  0.3216
  764MPD2    H511342   2.109   2.693  17.425  1.0783 -0.4489  0.0434
  764MPD2    N111343   1.932   2.445  17.053 -0.7096 -0.7938  0.1235
  764MPD2    H711344   1.908   2.543  17.048 -1.3270 -0.8621  1.5206
  765MPD2     C11345   1.838   0.224  14.852 -0.5463 -0.2150  0.2966
  765MPD2    C111346   1.845   0.238  14.986 -0.5187  0.5028  0.4938
  765MPD2    C211347   1.946   0.185  15.068 -0.0197  0.1372 -0.6791
  765MPD2    C311348   2.046   0.106  15.013  0.1317  0.4125  0.9329
  765MPD2    C411349   2.043   0.096  14.877 -0.9005 -0.4934 -0.7041
  765MPD2    C511350   1.942   0.151  14.802  0.2531  0.0024  0.4266
  765MPD2     H11351   1.957   0.206  15.174 -0.3249  0.2835 -0.6744
  765MPD2    H111352   2.125   0.040  14.834  1.0267  1.4722  0.3991
  765MPD2    H211353   1.753   0.260  14.796  0.5210 -1.2599 -1.9818
  765MPD2    H311354   1.949   0.133  14.695 -0.3536  0.3857  0.3274
  765MPD2     N11355   2.140   0.038  15.100  0.0385  0.7571  0.2984
  765MPD2    H511356   2.122   0.038  15.200 -1.2525 -0.2201  0.0710
  765MPD2    N111357   1.747   0.312  15.050  0.0743  0.4630 -0.0693
  765MPD2    H711358   1.668   0.341  14.994 -0.5183 -1.8038 -0.4186
  766MPD2     C11359   1.404   0.087  14.833 -0.8043 -0.6373 -0.5761
  766MPD2    C111360   1.422   0.221  14.806 -0.8564  0.5951 -0.0409
  766MPD2    C211361   1.483   0.262  14.690  0.1914 -0.6730  0.2753
  766MPD2    C311362   1.520   0.166  14.596 -0.0534  0.2576 -0.5187
  766MPD2    C411363   1.499   0.035  14.625 -0.0860  0.4227 -0.1115
  766MPD2    C511364   1.444   4.734  14.744  0.2205  0.7203 -0.1869
  766MPD2     H11365   1.503   0.367  14.674 -0.0469 -0.1521  3.5092
  766MPD2    H111366   1.508   4.696  14.547 -0.7818  0.8124 -0.5557
  766MPD2    H211367   1.369   0.052  14.929 -2.0614  0.2312 -0.7136
  766MPD2    H311368   1.423   4.632  14.772  1.1586  1.2285  2.4090
  766MPD2     N11369   1.582   0.202  14.476 -0.1692 -0.3421  0.1705
  766MPD2    H511370   1.599   0.124  14.413  0.0120 -0.3423  0.2193
  766MPD2    N111371   1.398   0.311  14.914  0.0686 -0.6390  0.0878
  766MPD2    H711372   1.360   0.284  15.004 -0.6534 -0.0638 -0.0470
  767MPD2     C11373   1.119   0.559  14.457 -0.1282 -0.4465  0.2996
  767MPD2    C111374   1.238   0.604  14.395 -0.2766  0.4252 -0.2721
  767MPD2    C211375   1.260   0.567  14.262 -0.1243  0.4939 -0.2186
  767MPD2    C311376   1.180   0.483  14.192 -0.5756  0.2382 -0.1896
  767MPD2    C411377   1.074   0.421  14.258 -0.1504 -0.4211  0.1145
  767MPD2    C511378   1.049   0.458  14.386  0.5950  0.5771  0.0731
  767MPD2     H11379   1.355   0.599  14.220  1.0771 -0.5528  1.7483
  767MPD2    H111380   1.005   0.348  14.217  0.7271 -0.9536 -0.3933
  767MPD2    H211381   1.108   0.597  14.557  2.5598 -0.7477  0.7295
  767MPD2    H311382   0.977   0.402  14.445  0.2819  1.5269  0.5947
  767MPD2     N11383   1.219   0.442  14.061  0.5946  0.0054 -0.6470
  767MPD2    H511384   1.307   0.474  14.024  0.9426  0.3813  0.4976
  767MPD2    N111385   1.335   0.679  14.457 -0.0028 -0.3919  0.0438
  767MPD2    H711386   1.420   0.699  14.406 -0.1705 -3.3893 -1.3975
  768MPD2     C11387   1.636   3.270  10.512  0.2219 -0.1431 -0.2562
  768MPD2    C111388   1.720   3.371  10.563  0.6728  0.2471  0.4644
  768MPD2    C211389   1.827   3.340  10.648 -0.6533  0.0558  0.7756
  768MPD2    C311390   1.862   3.206  10.653 -0.0764  0.2224 -0.2316
  768MPD2    C411391   1.792   3.107  10.584  0.0634 -0.0632 -0.6517
  768MPD2    C511392   1.684   3.140  10.513  0.1003 -0.4673 -0.2778
  768MPD2     H11393   1.888   3.418  10.692 -1.8551  0.5933  1.4737
  768MPD2    H111394   1.830   3.006  10.576 -1.8527 -0.8780  0.6158
  768MPD2    H211395   1.550   3.296  10.450  0.1779 -0.0761 -0.1682
  768MPD2    H311396   1.627   3.060  10.468  0.9560 -0.7520 -0.8488
  768MPD2     N11397   1.985   3.169  10.706 -0.2174 -0.0649 -0.2678
  768MPD2    H511398   2.008   3.070  10.713 -0.3622 -0.0864 -0.1148
  768MPD2    N111399   1.689   3.514  10.558 -0.1468  0.6030 -0.3528
  768MPD2    H711400   1.739   3.570  10.626 -0.9361  2.5763 -1.3872
  769MPD2     C11401   3.131   1.819  14.574  0.3174  0.4737  0.3377
  769MPD2    C111402   3.049   1.910  14.629 -0.2413  0.0114 -0.1110
  769MPD2    C211403   3.094   1.977  14.745  0.6963 -0.1047 -0.2658
  769MPD2    C311404   3.211   1.945  14.807  0.8964  0.1076 -0.2459
  769MPD2    C411405   3.297   1.861  14.737  0.0657 -0.2724  0.8022
  769MPD2    C511406   3.256   1.800  14.626 -0.0104 -0.1815  0.7376
  769MPD2     H11407   3.029   2.044  14.799  0.5417 -2.7882  2.8622
  769MPD2    H111408   3.394   1.835  14.778  0.7837  1.2529  0.0878
  769MPD2    H211409   3.099   1.765  14.485  1.7948  1.4722 -0.7959
  769MPD2    H311410   3.313   1.720  14.580  0.6123  0.1274  0.9639
  769MPD2     N11411   3.233   1.994  14.935 -0.4254  0.8573  0.2389
  769MPD2    H511412   3.161   2.049  14.982 -0.1731  0.9067  0.5668
  769MPD2    N111413   2.921   1.929  14.562 -0.1524 -0.1203  0.8361
  769MPD2    H711414   2.897   1.882  14.474 -0.9726 -0.0862  1.0392
  770MPD2     C11415   2.287   1.438  14.907 -0.6499  0.2673  1.1408
  770MPD2    C111416   2.392   1.418  14.823  0.4047 -0.5926  0.4881
  770MPD2    C211417   2.440   1.521  14.750  0.3145 -0.2018  0.2943
  770MPD2    C311418   2.386   1.646  14.755 -0.3073  0.4460 -0.3286
  770MPD2    C411419   2.286   1.668  14.846 -0.3923  0.4977  0.5025
  770MPD2    C511420   2.234   1.564  14.921 -0.5827  0.1391  0.2760
  770MPD2     H11421   2.519   1.504  14.678 -0.2088  1.2748 -0.6409
  770MPD2    H111422   2.244   1.765  14.869 -1.9574  0.2493 -1.3026
  770MPD2    H211423   2.254   1.366  14.981  1.3086 -1.4357  0.3655
  770MPD2    H311424   2.152   1.583  14.989 -0.4847 -0.4439  0.5580
  770MPD2     N11425   2.439   1.739  14.660 -0.4019  0.1507 -0.9244
  770MPD2    H511426   2.517   1.711  14.602  0.8825  1.0307  0.3731
  770MPD2    N111427   2.451   1.292  14.831  0.1085  0.4046  0.5591
  770MPD2    H711428   2.391   1.226  14.879  1.5429 -1.0630  0.3097
  771MPD2     C11429   4.135   4.032  13.337  0.2269  0.1720  0.0162
  771MPD2    C111430   4.049   4.138  13.324  0.2963  0.5698 -0.4780
  771MPD2    C211431   3.981   4.162  13.207  0.0706 -0.0172  0.5512
  771MPD2    C311432   4.003   4.078  13.097 -0.2430 -0.2269 -0.5221
  771MPD2    C411433   4.077   3.969  13.113 -0.1111 -0.5009  0.0998
  771MPD2    C511434   4.134   3.940  13.237 -0.5446 -0.0910  0.6683
  771MPD2     H11435   3.907   4.240  13.198 -0.1900 -0.0598  2.2946
  771MPD2    H111436   4.103   3.905  13.030 -0.1690  0.0147 -0.3181
  771MPD2    H211437   4.180   4.008  13.433  0.2793 -2.1356 -0.5746
  771MPD2    H311438   4.186   3.846  13.248  2.0595  1.0992 -1.2565
  771MPD2     N11439   3.958   4.115  12.969  0.2788 -0.6748 -0.1683
  771MPD2    H511440   3.920   4.208  12.951  2.4085 -0.5125 -3.7898
  771MPD2    N111441   4.017   4.227  13.425  0.6348  0.0089 -0.1619
  771MPD2    H711442   3.943   4.295  13.409 -0.2580 -0.7924  0.5505
  772MPD2     C11443   3.412   4.579  13.616 -0.1226  0.6293  0.1134
  772MPD2    C111444   3.481   4.457  13.619  0.4954  0.3512  0.5618
  772MPD2    C211445   3.400   4.344  13.614 -0.2351 -0.4596 -0.2437
  772MPD2    C311446   3.263   4.349  13.614 -0.0414 -0.0404  0.2851
  772MPD2    C411447   3.202   4.472  13.614  0.1705 -0.2091  0.1541
  772MPD2    C511448   3.277   4.584  13.616 -0.1849  0.9431  0.4182
  772MPD2     H11449   3.454   4.250  13.618  0.5444 -0.0055 -0.1852
  772MPD2    H111450   3.095   4.481  13.599  0.4871 -0.1501 -2.0403
  772MPD2    H211451   3.457   4.677  13.617 -0.5797  0.8206  1.8135
  772MPD2    H311452   3.227   4.679  13.604 -1.4380  0.2627  0.3298
  772MPD2     N11453   3.182   4.236  13.593  0.1158 -0.3432  0.1207
  772MPD2    H511454   3.081   4.247  13.590  0.3797  0.8932 -3.8464
  772MPD2    N111455   3.620   4.434  13.635  0.7933  0.3503  0.5103
  772MPD2    H711456   3.659   4.340  13.634  1.6807  0.7182  0.1696
  773MPD2     C11457   2.701   1.304  17.190  0.4640  0.1054 -0.3258
  773MPD2    C111458   2.627   1.188  17.178  0.0257  0.0848 -0.0936
  773MPD2    C211459   2.680   1.082  17.250 -0.4376  0.3268 -0.6782
  773MPD2    C311460   2.790   1.093  17.341 -0.7437 -0.2755 -0.0249
  773MPD2    C411461   2.870   1.214  17.336  0.3233  0.1264  0.2977
  773MPD2    C511462   2.825   1.312  17.254 -0.2340  0.1071 -0.4266
  773MPD2     H11463   2.627   0.988  17.258 -1.1217  0.9706  2.1442
  773MPD2    H111464   2.961   1.235  17.390 -0.1880  1.4794  0.6418
  773MPD2    H211465   2.669   1.396  17.142 -1.7251 -0.4528  0.0510
  773MPD2    H311466   2.883   1.403  17.264  0.3535 -0.2933 -0.1941
  773MPD2     N11467   2.823   0.976  17.414 -0.0191  0.2321  0.5445
  773MPD2    H511468   2.774   0.891  17.387  1.6633  0.0839 -2.0240
  773MPD2    N111469   2.503   1.185  17.101 -0.0950  0.4401 -0.3926
  773MPD2    H711470   2.447   1.100  17.106 -0.1431  0.3812 -2.3004
  774MPD2     C11471   2.417   4.438  12.782  0.0720  0.8698 -0.0631
  774MPD2    C111472   2.330   4.502  12.874  0.0155 -0.0602 -0.1290
  774MPD2    C211473   2.338   4.636  12.867 -0.3031 -0.1166 -0.2791
  774MPD2    C311474   2.415   4.715  12.778 -0.2118 -0.3091  1.4091
  774MPD2    C411475   2.476   4.643  12.676  0.6670  0.4529  0.2965
  774MPD2    C511476   2.478   4.504  12.680  0.3681  0.7649 -0.7293
  774MPD2     H11477   2.278   4.691  12.939  1.0222  1.5028 -0.4045
  774MPD2    H111478   2.532   4.694  12.598  0.8503 -0.5756 -0.2498
  774MPD2    H211479   2.437   4.332  12.770  1.3334  1.0927  0.0469
  774MPD2    H311480   2.523   4.451  12.597 -0.6054  1.3538 -1.6238
  774MPD2     N11481   2.448   0.112  12.812  0.2823 -0.4979  0.4260
  774MPD2    H511482   2.413   0.152  12.899 -0.4342 -0.8585  0.3107
  774MPD2    N111483   2.252   4.430  12.965 -0.4109 -0.5450 -0.1546
  774MPD2    H711484   2.277   4.332  12.975  0.3225 -0.1316  2.1482
  775MPD2     C11485   3.433   1.623  15.358  0.0708  0.3425  0.2696
  775MPD2    C111486   3.471   1.715  15.452  0.0382 -0.0403 -0.8122
  775MPD2    C211487   3.567   1.808  15.419  0.7915 -0.2848 -0.1450
  775MPD2    C311488   3.618   1.814  15.292 -0.5287  0.7165 -0.4145
  775MPD2    C411489   3.581   1.721  15.202  0.3233 -0.3172 -0.1813
  775MPD2    C511490   3.487   1.624  15.235 -0.1084  0.4881 -0.6035
  775MPD2     H11491   3.603   1.875  15.497  0.3095 -1.9980  1.5637
  775MPD2    H111492   3.623   1.723  15.102  0.1310 -2.5343 -0.3073
  775MPD2    H211493   3.367   1.541  15.380  0.4896 -0.5485 -1.7963
  775MPD2    H311494   3.454   1.551  15.162  1.3964  0.4188 -1.2118
  775MPD2     N11495   3.699   1.922  15.255  0.1686  0.3667  0.3526
  775MPD2    H511496   3.715   1.929  15.155  1.3500  2.2338  0.6685
  775MPD2    N111497   3.416   1.708  15.583 -1.1520  0.4880 -0.1400
  775MPD2    H711498   3.344   1.638  15.600  2.2299 -2.7248  0.8976
  776MPD2     C11499   2.711   2.159  10.704 -0.3973 -0.0464 -0.0085
  776MPD2    C111500   2.758   2.085  10.806  0.6022  0.1277 -0.4620
  776MPD2    C211501   2.884   2.121  10.856 -0.0683  0.6865  0.3803
  776MPD2    C311502   2.944   2.246  10.819  0.0948 -0.3536 -0.2915
  776MPD2    C411503   2.892   2.323  10.718  0.7819 -0.1825 -0.2207
  776MPD2    C511504   2.776   2.274  10.657 -1.0344  0.6977 -0.6717
  776MPD2     H11505   2.921   2.052  10.931  0.4825  0.5202 -0.0429
  776MPD2    H111506   2.939   2.406  10.667  0.9198 -0.7634 -1.0446
  776MPD2    H211507   2.628   2.118  10.648 -0.6909 -0.2913  0.6132
  776MPD2    H311508   2.726   2.317  10.571 -1.8768  0.3752 -0.3475
  776MPD2     N11509   3.069   2.290  10.870 -0.6405  0.0280 -0.2174
  776MPD2    H511510   3.111   2.372  10.827 -1.8307  1.3621  1.1525
  776MPD2    N111511   2.689   1.969  10.842 -0.1158  0.0114  0.4321
  776MPD2    H711512   2.598   1.946  10.804 -0.2974 -0.1677  0.9763
  777MPD2     C11513   2.469   4.632   0.272  0.2063  0.3298  0.4884
  777MPD2    C111514   2.547   4.580   0.379 -0.2339  0.3575 -0.4208
  777MPD2    C211515   2.564   4.444   0.378 -0.1010 -0.4943  0.4429
  777MPD2    C311516   2.501   4.357   0.288 -0.2697 -0.3556  0.0835
  777MPD2    C411517   2.430   4.408   0.189 -0.3677 -0.1404 -0.6473
  777MPD2    C511518   2.415   4.543   0.183  0.0415  0.3967  0.6268
  777MPD2     H11519   2.621   4.400   0.460 -0.3129  1.6722  1.7403
  777MPD2    H111520   2.375   4.349   0.117 -0.0336 -1.4390  0.1536
  777MPD2    H211521   2.459   0.003   0.251 -0.2047  0.2135  0.1046
  777MPD2    H311522   2.357   4.582   0.099  0.9233 -0.3636 -0.3417
  777MPD2     N11523   2.521   4.220   0.299 -0.0395 -0.2973  0.1477
  777MPD2    H511524   2.581   4.183   0.372  0.1130 -0.8910 -0.2836
  777MPD2    N111525   2.601   4.669   0.479 -0.1075 -0.0714 -0.0462
  777MPD2    H711526   2.587   0.033   0.461  0.5177  0.0034 -0.1222
  778MPD2     C11527   3.769   4.652  14.407 -0.1577  0.8234 -0.2302
  778MPD2    C111528   3.817   4.530  14.411 -0.1885  0.3572  0.0294
  778MPD2    C211529   3.939   4.499  14.352  0.0610  0.0543  0.1351
  778MPD2    C311530   4.021   4.598  14.309 -0.4091  0.7323  0.0699
  778MPD2    C411531   3.967   4.725  14.304  0.6095  0.1314  1.4090
  778MPD2    C511532   3.843   0.021  14.350 -0.1437 -0.2442  0.1188
  778MPD2     H11533   3.980   4.399  14.343  2.4908  1.0952 -0.4813
  778MPD2    H111534   4.026   0.076  14.274  1.0024 -1.4565 -2.3554
  778MPD2    H211535   3.674   4.688  14.446  1.1250  3.4192  0.4630
  778MPD2    H311536   3.796   0.119  14.346  1.5435  0.5664  0.2493
  778MPD2     N11537   4.156   4.564  14.260 -0.1821 -0.8778  0.7670
  778MPD2    H511538   4.190   4.471  14.278 -2.3134 -1.9081 -0.4857
  778MPD2    N111539   3.746   4.428  14.480 -0.2978 -0.2237 -0.4072
  778MPD2    H711540   3.792   4.337  14.481 -1.1433 -0.6691 -3.6057
  779MPD2     C11541   3.398   3.079  13.841 -0.1388 -0.8643 -0.3171
  779MPD2    C111542   3.508   3.062  13.924  0.0226  0.5938 -0.1834
  779MPD2    C211543   3.567   3.175  13.977 -0.1324  0.8779  0.0699
  779MPD2    C311544   3.518   3.303  13.951 -0.1702 -0.6812 -1.1346
  779MPD2    C411545   3.407   3.316  13.864  0.5486 -0.6642  0.6481
  779MPD2    C511546   3.354   3.203  13.813  0.3015  0.5420  0.2250
  779MPD2     H11547   3.663   3.162  14.027 -1.1002 -0.2255  1.6557
  779MPD2    H111548   3.372   3.409  13.819  0.6679 -0.9883 -0.1218
  779MPD2    H211549   3.354   2.996  13.788 -1.1022 -1.5707  1.5993
  779MPD2    H311550   3.273   3.214  13.741 -0.5120  0.6944  1.1528
  779MPD2     N11551   3.585   3.414  13.994 -0.4984 -0.1910  0.3816
  779MPD2    H511552   3.673   3.405  14.044  1.2903  2.5480 -2.2260
  779MPD2    N111553   3.565   2.936  13.949  0.4878 -0.4839  0.1020
  779MPD2    H711554   3.650   2.939  14.004 -1.8127 -1.0869  3.6595
  780MPD2     C11555   3.939   3.359   0.651 -0.0166  0.4649 -0.2083
  780MPD2    C111556   3.820   3.397   0.705 -0.5756 -0.2400  0.8535
  780MPD2    C211557   3.719   3.444   0.619  0.3117 -0.0937 -0.1762
  780MPD2    C311558   3.731   3.437   0.485  0.1769  0.6624 -0.0354
  780MPD2    C411559   3.848   3.389   0.435 -1.1263  0.7078 -0.5437
  780MPD2    C511560   3.947   3.348   0.519 -0.5174 -0.5397 -0.0375
  780MPD2     H11561   3.617   3.466   0.651 -0.1305 -3.5856  0.7427
  780MPD2    H111562   3.871   3.375   0.330  0.8089 -0.5355  0.0318
  780MPD2    H211563   4.020   3.324   0.713  0.3410  1.0825 -0.3230
  780MPD2    H311564   4.025   3.291   0.470  2.5343  4.5761 -1.1437
  780MPD2     N11565   3.618   3.469   0.404  0.2610 -0.4272 -0.4815
  780MPD2    H511566   3.535   3.510   0.445  0.6722  1.5702 -1.6426
  780MPD2    N111567   3.797   3.394   0.846  1.2902  0.2030  0.1675
  780MPD2    H711568   3.870   3.350   0.901  0.5970  0.2799  1.1422
  781MPD2     C11569   0.249   0.625  11.702 -0.0359 -0.6708 -0.2638
  781MPD2    C111570   0.226   0.493  11.685 -0.0432 -1.0363 -0.1342
  781MPD2    C211571   0.279   0.431  11.569 -0.0643  0.0038  0.0623
  781MPD2    C311572   0.344   0.499  11.476 -0.4233  0.4061  0.2854
  781MPD2    C411573   0.367   0.631  11.501 -1.1152 -0.9421  0.2557
  781MPD2    C511574   0.322   0.697  11.618  0.2280 -0.0165 -0.1113
  781MPD2     H11575   0.267   0.324  11.553  0.7646 -0.0496 -0.2087
  781MPD2    H111576   0.422   0.689  11.427 -1.8329 -1.0112 -0.3264
  781MPD2    H211577   0.214   0.668  11.795  1.9674 -1.4623  0.8529
  781MPD2    H311578   0.352   0.800  11.632  2.1386 -1.0123  3.0983
  781MPD2     N11579   0.402   0.429  11.362  0.2476 -0.4004 -0.2197
  781MPD2    H511580   0.445   0.500  11.304 -0.1630 -0.2270 -0.3146
  781MPD2    N111581   0.156   0.401  11.772  0.5734  0.8053  0.3381
  781MPD2    H711582   0.126   0.319  11.720 -1.4568  1.5899  0.2933
  782MPD2     C11583   2.928   0.795   9.800 -0.2119  0.9336  0.4706
  782MPD2    C111584   3.020   0.723   9.878 -0.0016 -0.3655 -0.6547
  782MPD2    C211585   3.092   0.782   9.981  0.0200 -0.5295 -0.7903
  782MPD2    C311586   3.079   0.920   9.999 -0.2968 -0.4984 -0.0427
  782MPD2    C411587   2.998   0.993   9.917 -0.1762 -0.2648  0.3371
  782MPD2    C511588   2.925   0.932   9.819  0.5590 -0.5513 -0.5137
  782MPD2     H11589   3.169   0.720  10.024 -0.4650 -1.5379 -1.3799
  782MPD2    H111590   2.988   1.099   9.937 -0.3402  0.2587 -2.4809
  782MPD2    H211591   2.874   0.748   9.719  1.6367 -1.1187  0.4299
  782MPD2    H311592   2.858   0.984   9.752 -0.4872  1.2324  1.9139
  782MPD2     N11593   3.152   0.989  10.099  0.0528 -0.3824  0.1754
  782MPD2    H511594   3.163   1.089  10.092  0.8171 -0.5068 -0.4294
  782MPD2    N111595   3.044   0.581   9.860 -0.4510  0.3066 -0.0775
  782MPD2    H711596   3.116   0.544   9.921  0.4156 -0.9129 -1.8153
  783MPD2     C11597   2.471   0.175  10.353  0.2257  0.7721  0.0367
  783MPD2    C111598   2.547   0.282  10.390  0.0106  1.4742  0.6417
  783MPD2    C211599   2.658   0.306  10.310 -0.5197 -0.5443 -0.4174
  783MPD2    C311600   2.696   0.226  10.205  0.2471  0.1260  1.2271
  783MPD2    C411601   2.623   0.109  10.173  0.0769  0.6555  0.8978
  783MPD2    C511602   2.513   0.091  10.250 -0.1771 -0.0582  0.2951
  783MPD2     H11603   2.715   0.398  10.321 -1.3188 -0.1320  0.3592
  783MPD2    H111604   2.650   0.027  10.107 -0.4634  1.5170 -0.4062
  783MPD2    H211605   2.378   0.144  10.399  0.7378 -0.6761  0.0821
  783MPD2    H311606   2.455   0.010  10.208  2.0219 -2.2828  1.5619
  783MPD2     N11607   2.811   0.253  10.130  0.4779 -0.2933 -0.9224
  783MPD2    H511608   2.873   0.325  10.166  0.4811 -0.5040 -0.5087
  783MPD2    N111609   2.508   0.357  10.500 -0.2614 -0.0361 -0.1938
  783MPD2    H711610   2.421   0.320  10.536 -0.0933  0.8965  1.1620
  784MPD2     C11611   0.962   1.384   0.207 -0.6399  0.2845 -0.3420
  784MPD2    C111612   0.967   1.482   0.303  0.0478  0.6418  0.2061
  784MPD2    C211613   0.848   1.563   0.314 -0.6706 -1.1037 -0.8201
  784MPD2    C311614   0.740   1.551   0.217  0.2445  0.0192 -0.4218
  784MPD2    C411615   0.746   1.440   0.136 -0.4665 -0.5618  0.2305
  784MPD2    C511616   0.853   1.360   0.130  0.7762  0.7217  0.2073
  784MPD2     H11617   0.845   1.645   0.384  2.7001 -2.3753  0.8194
  784MPD2    H111618   0.666   1.417   0.066 -0.3921  1.8307 -0.6605
  784MPD2    H211619   1.045   1.316   0.193 -1.1341 -0.3453 -0.2096
  784MPD2    H311620   0.845   1.274   0.064  0.1299  0.9773 -0.0482
  784MPD2     N11621   0.632   1.646   0.220 -0.8735  0.4839 -0.5364
  784MPD2    H511622   0.633   1.726   0.283  1.4927 -1.3271  1.6696
  784MPD2    N111623   1.090   1.507   0.370 -0.1098 -0.4768  0.0546
  784MPD2    H711624   1.094   1.595   0.419  1.5367  0.2396 -1.3447
  785MPD2     C11625   1.073   4.079  10.434 -0.8723  0.2548 -0.5008
  785MPD2    C111626   0.980   4.162  10.502 -0.2807 -0.0215 -0.0897
  785MPD2    C211627   0.846   4.124  10.494  0.2532 -0.2742  0.6396
  785MPD2    C311628   0.808   4.010  10.426  0.4499 -0.0065  0.0770
  785MPD2    C411629   0.900   3.942  10.344  0.2652  0.0293 -0.0713
  785MPD2    C511630   1.032   3.973  10.361  0.2118 -0.0988  0.8395
  785MPD2     H11631   0.774   4.183  10.548 -0.6223  0.0434 -0.8604
  785MPD2    H111632   0.865   3.867  10.274 -1.5177 -0.3832  1.2841
  785MPD2    H211633   1.178   4.103  10.417 -0.7345 -0.0013 -0.0287
  785MPD2    H311634   1.113   3.919  10.312 -1.0770 -1.1300 -0.1374
  785MPD2     N11635   0.670   3.977  10.430 -0.3842  0.5351 -0.4655
  785MPD2    H511636   0.614   4.040  10.487 -2.4408  0.1632 -2.0656
  785MPD2    N111637   1.024   4.273  10.581  0.1049 -0.0270  0.4099
  785MPD2    H711638   1.124   4.286  10.585  0.3685 -1.3635 -1.3999
  786MPD2     C11639   4.143   2.678  14.540 -0.0090 -0.3827  0.0203
  786MPD2    C111640   4.272   2.643  14.528  0.2273 -0.8164  0.5669
  786MPD2    C211641   4.365   2.659  14.634  0.2587  0.6803  0.3904
  786MPD2    C311642   4.317   2.715  14.751 -0.1157  0.6069  0.1424
  786MPD2    C411643   4.183   2.750  14.763 -0.3064 -0.2093 -0.2449
  786MPD2    C511644   4.102   2.742  14.654  1.2805 -0.2534 -0.2628
  786MPD2     H11645   4.466   2.619  14.635  0.2286  0.7970  5.8483
  786MPD2    H111646   4.143   2.793  14.854 -0.3799 -1.4307  0.3045
  786MPD2    H211647   4.059   2.648  14.479 -0.7304 -0.0391  0.8427
  786MPD2    H311648   3.998   2.770  14.670  1.9249 -0.3090  4.1485
  786MPD2     N11649   4.396   2.733  14.868  0.7304 -0.0030 -0.1324
  786MPD2    H511650   4.349   2.757  14.954  1.7246  2.1601 -0.1931
  786MPD2    N111651   4.314   2.558  14.429 -0.0190  0.0347  0.2387
  786MPD2    H711652   4.412   2.533  14.437 -0.1351  0.0076  1.5522
  787MPD2     C11653   4.536   1.999  14.642  0.5022 -0.0507  0.8522
  787MPD2    C111654   4.580   2.015  14.510  1.1535  0.3057  0.2715
  787MPD2    C211655   4.695   1.942  14.478 -0.1060 -0.2969 -0.3865
  787MPD2    C311656   0.009   1.836  14.553  0.2564  0.0052 -0.2668
  787MPD2    C411657   4.694   1.819  14.681 -0.3588 -0.0888 -0.3935
  787MPD2    C511658   4.595   1.900  14.717 -0.2910  0.3373 -0.4022
  787MPD2     H11659   4.724   1.942  14.374  0.1184 -1.0507 -0.3198
  787MPD2    H111660   4.727   1.736  14.742 -2.3506 -1.3629 -1.0416
  787MPD2    H211661   4.456   2.060  14.682  0.1115  0.6830 -1.0470
  787MPD2    H311662   4.552   1.880  14.815 -0.2212  1.8905 -0.0487
  787MPD2     N11663   0.102   1.743  14.490 -0.8062  0.0218 -0.2864
  787MPD2    H511664   0.140   1.779  14.403  1.2375 -0.4086  0.4192
  787MPD2    N111665   4.514   2.105  14.428  0.0355  0.7839  0.0774
  787MPD2    H711666   4.439   2.160  14.469  0.6336  1.2185  0.6023
  788MPD2     C11667   1.814   1.399   0.489 -0.3972  0.3991 -0.2965
  788MPD2    C111668   1.714   1.326   0.429 -0.0998  0.5744  0.6190
  788MPD2    C211669   1.637   1.388   0.334  0.5569  0.6618  0.1904
  788MPD2    C311670   1.659   1.519   0.300  0.5032 -0.2736 -0.1454
  788MPD2    C411671   1.747   1.601   0.377  0.9042 -0.8526  0.4334
  788MPD2    C511672   1.827   1.533   0.467  0.7058 -0.2688 -0.5561
  788MPD2     H11673   1.556   1.335   0.283  0.2344  2.1068 -0.7854
  788MPD2    H111674   1.766   1.705   0.354  0.2092 -0.6777  0.6315
  788MPD2    H211675   1.882   1.365   0.566 -1.0909 -1.6587 -0.6063
  788MPD2    H311676   1.905   1.589   0.517 -0.6598 -0.8567  2.2396
  788MPD2     N11677   1.583   1.575   0.194 -0.2156 -0.5230 -0.2242
  788MPD2    H511678   1.601   1.675   0.187  1.3778 -0.6524  1.7846
  788MPD2    N111679   1.726   1.186   0.440 -0.2657  0.3405  0.2409
  788MPD2    H711680   1.809   1.148   0.484 -0.6342  0.2144  0.8304
  789MPD2     C11681   1.938   0.414  16.438 -0.8251  0.8257  0.3938
  789MPD2    C111682   1.824   0.418  16.368  0.1549 -0.1397 -0.3819
  789MPD2    C211683   1.738   0.533  16.378 -0.1778  0.2706 -0.0176
  789MPD2    C311684   1.777   0.635  16.463 -0.0175  0.0403 -1.1078
  789MPD2    C411685   1.893   0.624  16.540 -0.5936  0.1853  0.3399
  789MPD2    C511686   1.971   0.514  16.520 -0.4888 -0.0428  0.2897
  789MPD2     H11687   1.652   0.542  16.313  0.2969 -1.3068 -0.8636
  789MPD2    H111688   1.915   0.693  16.621  2.4177  0.9492 -1.1438
  789MPD2    H211689   2.006   0.329  16.434  0.2250  1.7573 -1.7509
  789MPD2    H311690   2.060   0.515  16.581 -0.2973  0.0767  0.0098
  789MPD2     N11691   1.699   0.752  16.476  0.1989 -0.0207  0.1166
  789MPD2    H511692   1.724   0.818  16.548  2.2823  0.2601 -0.8686
  789MPD2    N111693   1.765   0.318  16.294  0.1397 -0.3894  0.7668
  789MPD2    H711694   1.677   0.337  16.248  0.6085 -0.2828 -0.0766
  790MPD2     C11695   2.551   2.399  13.327 -0.3436  0.7045 -0.3855
  790MPD2    C111696   2.674   2.344  13.296  0.2990 -0.2369  0.6147
  790MPD2    C211697   2.699   2.311  13.163 -0.1735  0.0281 -0.6001
  790MPD2    C311698   2.598   2.308  13.069  0.2463  0.0064  0.2367
  790MPD2    C411699   2.476   2.344  13.104  0.1974  0.0490  0.0626
  790MPD2    C511700   2.452   2.394  13.231  0.2821 -0.0465 -0.2857
  790MPD2     H11701   2.800   2.276  13.144 -0.2799 -0.6436  0.0437
  790MPD2    H111702   2.385   2.330  13.046  0.0331  0.2924  0.2615
  790MPD2    H211703   2.522   2.438  13.424  0.4823  0.1253  0.0910
  790MPD2    H311704   2.347   2.415  13.252  0.1814 -3.3452  2.4906
  790MPD2     N11705   2.620   2.237  12.951 -0.0512  0.6007  0.2563
  790MPD2    H511706   2.696   2.170  12.955 -2.8506 -2.8007 -2.6909
  790MPD2    N111707   2.768   2.341  13.401  0.3404  0.1578  0.2283
  790MPD2    H711708   2.737   2.379  13.490  0.0365  1.3277 -0.3812
  791MPD2     C11709   1.966   2.008  12.558  0.2968  0.5460 -0.2536
  791MPD2    C111710   2.058   1.919  12.603 -0.1274  0.1199  0.1459
  791MPD2    C211711   2.023   1.785  12.626 -0.5867  0.2896  0.6999
  791MPD2    C311712   1.891   1.747  12.607 -0.3692 -0.6221 -0.4389
  791MPD2    C411713   1.799   1.841  12.567 -0.2975  0.3905 -0.0066
  791MPD2    C511714   1.839   1.972  12.543 -0.6405 -0.3239 -0.1451
  791MPD2     H11715   2.094   1.708  12.653 -1.4858 -0.6468  0.4250
  791MPD2    H111716   1.694   1.818  12.557  0.2333 -1.4841 -1.2401
  791MPD2    H211717   1.995   2.112  12.546 -0.5155  0.9826  1.5941
  791MPD2    H311718   1.766   2.048  12.516  0.1953  0.5125 -0.0754
  791MPD2     N11719   1.852   1.606  12.628 -0.8638  0.2001 -0.9566
  791MPD2    H511720   1.932   1.545  12.642 -0.1827  0.8599 -1.9649
  791MPD2    N111721   2.196   1.954  12.625  0.2636 -0.3253 -0.0410
  791MPD2    H711722   2.234   2.038  12.582 -4.4705  0.9149 -1.7991
  792MPD2     C11723   2.927   1.527  10.650 -0.2656 -0.4187 -0.2741
  792MPD2    C111724   2.841   1.634  10.614  0.2479  0.1650 -0.4864
  792MPD2    C211725   2.706   1.602  10.601  0.7491 -0.1418  0.4521
  792MPD2    C311726   2.651   1.476  10.612 -0.4413  0.2929  0.0097
  792MPD2    C411727   2.743   1.372  10.643 -0.5406  0.2063 -0.1851
  792MPD2    C511728   2.874   1.405  10.677  0.2146 -0.4962 -0.4284
  792MPD2     H11729   2.643   1.687  10.578  3.3516  1.4894 -0.6743
  792MPD2    H111730   2.711   1.269  10.647  0.6626 -0.0642  2.1918
  792MPD2    H211731   3.033   1.542  10.669 -0.6334  1.0037  0.6539
  792MPD2    H311732   2.938   1.323  10.709  0.3922 -0.3205 -0.3287
  792MPD2     N11733   2.512   1.460  10.612  0.0017 -0.0396  0.3248
  792MPD2    H511734   2.484   1.363  10.609  1.8773 -0.5717 -0.1146
  792MPD2    N111735   2.904   1.756  10.584 -0.6993  0.3128  0.3057
  792MPD2    H711736   3.003   1.767  10.603 -0.3775 -1.8395 -0.2317
  793MPD2     C11737   1.873   1.300   9.985 -0.0993 -0.0644 -0.4991
  793MPD2    C111738   2.010   1.307  10.005  0.3523  0.1707 -0.6777
  793MPD2    C211739   2.060   1.348  10.127 -0.6098  0.3142  0.7256
  793MPD2    C311740   1.971   1.401  10.217  0.8364  0.1992 -0.5993
  793MPD2    C411741   1.838   1.423  10.190 -0.5895  0.1993  1.0953
  793MPD2    C511742   1.788   1.369  10.070  0.1421  1.0466 -0.0947
  793MPD2     H11743   2.164   1.334  10.152 -0.3675  1.2517  0.2529
  793MPD2    H111744   1.771   1.481  10.252  0.1189  1.1937  0.9349
  793MPD2    H211745   1.829   1.249   9.899 -1.6362 -0.7325  0.6829
  793MPD2    H311746   1.681   1.375  10.049 -0.0423 -3.6982 -0.6478
  793MPD2     N11747   2.039   1.450  10.338 -0.3492 -0.4222  0.3479
  793MPD2    H511748   2.138   1.426  10.344  0.3349  2.0031 -1.2975
  793MPD2    N111749   2.102   1.264   9.907  0.1468  0.3515  0.2272
  793MPD2    H711750   2.200   1.280   9.930  0.4907 -0.2894 -0.7936
  794MPD2     C11751   2.243   1.257  16.290  0.6537 -0.2636 -0.1237
  794MPD2    C111752   2.159   1.321  16.375 -0.1392  0.0239 -0.0108
  794MPD2    C211753   2.051   1.381  16.317  0.2334  0.5639 -0.2284
  794MPD2    C311754   2.041   1.399  16.181  0.0545  0.2553 -0.0310
  794MPD2    C411755   2.142   1.355  16.100 -0.3251 -0.3785 -0.4829
  794MPD2    C511756   2.241   1.291  16.157  0.1675 -0.0661 -0.1583
  794MPD2     H11757   1.974   1.423  16.381 -1.2735 -1.8706 -0.4548
  794MPD2    H111758   2.150   1.372  15.994 -1.5371  0.2710 -0.4697
  794MPD2    H211759   2.314   1.188  16.335 -1.2791 -2.1091  0.0690
  794MPD2    H311760   2.312   1.256  16.084  0.3062 -0.7155  0.2932
  794MPD2     N11761   1.935   1.471  16.113 -0.0683 -0.5203  0.0622
  794MPD2    H511762   1.930   1.465  16.012 -2.7668 -0.6225  0.2073
  794MPD2    N111763   2.154   1.298  16.513  0.2495  0.0153  0.0327
  794MPD2    H711764   2.076   1.335  16.567 -2.3336 -0.9409 -3.0713
  795MPD2     C11765   0.248   3.479  13.299  0.7089 -0.7070  0.4115
  795MPD2    C111766   0.197   3.362  13.241 -0.1813 -0.5056  0.7133
  795MPD2    C211767   0.212   3.239  13.305  0.9691  0.4055  0.3886
  795MPD2    C311768   0.272   3.238  13.427  0.2365  0.0443 -0.1053
  795MPD2    C411769   0.307   3.353  13.488 -0.1813  0.0978 -0.0116
  795MPD2    C511770   0.299   3.468  13.425 -0.2170 -0.4088 -0.1421
  795MPD2     H11771   0.171   3.150  13.259  0.8135 -0.0054  1.3191
  795MPD2    H111772   0.353   3.359  13.586  1.5003  2.6624 -0.9464
  795MPD2    H211773   0.235   3.576  13.253  0.6833 -0.8209  0.1758
  795MPD2    H311774   0.321   3.555  13.484  0.0937  0.2289 -1.1990
  795MPD2     N11775   0.294   3.110  13.484 -0.0848 -0.2288 -0.1772
  795MPD2    H511776   0.248   3.029  13.442  0.2013 -0.9563  0.8939
  795MPD2    N111777   0.135   3.360  13.110 -0.3896 -0.0230  0.0925
  795MPD2    H711778   0.086   3.274  13.087 -1.1769  0.9205 -1.7556
  796MPD2     C11779   3.994   0.036  15.546 -0.4387 -1.1780 -0.2856
  796MPD2    C111780   4.015   0.115  15.657 -0.3994  0.3311 -0.2408
  796MPD2    C211781   4.013   0.252  15.633 -0.7280 -0.4542 -0.0505
  796MPD2    C311782   3.982   0.304  15.508 -0.0881  0.0404  0.2485
  796MPD2    C411783   3.966   0.221  15.400 -0.4707 -0.1716 -0.3330
  796MPD2    C511784   3.965   0.084  15.422  0.2081  0.0817 -0.0840
  796MPD2     H11785   4.010   0.329  15.709  2.0865  0.2103 -0.5848
  796MPD2    H111786   3.954   0.248  15.296  0.7468  0.8464 -0.2102
  796MPD2    H211787   3.988   4.663  15.553  1.7350 -1.2906 -0.0758
  796MPD2    H311788   3.957   0.016  15.338 -1.6900  1.3719 -0.9335
  796MPD2     N11789   3.973   0.448  15.495  0.1923 -0.3664 -0.6093
  796MPD2    H511790   4.011   0.499  15.573 -1.3067 -1.0631  0.5700
  796MPD2    N111791   4.049   0.053  15.780  0.2139 -0.3560  0.0405
  796MPD2    H711792   4.058   4.687  15.770 -2.3189 -0.6371  0.5963
  797MPD2     C11793   0.629   4.576  17.136  0.3001 -0.1250 -0.4361
  797MPD2    C111794   0.691   4.685  17.087  0.1163 -0.3243 -0.0102
  797MPD2    C211795   0.643   0.029  16.987  0.1403  0.0896  0.0449
  797MPD2    C311796   0.526   4.725  16.918 -0.3728 -0.9351  0.9900
  797MPD2    C411797   0.466   4.606  16.967  0.1073  0.5502  0.1807
  797MPD2    C511798   0.514   4.535  17.074  0.1049  0.1006 -0.1982
  797MPD2     H11799   0.685   0.126  16.966 -1.4633  0.5863 -0.8302
  797MPD2    H111800   0.376   4.573  16.916 -0.6375  2.7124  0.1000
  797MPD2    H211801   0.675   4.517  17.215 -3.8369  1.6499  3.3011
  797MPD2    H311802   0.460   4.451  17.116  0.6723  1.6819  3.6995
  797MPD2     N11803   0.477   0.059  16.803 -0.5297  0.5589  0.1590
  797MPD2    H511804   0.540   0.123  16.756 -1.5983  0.5842 -1.2189
  797MPD2    N111805   0.806   0.014  17.148  0.2930  0.0713 -0.0282
  797MPD2    H711806   0.860   0.083  17.097  0.5625  0.7716  1.2046
  798MPD2     C11807   0.658   0.710  16.891 -0.2387 -0.2117  0.4705
  798MPD2    C111808   0.639   0.575  16.871  0.0202  0.2295 -0.3685
  798MPD2    C211809   0.720   0.494  16.947 -0.4167  0.1975 -0.4568
  798MPD2    C311810   0.800   0.530  17.053 -0.2495 -0.4158  0.8187
  798MPD2    C411811   0.805   0.663  17.083  0.0442 -0.0669  0.3741
  798MPD2    C511812   0.740   0.750  16.995  0.0625 -0.1868  1.1196
  798MPD2     H11813   0.723   0.391  16.916  1.4244  0.1019 -0.0043
  798MPD2    H111814   0.867   0.715  17.155 -2.4688  2.7646  0.5012
  798MPD2    H211815   0.604   0.783  16.833 -1.1909 -0.4530  1.0548
  798MPD2    H311816   0.762   0.855  17.010  2.7691 -0.7092  0.8260
  798MPD2     N11817   0.878   0.436  17.118  1.0486  0.8221 -0.0381
  798MPD2    H511818   0.870   0.339  17.089 -0.3155  1.1826 -0.8784
  798MPD2    N111819   0.550   0.535  16.764 -0.0284 -0.2456  0.5076
  798MPD2    H711820   0.484   0.595  16.715 -1.0604 -1.0488  0.9069
  799MPD2     C11821   4.447   1.377  14.616 -0.8852 -0.2673 -0.4167
  799MPD2    C111822   4.337   1.347  14.534 -0.5445 -0.6063 -0.3474
  799MPD2    C211823   4.296   1.457  14.446  0.2174 -0.2793 -0.3954
  799MPD2    C311824   4.371   1.573  14.438 -0.0091  0.0984 -0.1471
  799MPD2    C411825   4.468   1.598  14.531  0.1528 -0.2728  0.0200
  799MPD2    C511826   4.514   1.501  14.618 -0.5422 -0.2956  0.5166
  799MPD2     H11827   4.215   1.448  14.375  1.3018  0.1430 -1.6893
  799MPD2    H111828   4.517   1.694  14.519  0.4878 -0.2022  1.8776
  799MPD2    H211829   4.484   1.306  14.689 -1.0305  0.6888  0.5859
  799MPD2    H311830   4.596   1.525  14.686  0.6348  1.7748 -1.6521
  799MPD2     N11831   4.355   1.672  14.337  0.1107 -0.2083 -0.0251
  799MPD2    H511832   4.427   1.744  14.343 -0.7626  0.8613 -2.3536
  799MPD2    N111833   4.264   1.225  14.532  0.4195  0.4748 -0.2845
  799MPD2    H711834   4.178   1.222  14.478 -2.0519  0.2450  3.6351
  800MPD2     C11835   4.464   2.769  13.794  0.3576 -0.6770  0.3715
  800MPD2    C111836   4.569   2.685  13.787 -0.2680  0.0664 -0.1281
  800MPD2    C211837   4.542   2.572  13.709 -0.7601  0.5220 -0.1830
  800MPD2    C311838   4.424   2.557  13.639  0.1599  0.1543 -0.4155
  800MPD2    C411839   4.319   2.656  13.653 -0.7198  0.0829  0.4308
  800MPD2    C511840   4.340   2.754  13.737  0.7029  0.7017 -0.2077
  800MPD2     H11841   4.612   2.490  13.702  1.4032  2.3748 -0.4080
  800MPD2    H111842   4.232   2.650  13.588  1.4397 -0.4673 -2.4425
  800MPD2    H211843   4.476   2.857  13.857  2.6914 -0.5219 -0.2609
  800MPD2    H311844   4.271   2.836  13.753 -1.6237 -1.1416 -0.8692
  800MPD2     N11845   4.417   2.445  13.555 -0.1652  0.5239  0.1552
  800MPD2    H511846   4.503   2.392  13.560 -0.4681 -0.1213 -1.4875
  800MPD2    N111847   4.695   2.721  13.848 -0.2525 -0.0522  0.7999
  800MPD2    H711848   4.698   2.797  13.915  1.2223  0.9843 -0.4406
  801MPD2     C11849   0.163   3.192  14.253 -0.6682 -0.0740 -0.0253
  801MPD2    C111850   0.090   3.082  14.214  0.4396 -0.1022  0.3637
  801MPD2    C211851   4.690   3.105  14.191 -0.2517  0.6749  0.0455
  801MPD2    C311852   4.632   3.226  14.210 -0.8564  0.0937 -0.0386
  801MPD2    C411853   4.701   3.318  14.286  0.2758  0.3661 -0.4317
  801MPD2    C511854   0.098   3.299  14.299 -0.0585 -0.3669 -0.2245
  801MPD2     H11855   4.622   3.030  14.153 -0.2042  0.6251  0.0601
  801MPD2    H111856   4.653   3.407  14.326  1.3289  0.7975 -0.1342
  801MPD2    H211857   0.271   3.193  14.242 -0.4651  1.8025  2.0014
  801MPD2    H311858   0.161   3.369  14.354 -0.3718  0.4801 -0.9489
  801MPD2     N11859   4.504   3.257  14.170 -0.1996 -0.4143  0.3723
  801MPD2    H511860   4.460   3.335  14.217  0.4460  0.2633 -0.1624
  801MPD2    N111861   0.138   2.956  14.171  0.5346 -0.6521  0.0724
  801MPD2    H711862   0.074   2.882  14.143  0.2894 -0.2512 -0.4195
  802MPD2     C11863   3.937   3.726  17.385 -0.9299  0.4518  0.0485
  802MPD2    C111864   4.055   3.797  17.392  0.0243 -0.1124 -0.0939
  802MPD2    C211865   4.162   3.747  17.325  0.5099 -0.2862 -0.5434
  802MPD2    C311866   4.149   3.636  17.246 -0.2496 -0.0045 -1.0796
  802MPD2    C411867   4.026   3.583  17.223 -0.1946  0.0748  0.4804
  802MPD2    C511868   3.923   3.634  17.292  0.7129  0.1340 -0.0876
  802MPD2     H11869   4.257   3.793  17.347 -1.3133  3.0549  0.2275
  802MPD2    H111870   4.006   3.496  17.162 -0.9743  1.3887 -1.1224
  802MPD2    H211871   3.849   3.763  17.435 -0.0847  1.7440  0.5976
  802MPD2    H311872   3.825   3.594  17.267  1.2695 -0.8985 -0.5977
  802MPD2     N11873   4.268   3.582  17.192 -0.0298 -0.3291 -0.7220
  802MPD2    H511874   4.347   3.646  17.194 -0.4569  0.2104 -1.1575
  802MPD2    N111875   4.072   3.913  17.473 -0.6288 -0.2650  0.2799
  802MPD2    H711876   4.163   3.959  17.474 -0.5611 -0.4449  2.3218
  803MPD2     C11877   0.540   1.191  11.935  0.6212 -0.4589  1.0793
  803MPD2    C111878   0.564   1.260  12.055  0.2209  0.4114 -0.7793
  803MPD2    C211879   0.572   1.196  12.176  0.4158 -0.7539  0.3964
  803MPD2    C311880   0.533   1.062  12.185 -0.4209 -0.1587  0.9937
  803MPD2    C411881   0.504   0.994  12.069  0.6543 -0.1469 -0.2814
  803MPD2    C511882   0.509   1.056  11.945  0.0563 -0.1478 -0.3134
  803MPD2     H11883   0.587   1.253  12.267 -0.0032  0.3213 -0.2228
  803MPD2    H111884   0.493   0.886  12.077  2.9495 -0.4967 -1.8465
  803MPD2    H211885   0.542   1.236  11.836  2.5241 -2.1442  0.3514
  803MPD2    H311886   0.489   0.990  11.861 -0.3386  0.1729 -0.4679
  803MPD2     N11887   0.537   0.996  12.305 -0.1030 -0.3213  0.0026
  803MPD2    H511888   0.567   0.899  12.304  0.9470  0.0035 -1.2078
  803MPD2    N111889   0.623   1.391  12.049  0.2928  0.3871  0.1608
  803MPD2    H711890   0.651   1.439  12.134 -2.6745 -0.5610  1.6587
  804MPD2     C11891   0.094   3.419  16.556  0.6678 -0.2665 -0.1110
  804MPD2    C111892   0.085   3.400  16.687 -0.6097  0.1867  0.5296
  804MPD2    C211893   0.124   3.499  16.768 -0.5660  0.5360  0.6785
  804MPD2    C311894   0.177   3.618  16.714  0.3134  0.0139 -0.7393
  804MPD2    C411895   0.173   3.641  16.578 -0.5551  0.1227  0.2402
  804MPD2    C511896   0.136   3.538  16.500 -0.3784 -0.2292 -0.6299
  804MPD2     H11897   0.128   3.477  16.874 -1.4334  1.3270  0.8687
  804MPD2    H111898   0.209   3.734  16.535 -0.0542 -0.5691 -0.8240
  804MPD2    H211899   0.063   3.342  16.486 -0.7020  0.1113  0.0756
  804MPD2    H311900   0.143   3.547  16.392 -1.0885 -1.3060 -0.7627
  804MPD2     N11901   0.244   3.704  16.806 -0.0068  0.2309  0.2910
  804MPD2    H511902   0.242   3.675  16.903 -1.0447  0.6149  0.3882
  804MPD2    N111903   0.054   3.283  16.754 -0.1210  0.3818 -0.3473
  804MPD2    H711904   0.057   3.289  16.855 -0.9577  3.6436 -0.4980
  805MPD2     C11905   3.994   1.791  15.413  0.3534 -0.1086  0.1647
  805MPD2    C111906   4.106   1.753  15.345  0.4149  1.0060 -0.2508
  805MPD2    C211907   4.226   1.771  15.414 -0.1759 -0.5089 -0.3181
  805MPD2    C311908   4.238   1.821  15.545 -0.0712 -0.1501  0.4100
  805MPD2    C411909   4.114   1.840  15.614  0.2283  0.1914  0.0041
  805MPD2    C511910   3.997   1.833  15.541  0.5114 -0.3976 -0.0681
  805MPD2     H11911   4.316   1.741  15.363 -0.0097  0.6366 -0.7122
  805MPD2    H111912   4.114   1.874  15.717 -0.1530 -0.2506  0.1486
  805MPD2    H211913   3.899   1.793  15.361 -1.3233 -1.1423  3.1328
  805MPD2    H311914   3.902   1.855  15.589  0.2416  2.0143 -1.6985
  805MPD2     N11915   4.365   1.841  15.598 -0.4876  0.2012  0.2352
  805MPD2    H511916   4.445   1.827  15.538 -1.5019 -1.3717 -0.7591
  805MPD2    N111917   4.116   1.689  15.218  0.5427  0.2144 -0.6310
  805MPD2    H711918   4.212   1.667  15.193  0.7241  0.1412  0.1399
  806MPD2     C11919   4.508   1.273  17.708  0.7607  0.0573 -0.8149
  806MPD2    C111920   4.555   1.371   0.051 -0.9195 -0.2522  0.0979
  806MPD2    C211921   4.621   1.479  17.731 -0.2476  0.0133 -0.2558
  806MPD2    C311922   4.643   1.488  17.594  0.3265  0.3982 -0.5538
  806MPD2    C411923   4.599   1.377  17.518  0.4891 -0.6256  0.2095
  806MPD2    C511924   4.526   1.276  17.572  0.1543  0.2426  0.1126
  806MPD2     H11925   4.651   1.562   0.054 -1.6056  1.2712 -1.3041
  806MPD2    H111926   4.626   1.373  17.413 -4.2530 -0.0303 -1.0305
  806MPD2    H211927   4.459   1.184   0.007  0.5429  0.8149  0.6581
  806MPD2    H311928   4.487   1.189  17.521 -0.0053  0.2481  0.2244
  806MPD2     N11929   4.709   1.597  17.533  0.2596  1.1047 -0.5637
  806MPD2    H511930   0.032   1.657  17.592 -0.0741  1.0983 -0.2272
  806MPD2    N111931   4.516   1.365   0.191 -0.6558  0.3218  0.9206
  806MPD2    H711932   4.481   1.275   0.225 -2.9981  1.5276  1.7131
  807MPD2     C11933   4.119   0.908   0.626  0.7390 -0.2643  0.4525
  807MPD2    C111934   4.221   0.961   0.701  0.1757  0.1658 -0.2556
  807MPD2    C211935   4.252   0.906   0.826 -0.2937 -0.0893 -0.5521
  807MPD2    C311936   4.185   0.784   0.866 -0.7868  0.1961  0.0932
  807MPD2    C411937   4.092   0.730   0.781  0.6927  0.5594 -0.0221
  807MPD2    C511938   4.044   0.800   0.669  0.3258 -0.4083 -0.5576
  807MPD2     H11939   4.311   0.958   0.901 -2.1343  0.6407  0.4140
  807MPD2    H111940   4.037   0.639   0.800  0.1605  1.0170  0.6083
  807MPD2    H211941   4.089   0.946   0.529 -0.2911  2.8992  1.9932
  807MPD2    H311942   3.955   0.766   0.619  0.5985 -0.7588 -0.7984
  807MPD2     N11943   4.216   0.720   0.988 -0.1327 -0.5291 -0.6066
  807MPD2    H511944   4.292   0.757   1.045 -0.8644 -0.9420  0.6341
  807MPD2    N111945   4.289   1.078   0.671 -0.7362  0.0845 -0.2213
  807MPD2    H711946   4.358   1.098   0.742  0.2880  0.7376 -1.3963
  808MPD2     C11947   4.481   2.768   9.515 -0.4415 -0.2028  0.5438
  808MPD2    C111948   4.575   2.674   9.559  0.3975  0.0363 -0.2163
  808MPD2    C211949   4.694   2.717   9.609  0.0255  0.1334  0.6473
  808MPD2    C311950   4.729   2.855   9.609 -0.2010 -0.8695  0.7550
  808MPD2    C411951   4.635   2.944   9.571 -0.4941  0.0024 -0.3704
  808MPD2    C511952   4.514   2.902   9.532 -0.7145  0.0619  0.5564
  808MPD2     H11953   0.023   2.638   9.648 -2.7014 -1.1851  2.4722
  808MPD2    H111954   4.652   3.050   9.583 -0.1691 -0.1941  0.8552
  808MPD2    H211955   4.383   2.751   9.473 -1.2888  2.8083  1.3451
  808MPD2    H311956   4.448   2.980   9.495 -1.0532 -1.2745 -1.6655
  808MPD2     N11957   0.122   2.909   9.648 -0.4582 -0.3118  0.0603
  808MPD2    H511958   0.131   3.010   9.639  1.3577 -0.3442  1.5498
  808MPD2    N111959   4.565   2.535   9.539 -0.0047  0.1302 -0.4305
  808MPD2    H711960   4.646   2.476   9.555 -1.6893 -1.9583  0.4267
  809MPD2     C11961   1.077   2.629   9.379  0.1972 -0.4064 -0.6292
  809MPD2    C111962   1.090   2.763   9.421  0.0945  0.0978 -0.8589
  809MPD2    C211963   0.988   2.816   9.503 -1.0498  0.2828  0.1688
  809MPD2    C311964   0.869   2.744   9.528  0.1850 -0.3923 -0.4316
  809MPD2    C411965   0.858   2.614   9.480  0.3370 -0.2968  0.1332
  809MPD2    C511966   0.964   2.557   9.413 -0.1291  0.2230 -0.6553
  809MPD2     H11967   1.005   2.920   9.530  2.6430  0.2185 -1.8794
  809MPD2    H111968   0.773   2.550   9.501  0.2257 -0.4292 -0.7173
  809MPD2    H211969   1.154   2.576   9.323  1.3483  0.5760  0.0160
  809MPD2    H311970   0.943   2.456   9.380 -0.2793  0.1083 -0.2083
  809MPD2     N11971   0.755   2.789   9.596  0.4563  0.3490 -0.2003
  809MPD2    H511972   0.680   2.725   9.619  0.1181  1.3354  1.4618
  809MPD2    N111973   1.193   2.853   9.378 -0.7685 -0.1332  0.3272
  809MPD2    H711974   1.185   2.946   9.417 -3.4212 -0.9684  1.7949
  810MPD2     C11975   4.555   1.570  10.523  0.7819 -0.4129  0.4758
  810MPD2    C111976   4.504   1.598  10.402 -0.0819  0.0610  0.6370
  810MPD2    C211977   4.503   1.735  10.375  0.6296 -0.5426  0.2558
  810MPD2    C311978   4.548   1.843  10.457  0.1684  0.2684 -0.6438
  810MPD2    C411979   4.603   1.802  10.579  0.5794 -0.3306 -0.2629
  810MPD2    C511980   4.608   1.670  10.606  0.0564  0.0334  0.1640
  810MPD2     H11981   4.457   1.767  10.282 -1.0136 -1.6307  0.6972
  810MPD2    H111982   4.648   1.872  10.649 -0.3791  1.7688 -1.7223
  810MPD2    H211983   4.563   1.472  10.569  0.0686 -1.4216 -1.5338
  810MPD2    H311984   4.645   1.647  10.705  3.0657 -0.5755 -1.0966
  810MPD2     N11985   4.533   1.985  10.436  0.2444 -0.2507  0.1736
  810MPD2    H511986   4.573   2.044  10.508 -2.3432  0.7571  0.8030
  810MPD2    N111987   4.447   1.492  10.327 -0.2728  0.1909  0.2058
  810MPD2    H711988   4.451   1.401  10.371  1.4683  0.3751  0.4370
  811MPD2     C11989   3.722   1.335   9.868  0.7501  0.5140  0.0171
  811MPD2    C111990   3.853   1.357   9.847 -0.1476  0.9995 -0.8283
  811MPD2    C211991   3.891   1.464   9.773 -0.3716  0.2326 -0.1014
  811MPD2    C311992   3.800   1.554   9.719 -0.6668 -0.7721  0.4321
  811MPD2    C411993   3.663   1.529   9.742  0.6195  0.0938  0.5530
  811MPD2    C511994   3.629   1.419   9.818 -0.3632 -0.5895 -0.5543
  811MPD2     H11995   3.993   1.497   9.763 -0.1778  0.5803  2.9587
  811MPD2    H111996   3.581   1.593   9.710  0.6509 -0.2633 -0.2428
  811MPD2    H211997   3.675   1.256   9.924 -0.4192  1.6192  0.6075
  811MPD2    H311998   3.525   1.399   9.839 -1.0782  2.2071 -1.3820
  811MPD2     N11999   3.856   1.665   9.653  0.1925  0.4785 -1.0695
  811MPD2    H512000   3.956   1.673   9.642  0.8920 -1.2315  3.8740
  811MPD2    N112001   3.956   1.278   9.914 -0.1710 -0.1209  0.1173
  811MPD2    H712002   3.923   1.214   9.985 -0.7033  2.2238  2.0002
  812MPD2     C12003   3.247   1.484  11.984  0.3637 -0.3982 -0.3024
  812MPD2    C112004   3.266   1.601  12.037  0.0900 -0.0867 -0.6066
  812MPD2    C212005   3.366   1.607  12.135 -0.5018  0.8241  0.0084
  812MPD2    C312006   3.421   1.488  12.198 -0.0940  0.3180 -0.0329
  812MPD2    C412007   3.388   1.370  12.147  0.2670 -0.2712 -0.2611
  812MPD2    C512008   3.315   1.373  12.034  0.1292  1.2766  0.0423
  812MPD2     H12009   3.391   1.705  12.174  0.1764  0.9099 -0.6493
  812MPD2    H112010   3.416   1.276  12.191 -1.3018  0.0401  1.3871
  812MPD2    H212011   3.184   1.466  11.897  1.2051 -0.1613 -0.9548
  812MPD2    H312012   3.297   1.277  11.986  1.1901  0.3402  1.5267
  812MPD2     N12013   3.506   1.504  12.306 -0.5312  0.2134  0.5604
  812MPD2    H512014   3.521   1.601  12.334 -0.6278  0.6268 -0.8534
  812MPD2    N112015   3.188   1.714  11.991 -0.2145 -0.0302 -0.6789
  812MPD2    H712016   3.118   1.695  11.921 -1.7575  0.0968  0.8398
  813MPD2     C12017   2.580   3.476  12.859  0.2583 -0.2719  0.2287
  813MPD2    C112018   2.543   3.596  12.802 -0.2949 -0.6865 -0.4197
  813MPD2    C212019   2.411   3.648  12.825 -0.4221 -0.0064  0.1429
  813MPD2    C312020   2.323   3.566  12.899  0.2134 -0.2343 -0.2972
  813MPD2    C412021   2.364   3.440  12.938 -0.3357  0.2733  0.6021
  813MPD2    C512022   2.485   3.397  12.908  0.2811 -0.0514 -0.7562
  813MPD2     H12023   2.379   3.733  12.766  2.7897 -0.1851 -1.9106
  813MPD2    H112024   2.290   3.376  12.985 -1.2855 -0.5717 -2.0850
  813MPD2    H212025   2.680   3.436  12.847  0.3780 -0.0285  0.4086
  813MPD2    H312026   2.521   3.296  12.925  1.0404  0.6865  2.0831
  813MPD2     N12027   2.194   3.615  12.936  0.6579  0.0478 -0.5361
  813MPD2    H512028   2.172   3.712  12.914  0.6917  0.7135  2.3845
  813MPD2    N112029   2.641   3.660  12.722  0.2112 -0.7579 -0.2142
  813MPD2    H712030   2.735   3.627  12.739 -0.7113 -3.3594 -0.1214
  814MPD2     C12031   2.842   0.214  12.037  0.1868  0.3050  0.7389
  814MPD2    C112032   2.968   0.185  11.986 -1.0559 -0.0813 -0.1577
  814MPD2    C212033   3.076   0.263  12.019 -0.3712 -0.0155 -0.6667
  814MPD2    C312034   3.062   0.352  12.126  0.1849 -0.3848 -0.0401
  814MPD2    C412035   2.941   0.368  12.185 -0.1539  0.1595  0.0809
  814MPD2    C512036   2.829   0.292  12.144  0.3460 -0.5362  0.2132
  814MPD2     H12037   3.156   0.267  11.946 -1.1790  0.1768 -1.5564
  814MPD2    H112038   2.933   0.439  12.267 -2.7084  0.6134 -0.5489
  814MPD2    H212039   2.751   0.168  11.998  2.6405 -0.7730 -3.6814
  814MPD2    H312040   2.735   0.322  12.189 -0.8588 -3.0535 -0.6129
  814MPD2     N12041   3.170   0.441  12.170 -0.8050  0.0380  0.2253
  814MPD2    H512042   3.159   0.504  12.248 -1.4923  0.3347 -0.1087
  814MPD2    N112043   2.981   0.102  11.870  0.5072 -0.3612 -0.7144
  814MPD2    H712044   3.066   0.104  11.815  1.6958  2.7531  1.2533
  815MPD2     C12045   3.511   2.886  11.677  0.5544  1.0134 -0.2873
  815MPD2    C112046   3.467   2.837  11.557  0.6448 -0.3597 -0.4001
  815MPD2    C212047   3.340   2.774  11.558  0.5878 -0.3658  0.5773
  815MPD2    C312048   3.261   2.765  11.665 -0.3129  0.0818 -1.0499
  815MPD2    C412049   3.299   2.844  11.774  0.0294  0.3790  0.3623
  815MPD2    C512050   3.423   2.900  11.779 -0.7480  0.2003 -0.3884
  815MPD2     H12051   3.317   2.717  11.468 -1.1485  0.8786  0.2341
  815MPD2    H112052   3.239   2.861  11.863 -1.2768 -0.1552 -0.4241
  815MPD2    H212053   3.607   2.937  11.686  1.0664  0.0238 -0.2121
  815MPD2    H312054   3.459   2.951  11.868 -0.2580  1.1629 -1.1450
  815MPD2     N12055   3.139   2.700  11.650  0.0332 -0.4356 -0.2605
  815MPD2    H512056   3.137   2.647  11.563 -0.2161 -0.8683  0.0109
  815MPD2    N112057   3.557   2.851  11.446  0.2377  0.5940  0.3997
  815MPD2    H712058   3.652   2.882  11.464 -0.4336  1.9109  1.7061
  816MPD2     C12059   3.029   2.776  16.874  0.0614  0.2980  0.8642
  816MPD2    C112060   3.134   2.856  16.914 -0.0800  0.2895 -0.8660
  816MPD2    C212061   3.249   2.838  16.855  0.0268  0.3312 -0.4531
  816MPD2    C312062   3.272   2.740  16.764 -0.2037  0.4732  0.0658
  816MPD2    C412063   3.175   2.648  16.735 -0.5271  0.2850 -0.0539
  816MPD2    C512064   3.057   2.673  16.790 -0.5155 -0.3494 -0.2813
  816MPD2     H12065   3.329   2.906  16.882  1.8575 -1.7094 -0.6739
  816MPD2    H112066   3.193   2.567  16.665  1.4564  0.6816 -0.0260
  816MPD2    H212067   2.932   2.788  16.922  0.6844  1.3727  1.8563
  816MPD2    H312068   2.972   2.615  16.754  0.1143 -0.9121 -0.8635
  816MPD2     N12069   3.397   2.726  16.705  0.0835 -0.0042 -0.4744
  816MPD2    H512070   3.474   2.780  16.745 -0.4479 -0.7026  1.4611
  816MPD2    N112071   3.102   2.964  17.010 -0.2397  0.2099  0.3611
  816MPD2    H712072   3.006   2.979  17.040 -1.3903 -2.2482 -2.1040
  817MPD2     C12073   3.090   4.480   9.699 -0.3084  0.3780 -0.2675
  817MPD2    C112074   3.083   4.433   9.573 -0.1687 -0.4676 -0.1869
  817MPD2    C212075   3.091   4.520   9.465 -0.4431 -0.5451  0.1919
  817MPD2    C312076   3.121   4.654   9.479  0.7859  0.0864 -0.1334
  817MPD2    C412077   3.127   4.704   9.608 -0.3720 -0.9628 -0.0382
  817MPD2    C512078   3.113   4.612   9.718 -0.5726  0.9853 -0.1742
  817MPD2     H12079   3.077   4.486   9.363 -0.5315  1.2343 -0.3832
  817MPD2    H112080   3.124   0.075   9.629  1.6463 -0.8414 -0.3105
  817MPD2    H212081   3.078   4.422   9.790 -1.7808  0.6703 -0.2921
  817MPD2    H312082   3.107   4.656   9.817  2.4188 -0.4747  0.6540
  817MPD2     N12083   3.120   4.720   9.354  0.3532 -0.0472 -0.7504
  817MPD2    H512084   3.092   4.664   9.273  1.1768 -1.4830 -0.0511
  817MPD2    N112085   3.077   4.296   9.539 -1.1557 -0.0408  0.7330
  817MPD2    H712086   3.083   4.278   9.440 -1.2500 -2.6173  1.1783
  818MPD2     C12087   2.212   4.622  10.368  0.0541 -0.4570  0.4153
  818MPD2    C112088   2.166   4.633  10.239 -0.4530 -0.4600 -0.4112
  818MPD2    C212089   2.238   4.580  10.130 -0.1682  0.4649 -0.1209
  818MPD2    C312090   2.358   4.516  10.162 -0.0840 -0.2863 -0.0116
  818MPD2    C412091   2.395   4.506  10.288 -0.0233  0.4626 -0.2889
  818MPD2    C512092   2.331   4.561  10.396  0.0548  0.2325  0.3511
  818MPD2     H12093   2.196   4.574  10.031  0.8353 -1.9309 -0.3821
  818MPD2    H112094   2.492   4.465  10.316 -0.9971 -1.0742  0.8700
  818MPD2    H212095   2.147   4.658  10.447  1.9875  0.4236  1.6058
  818MPD2    H312096   2.372   4.545  10.495 -0.7125  0.6512  0.7364
  818MPD2     N12097   2.426   4.449  10.060  0.0328  0.5069 -0.0892
  818MPD2    H512098   2.381   4.455   9.969  0.9321 -0.9051 -0.6159
  818MPD2    N112099   2.036   4.682  10.211 -0.4795  0.5560 -0.5608
  818MPD2    H712100   1.986   4.656  10.127 -1.0631  1.9736 -0.6639
  819MPD2     C12101   4.655   1.126  15.595 -0.3690  0.7394 -0.0845
  819MPD2    C112102   4.706   1.003  15.570 -0.3658  0.2994 -0.1004
  819MPD2    C212103   0.102   0.969  15.608 -0.8814  0.2318 -0.8605
  819MPD2    C312104   0.186   1.062  15.670  0.4439  0.5000 -0.6509
  819MPD2    C412105   0.129   1.178  15.704 -0.2265  0.2156 -0.3275
  819MPD2    C512106   4.734   1.210  15.673 -0.2711 -0.4998  0.0693
  819MPD2     H12107   0.150   0.880  15.570 -3.8857 -1.8800  0.2075
  819MPD2    H112108   0.193   1.259  15.736  0.9952 -0.9803  0.2765
  819MPD2    H212109   4.549   1.144  15.580 -0.9450 -2.5515 -0.0839
  819MPD2    H312110   4.687   1.302  15.705  1.5066  0.6470 -0.6300
  819MPD2     N12111   0.325   1.033  15.670  0.7724 -0.3182 -0.0908
  819MPD2    H512112   0.352   0.957  15.608 -4.3096 -2.4991  0.3585
  819MPD2    N112113   4.626   0.914  15.497  0.2065  0.1334  0.4476
  819MPD2    H712114   4.537   0.940  15.456 -0.1263 -0.1458  1.0044
  820MPD2     C12115   3.935   0.976  14.857 -0.2329  0.5760 -0.0922
  820MPD2    C112116   4.049   1.045  14.898 -0.0657  0.7920  0.5565
  820MPD2    C212117   4.143   0.973  14.971 -0.0977 -0.7321  0.4847
  820MPD2    C312118   4.141   0.834  14.992 -0.0649 -0.3147 -0.0868
  820MPD2    C412119   4.037   0.768  14.942  0.6853 -0.8212  0.8335
  820MPD2    C512120   3.935   0.836  14.873 -0.0492  0.6958  0.1949
  820MPD2     H12121   4.229   1.024  15.013 -0.1573 -1.2296  1.2030
  820MPD2    H112122   4.013   0.664  14.961 -1.3821 -0.8054 -1.6628
  820MPD2    H212123   3.851   1.016  14.800 -0.8321 -1.6825 -0.8079
  820MPD2    H312124   3.849   0.778  14.841  1.4100 -0.7748 -1.0372
  820MPD2     N12125   4.244   0.761  15.063  0.0467 -0.0799 -0.7373
  820MPD2    H512126   4.221   0.663  15.073  0.8968 -0.2738 -0.6417
  820MPD2    N112127   4.056   1.182  14.878  0.9265  0.1780 -0.0585
  820MPD2    H712128   3.992   1.230  14.816  1.3146 -1.1036 -1.4572
  821MPD2     C12129   4.500   2.541  12.854 -0.1523 -0.3318 -0.1811
  821MPD2    C112130   4.576   2.462  12.930  0.0724  0.0838 -0.0321
  821MPD2    C212131   4.715   2.479  12.924  0.5219  0.2682 -0.1792
  821MPD2    C312132   0.044   2.574  12.838  0.6801  0.3037 -0.3465
  821MPD2    C412133   4.700   2.658  12.760  0.0240 -0.6956  0.4593
  821MPD2    C512134   4.562   2.633  12.766 -0.2873 -0.7860 -0.2484
  821MPD2     H12135   0.051   2.423  12.984 -1.1165 -2.5186 -0.8792
  821MPD2    H112136   0.007   2.733  12.694  0.7648  1.2812  3.1401
  821MPD2    H212137   4.392   2.545  12.844 -0.0385  0.1909 -1.2178
  821MPD2    H312138   4.494   2.696  12.709  1.5059  2.8792  1.6754
  821MPD2     N12139   0.185   2.596  12.847 -0.7665  0.0861 -0.7724
  821MPD2    H512140   0.222   2.670  12.788  0.1545  0.2258 -0.0302
  821MPD2    N112141   4.527   2.365  13.015  0.4004  0.9054 -0.2157
  821MPD2    H712142   4.589   2.322  13.083 -0.4407  0.3183  0.1816
  822MPD2     C12143   0.812   2.614  15.306 -0.6221  0.8300 -0.2320
  822MPD2    C112144   0.817   2.607  15.444 -0.8166  0.1863 -0.0036
  822MPD2    C212145   0.751   2.701  15.524 -0.5030  0.2360  0.9245
  822MPD2    C312146   0.668   2.792  15.474  0.3801 -0.7574  0.2158
  822MPD2    C412147   0.664   2.807  15.338 -0.6446 -0.1873  0.5607
  822MPD2    C512148   0.735   2.716  15.254  1.0019  0.1945 -0.4001
  822MPD2     H12149   0.758   2.689  15.631 -1.0160  0.4043  0.9765
  822MPD2    H112150   0.592   2.870  15.287  1.2735 -0.6029 -2.5812
  822MPD2    H212151   0.851   2.545  15.233 -1.2863  0.8313 -0.5824
  822MPD2    H312152   0.714   2.725  15.148  0.3250 -0.8347 -0.3570
  822MPD2     N12153   0.598   2.874  15.570 -0.0545  0.4061 -0.6250
  822MPD2    H512154   0.609   2.852  15.668  1.2658 -1.5891 -1.2326
  822MPD2    N112155   0.890   2.507  15.510 -0.5381  0.2412 -0.1478
  822MPD2    H712156   0.900   2.520  15.611  1.8636 -0.0980 -0.3355
  823MPD2     C12157   0.281   3.067  16.344  0.5959 -0.2843 -0.0204
  823MPD2    C112158   0.321   2.985  16.246 -0.5843 -1.3381  0.5567
  823MPD2    C212159   0.370   2.856  16.283 -0.1182  0.4925 -0.6986
  823MPD2    C312160   0.384   2.821  16.420 -0.0158 -0.1781 -0.9338
  823MPD2    C412161   0.340   2.916  16.516  0.0200 -0.6679  0.3258
  823MPD2    C512162   0.286   3.036  16.475  0.1553 -0.8577 -0.4120
  823MPD2     H12163   0.410   2.796  16.202 -0.0146 -0.1071 -0.2003
  823MPD2    H112164   0.340   2.901  16.623  1.0644 -0.6006  0.3262
  823MPD2    H212165   0.228   3.160  16.331  3.1999  1.2825  0.6486
  823MPD2    H312166   0.261   3.109  16.551 -0.1965 -3.0655  1.5780
  823MPD2     N12167   0.436   2.698  16.471  0.0023  0.1082 -0.0293
  823MPD2    H512168   0.433   2.680  16.571  1.5755 -0.6355 -0.1281
  823MPD2    N112169   0.331   3.035  16.113 -0.6549 -0.3572  0.0521
  823MPD2    H712170   0.335   3.136  16.106 -2.1531 -0.4061 -1.5636
  824MPD2     C12171   1.214   1.686  15.825  0.3793  0.2903 -0.2677
  824MPD2    C112172   1.233   1.775  15.724  0.6636 -0.4072  0.6004
  824MPD2    C212173   1.327   1.755  15.625  0.3257 -0.3737  0.1402
  824MPD2    C312174   1.407   1.641  15.630  1.3229  0.0367 -0.0718
  824MPD2    C412175   1.393   1.548  15.731 -0.8151 -0.4741 -0.0932
  824MPD2    C512176   1.290   1.569  15.825 -0.2790 -0.0750 -0.3062
  824MPD2     H12177   1.348   1.834  15.552  1.6378 -1.1691 -0.3481
  824MPD2    H112178   1.455   1.459  15.732  1.5812  1.1739 -1.3363
  824MPD2    H212179   1.129   1.691  15.891  0.4642 -0.0903 -0.1339
  824MPD2    H312180   1.262   1.497  15.901  0.9437  0.5374  0.7112
  824MPD2     N12181   1.497   1.627  15.526 -0.1664 -0.5777 -0.5149
  824MPD2    H512182   1.494   1.701  15.456 -1.6508 -0.8686 -0.7677
  824MPD2    N112183   1.143   1.883  15.720  0.2725  0.5944  0.5126
  824MPD2    H712184   1.086   1.891  15.803 -1.9260 -2.2000 -0.7279
  825MPD2     C12185   2.027   1.986  14.944  0.7304 -0.8894  0.2022
  825MPD2    C112186   1.940   1.989  15.053  0.2870 -0.1729  0.1040
  825MPD2    C212187   1.928   2.112  15.111 -0.4874 -1.1375  0.4189
  825MPD2    C312188   1.986   2.231  15.064  0.6107  0.3931  0.3607
  825MPD2    C412189   2.068   2.227  14.950  0.2451 -0.8380 -0.4947
  825MPD2    C512190   2.093   2.103  14.899  0.1060 -0.4786  0.3577
  825MPD2     H12191   1.858   2.107  15.194  2.0990  1.7617  2.7507
  825MPD2    H112192   2.124   2.312  14.914  1.6496 -1.5988 -0.1069
  825MPD2    H212193   2.051   1.888  14.906  0.0524 -2.2300  3.1852
  825MPD2    H312194   2.169   2.100  14.821 -0.1446 -1.2036  0.1402
  825MPD2     N12195   1.954   2.361  15.126 -0.4447  0.1647 -0.0696
  825MPD2    H512196   1.981   2.442  15.071  0.6789  0.2058  0.5518
  825MPD2    N112197   1.888   1.867  15.099 -0.3486  0.2982  0.5865
  825MPD2    H712198   1.930   1.783  15.062 -2.2407 -0.3719 -0.0581
  826MPD2     C12199   2.446   1.324  13.013 -0.6600 -0.3270  0.5398
  826MPD2    C112200   2.515   1.395  13.114  0.1337  0.5571 -0.1310
  826MPD2    C212201   2.437   1.479  13.196 -0.0173  0.0406  0.1624
  826MPD2    C312202   2.310   1.518  13.158 -0.3865  0.5771 -0.1040
  826MPD2    C412203   2.246   1.443  13.060  0.3444  0.1004  0.3486
  826MPD2    C512204   2.317   1.351  12.990  0.6939  0.1166 -0.0510
  826MPD2     H12205   2.484   1.526  13.282 -0.3892  1.2100 -0.2674
  826MPD2    H112206   2.141   1.464  13.039  1.3464  3.4346 -1.3056
  826MPD2    H212207   2.494   1.241  12.962 -0.5232 -0.3398  0.6920
  826MPD2    H312208   2.272   1.299  12.906  0.8140  0.5547 -0.3886
  826MPD2     N12209   2.232   1.611  13.233 -0.5644 -0.0369 -0.0446
  826MPD2    H512210   2.135   1.621  13.203  0.1124  1.0850 -1.8593
  826MPD2    N112211   2.651   1.368  13.140 -0.4065  0.2068 -0.4444
  826MPD2    H712212   2.704   1.313  13.073  1.3047  0.1796  0.9478
  827MPD2     C12213   2.028   3.088   9.671 -0.9540  0.7969 -0.2002
  827MPD2    C112214   2.065   2.955   9.674  0.5142  0.2010  0.3173
  827MPD2    C212215   1.995   2.870   9.589  0.1095  0.3412 -0.2764
  827MPD2    C312216   1.904   2.918   9.497  0.1692 -0.5790  0.4881
  827MPD2    C412217   1.889   3.050   9.487  0.3304 -0.8430 -0.3931
  827MPD2    C512218   1.957   3.137   9.568  0.7881  0.1260  0.4733
  827MPD2     H12219   2.007   2.763   9.607 -1.6385  0.0645 -0.7606
  827MPD2    H112220   1.821   3.095   9.415 -0.5097 -0.7750  0.4391
  827MPD2    H212221   2.087   3.155   9.732  0.9839 -0.8703 -0.2487
  827MPD2    H312222   1.934   3.243   9.557  1.6580  0.1945 -0.6288
  827MPD2     N12223   1.829   2.825   9.423  0.1364  0.1642 -0.8404
  827MPD2    H512224   1.829   2.725   9.438  0.6556  0.3207  0.2379
  827MPD2    N112225   2.167   2.917   9.764  0.6241 -0.3505  0.4761
  827MPD2    H712226   2.191   2.984   9.836  0.1351 -1.0266  1.2768
  828MPD2     C12227   0.935   2.886  11.917 -0.2746  0.2585  0.3956
  828MPD2    C112228   0.819   2.888  11.840  0.4739  0.6886 -0.6886
  828MPD2    C212229   0.838   2.893  11.705 -0.9080 -0.8526 -0.6701
  828MPD2    C312230   0.960   2.898  11.633  0.4869 -0.1614  0.2899
  828MPD2    C412231   1.070   2.895  11.716 -0.2807  0.3448 -0.5975
  828MPD2    C512232   1.057   2.874  11.851 -0.0703  0.2376  0.7833
  828MPD2     H12233   0.745   2.909  11.652 -0.7754  1.2685 -0.2580
  828MPD2    H112234   1.170   2.898  11.674 -0.9866  0.8790 -2.2281
  828MPD2    H212235   0.935   2.891  12.025  0.0461 -1.8576  0.4747
  828MPD2    H312236   1.143   2.873  11.917  0.5581 -1.4049 -0.0677
  828MPD2     N12237   0.975   2.912  11.493 -0.9191 -0.1227  0.2725
  828MPD2    H512238   1.068   2.887  11.461 -1.3890 -1.0888 -0.3220
  828MPD2    N112239   0.686   2.895  11.888  0.5343 -0.3989 -0.6471
  828MPD2    H712240   0.608   2.909  11.825 -0.0575  1.7993  0.5717
  829MPD2     C12241   0.018   3.426  11.620 -0.6983  0.2441 -0.1466
  829MPD2    C112242   4.700   3.365  11.730 -0.0161 -0.0862 -0.3069
  829MPD2    C212243   0.041   3.264  11.789 -1.0352  0.1011 -0.0287
  829MPD2    C312244   0.165   3.225  11.742 -0.1784 -0.4197  0.0234
  829MPD2    C412245   0.214   3.293  11.637 -0.5306 -0.2926  0.5569
  829MPD2    C512246   0.141   3.385  11.578  0.0846 -0.0077 -0.6293
  829MPD2     H12247   4.734   3.216  11.876 -0.8512 -0.1252 -0.0640
  829MPD2    H112248   0.311   3.273  11.594  0.3886  2.7163  1.2935
  829MPD2    H212249   4.702   3.497  11.556  2.4023  1.8966 -0.7435
  829MPD2    H312250   0.175   3.421  11.482  2.9645  0.0145  0.3839
  829MPD2     N12251   0.245   3.128  11.804 -0.1721  0.4362 -0.2110
  829MPD2    H512252   0.330   3.102  11.755 -0.5808 -3.1856  1.0301
  829MPD2    N112253   4.566   3.395  11.772 -0.6775 -0.5924  0.1980
  829MPD2    H712254   4.508   3.435  11.699  0.3131 -2.3964 -1.5600
  830MPD2     C12255   0.970   0.636  15.390  0.5702 -0.1719 -0.0911
  830MPD2    C112256   0.892   0.738  15.366  0.1786  0.2853 -0.1588
  830MPD2    C212257   0.857   0.771  15.241 -0.2016 -0.7830 -0.2403
  830MPD2    C312258   0.915   0.695  15.136  0.4689  0.2180  0.4079
  830MPD2    C412259   1.000   0.595  15.161  0.3094 -0.5647  0.6695
  830MPD2    C512260   1.031   0.568  15.288 -0.4496 -0.4258 -0.7925
  830MPD2     H12261   0.819   0.870  15.216  1.5665  0.6337  2.7188
  830MPD2    H112262   1.049   0.539  15.083  0.4487  0.6565 -0.1257
  830MPD2    H212263   1.000   0.614  15.492  0.4436  2.0323  0.4196
  830MPD2    H312264   1.086   0.477  15.307  0.2718  0.0114 -0.7945
  830MPD2     N12265   0.892   0.723  15.001  1.1420 -0.6737 -0.4483
  830MPD2    H512266   0.951   0.675  14.934  2.6707 -1.3540  1.3727
  830MPD2    N112267   0.828   0.798  15.475  0.3848  0.1411  0.4490
  830MPD2    H712268   0.862   0.771  15.568 -0.0790  1.9894  1.1443
  831MPD2     C12269   0.817   3.002  15.943  0.6001  0.0601  0.3084
  831MPD2    C112270   0.843   2.888  15.867  0.5992  0.6271  0.0725
  831MPD2    C212271   0.766   2.775  15.889 -0.0498  0.7254  0.0918
  831MPD2    C312272   0.660   2.778  15.977  0.0361 -0.6345  0.3068
  831MPD2    C412273   0.644   2.891  16.056  0.0591  0.3395  0.0363
  831MPD2    C512274   0.723   3.005  16.038 -0.4182  0.2783 -0.2934
  831MPD2     H12275   0.784   2.688  15.827  0.0518 -0.1724  1.3710
  831MPD2    H112276   0.568   2.896  16.133  0.9545 -1.4368  1.0303
  831MPD2    H212277   0.881   3.090  15.939  3.3774 -2.0573 -1.7717
  831MPD2    H312278   0.694   3.086  16.105  1.0608  0.6162 -0.0730
  831MPD2     N12279   0.582   2.662  15.996  0.2489  0.4337 -0.3657
  831MPD2    H512280   0.525   2.654  16.079  0.5852 -1.8630 -0.3504
  831MPD2    N112281   0.952   2.884  15.775 -0.1348 -0.6638  0.5245
  831MPD2    H712282   1.002   2.972  15.762  0.4250 -1.0950 -0.2964
  832MPD2     C12283   4.147   3.853  16.962  0.5319 -0.6776  0.1539
  832MPD2    C112284   4.129   3.981  16.928 -0.0861  0.1216  0.2995
  832MPD2    C212285   4.021   4.019  16.850 -0.0412  0.3349  0.4456
  832MPD2    C312286   3.928   3.927  16.801 -0.2384 -0.8510  0.3139
  832MPD2    C412287   3.943   3.794  16.840 -0.3459  0.1887  0.0527
  832MPD2    C512288   4.051   3.760  16.915 -0.6100  0.1901  0.6430
  832MPD2     H12289   4.018   4.119  16.808 -0.1625 -0.0456 -0.4579
  832MPD2    H112290   3.872   3.717  16.813  2.4356 -2.5077  0.5605
  832MPD2    H212291   4.229   3.820  17.025 -0.6854 -0.2227  1.9835
  832MPD2    H312292   4.050   3.663  16.964  0.8207 -0.9712 -1.6232
  832MPD2     N12293   3.823   3.963  16.714 -0.2399 -0.2515  0.6759
  832MPD2    H512294   3.754   3.893  16.689  1.0158 -2.2044  2.7093
  832MPD2    N112295   4.226   4.064  16.975 -0.6442 -0.4767 -0.2754
  832MPD2    H712296   4.307   4.020  17.017 -0.3463  0.3609  0.0123
  833MPD2     C12297   1.215   0.256  12.498 -0.7099  0.5417 -0.3832
  833MPD2    C112298   1.311   0.347  12.453  0.2662  0.6127 -0.2313
  833MPD2    C212299   1.430   0.283  12.405 -0.1471  0.1766  0.1121
  833MPD2    C312300   1.438   0.145  12.391  0.5655  0.1402  0.2300
  833MPD2    C412301   1.333   0.060  12.437 -0.4802  0.1203  0.2772
  833MPD2    C512302   1.223   0.124  12.493  0.4718 -0.1900  0.5258
  833MPD2     H12303   1.498   0.355  12.361 -1.1766  0.1611 -1.5061
  833MPD2    H112304   1.331   4.687  12.429 -1.8756  0.1340  0.3838
  833MPD2    H212305   1.122   0.294  12.537 -1.1240 -0.1463 -0.6965
  833MPD2    H312306   1.145   0.068  12.544 -0.2203 -2.3649 -2.9233
  833MPD2     N12307   1.535   0.076  12.325  0.0255 -0.5842  0.3030
  833MPD2    H512308   1.522   4.715  12.293 -1.6611 -0.2182 -0.1237
  833MPD2    N112309   1.271   0.478  12.419  0.3743  0.0876 -0.0510
  833MPD2    H712310   1.173   0.497  12.433  1.0025  2.1384  1.6279
  834MPD2     C12311   1.494   4.137  11.649  0.3553 -0.4761  0.7454
  834MPD2    C112312   1.463   4.260  11.594  0.4830  0.2074 -0.1683
  834MPD2    C212313   1.495   4.379  11.658  0.2212 -0.5741 -0.0843
  834MPD2    C312314   1.564   4.372  11.778  0.3294  0.3107 -0.3570
  834MPD2    C412315   1.586   4.253  11.836  0.1143  0.1929 -0.0681
  834MPD2    C512316   1.547   4.136  11.773  0.5021  0.0608  0.8045
  834MPD2     H12317   1.448   4.471  11.627 -2.7708 -2.3819 -0.8130
  834MPD2    H112318   1.653   4.241  11.921 -1.3143  0.1325  1.0454
  834MPD2    H212319   1.488   4.044  11.594  1.7565  1.3852 -2.5726
  834MPD2    H312320   1.571   4.038  11.811 -0.5507  0.1432  1.6630
  834MPD2     N12321   1.592   4.494  11.842 -0.0021 -0.3501  0.0011
  834MPD2    H512322   1.581   4.582  11.793 -1.7263 -0.8339 -0.4733
  834MPD2    N112323   1.419   4.256  11.465 -0.6709 -0.0036 -0.0983
  834MPD2    H712324   1.417   4.165  11.420 -0.9734  0.2747 -0.6449
  835MPD2     C12325   1.942   2.506  10.902  0.1159 -0.6245 -0.2663
  835MPD2    C112326   1.833   2.532  10.976 -0.5274  0.2904 -0.3962
  835MPD2    C212327   1.803   2.445  11.078 -0.0853 -0.4866 -0.1272
  835MPD2    C312328   1.878   2.330  11.102 -0.2918  0.0480  0.1531
  835MPD2    C412329   1.998   2.314  11.032  0.5139  0.1864 -0.4661
  835MPD2    C512330   2.033   2.404  10.935  0.1170 -0.4610  0.6772
  835MPD2     H12331   1.701   2.461  11.112 -0.2041 -1.7844  0.1571
  835MPD2    H112332   2.062   2.228  11.045 -0.1771 -0.0943  1.0690
  835MPD2    H212333   1.987   2.571  10.828 -0.4719 -1.1007 -1.0406
  835MPD2    H312334   2.123   2.400  10.874 -0.9469  3.6565 -1.1949
  835MPD2     N12335   1.838   2.229  11.189  0.0869 -0.0046 -0.5523
  835MPD2    H512336   1.897   2.147  11.184  1.7122  1.2056 -1.3410
  835MPD2    N112337   1.744   2.641  10.952 -0.2678 -0.3027 -0.4919
  835MPD2    H712338   1.670   2.658  11.020  0.1915 -3.2263  0.7460
  836MPD2     C12339   1.376   2.476  11.452  0.4734  0.2202  0.5213
  836MPD2    C112340   1.367   2.376  11.541  0.0638 -0.0368  0.2033
  836MPD2    C212341   1.279   2.393  11.649  0.0273  0.7501 -0.0077
  836MPD2    C312342   1.194   2.503  11.656  0.0202 -0.0133 -0.1008
  836MPD2    C412343   1.214   2.605  11.564 -0.4633 -0.3882 -0.3645
  836MPD2    C512344   1.283   2.582  11.454  0.1795 -0.5823 -0.3171
  836MPD2     H12345   1.282   2.319  11.728  0.5076  0.3689 -0.3795
  836MPD2    H112346   1.158   2.697  11.579  1.6415  0.3252  3.1107
  836MPD2    H212347   1.438   2.471  11.363 -0.3676  1.9707 -0.1473
  836MPD2    H312348   1.304   2.664  11.387  2.3323 -1.3999 -0.6381
  836MPD2     N12349   1.089   2.515  11.745  0.7238  0.9525  0.1148
  836MPD2    H512350   1.016   2.581  11.720 -0.3158  0.1580  1.0310
  836MPD2    N112351   1.447   2.265  11.514 -0.0934  0.3654 -0.1819
  836MPD2    H712352   1.496   2.266  11.425 -0.4799  1.5498 -0.3837
  837MPD2     C12353   4.338   2.233   9.777 -0.4228  0.6611  0.0931
  837MPD2    C112354   4.230   2.280   9.723  0.5403  0.2127 -0.1179
  837MPD2    C212355   4.193   2.408   9.742  0.5876  0.5672  0.0741
  837MPD2    C312356   4.276   2.495   9.811 -0.0466  0.0671  0.6841
  837MPD2    C412357   4.387   2.446   9.878  0.1088 -0.1317 -0.2111
  837MPD2    C512358   4.418   2.316   9.856 -0.5344  0.6607  0.0670
  837MPD2     H12359   4.102   2.451   9.703  1.3577  2.2790  0.1843
  837MPD2    H112360   4.449   2.517   9.932  0.8298  0.7371 -2.1774
  837MPD2    H212361   4.365   2.129   9.764 -0.4227  0.7244 -0.4437
  837MPD2    H312362   4.514   2.274   9.884  0.0564  1.3840 -0.8881
  837MPD2     N12363   4.240   2.629   9.822  0.7340  0.1478  0.1781
  837MPD2    H512364   4.156   2.655   9.772  1.3747  0.4857 -0.7331
  837MPD2    N112365   4.139   2.196   9.654 -0.0405 -0.1850  0.1755
  837MPD2    H712366   4.046   2.230   9.632 -0.0663  0.1969  0.8595
  838MPD2     C12367   3.017   1.152  11.782  0.3623 -0.6930 -0.6025
  838MPD2    C112368   2.946   1.051  11.711 -0.2972 -0.3410  0.2910
  838MPD2    C212369   2.812   1.056  11.704 -0.5418  0.0483  0.3252
  838MPD2    C312370   2.740   1.156  11.760 -0.6641 -0.2888 -0.2059
  838MPD2    C412371   2.807   1.244  11.844 -0.5177 -0.3179  0.0150
  838MPD2    C512372   2.946   1.252  11.850 -0.0165 -0.2226  0.7861
  838MPD2     H12373   2.759   0.973  11.659  0.0147 -0.5264  0.7279
  838MPD2    H112374   2.750   1.319  11.898  0.1875 -0.8998  1.5396
  838MPD2    H212375   3.124   1.152  11.795  0.1638  0.3252  0.9385
  838MPD2    H312376   2.994   1.324  11.916  0.7260 -0.7093  0.7672
  838MPD2     N12377   2.599   1.154  11.743  0.2992 -0.3398  0.1695
  838MPD2    H512378   2.569   1.073  11.690  3.0517 -0.4867 -1.1957
  838MPD2    N112379   3.016   0.958  11.625  0.7245  0.1288  0.2038
  838MPD2    H712380   2.955   0.895  11.574  1.2665  1.0946 -1.6189
  839MPD2     C12381   2.658   0.267  11.561 -0.6638 -0.6368 -0.1164
  839MPD2    C112382   2.679   0.304  11.427  0.0663 -0.1914 -0.1332
  839MPD2    C212383   2.782   0.387  11.392  0.6361  0.1939  0.2870
  839MPD2    C312384   2.872   0.427  11.489 -0.7684  0.4204  0.4082
  839MPD2    C412385   2.862   0.382  11.619 -0.2945  0.1353  0.3775
  839MPD2    C512386   2.756   0.298  11.655  1.0999 -0.4116 -0.3198
  839MPD2     H12387   2.796   0.420  11.290  3.1340 -0.2833  0.4637
  839MPD2    H112388   2.920   0.421  11.702 -1.6681  1.1512  0.8646
  839MPD2    H212389   2.575   0.208  11.598 -1.1081  2.1293  3.2810
  839MPD2    H312390   2.739   0.276  11.760  0.2245  1.6076 -0.0400
  839MPD2     N12391   2.978   0.513  11.465 -0.0083 -0.6375 -0.3501
  839MPD2    H512392   3.023   0.554  11.547 -3.1934 -1.4387  1.8076
  839MPD2    N112393   2.599   0.261  11.320 -0.2510 -0.4154  0.2871
  839MPD2    H712394   2.646   0.267  11.230  2.0996  1.1463  1.6372
  840MPD2     C12395   2.554   3.290  10.029  0.1035 -0.6956  0.4403
  840MPD2    C112396   2.595   3.174  10.086  0.0259  0.6385 -0.0287
  840MPD2    C212397   2.695   3.173  10.181  0.3572  0.1939 -0.9266
  840MPD2    C312398   2.750   3.291  10.227  0.0568  1.0331 -0.4171
  840MPD2    C412399   2.707   3.407  10.167  0.5048 -0.1713  0.5111
  840MPD2    C512400   2.614   3.408  10.066  0.6417  0.2135  0.3069
  840MPD2     H12401   2.725   3.082  10.232  1.0906  1.0991  0.2671
  840MPD2    H112402   2.757   3.502  10.182 -0.4219 -0.0388  2.6644
  840MPD2    H212403   2.470   3.310   9.964 -0.2242  0.8871  1.3585
  840MPD2    H312404   2.578   3.497  10.016 -0.5239  0.5163  1.6452
  840MPD2     N12405   2.860   3.296  10.311  0.4068 -0.3471 -0.0575
  840MPD2    H512406   2.903   3.385  10.335  1.9605 -0.4574 -2.4372
  840MPD2    N112407   2.529   3.056  10.040 -0.1649 -0.1429 -0.1191
  840MPD2    H712408   2.486   3.066   9.949  0.5461  1.3921 -0.2947
  841MPD2     C12409   3.014   2.680  14.445  0.0210 -0.1113  0.6843
  841MPD2    C112410   2.968   2.804  14.430  0.5103 -0.0204 -0.0790
  841MPD2    C212411   3.009   2.905  14.516  0.1420  0.3892  0.1916
  841MPD2    C312412   3.092   2.883  14.615 -0.2370 -0.3666 -0.4643
  841MPD2    C412413   3.140   2.755  14.638 -0.2948  0.1705 -0.8325
  841MPD2    C512414   3.096   2.653  14.554 -1.1503 -0.0304  0.9838
  841MPD2     H12415   2.983   3.008  14.493  0.5368 -0.0043 -2.0606
  841MPD2    H112416   3.220   2.724  14.704 -1.0237  0.8627  0.3580
  841MPD2    H212417   3.009   2.602  14.370 -0.8323 -1.0976  1.7723
  841MPD2    H312418   3.129   2.550  14.565 -0.4324  0.1834  0.8292
  841MPD2     N12419   3.142   2.984  14.698 -0.8435  0.0248  0.3301
  841MPD2    H512420   3.127   3.080  14.669  1.6120 -0.3058 -2.0446
  841MPD2    N112421   2.879   2.842  14.324  0.0667  0.2437  0.3841
  841MPD2    H712422   2.840   2.935  14.335 -1.6287 -0.2770 -1.3181
  842MPD2     C12423   3.152   4.156  16.526  0.8254 -1.4723  0.1013
  842MPD2    C112424   3.024   4.099  16.507  0.8436 -0.0991 -0.5156
  842MPD2    C212425   2.972   4.029  16.612  0.5334  0.4085  0.1563
  842MPD2    C312426   3.029   4.018  16.737 -0.0959 -0.5564 -0.3134
  842MPD2    C412427   3.151   4.081  16.754  0.1086 -0.4553 -1.2198
  842MPD2    C512428   3.221   4.144  16.648 -0.6115  0.1711 -0.0098
  842MPD2     H12429   2.875   3.986  16.591  0.7292 -0.3289  0.7862
  842MPD2    H112430   3.208   4.072  16.846 -0.5609 -2.1347 -0.9822
  842MPD2    H212431   3.193   4.214  16.444 -3.7289 -0.4691 -1.4492
  842MPD2    H312432   3.326   4.169  16.647 -1.1996  2.5951 -0.4379
  842MPD2     N12433   2.980   3.950  16.849  0.6802  0.0486  0.4092
  842MPD2    H512434   3.029   3.956  16.937  0.9180 -1.3449  0.3806
  842MPD2    N112435   2.962   4.118  16.377 -0.3936  0.1573 -0.5851
  842MPD2    H712436   3.002   4.187  16.314  1.8720 -0.0130  0.6683
  843MPD2     C12437   0.257   0.409  16.951 -0.1506 -0.3872  0.1750
  843MPD2    C112438   0.309   0.338  17.057  0.6955 -0.5284  0.2276
  843MPD2    C212439   0.377   0.410  17.153  0.5671 -0.4814  0.4756
  843MPD2    C312440   0.413   0.540  17.141  0.1103 -0.0616 -0.0159
  843MPD2    C412441   0.363   0.607  17.031 -0.2988 -0.4207 -0.1914
  843MPD2    C512442   0.281   0.545  16.939  0.2079 -0.0852 -0.0350
  843MPD2     H12443   0.423   0.352  17.232  2.4687  0.7944  0.2946
  843MPD2    H112444   0.388   0.710  17.009  1.3827 -1.1848 -1.8724
  843MPD2    H212445   0.187   0.356  16.888  2.2056 -2.0372 -1.0579
  843MPD2    H312446   0.233   0.603  16.861 -0.0441 -0.8066 -0.4131
  843MPD2     N12447   0.493   0.620  17.227 -0.3225  0.4197 -0.8082
  843MPD2    H512448   0.496   0.718  17.204  4.3556  0.4039 -0.2591
  843MPD2    N112449   0.275   0.203  17.074  0.4674  0.1929  0.1473
  843MPD2    H712450   0.247   0.158  16.987  3.0932  1.4468 -1.3505
  844MPD2     C12451   3.480   3.519  16.182  0.0469  0.2822  0.1153
  844MPD2    C112452   3.547   3.573  16.079 -0.8340  0.5142  0.3854
  844MPD2    C212453   3.604   3.698  16.106  0.6228 -0.1742 -0.9453
  844MPD2    C312454   3.616   3.747  16.232  0.2145  0.4432  0.5855
  844MPD2    C412455   3.557   3.685  16.335  0.0438 -0.2243  0.7318
  844MPD2    C512456   3.489   3.568  16.312 -0.0831  0.7361 -0.4225
  844MPD2     H12457   3.672   3.729  16.027  0.3257 -0.1903 -1.2044
  844MPD2    H112458   3.576   3.728  16.433  0.3821 -1.6325  1.2858
  844MPD2    H212459   3.427   3.424  16.179  0.4780  0.0603 -0.3924
  844MPD2    H312460   3.448   3.509  16.394  1.7886 -0.8910 -0.6469
  844MPD2     N12461   3.708   3.842  16.274 -0.5636  0.3571  0.2793
  844MPD2    H512462   3.728   3.848  16.373 -1.9465  0.3489  0.5577
  844MPD2    N112463   3.561   3.520  15.945 -0.4628  0.3035  0.1085
  844MPD2    H712464   3.619   3.572  15.880  0.0027  0.5811  0.7426
  845MPD2     C12465   3.936   0.142  16.359 -0.4858 -0.5687 -0.4030
  845MPD2    C112466   3.984   0.072  16.475 -0.0298 -0.7550  0.4158
  845MPD2    C212467   3.988   4.665  16.459  0.0852  0.7284 -0.7598
  845MPD2    C312468   3.952   4.602  16.339  0.0886 -0.2197  0.6360
  845MPD2    C412469   3.903   4.680  16.234 -0.8408  0.1083  0.1328
  845MPD2    C512470   3.895   0.074  16.245  0.0842  0.7291  0.5066
  845MPD2     H12471   4.032   4.605  16.539 -1.3941 -0.7602 -1.0510
  845MPD2    H112472   3.878   4.630  16.142  0.6866  1.5798 -1.0817
  845MPD2    H212473   3.931   0.251  16.354 -1.5249 -0.5622  0.6502
  845MPD2    H312474   3.872   0.130  16.155 -3.1354 -0.0541  0.8206
  845MPD2     N12475   3.974   4.467  16.326 -0.3411  0.1398 -0.3250
  845MPD2    H512476   4.028   4.425  16.401  0.6588  1.0182 -0.5420
  845MPD2    N112477   4.017   0.145  16.586  0.2424  0.1197 -0.2876
  845MPD2    H712478   3.979   0.239  16.580  0.2498  0.1235 -0.2715
  846MPD2     C12479   0.288   0.353  13.121  0.0709  0.1083 -0.2066
  846MPD2    C112480   0.372   0.264  13.181 -0.8553 -0.1476 -0.2005
  846MPD2    C212481   0.353   0.232  13.317  0.1858 -0.6183  0.4850
  846MPD2    C312482   0.245   0.290  13.385 -1.0777  0.0522  0.0604
  846MPD2    C412483   0.152   0.360  13.317 -0.3722 -0.2298 -0.1786
  846MPD2    C512484   0.169   0.390  13.185  0.5084  0.3190 -1.1140
  846MPD2     H12485   0.416   0.154  13.355 -0.0188  0.3341  2.7611
  846MPD2    H112486   0.066   0.393  13.373 -0.3167 -1.1442  0.4477
  846MPD2    H212487   0.309   0.394  13.023  1.7054  1.0444  0.5383
  846MPD2    H312488   0.093   0.435  13.123  1.4327  2.4871 -0.6834
  846MPD2     N12489   0.237   0.271  13.529  0.1122 -0.4217  0.1019
  846MPD2    H512490   0.303   0.200  13.560 -1.3235 -1.6227  0.3786
  846MPD2    N112491   0.487   0.197  13.115 -0.6857  0.1206 -0.1119
  846MPD2    H712492   0.565   0.160  13.167  0.0263  0.8395 -0.6720
  847MPD2     C12493   1.046   1.386  13.616 -0.3343  0.2139 -0.3106
  847MPD2    C112494   1.057   1.409  13.754 -0.2910  0.2663  0.4341
  847MPD2    C212495   1.032   1.308  13.842 -0.0550 -0.0022  0.3418
  847MPD2    C312496   1.007   1.177  13.806  0.1977 -0.1026 -0.1980
  847MPD2    C412497   0.990   1.152  13.668  0.3153 -0.0003 -0.0726
  847MPD2    C512498   0.998   1.262  13.578 -0.6714 -0.4598  0.3958
  847MPD2     H12499   1.052   1.333  13.946  0.2109  1.2889 -0.0253
  847MPD2    H112500   0.962   1.054  13.634 -1.2821  0.4590 -0.0921
  847MPD2    H212501   1.057   1.459  13.537  0.3415  1.2479  0.7282
  847MPD2    H312502   0.979   1.252  13.472 -0.2109 -0.1274  0.2807
  847MPD2     N12503   1.012   1.078  13.905 -0.0987 -0.1760  0.1886
  847MPD2    H512504   1.025   1.111  14.000 -2.5810  1.3977 -0.0323
  847MPD2    N112505   1.097   1.532  13.808  0.5571 -0.1349  0.2870
  847MPD2    H712506   1.099   1.527  13.910  2.8400  0.8792  0.2881
  848MPD2     C12507   3.542   4.321  16.029  0.2504 -0.3880  0.0813
  848MPD2    C112508   3.558   4.386  16.151  0.2276  0.0038  0.0705
  848MPD2    C212509   3.572   4.522  16.153  0.3744  0.5099 -0.7730
  848MPD2    C312510   3.535   4.597  16.037 -0.7233 -0.1675 -0.1777
  848MPD2    C412511   3.508   4.529  15.922 -1.0981 -0.0579 -0.1353
  848MPD2    C512512   3.517   4.397  15.920 -0.1935 -0.1205 -0.3071
  848MPD2     H12513   3.598   4.560  16.251  1.3678 -0.2757 -0.7286
  848MPD2    H112514   3.481   4.589  15.836  1.4789 -1.1126 -1.6922
  848MPD2    H212515   3.540   4.213  16.021 -2.1426 -0.4159  1.1346
  848MPD2    H312516   3.480   4.347  15.831 -0.5487 -2.7218  1.3023
  848MPD2     N12517   3.515   0.002  16.033  0.6195  0.2331 -0.2523
  848MPD2    H512518   3.494   0.055  15.949  0.0436  1.5893  0.7433
  848MPD2    N112519   3.552   4.320  16.283 -0.1626 -0.0635 -0.1693
  848MPD2    H712520   3.578   4.373  16.365  2.7369 -0.5540 -0.7733
  849MPD2     C12521   2.229   3.752  13.986  0.5993 -0.3345  0.3836
  849MPD2    C112522   2.321   3.666  13.931 -0.0401  0.3922  0.6943
  849MPD2    C212523   2.445   3.640  13.987  0.0787 -0.3281  0.1195
  849MPD2    C312524   2.466   3.688  14.114  0.1764  0.4610  0.6086
  849MPD2    C412525   2.368   3.769  14.173 -0.0838  0.0481  0.2083
  849MPD2    C512526   2.252   3.800  14.114  1.1264 -0.0209  0.2795
  849MPD2     H12527   2.526   3.588  13.937  1.5959 -0.0119  2.2667
  849MPD2    H112528   2.389   3.815  14.269 -0.1535  0.1377  0.1797
  849MPD2    H212529   2.128   3.769  13.948  0.3831 -1.6585  0.3897
  849MPD2    H312530   2.174   3.867  14.150  2.1855  1.1134  0.4940
  849MPD2     N12531   2.594   3.661  14.173  0.7739  0.1652  0.5855
  849MPD2    H512532   2.658   3.607  14.115 -0.9826 -0.2654 -0.9676
  849MPD2    N112533   2.285   3.619  13.804 -0.6177  0.1559  0.2158
  849MPD2    H712534   2.198   3.658  13.769 -0.6212  2.1120  2.4326
  850MPD2     C12535   0.889   2.130  14.418 -0.4264 -0.3932 -0.5631
  850MPD2    C112536   0.954   2.087  14.534 -0.6221 -0.3511 -0.4633
  850MPD2    C212537   1.093   2.095  14.548  0.0075 -0.0742  0.0401
  850MPD2    C312538   1.162   2.162  14.450 -0.9490 -0.4505 -0.8840
  850MPD2    C412539   1.092   2.207  14.337 -0.6375  0.1881  0.0811
  850MPD2    C512540   0.968   2.178  14.315 -0.0436  0.3280  0.1002
  850MPD2     H12541   1.134   2.061  14.643 -2.0935 -3.4941 -0.2695
  850MPD2    H112542   1.153   2.251  14.259 -1.6837 -0.2268 -0.9674
  850MPD2    H212543   0.783   2.124  14.400 -0.5441 -0.5523  0.1905
  850MPD2    H312544   0.928   2.217  14.222 -0.8076 -2.3203 -0.6826
  850MPD2     N12545   1.283   2.227  14.480  0.0115  0.0680 -0.5226
  850MPD2    H512546   1.325   2.287  14.410  0.4533 -1.5804 -1.6634
  850MPD2    N112547   0.877   2.039  14.642 -0.6904  0.5077 -0.1669
  850MPD2    H712548   0.930   2.011  14.724 -1.2287  0.0861  0.0416
  851MPD2     C12549   1.203   1.581  14.891  0.1078 -0.0699  0.4667
  851MPD2    C112550   1.064   1.565  14.876  0.4086 -0.0973  0.0317
  851MPD2    C212551   1.016   1.447  14.839  0.2016  0.1104  0.5972
  851MPD2    C312552   1.099   1.340  14.824  0.3793  0.6826 -0.2503
  851MPD2    C412553   1.238   1.349  14.831 -0.1731 -0.3850  0.5453
  851MPD2    C512554   1.285   1.472  14.867  0.4335  0.6392  0.1407
  851MPD2     H12555   0.911   1.431  14.818  0.0889 -0.1786  1.3550
  851MPD2    H112556   1.311   1.272  14.809  2.4860  1.6192  2.3831
  851MPD2    H212557   1.244   1.678  14.914  1.0278 -0.1644 -0.7594
  851MPD2    H312558   1.392   1.487  14.880 -0.0940  0.7288  4.2562
  851MPD2     N12559   1.037   1.220  14.781 -0.3573 -0.0828  0.3072
  851MPD2    H512560   0.943   1.225  14.741  0.9558 -0.0913 -2.7869
  851MPD2    N112561   0.978   1.679  14.901  0.2787 -0.3081 -0.5911
  851MPD2    H712562   1.019   1.770  14.917 -0.8448 -0.3906  2.7692
  852MPD2     C12563   0.376   4.342   9.787  0.1341 -0.0996  0.2215
  852MPD2    C112564   0.448   4.377   9.900 -0.1578 -0.0237  0.2313
  852MPD2    C212565   0.530   4.489   9.898 -0.0504 -0.6575  0.6368
  852MPD2    C312566   0.555   4.553   9.777  0.0429 -0.3116  0.3212
  852MPD2    C412567   0.475   4.523   9.665  0.2012  0.1620  0.2742
  852MPD2    C512568   0.397   4.411   9.669 -0.0983  0.1225  0.8383
  852MPD2     H12569   0.575   4.521   9.991 -0.5600  0.4258  0.5037
  852MPD2    H112570   0.498   4.563   9.567 -2.5118 -1.7760 -1.1562
  852MPD2    H212571   0.298   4.267   9.795 -0.8951  0.8434 -0.9834
  852MPD2    H312572   0.337   4.387   9.582  0.0018  0.0054  0.8012
  852MPD2     N12573   0.650   4.656   9.781 -0.4831 -0.4004  0.1831
  852MPD2    H512574   0.703   4.673   9.866 -1.0147  2.2553 -0.0074
  852MPD2    N112575   0.427   4.312  10.024  0.6343  0.4476 -0.3480
  852MPD2    H712576   0.479   4.347  10.103  0.8491 -0.8045  0.0682
  853MPD2     C12577   2.513   3.974  12.253 -0.2804  0.6707 -0.4383
  853MPD2    C112578   2.454   4.079  12.191  0.5512 -0.4437 -0.3583
  853MPD2    C212579   2.444   4.070  12.053 -0.4132 -0.5287  0.0625
  853MPD2    C312580   2.503   3.968  11.977 -0.5639 -0.8405  0.4268
  853MPD2    C412581   2.566   3.862  12.042 -0.7936  0.5671 -0.0269
  853MPD2    C512582   2.568   3.869  12.179 -0.2788  0.1921 -0.4608
  853MPD2     H12583   2.371   4.133  12.002  1.0297  1.1319  0.0436
  853MPD2    H112584   2.608   3.775  11.994  0.1889  1.4450 -0.7704
  853MPD2    H212585   2.516   3.979  12.362 -2.2424  3.2295 -0.5260
  853MPD2    H312586   2.616   3.795  12.241 -1.5068  0.8233  1.2646
  853MPD2     N12587   2.498   3.956  11.831 -0.0440  0.1893 -0.0368
  853MPD2    H512588   2.543   3.876  11.787  1.2011  0.8739  0.0012
  853MPD2    N112589   2.397   4.180  12.266 -1.0520 -0.8120  0.4391
  853MPD2    H712590   2.391   4.164  12.366  0.0187 -0.1302  0.6149
  854MPD2     C12591   4.492   0.086  12.317 -0.5468 -0.3338  0.6273
  854MPD2    C112592   4.487   4.689  12.269 -0.2401 -0.1852 -0.5425
  854MPD2    C212593   4.593   4.605  12.291 -0.1198  0.3488 -0.6808
  854MPD2    C312594   4.709   4.661  12.350 -0.0171  0.1178 -0.2987
  854MPD2    C412595   4.705   0.049  12.408 -0.4886 -0.1356  0.7824
  854MPD2    C512596   4.602   0.130  12.384  0.1236 -0.7886 -0.3996
  854MPD2     H12597   4.594   4.502  12.255 -0.8019 -1.3645  4.2038
  854MPD2    H112598   0.053   0.086  12.466  0.7430  0.0162 -1.0568
  854MPD2    H212599   4.407   0.151  12.296 -0.9662 -0.6628  1.3064
  854MPD2    H312600   4.615   0.234  12.413 -2.5663 -0.3981 -0.5686
  854MPD2     N12601   0.097   4.595  12.367  0.4078  0.6536 -0.1024
  854MPD2    H512602   0.151   4.630  12.446  0.9470  0.3268 -0.3313
  854MPD2    N112603   4.372   4.631  12.205 -0.2336  0.0818 -0.5766
  854MPD2    H712604   4.371   4.529  12.201 -1.4515  0.1495 -2.2935
  855MPD2     C12605   0.042   4.320  13.114  0.4882  0.4523  0.8129
  855MPD2    C112606   0.131   4.225  13.080 -0.3850  0.2584  0.3768
  855MPD2    C212607   0.197   4.236  12.959 -0.9482 -0.0068  0.3138
  855MPD2    C312608   0.172   4.348  12.880  0.0704 -0.5352  0.7035
  855MPD2    C412609   0.071   4.435  12.913  0.1549  0.2898  0.5658
  855MPD2    C512610   0.008   4.415  13.031 -0.5280 -0.1983 -0.8131
  855MPD2     H12611   0.270   4.159  12.936 -1.6379 -0.5254 -0.1650
  855MPD2    H112612   0.055   4.519  12.846 -0.5181 -1.2431 -1.1725
  855MPD2    H212613   4.715   4.311  13.203  0.3104 -0.4298  0.6030
  855MPD2    H312614   4.679   4.497  13.061 -0.0909 -0.5905  1.2412
  855MPD2     N12615   0.243   4.367  12.751  0.4276  0.6692 -0.1116
  855MPD2    H512616   0.200   4.438  12.692  1.0039  1.4103  0.3597
  855MPD2    N112617   0.163   4.115  13.158 -0.2627 -0.2436  0.0242
  855MPD2    H712618   0.231   4.052  13.115 -0.5994 -0.1940 -0.5704
  856MPD2     C12619   2.447   0.196  13.374 -0.0736 -0.5684 -0.2870
  856MPD2    C112620   2.399   0.321  13.395  0.1725 -0.3557  0.4065
  856MPD2    C212621   2.260   0.332  13.415  0.1457 -0.4383  0.5797
  856MPD2    C312622   2.175   0.232  13.398 -0.1646 -0.3091  0.6530
  856MPD2    C412623   2.229   0.103  13.376 -1.1476  0.9854  0.1734
  856MPD2    C512624   2.363   0.087  13.366 -0.1128 -1.3789  0.4825
  856MPD2     H12625   2.217   0.429  13.434  1.1151  0.4140 -1.5961
  856MPD2    H112626   2.182   0.006  13.368  0.0326  0.2672  1.8818
  856MPD2    H212627   2.554   0.177  13.371  0.1623  0.8846 -0.9956
  856MPD2    H312628   2.400   4.722  13.348  0.3415 -0.9999 -0.7336
  856MPD2     N12629   2.034   0.246  13.374  0.3880  0.4056  0.3194
  856MPD2    H512630   1.986   0.161  13.347  2.5843 -0.9357  0.6218
  856MPD2    N112631   2.481   0.435  13.413  0.5878  0.5912 -0.2271
  856MPD2    H712632   2.440   0.524  13.438 -0.2251  0.2773 -0.4319
  857MPD2     C12633   3.358   2.486  12.175  0.0353 -0.2761 -0.2057
  857MPD2    C112634   3.448   2.479  12.279  0.2029 -0.5531 -0.2311
  857MPD2    C212635   3.497   2.596  12.324  0.5346 -0.4176  0.0536
  857MPD2    C312636   3.463   2.718  12.277 -0.1610 -0.4397 -0.1210
  857MPD2    C412637   3.390   2.715  12.162  0.0311 -0.2032 -0.3019
  857MPD2    C512638   3.330   2.604  12.109 -0.2481 -0.0063 -0.4802
  857MPD2     H12639   3.556   2.592  12.414  1.0069  0.1467 -0.2307
  857MPD2    H112640   3.378   2.810  12.110  0.7573 -0.7368 -1.4562
  857MPD2    H212641   3.321   2.396  12.126  1.9249 -3.7046  4.7101
  857MPD2    H312642   3.255   2.617  12.031  0.8848  1.0488 -1.3850
  857MPD2     N12643   3.524   2.836  12.326 -0.1608  0.6308 -0.0346
  857MPD2    H512644   3.567   2.829  12.417  2.2274  0.6257 -1.1633
  857MPD2    N112645   3.487   2.350  12.324 -0.5503  0.6376 -0.1794
  857MPD2    H712646   3.435   2.271  12.288  0.0967  1.0903 -2.1071
  858MPD2     C12647   4.314   1.916  16.172  0.0879  0.0750 -0.5920
  858MPD2    C112648   4.205   1.835  16.175  0.7826  0.6020 -0.0223
  858MPD2    C212649   4.133   1.843  16.294  0.2083  1.1716 -0.4776
  858MPD2    C312650   4.166   1.919  16.400  0.5920  0.5175 -0.2369
  858MPD2    C412651   4.275   2.001  16.396 -0.5429  0.9646  0.2317
  858MPD2    C512652   4.350   1.997  16.280 -0.6075 -0.3881  0.2903
  858MPD2     H12653   4.046   1.779  16.300  0.0561  1.1970 -2.2926
  858MPD2    H112654   4.314   2.066  16.474  0.9711  0.4208 -0.0759
  858MPD2    H212655   4.387   1.921  16.092  1.4465 -1.5117  0.5246
  858MPD2    H312656   4.439   2.059  16.278 -0.2720 -0.8573  0.7668
  858MPD2     N12657   4.109   1.907  16.526  0.5678 -1.2568  0.1645
  858MPD2    H512658   4.146   1.957  16.607  1.4649 -1.1544 -0.3092
  858MPD2    N112659   4.178   1.749  16.062 -0.8492  0.2975 -0.0035
  858MPD2    H712660   4.252   1.747  15.992 -2.3620 -2.2320 -1.5136
  859MPD2     C12661   2.475   4.234  15.374 -0.0056  0.7313  0.0950
  859MPD2    C112662   2.591   4.178  15.346  0.4239 -0.4743 -0.6247
  859MPD2    C212663   2.627   4.070  15.426  0.8375 -0.4359  0.1952
  859MPD2    C312664   2.543   4.014  15.525  0.1804 -0.0229 -0.1242
  859MPD2    C412665   2.435   4.079  15.560 -0.0066 -0.6049  0.3194
  859MPD2    C512666   2.400   4.185  15.480 -1.0106 -1.1079  0.7395
  859MPD2     H12667   2.716   4.017  15.394  0.3920 -1.1373  0.1183
  859MPD2    H112668   2.378   4.070  15.652  1.8140  1.0687  1.6111
  859MPD2    H212669   2.435   4.325  15.329 -0.6206  0.0657 -0.7167
  859MPD2    H312670   2.321   4.257  15.498  0.6117  1.1936 -1.3472
  859MPD2     N12671   2.573   3.903  15.601  0.3802  0.5938  0.4089
  859MPD2    H512672   2.513   3.883  15.681  1.4047 -1.8046  0.5831
  859MPD2    N112673   2.684   4.226  15.252  0.0152  0.2547  0.3451
  859MPD2    H712674   2.772   4.176  15.239  1.2185  2.1795  1.0547
  860MPD2     C12675   0.648   3.492  11.101  0.1522  0.1581  0.6770
  860MPD2    C112676   0.725   3.545  11.203 -0.4411  0.0117 -0.0870
  860MPD2    C212677   0.698   3.673  11.245 -0.5286  0.4673  0.0882
  860MPD2    C312678   0.582   3.733  11.206 -0.1915  0.2310  0.2326
  860MPD2    C412679   0.505   3.677  11.111  0.1391  0.2720 -0.0083
  860MPD2    C512680   0.541   3.559  11.053 -0.9784 -0.5175 -0.0614
  860MPD2     H12681   0.757   3.720  11.322 -0.0923 -0.5459  0.3810
  860MPD2    H112682   0.413   3.718  11.071  0.6972  0.6911 -0.8624
  860MPD2    H212683   0.671   3.394  11.061  0.0494 -0.5937  2.4715
  860MPD2    H312684   0.466   3.521  10.984  0.4129  0.6562 -2.2428
  860MPD2     N12685   0.554   3.862  11.266 -0.6470  0.3583 -0.0981
  860MPD2    H512686   0.612   3.888  11.345 -0.2477 -1.2940  0.1577
  860MPD2    N112687   0.844   3.489  11.251  0.9405 -0.2123  0.4555
  860MPD2    H712688   0.903   3.539  11.316  2.4659 -0.1948 -0.9438
  861MPD2     C12689   4.248   1.761  10.577 -0.0580  0.0870 -0.5222
  861MPD2    C112690   4.239   1.892  10.614 -0.4178  0.7940 -0.3654
  861MPD2    C212691   4.162   1.974  10.531 -0.5469  0.6061  0.7187
  861MPD2    C312692   4.097   1.921  10.421 -0.4468  0.2488 -0.4838
  861MPD2    C412693   4.100   1.790  10.388 -0.4429  0.5190 -0.4055
  861MPD2    C512694   4.173   1.710  10.469 -0.9383  0.2717  0.5124
  861MPD2     H12695   4.144   2.073  10.570 -0.6088  1.5515 -1.7533
  861MPD2    H112696   4.037   1.760  10.305  0.9683 -0.7637 -0.9999
  861MPD2    H212697   4.315   1.691  10.626 -0.6089 -0.0715  0.0058
  861MPD2    H312698   4.185   1.604  10.449  0.4441  0.8446 -1.6668
  861MPD2     N12699   4.007   2.004  10.345  0.5133 -0.0854 -0.3996
  861MPD2    H512700   3.962   1.948  10.273  0.9809 -1.9800  0.7901
  861MPD2    N112701   4.305   1.950  10.726 -0.9558 -0.4561  0.0715
  861MPD2    H712702   4.308   2.051  10.732  0.1903 -0.4583 -0.4539
  862MPD2     C12703   3.211   2.168  10.028  0.1046 -0.0819  0.0708
  862MPD2    C112704   3.311   2.088  10.088  0.2999  0.0948 -0.5789
  862MPD2    C212705   3.276   1.961  10.120  0.3883 -0.0028  0.0386
  862MPD2    C312706   3.141   1.916  10.103 -0.1273 -0.2610  0.0453
  862MPD2    C412707   3.039   2.000  10.056 -0.7994 -0.2275  0.2130
  862MPD2    C512708   3.079   2.125  10.010  0.1258  0.2543 -0.2274
  862MPD2     H12709   3.347   1.890  10.160  0.3691  1.7639  3.2148
  862MPD2    H112710   2.940   1.958  10.043 -1.2020  0.9779 -0.6793
  862MPD2    H212711   3.241   2.266   9.994  2.2156 -1.3255 -1.6441
  862MPD2    H312712   3.008   2.189   9.958  0.8414 -0.3073 -1.8771
  862MPD2     N12713   3.112   1.786  10.158 -0.1084 -0.4747  0.0016
  862MPD2    H512714   3.197   1.736  10.183  0.2387  0.2715  0.3114
  862MPD2    N112715   3.442   2.140  10.127 -0.0376 -0.0475 -0.7509
  862MPD2    H712716   3.453   2.240  10.112 -0.9401  0.0158 -1.0027
  863MPD2     C12717   2.075   0.488  16.101  0.3883  0.2668  0.7563
  863MPD2    C112718   2.097   0.612  16.167 -0.2776  0.6362 -0.4523
  863MPD2    C212719   2.217   0.630  16.232 -0.1140 -0.7463  0.0831
  863MPD2    C312720   2.314   0.523  16.242 -0.8723 -0.0711  0.0633
  863MPD2    C412721   2.272   0.402  16.196  0.2541  0.2387  0.4738
  863MPD2    C512722   2.153   0.381  16.126  0.3072  0.7431 -0.3678
  863MPD2     H12723   2.240   0.714  16.296 -1.3522  0.2066 -0.7105
  863MPD2    H112724   2.333   0.314  16.210  0.3274 -0.0775 -1.7017
  863MPD2    H212725   1.984   0.473  16.045 -0.8210  0.1482  2.7302
  863MPD2    H312726   2.131   0.288  16.074  1.9596 -1.1932  2.4352
  863MPD2     N12727   2.429   0.528  16.318  0.1815  0.2196 -1.0581
  863MPD2    H512728   2.480   0.445  16.346 -0.4300 -0.0481 -0.7465
  863MPD2    N112729   2.004   0.714  16.151  0.1945  0.2099 -0.5067
  863MPD2    H712730   1.926   0.705  16.085  0.1158 -1.9013 -0.1333
  864MPD2     C12731   2.692   1.647  16.958 -0.4397 -0.4002  0.4125
  864MPD2    C112732   2.774   1.579  16.867  0.4324  0.4426 -0.0664
  864MPD2    C212733   2.863   1.654  16.793  0.1112 -0.0309 -0.1683
  864MPD2    C312734   2.875   1.791  16.803  0.4171  0.1995  0.1443
  864MPD2    C412735   2.798   1.859  16.902 -0.5093  0.0492  0.2882
  864MPD2    C512736   2.704   1.786  16.967  0.1223  0.3082  0.0315
  864MPD2     H12737   2.935   1.604  16.730  0.1411 -0.2912  0.0747
  864MPD2    H112738   2.822   1.964  16.913 -1.6102  0.5472 -2.1250
  864MPD2    H212739   2.620   1.602  17.024  2.3037  0.5441  4.0462
  864MPD2    H312740   2.641   1.836  17.039  0.1892  2.8570 -1.6830
  864MPD2     N12741   2.972   1.865  16.726 -0.7429 -0.6749  0.8624
  864MPD2    H512742   2.979   1.963  16.751 -1.8958 -0.9033  2.0432
  864MPD2    N112743   2.749   1.444  16.844  0.5689  0.0266  0.5097
  864MPD2    H712744   2.659   1.408  16.875  1.0821 -1.6698  0.0051
  865MPD2     C12745   3.229   2.320  16.047 -0.1302 -0.3676 -0.3358
  865MPD2    C112746   3.207   2.205  16.109  0.6351  0.6894  0.0218
  865MPD2    C212747   3.188   2.211  16.249 -0.2298  0.4864  0.2780
  865MPD2    C312748   3.190   2.340  16.315  0.8204  0.8998  0.0999
  865MPD2    C412749   3.204   2.453  16.237  0.0884 -0.0054 -0.2051
  865MPD2    C512750   3.228   2.446  16.105  0.5922  0.2194 -0.3574
  865MPD2     H12751   3.172   2.116  16.299  0.8759  0.7272  1.0981
  865MPD2    H112752   3.197   2.553  16.279  1.9764  0.7515 -1.6525
  865MPD2    H212753   3.245   2.319  15.939 -2.3399  1.6373 -0.6912
  865MPD2    H312754   3.225   2.538  16.049  1.3141 -0.4456 -1.4860
  865MPD2     N12755   3.186   2.358  16.454  0.0975  0.0717 -0.1970
  865MPD2    H512756   3.194   2.458  16.473 -0.5894  0.2012 -0.5822
  865MPD2    N112757   3.224   2.089  16.030 -0.0879  0.5011 -0.3569
  865MPD2    H712758   3.246   2.108  15.933 -0.1840 -1.7442 -0.8222
  866MPD2     C12759   0.116   2.500  10.736 -1.0949  1.2898 -0.0461
  866MPD2    C112760   0.068   2.380  10.701 -0.6543 -0.8967  0.2548
  866MPD2    C212761   4.664   2.376  10.693 -0.8426 -0.4095  0.9137
  866MPD2    C312762   4.582   2.492  10.696 -0.1221  0.9163 -0.4630
  866MPD2    C412763   4.646   2.610  10.715 -0.8110  0.3822  0.4431
  866MPD2    C512764   0.046   2.612  10.741 -0.6431  0.2543 -0.2737
  866MPD2     H12765   4.621   2.279  10.672  1.0427 -0.6536 -1.9045
  866MPD2    H112766   4.592   2.704  10.712 -2.3008 -0.3704  3.0789
  866MPD2    H212767   0.221   2.528  10.738 -1.1104  1.2459  2.1994
  866MPD2    H312768   0.097   2.704  10.768 -2.1393  0.4776  1.7581
  866MPD2     N12769   4.442   2.483  10.680 -0.5281  0.1435 -0.0265
  866MPD2    H512770   4.400   2.575  10.687  0.9105  0.7760  0.4199
  866MPD2    N112771   0.160   2.281  10.668  0.0255  0.1956  0.0713
  866MPD2    H712772   0.258   2.296  10.689 -0.2101  0.9761  0.6035
  867MPD2     C12773   1.573   2.263  16.021  0.1566  0.3642  0.2220
  867MPD2    C112774   1.599   2.165  16.116 -0.5942 -0.2994 -0.0964
  867MPD2    C212775   1.633   2.194  16.252 -0.5729  0.4565  0.3065
  867MPD2    C312776   1.652   2.333  16.278  0.2354  0.2388 -0.7014
  867MPD2    C412777   1.637   2.427  16.185 -0.3153  0.0226  0.4410
  867MPD2    C512778   1.589   2.395  16.058  0.3266 -0.1049  0.2162
  867MPD2     H12779   1.642   2.119  16.329  2.0832 -0.3422 -0.7523
  867MPD2    H112780   1.665   2.530  16.202 -0.6695  0.4405 -1.5138
  867MPD2    H212781   1.540   2.240  15.920 -0.9524 -2.0890  1.1378
  867MPD2    H312782   1.579   2.476  15.987 -1.4899 -0.7817 -0.3010
  867MPD2     N12783   1.694   2.379  16.405 -0.1080 -0.5277  0.3874
  867MPD2    H512784   1.704   2.479  16.417  0.4478 -0.7981  2.1025
  867MPD2    N112785   1.592   2.035  16.076 -0.1185  0.3509 -0.4614
  867MPD2    H712786   1.547   2.020  15.987  1.0181 -1.4921 -0.7294
  868MPD2     C12787   3.759   1.090  13.057  0.1710 -0.8984  0.2884
  868MPD2    C112788   3.798   0.998  13.148 -0.9793 -0.1017 -0.2498
  868MPD2    C212789   3.730   0.975  13.270  0.6312 -0.9136  0.0049
  868MPD2    C312790   3.608   1.039  13.291  0.3576  0.4670  0.1694
  868MPD2    C412791   3.559   1.127  13.201 -0.1469 -0.3062 -0.2639
  868MPD2    C512792   3.639   1.148  13.089 -0.3566 -0.0065 -0.1887
  868MPD2     H12793   3.757   0.909  13.351 -0.5133 -0.7241  0.5447
  868MPD2    H112794   3.464   1.180  13.195  0.0675  0.0970 -0.1023
  868MPD2    H212795   3.809   1.113  12.963 -2.5124  0.4851 -0.8084
  868MPD2    H312796   3.604   1.219  13.015  0.2318  0.0583 -0.4060
  868MPD2     N12797   3.543   1.023  13.416 -0.4583 -0.6647  0.4465
  868MPD2    H512798   3.592   0.955  13.473 -3.1843 -1.7302  1.4943
  868MPD2    N112799   3.914   0.927  13.120  0.3933  0.3369  0.1418
  868MPD2    H712800   3.965   0.965  13.041  1.5733 -0.1129  0.6734
  869MPD2     C12801   4.358   3.338  17.427  0.5485  0.3278  0.1891
  869MPD2    C112802   4.323   3.433  17.517  1.3305 -0.5803  0.5325
  869MPD2    C212803   4.427   3.503  17.581 -0.3799  0.0003 -0.0695
  869MPD2    C312804   4.560   3.478  17.537  0.9264 -0.0551  0.3023
  869MPD2    C412805   4.591   3.385  17.438  0.0851 -0.5665  0.0482
  869MPD2    C512806   4.486   3.317  17.380  0.1574 -0.2768  0.2753
  869MPD2     H12807   4.418   3.598  17.633  0.7675 -0.6125  1.2568
  869MPD2    H112808   4.692   3.365  17.402  0.1209  1.0180 -0.7531
  869MPD2    H212809   4.275   3.285  17.381 -0.1589  0.6149  1.1457
  869MPD2    H312810   4.505   3.236  17.311  0.4256  0.1507 -0.1580
  869MPD2     N12811   4.659   3.549  17.609  0.1616 -0.0360  0.2226
  869MPD2    H512812   4.630   3.593  17.696 -1.9691  0.7430 -0.8810
  869MPD2    N112813   4.184   3.453  17.545  0.2449 -0.5684 -0.0591
  869MPD2    H712814   4.122   3.405  17.480 -1.0419 -0.4437  1.0834
  870MPD2     C12815   0.460   2.840   0.907  0.0103 -0.4741  0.2863
  870MPD2    C112816   0.375   2.734   0.882  0.7935 -0.1490 -0.4712
  870MPD2    C212817   0.246   2.749   0.925  0.0260  0.0685 -0.6132
  870MPD2    C312818   0.201   2.869   0.981  0.2734 -0.7891  0.3764
  870MPD2    C412819   0.288   2.974   0.997 -0.0230 -0.3564 -0.0768
  870MPD2    C512820   0.419   2.957   0.970 -0.1353 -0.4839 -0.1177
  870MPD2     H12821   0.173   2.674   0.895 -0.4556 -0.0902  0.9351
  870MPD2    H112822   0.266   3.074   1.035 -0.3993 -0.2123 -0.6727
  870MPD2    H212823   0.562   2.836   0.873 -0.1473  2.1627 -0.5048
  870MPD2    H312824   0.492   3.036   0.982  0.3212 -1.0733  1.0056
  870MPD2     N12825   0.066   2.886   1.013  0.1507  0.4460 -0.5161
  870MPD2    H512826   0.005   2.811   0.983 -0.2766 -0.1152  1.7517
  870MPD2    N112827   0.422   2.616   0.812 -0.0886  0.7428 -0.0797
  870MPD2    H712828   0.516   2.620   0.774  0.6280 -0.0571  1.6014
  871MPD2     C12829   0.542   1.961  16.174  0.2052  0.2502 -0.6336
  871MPD2    C112830   0.595   1.981  16.301  0.2714  0.3551  0.2416
  871MPD2    C212831   0.681   1.890  16.357 -0.1786  0.3921  0.4296
  871MPD2    C312832   0.733   1.793  16.268  0.0478 -0.3946  0.1197
  871MPD2    C412833   0.678   1.778  16.139 -0.3327  0.6402  0.4146
  871MPD2    C512834   0.580   1.854  16.101 -0.4071 -0.6622  0.2426
  871MPD2     H12835   0.717   1.884  16.459 -1.5972 -1.4988  0.8248
  871MPD2    H112836   0.719   1.711  16.065 -0.6353  1.4558 -0.4834
  871MPD2    H212837   0.473   2.029  16.125 -1.7351 -0.7353  0.7256
  871MPD2    H312838   0.542   1.840  16.001 -0.8095  0.1904  0.2759
  871MPD2     N12839   0.851   1.731  16.317 -0.3383  0.1640  0.2015
  871MPD2    H512840   0.866   1.756  16.414 -2.0962  0.5695  0.3855
  871MPD2    N112841   0.575   2.108  16.357  0.0748  0.4490  0.0378
  871MPD2    H712842   0.515   2.162  16.295  1.5685  0.7402 -1.1579
  872MPD2     C12843   1.516   4.197  13.280 -0.0745 -0.3728  0.0199
  872MPD2    C112844   1.592   4.299  13.335  0.3172  0.1771 -0.1465
  872MPD2    C212845   1.529   4.384  13.426 -0.1766  0.3088 -0.8144
  872MPD2    C312846   1.402   4.370  13.465  0.3010 -0.2025  0.5765
  872MPD2    C412847   1.324   4.268  13.405  0.6690  0.1357 -0.5064
  872MPD2    C512848   1.383   4.190  13.310 -0.9858 -0.4059  0.0621
  872MPD2     H12849   1.581   4.474  13.459 -0.0893 -0.8313  2.2105
  872MPD2    H112850   1.217   4.258  13.421  0.5688  3.5779  0.9834
  872MPD2    H212851   1.553   4.122  13.211 -1.9451 -0.2050 -1.1510
  872MPD2    H312852   1.313   4.132  13.250  0.7763 -1.0386 -1.4032
  872MPD2     N12853   1.323   4.447  13.547 -0.3006  0.6242 -0.0357
  872MPD2    H512854   1.223   4.434  13.538 -0.0442  0.2383 -2.3461
  872MPD2    N112855   1.730   4.319  13.304  0.2471 -0.5801 -0.3185
  872MPD2    H712856   1.768   4.403  13.347 -0.2571 -0.4088 -0.2003
  873MPD2     C12857   2.984   0.126   0.344  0.0444  0.5882 -0.0402
  873MPD2    C112858   3.091   0.041   0.362  0.6125  0.1237  0.1303
  873MPD2    C212859   3.085   4.638   0.337 -0.4689  0.4148  0.3737
  873MPD2    C312860   2.977   4.586   0.279 -0.6962  0.7656  0.6655
  873MPD2    C412861   2.875   4.675   0.242  0.1961  0.7173 -0.1885
  873MPD2    C512862   2.875   0.073   0.283 -0.0601 -0.5086  0.3878
  873MPD2     H12863   3.175   4.580   0.349 -0.2586  0.7787  0.5572
  873MPD2    H112864   2.780   4.627   0.221  0.2717 -0.3260  1.8729
  873MPD2    H212865   2.985   0.231   0.370  0.5887  1.0071 -1.7683
  873MPD2    H312866   2.793   0.140   0.263 -0.0646 -0.8169 -0.6441
  873MPD2     N12867   2.958   4.450   0.240 -0.6691  0.0192  0.2919
  873MPD2    H512868   2.875   4.423   0.189  0.0229 -0.2737 -0.6581
  873MPD2    N112869   3.217   0.099   0.397  0.0601  0.3812 -0.3947
  873MPD2    H712870   3.210   0.194   0.432 -1.2759 -0.8125  2.5946
  874MPD2     C12871   2.700   0.032  15.919 -0.1684 -0.2999  0.4890
  874MPD2    C112872   2.793   4.708  16.005  0.9058  0.2978  0.0316
  874MPD2    C212873   2.919   0.027  16.023  0.1427 -0.8889 -0.1768
  874MPD2    C312874   2.950   0.154  15.970 -0.2121  0.2418  0.2278
  874MPD2    C412875   2.862   0.219  15.885 -0.1671  0.5915 -0.2211
  874MPD2    C512876   2.738   0.157  15.867 -0.1320  0.9347  0.6312
  874MPD2     H12877   3.003   4.712  16.071  1.1667 -1.5149 -2.5844
  874MPD2    H112878   2.876   0.317  15.842  2.1906  0.2976 -0.1265
  874MPD2    H212879   2.605   4.725  15.888 -1.6955  2.5899  1.1558
  874MPD2    H312880   2.658   0.205  15.812 -0.1370  2.7521  2.1942
  874MPD2     N12881   3.076   0.210  16.001 -0.7211  0.1077  0.5214
  874MPD2    H512882   3.134   0.146  16.055 -0.3165 -2.8021 -3.3295
  874MPD2    N112883   2.777   4.573  16.040 -0.3306  0.8271 -0.0713
  874MPD2    H712884   2.685   4.541  16.013  0.0868  0.9761 -1.7164
  875MPD2     C12885   4.208   2.741  14.068 -0.1809  0.1782 -0.5911
  875MPD2    C112886   4.080   2.781  14.110  0.1166 -0.3020  0.2118
  875MPD2    C212887   4.072   2.872  14.213  0.3526  0.2068 -0.5453
  875MPD2    C312888   4.182   2.918  14.276  0.1400  0.3059 -0.2952
  875MPD2    C412889   4.302   2.871  14.237 -0.3610  0.0355  0.0492
  875MPD2    C512890   4.316   2.801  14.123  0.2477  0.7792  0.3876
  875MPD2     H12891   3.975   2.902  14.253  0.1378  1.6394 -2.1393
  875MPD2    H112892   4.394   2.909  14.282  0.3735 -1.3260 -0.3131
  875MPD2    H212893   4.227   2.678  13.981 -2.4524  0.0988 -1.0367
  875MPD2    H312894   4.420   2.774  14.104 -0.0457 -1.6054  2.0509
  875MPD2     N12895   4.169   2.996  14.397 -0.2462  0.5872  0.0730
  875MPD2    H512896   4.260   3.010  14.441 -0.2343  1.1415 -0.1235
  875MPD2    N112897   3.958   2.736  14.059 -0.8655 -0.5077  0.0574
  875MPD2    H712898   3.875   2.781  14.096 -1.9034 -1.8349 -0.6817
  876MPD2     C12899   2.665   4.285  15.748 -0.1765  0.1626  0.0483
  876MPD2    C112900   2.803   4.295  15.737 -0.7246  0.1389  0.0491
  876MPD2    C212901   2.894   4.210  15.796  0.0485  0.5244 -0.5106
  876MPD2    C312902   2.840   4.096  15.857  0.1977 -0.5610  0.4955
  876MPD2    C412903   2.705   4.079  15.862  0.3838 -0.5020  0.2039
  876MPD2    C512904   2.623   4.178  15.814  0.9514 -0.1775  0.1402
  876MPD2     H12905   3.001   4.224  15.790 -0.4547  4.5322 -0.0093
  876MPD2    H112906   2.657   3.997  15.914  0.6611 -1.6490 -1.3453
  876MPD2    H212907   2.593   4.354  15.706  1.0856  1.6096  0.2599
  876MPD2    H312908   2.518   4.157  15.836  1.5074 -1.8354  1.2916
  876MPD2     N12909   2.933   4.009  15.915  0.3772 -0.0233 -0.1515
  876MPD2    H512910   3.031   4.023  15.896  0.6013 -0.3541  0.7605
  876MPD2    N112911   2.847   4.407  15.657 -0.0240 -0.3738  1.0329
  876MPD2    H712912   2.770   4.470  15.634  0.1907  0.0020  1.3366
  877MPD2     C12913   2.685   0.048  14.980  0.1159  0.3751  0.0287
  877MPD2    C112914   2.819   0.022  15.000 -0.6177 -0.2431 -0.2619
  877MPD2    C212915   2.903   0.015  14.888 -0.1603 -0.0082  0.0356
  877MPD2    C312916   2.858   0.026  14.763 -0.0587 -0.1157  0.4969
  877MPD2    C412917   2.731   0.050  14.745 -0.1293 -0.5705  0.3936
  877MPD2    C512918   2.645   0.059  14.852 -0.2961  0.1424 -0.3331
  877MPD2     H12919   3.009   0.002  14.906 -0.3407 -2.2047 -0.4742
  877MPD2    H112920   2.682   0.053  14.649  2.2688 -0.1710 -0.8103
  877MPD2    H212921   2.614   0.071  15.059 -0.2001 -0.2965 -0.0541
  877MPD2    H312922   2.544   0.098  14.838 -0.7484 -1.3707 -1.2169
  877MPD2     N12923   2.937   0.013  14.654 -0.4203  0.9266  0.4485
  877MPD2    H512924   2.895   0.036  14.565  1.4426  0.5349 -0.5298
  877MPD2    N112925   2.881   4.728  15.124  0.5808 -0.3896 -0.2027
  877MPD2    H712926   2.981   4.713  15.114  0.7876  1.4902 -0.8369
  878MPD2     C12927   2.309   4.053  12.948  0.4443 -0.5712  0.5243
  878MPD2    C112928   2.425   3.994  12.976  0.1164  0.9383 -0.0316
  878MPD2    C212929   2.429   3.900  13.081 -0.2994 -0.1686  0.9297
  878MPD2    C312930   2.318   3.866  13.162  0.1717 -1.0336 -0.3255
  878MPD2    C412931   2.200   3.929  13.129 -0.0687 -0.3247  0.4658
  878MPD2    C512932   2.195   4.028  13.032 -0.4020 -0.2202 -0.1873
  878MPD2     H12933   2.525   3.856  13.104 -0.9271 -0.3292  3.3195
  878MPD2    H112934   2.108   3.906  13.181  0.3819  1.6823  2.1712
  878MPD2    H212935   2.317   4.140  12.883 -2.2035  0.6079  1.7727
  878MPD2    H312936   2.106   4.089  13.021 -0.9207 -0.5594  2.2683
  878MPD2     N12937   2.332   3.763  13.245 -0.7690 -0.3182  0.3123
  878MPD2    H512938   2.422   3.716  13.240 -0.3723  0.6531 -1.6426
  878MPD2    N112939   2.535   4.037  12.896 -0.0813 -0.4825 -0.0026
  878MPD2    H712940   2.513   4.069  12.803 -0.4860  1.1593  0.6656
  879MPD2     C12941   3.328   0.011  16.975 -0.3222 -0.0151  0.1033
  879MPD2    C112942   3.247   0.115  16.923  0.7419  0.2825  0.3204
  879MPD2    C212943   3.170   0.083  16.819 -0.6179 -0.0571  0.6672
  879MPD2    C312944   3.148   4.687  16.786  0.1575  0.2568  0.2038
  879MPD2    C412945   3.225   4.587  16.839  0.5834 -0.8071  0.2180
  879MPD2    C512946   3.320   4.614  16.938 -0.7309 -0.3860  0.1808
  879MPD2     H12947   3.099   0.157  16.783  0.3475  0.5508 -0.0094
  879MPD2    H112948   3.214   4.486  16.803 -0.1582 -0.9945  0.9797
  879MPD2    H212949   3.397   0.031  17.057  0.7509 -0.0984 -0.7772
  879MPD2    H312950   3.369   4.535  16.994  0.9080 -0.1765 -0.9475
  879MPD2     N12951   3.045   4.662  16.691  0.1575 -0.0291  0.8083
  879MPD2    H512952   2.997   0.003  16.646 -0.9942 -0.1158  1.8791
  879MPD2    N112953   3.245   0.249  16.977  0.0788  0.1904 -0.0356
  879MPD2    H712954   3.291   0.259  17.067  0.1403 -2.7711  0.2852
  880MPD2     C12955   4.429   2.085  17.597 -0.2128  0.0438  0.1583
  880MPD2    C112956   4.479   2.160  17.699  0.2438 -0.0310  0.4773
  880MPD2    C212957   4.590   2.118   0.030 -0.5091 -0.4045  0.1626
  880MPD2    C312958   4.646   1.993   0.014 -0.0451  0.7329 -0.3034
  880MPD2    C412959   4.584   1.914  17.663 -0.6579  0.8636 -0.0127
  880MPD2    C512960   4.480   1.956  17.587  0.5212  0.0380 -0.2621
  880MPD2     H12961   4.642   2.187   0.095  2.0546  0.3340 -2.6975
  880MPD2    H112962   4.618   1.812  17.653 -1.7231  0.7006 -2.0387
  880MPD2    H212963   4.338   2.112  17.545 -0.2012 -0.0300  0.1003
  880MPD2    H312964   4.432   1.888  17.519 -0.6912 -1.1125  1.7462
  880MPD2     N12965   0.033   1.953   0.087 -0.0877 -0.1402 -0.0242
  880MPD2    H512966   0.066   2.014   0.162 -0.5918  1.6222 -1.2299
  880MPD2    N112967   4.416   2.285  17.727 -0.3450  0.1380  0.5020
  880MPD2    H712968   4.350   2.318  17.657 -1.0674 -0.7379  0.7685
  881MPD2     C12969   4.271   3.022  17.116 -0.0725  0.8116 -0.3574
  881MPD2    C112970   4.396   2.980  17.162  0.1268 -0.1828  1.0482
  881MPD2    C212971   4.404   2.910  17.284 -0.0231 -0.3305 -0.4424
  881MPD2    C312972   4.287   2.887  17.361 -0.2023  0.5328 -0.0798
  881MPD2    C412973   4.170   2.949  17.324 -0.0119  0.0888  0.4951
  881MPD2    C512974   4.166   3.013  17.203  0.3177  0.1844  0.1693
  881MPD2     H12975   4.495   2.865  17.320 -0.5720 -1.2141 -0.1598
  881MPD2    H112976   4.084   2.953  17.390 -0.0539  1.0695  0.3849
  881MPD2    H212977   4.256   3.080  17.026 -0.2519  1.0406 -0.1789
  881MPD2    H312978   4.070   3.062  17.193  0.1714 -0.6726 -2.5544
  881MPD2     N12979   4.289   2.817  17.487  0.1459 -0.8039 -0.2642
  881MPD2    H512980   4.203   2.813  17.541  0.6405 -2.7856  0.3732
  881MPD2    N112981   4.507   2.981  17.073  0.4251 -0.0025 -0.6413
  881MPD2    H712982   4.494   3.016  16.979 -0.6858  0.2231 -0.4103
  882MPD2     C12983   3.073   4.429  13.926  0.9604 -0.3035  0.0240
  882MPD2    C112984   3.011   4.499  14.023  0.3499 -0.4806  0.6495
  882MPD2    C212985   2.877   4.468  14.051 -0.1365 -0.4671 -0.9643
  882MPD2    C312986   2.816   4.355  14.002 -0.3427 -0.4245 -0.5092
  882MPD2    C412987   2.884   4.272  13.915 -0.2226 -0.3965  0.3246
  882MPD2    C512988   3.003   4.321  13.876  0.6172 -0.9494 -0.7309
  882MPD2     H12989   2.816   4.543  14.100  0.9186  0.4264 -1.0203
  882MPD2    H112990   2.829   4.193  13.865 -1.4598  0.0410  0.9964
  882MPD2    H212991   3.168   4.462  13.885  0.2156  1.2657 -0.4404
  882MPD2    H312992   3.054   4.261  13.801 -1.0234 -2.5795 -0.5431
  882MPD2     N12993   2.687   4.332  14.035  0.3934  0.3032 -0.2567
  882MPD2    H512994   2.628   4.407  14.069  2.9482  1.8308  0.8892
  882MPD2    N112995   3.078   4.605  14.084 -0.2207 -0.1598 -0.0480
  882MPD2    H712996   3.179   4.604  14.078 -0.1847 -2.0289  0.8489
  883MPD2     C12997   4.669   4.257  15.903 -0.5125 -0.9432 -0.0271
  883MPD2    C112998   0.041   4.319  15.846  0.4423  0.3071 -0.1896
  883MPD2    C212999   0.168   4.306  15.902  0.5841  0.4537  0.4706
  883MPD2    C313000   0.177   4.236  16.021  0.0540 -0.8840  0.0565
  883MPD2    C413001   0.070   4.174  16.085  0.2012  0.2071 -0.6193
  883MPD2    C513002   4.688   4.192  16.023  1.0672  0.1926  0.2895
  883MPD2     H13003   0.249   4.366  15.862  0.3656  0.9481  0.7675
  883MPD2    H113004   0.069   4.125  16.182  2.4756 -0.5500 -0.9872
  883MPD2    H213005   4.567   4.258  15.868 -0.1657  0.7000 -1.0286
  883MPD2    H313006   4.608   4.138  16.073 -0.5277  0.7511 -1.6445
  883MPD2     N13007   0.300   4.252  16.078 -0.1877  0.1851 -0.4605
  883MPD2    H513008   0.368   4.307  16.025  1.4865 -0.4228  1.0526
  883MPD2    N113009   0.032   4.396  15.726 -1.0770 -0.3201 -0.1988
  883MPD2    H713010   0.115   4.441  15.690 -0.4485 -0.3506  1.1957
  884MPD2     C13011   2.218   0.618  14.920 -0.0995  0.2388  0.0165
  884MPD2    C113012   2.213   0.737  14.855  0.9124 -0.7759 -0.3226
  884MPD2    C213013   2.083   0.785  14.823 -0.0911  0.3693  0.3906
  884MPD2    C313014   1.966   0.713  14.841 -0.4184 -0.3008 -0.4310
  884MPD2    C413015   1.983   0.585  14.896  0.4468  0.7792 -0.4526
  884MPD2    C513016   2.108   0.544  14.938 -0.7075 -0.6148  0.6477
  884MPD2     H13017   2.078   0.881  14.772 -2.8406 -0.9922 -1.8515
  884MPD2    H113018   1.902   0.521  14.930  0.9011 -1.1817 -3.0593
  884MPD2    H213019   2.311   0.584  14.964 -1.1047  2.8954  4.2248
  884MPD2    H313020   2.118   0.452  14.994  1.3556 -0.1802  1.0210
  884MPD2     N13021   1.844   0.772  14.811  0.1896  0.0202 -0.1140
  884MPD2    H513022   1.849   0.862  14.764 -2.1554 -0.1848 -0.7855
  884MPD2    N113023   2.320   0.826  14.827  0.5155  0.5045  0.5590
  884MPD2    H713024   2.294   0.921  14.804 -2.2188 -0.6747 -1.3228
  885MPD2     C13025   0.300   1.296  17.698 -0.4464 -0.2698 -0.6021
  885MPD2    C113026   0.400   1.209  17.675  0.0656 -0.1790  0.1498
  885MPD2    C213027   0.440   1.208  17.538  0.4446  1.1560 -0.1324
  885MPD2    C313028   0.382   1.287  17.440 -0.4138  0.2860 -0.4183
  885MPD2    C413029   0.277   1.369  17.471  0.6633 -1.0790 -0.2711
  885MPD2    C513030   0.240   1.373  17.604  0.5707 -0.0238 -0.2536
  885MPD2     H13031   0.526   1.148  17.511  0.2244 -0.1152  1.9876
  885MPD2    H113032   0.220   1.425  17.398  1.4055  1.1780  0.9091
  885MPD2    H213033   0.260   1.308   0.059  1.2228  0.1479  0.0341
  885MPD2    H313034   0.175   1.454  17.636  0.4196 -0.5440  0.7651
  885MPD2     N13035   0.431   1.266  17.305  0.1621  0.6276 -0.6326
  885MPD2    H513036   0.504   1.197  17.291  0.0855  0.1184  1.5014
  885MPD2    N113037   0.468   1.157   0.050  0.3942 -0.2137 -0.6082
  885MPD2    H713038   0.440   1.189   0.142  2.2103  0.3600 -0.2537
  886MPD2     C13039   1.612   3.958  14.730  0.1829  0.4454 -0.4693
  886MPD2    C113040   1.688   4.039  14.816  0.3389  0.1577 -0.0978
  886MPD2    C213041   1.705   4.166  14.786  0.6067  0.2878  0.2673
  886MPD2    C313042   1.666   4.225  14.670  0.7312  0.4929 -0.6287
  886MPD2    C413043   1.590   4.153  14.577 -0.8274 -0.5479  0.2996
  886MPD2    C513044   1.574   4.021  14.616 -0.4775  0.3763  0.3058
  886MPD2     H13045   1.772   4.221  14.852  0.9213  0.1400  0.0746
  886MPD2    H113046   1.552   4.179  14.479  1.4301 -1.8254 -0.9136
  886MPD2    H213047   1.609   3.850  14.741  1.3536  0.2461 -2.1004
  886MPD2    H313048   1.527   3.953  14.546 -3.6031  1.9100  0.9096
  886MPD2     N13049   1.704   4.357  14.639  0.1926  0.3377 -0.0019
  886MPD2    H513050   1.693   4.384  14.542  1.7950 -0.6704 -0.4651
  886MPD2    N113051   1.748   3.989  14.934  0.0478  0.1303  0.1792
  886MPD2    H713052   1.774   4.052  15.009 -2.6371  0.4494  0.8286
  887MPD2     C13053   1.914   4.124  15.607  0.0166  0.3183  0.2942
  887MPD2    C113054   1.925   4.132  15.470  0.1021  0.4725 -0.3793
  887MPD2    C213055   1.999   4.226  15.410 -0.1086  0.0807 -0.0920
  887MPD2    C313056   2.056   4.323  15.490  0.3377 -0.1729 -0.7700
  887MPD2    C413057   2.047   4.322  15.627 -0.6474 -0.6773 -0.2167
  887MPD2    C513058   1.965   4.222  15.683 -0.4408  0.5356  0.6266
  887MPD2     H13059   2.008   4.232  15.302  0.9243 -1.6298 -0.0942
  887MPD2    H113060   2.093   4.389  15.698  1.1609 -0.7055 -1.3576
  887MPD2    H213061   1.849   4.049  15.651  0.8723 -0.4168  0.3076
  887MPD2    H313062   1.960   4.214  15.791  1.6017 -0.4572  0.6504
  887MPD2     N13063   2.137   4.422  15.424 -0.1905  0.1448  0.2115
  887MPD2    H513064   2.142   4.406  15.324  2.3403 -1.4768  0.5932
  887MPD2    N113065   1.856   4.045  15.387 -0.5513  0.0560 -0.1954
  887MPD2    H713066   1.871   4.051  15.287  1.2381  1.8241  0.1864
  888MPD2     C13067   3.812   3.984  14.589  0.2004  0.3088 -0.6352
  888MPD2    C113068   3.807   4.025  14.720  0.0174 -0.5686  0.4672
  888MPD2    C213069   3.861   4.139  14.757 -0.4207  0.4739  0.2047
  888MPD2    C313070   3.946   4.213  14.664  0.2519  0.1167  0.6382
  888MPD2    C413071   3.953   4.168  14.535  0.3313 -0.0919 -0.9042
  888MPD2    C513072   3.888   4.057  14.499 -0.5678  0.3764  0.2217
  888MPD2     H13073   3.867   4.177  14.859 -0.8922 -2.0193  1.1614
  888MPD2    H113074   4.012   4.222  14.462  0.2338  0.7775 -0.3423
  888MPD2    H213075   3.773   3.890  14.553  0.8623 -0.1303 -0.1955
  888MPD2    H313076   3.905   4.026  14.396 -0.4146 -0.4195  0.4839
  888MPD2     N13077   4.013   4.329  14.712 -0.4485  0.2023 -0.2042
  888MPD2    H513078   3.999   4.360  14.807 -3.2154 -2.2198  0.1504
  888MPD2    N113079   3.752   3.942  14.824  0.5556 -0.0049  0.2151
  888MPD2    H713080   3.761   3.973  14.920  0.5883  1.5465 -0.2782
  889MPD2     C13081   3.352   3.598  12.369 -0.2018  0.4761  0.1999
  889MPD2    C113082   3.476   3.569  12.423  0.3108 -0.0881  0.0283
  889MPD2    C213083   3.551   3.668  12.491  0.6959 -0.5648 -0.1557
  889MPD2    C313084   3.496   3.792  12.501  0.8599  0.1943 -0.4410
  889MPD2    C413085   3.365   3.814  12.466  0.4012 -0.5324 -0.6331
  889MPD2    C513086   3.298   3.720  12.393  0.3431 -0.1727  0.1226
  889MPD2     H13087   3.658   3.662  12.510  0.7786  1.3540 -0.0404
  889MPD2    H113088   3.323   3.911  12.487 -1.8321 -0.9214 -3.1855
  889MPD2    H213089   3.299   3.514  12.328  0.2549  0.7576 -0.9655
  889MPD2    H313090   3.196   3.739  12.361 -0.3024 -1.0803  1.6541
  889MPD2     N13091   3.575   3.890  12.567 -0.1729  0.1457  0.1895
  889MPD2    H513092   3.663   3.861  12.608 -0.3664 -0.5858  0.0928
  889MPD2    N113093   3.538   3.440  12.395 -0.0584 -0.3415 -0.1128
  889MPD2    H713094   3.501   3.393  12.313  0.3371  0.7344 -0.9083
  890MPD2     C13095   2.828   1.127  14.468 -0.5905 -0.0524  0.9858
  890MPD2    C113096   2.966   1.120  14.458  0.1565  0.3048  0.2424
  890MPD2    C213097   3.036   1.016  14.515  0.0702 -0.0282  0.0628
  890MPD2    C313098   2.973   0.923  14.594 -0.0428 -0.5602  0.5898
  890MPD2    C413099   2.839   0.931  14.597 -0.4137  0.4044  0.4604
  890MPD2    C513100   2.761   1.026  14.526  0.1342  0.1757  0.4888
  890MPD2     H13101   3.144   1.017  14.528  0.1918 -0.5136 -0.9561
  890MPD2    H113102   2.788   0.857  14.657 -1.4551 -1.1797 -2.3772
  890MPD2    H213103   2.776   1.215  14.432 -1.9536 -1.0630  0.4827
  890MPD2    H313104   2.653   1.023  14.532  0.1662 -0.7711  0.6546
  890MPD2     N13105   3.043   0.836  14.676  0.3157 -0.0194  0.2700
  890MPD2    H513106   3.144   0.845  14.667  0.4571  0.3512  2.0944
  890MPD2    N113107   3.027   1.229  14.390 -0.6572 -0.0401 -0.1731
  890MPD2    H713108   2.965   1.304  14.360 -0.7371 -0.8018 -1.9145
  891MPD2     C13109   0.938   3.566  16.272  0.4526  0.2710 -0.2837
  891MPD2    C113110   0.903   3.703  16.277  0.0809 -0.3743 -0.4209
  891MPD2    C213111   0.987   3.789  16.346 -0.6060  0.3069 -0.1771
  891MPD2    C313112   1.104   3.754  16.391  0.0984 -0.3063  0.0360
  891MPD2    C413113   1.128   3.617  16.398  0.2547  0.5916 -0.5080
  891MPD2    C513114   1.046   3.523  16.340 -0.4052  0.3325  0.5568
  891MPD2     H13115   0.954   3.892  16.352 -0.8706  0.2029  0.1327
  891MPD2    H113116   1.214   3.581  16.452  1.0870  1.6036 -1.1499
  891MPD2    H213117   0.875   3.488  16.231  3.1789 -1.1086 -1.8368
  891MPD2    H313118   1.053   3.415  16.350  1.3347  0.4333  0.4388
  891MPD2     N13119   1.184   3.850  16.465  0.3562  0.1560 -0.0486
  891MPD2    H513120   1.132   3.935  16.485  1.0524  1.0544 -2.1646
  891MPD2    N113121   0.786   3.732  16.216  0.6830  0.1749  0.3048
  891MPD2    H713122   0.732   3.654  16.180 -0.9040  1.5364 -0.2562
  892MPD2     C13123   2.141   0.179  13.808 -0.1933 -1.0223 -0.2818
  892MPD2    C113124   2.093   0.148  13.939  0.5013  0.2775 -0.2799
  892MPD2    C213125   2.137   0.029  13.998  0.0041  0.2950 -0.1068
  892MPD2    C313126   2.213   4.675  13.932  0.4219  0.0035  0.4577
  892MPD2    C413127   2.273   4.715  13.812  0.2205 -0.1191 -0.0787
  892MPD2    C513128   2.233   0.096  13.748  0.8856 -0.5064  0.0381
  892MPD2     H13129   2.094   4.731  14.092  1.9223 -0.5844  0.4671
  892MPD2    H113130   2.352   4.656  13.768  1.3107  0.7572  0.6930
  892MPD2    H213131   2.104   0.266  13.755 -0.6699 -0.6074  0.7160
  892MPD2    H313132   2.280   0.129  13.656  2.0321  0.5506  0.9985
  892MPD2     N13133   2.236   4.538  13.978 -0.3478 -0.4174  0.3232
  892MPD2    H513134   2.294   4.487  13.912  1.2317  0.9980  0.6360
  892MPD2    N113135   2.001   0.230  14.010 -0.3235 -0.2050 -0.4434
  892MPD2    H713136   1.956   0.308  13.962  0.5472 -0.2024 -1.2641
  893MPD2     C13137   4.663   4.088   0.998  0.3064 -0.6039 -0.5177
  893MPD2    C113138   4.534   4.054   1.024  0.2254  0.0842  0.2866
  893MPD2    C213139   4.462   4.125   1.118  0.2256  0.6190  0.0912
  893MPD2    C313140   4.521   4.241   1.171  0.1249  0.0875 -0.2763
  893MPD2    C413141   4.648   4.274   1.132 -0.0162 -0.7935  0.3539
  893MPD2    C513142   4.716   4.198   1.045 -0.4670  0.5228  0.6905
  893MPD2     H13143   4.362   4.090   1.143  0.7574  1.4749  3.3847
  893MPD2    H113144   4.708   4.357   1.167  0.3759 -0.8680 -0.1241
  893MPD2    H213145   4.708   4.029   0.919  1.5557 -0.4156  0.0564
  893MPD2    H313146   0.081   4.227   1.012  0.1482 -0.5573  1.6188
  893MPD2     N13147   4.472   4.324   1.270 -1.0134  0.0579 -0.3752
  893MPD2    H513148   4.535   4.391   1.313 -0.5109 -0.5795 -0.1246
  893MPD2    N113149   4.487   3.931   0.964 -0.1399  0.1285  0.0422
  893MPD2    H713150   4.557   3.883   0.908 -0.7667 -0.9506  0.1946
  894MPD2     C13151   2.199   1.748   0.632 -0.8663 -1.2126 -0.0081
  894MPD2    C113152   2.280   1.739   0.744 -0.6741 -0.5777 -0.7094
  894MPD2    C213153   2.339   1.852   0.791  0.3008 -0.2329  0.0320
  894MPD2    C313154   2.323   1.977   0.725 -1.0211 -0.6463  0.2696
  894MPD2    C413155   2.229   1.977   0.624 -0.1985 -0.3659 -0.4656
  894MPD2    C513156   2.179   1.867   0.577  0.1772 -0.6625 -1.1058
  894MPD2     H13157   2.402   1.852   0.880 -0.9330 -2.3156  0.8988
  894MPD2    H113158   2.203   2.068   0.570 -1.2739 -0.7606 -0.6015
  894MPD2    H213159   2.159   1.659   0.584 -1.0399 -1.1496  0.0218
  894MPD2    H313160   2.116   1.889   0.491  0.5819 -0.0265 -1.2430
  894MPD2     N13161   2.385   2.092   0.776  0.2700  0.5419  0.1320
  894MPD2    H513162   2.462   2.072   0.839  0.6195  1.0517 -0.1270
  894MPD2    N113163   2.304   1.614   0.811 -0.2003 -0.4863  0.0352
  894MPD2    H713164   2.357   1.610   0.897 -1.3007 -0.3029  0.7168
  895MPD2     C13165   1.118   3.780  13.248  0.4657 -0.4925  0.4962
  895MPD2    C113166   1.045   3.659  13.244  0.2566 -0.2717  0.5710
  895MPD2    C213167   1.104   3.536  13.273  0.2890  0.2493 -0.0028
  895MPD2    C313168   1.238   3.528  13.303  0.0166 -0.0048 -0.1640
  895MPD2    C413169   1.307   3.645  13.325 -0.0584 -0.1242 -0.2056
  895MPD2    C513170   1.250   3.771  13.289 -0.2308 -0.2556  0.6252
  895MPD2     H13171   1.049   3.445  13.256 -0.2719 -0.0230  3.2344
  895MPD2    H113172   1.408   3.635  13.361 -0.2797  0.1807  0.5053
  895MPD2    H213173   1.075   3.877  13.226  0.8848  0.1280  2.3729
  895MPD2    H313174   1.313   3.857  13.306  1.3823 -1.5214  1.1183
  895MPD2     N13175   1.289   3.396  13.319  0.2698 -0.8041 -0.4419
  895MPD2    H513176   1.233   3.332  13.264 -1.5153  0.0905  0.3529
  895MPD2    N113177   0.911   3.645  13.208  1.0484 -0.0919 -0.6197
  895MPD2    H713178   0.875   3.550  13.199 -0.9548  0.6825 -0.8488
  896MPD2     C13179   4.079   2.258   1.018 -0.0495  0.0232 -0.1152
  896MPD2    C113180   4.018   2.173   0.933 -0.7105 -0.4782  0.3313
  896MPD2    C213181   3.892   2.124   0.951 -0.4339  0.7675  0.4817
  896MPD2    C313182   3.826   2.161   1.067 -0.6834 -0.6664 -0.2438
  896MPD2    C413183   3.885   2.250   1.162  0.2470  0.1315  0.2996
  896MPD2    C513184   4.014   2.291   1.138  0.8970 -0.5957 -0.2088
  896MPD2     H13185   3.832   2.070   0.879  0.1048  1.7941 -0.7397
  896MPD2    H113186   3.852   2.273   1.263 -2.7993 -2.1812 -0.1542
  896MPD2    H213187   4.169   2.318   1.005  0.5050 -0.9024 -0.5733
  896MPD2    H313188   4.067   2.356   1.206 -1.9025 -0.0899  1.5021
  896MPD2     N13189   3.689   2.122   1.074  0.6971  0.5858  0.5138
  896MPD2    H513190   3.652   2.066   0.997 -2.8610 -0.4026  2.9366
  896MPD2    N113191   4.084   2.164   0.804 -0.2067  0.2999  0.0140
  896MPD2    H713192   4.167   2.222   0.797  0.4457 -0.4533  1.3391
  897MPD2     C13193   4.588   2.932  10.208 -0.1840 -0.1957 -0.0400
  897MPD2    C113194   4.543   3.054  10.248 -0.5145  0.1356 -0.0013
  897MPD2    C213195   4.471   3.075  10.368 -0.3515 -0.3721  0.3194
  897MPD2    C313196   4.457   2.965  10.449 -0.0227  1.0249  0.6260
  897MPD2    C413197   4.505   2.840  10.409 -0.0374 -0.1481  0.9023
  897MPD2    C513198   4.566   2.826  10.282 -0.4088  0.1648 -0.4306
  897MPD2     H13199   4.443   3.171  10.408  0.9381 -0.3358  1.1381
  897MPD2    H113200   4.505   2.754  10.475  1.0138 -0.4485  0.5091
  897MPD2    H213201   4.650   2.918  10.120  1.7916  0.5425  1.2348
  897MPD2    H313202   4.621   2.735  10.260  3.7558  2.2765  1.2069
  897MPD2     N13203   4.360   2.978  10.556 -0.1979  0.0137  0.4827
  897MPD2    H513204   4.318   3.070  10.563  1.0750  0.7153 -1.0127
  897MPD2    N113205   4.562   3.166  10.155 -0.3563  0.3344 -0.6514
  897MPD2    H713206   4.624   3.150  10.076  1.1811  0.8267  0.4401
  898MPD2     C13207   1.131   4.309  17.358  0.0713  0.3253 -0.2032
  898MPD2    C113208   1.246   4.348  17.428 -0.4463  0.4744  0.7620
  898MPD2    C213209   1.306   4.468  17.391  0.3545  0.1585 -0.6660
  898MPD2    C313210   1.249   4.545  17.290 -0.5675  0.4463 -0.0575
  898MPD2    C413211   1.144   4.498  17.210 -0.2654 -0.6903  0.0854
  898MPD2    C513212   1.084   4.380  17.247  0.2861 -0.2042 -0.1549
  898MPD2     H13213   1.399   4.502  17.436 -0.0986  4.5212 -3.0481
  898MPD2    H113214   1.100   4.552  17.127  0.0349 -0.4355  0.0920
  898MPD2    H213215   1.085   4.213  17.378  1.6145 -0.5845 -1.0572
  898MPD2    H313216   1.001   4.354  17.183  0.0726  1.4250 -0.5446
  898MPD2     N13217   1.326   4.647  17.242 -0.0443  0.2474  0.0667
  898MPD2    H513218   1.419   4.656  17.282 -0.4618  0.3723  1.0196
  898MPD2    N113219   1.299   4.275  17.534  0.2373 -0.0316  0.2362
  898MPD2    H713220   1.387   4.306  17.575 -0.1465  0.0892  0.9751
  899MPD2     C13221   2.569   0.047  16.689  0.4455  0.0927 -0.4758
  899MPD2    C113222   2.607   0.166  16.748  0.0207 -0.4043 -0.9587
  899MPD2    C213223   2.610   0.175  16.885  0.0974  0.9203  0.5373
  899MPD2    C313224   2.555   0.072  16.968 -0.6404  0.8405  0.0352
  899MPD2    C413225   2.518   4.697  16.903  0.1357  0.3561  0.3419
  899MPD2    C513226   2.531   4.684  16.766  0.0477  0.5683 -0.7351
  899MPD2     H13227   2.618   0.268  16.939 -2.5056  1.1750  0.5063
  899MPD2    H113228   2.491   4.609  16.961 -2.2324  1.5213  1.0203
  899MPD2    H213229   2.555   0.044  16.582 -1.8500  3.2713 -0.2825
  899MPD2    H313230   2.510   4.589  16.719  0.3997  1.0036 -1.7859
  899MPD2     N13231   2.525   0.081  17.103  0.9395 -0.3178 -0.4985
  899MPD2    H513232   2.475   0.001  17.141  0.5948  0.1661  0.0620
  899MPD2    N113233   2.635   0.280  16.669 -0.9024 -0.3437  0.2804
  899MPD2    H713234   2.591   0.274  16.578  0.4204 -0.9895 -0.3163
  900MPD2     C13235   2.456   1.603  12.457 -0.4071  0.7065  0.1516
  900MPD2    C113236   2.373   1.497  12.481 -0.3080  0.2304 -0.2017
  900MPD2    C213237   2.245   1.494  12.435  0.4039  0.4065 -0.3504
  900MPD2    C313238   2.193   1.598  12.361 -0.2166 -0.6131  0.6681
  900MPD2    C413239   2.274   1.707  12.348  0.1889  0.1124  0.2291
  900MPD2    C513240   2.398   1.707  12.391  0.0045 -0.2794 -0.1325
  900MPD2     H13241   2.187   1.404  12.449 -0.0168  0.5598 -1.0874
  900MPD2    H113242   2.239   1.790  12.288  1.5046  0.7190  0.3044
  900MPD2    H213243   2.549   1.616  12.510  0.8515 -1.8180 -1.5016
  900MPD2    H313244   2.445   1.803  12.374  1.3125 -0.7286  0.8860
  900MPD2     N13245   2.059   1.592  12.306  0.5610 -0.0557 -0.0019
  900MPD2    H513246   2.020   1.499  12.302  2.4589 -0.7939 -1.2734
  900MPD2    N113247   2.423   1.391  12.565  0.4325  0.1582  0.0177
  900MPD2    H713248   2.513   1.414  12.607 -0.1041 -0.6974  1.6586
  901MPD2     C13249   2.179   0.355  12.630 -0.2367 -0.4624  0.2262
  901MPD2    C113250   2.302   0.380  12.572  0.2856  0.4393  0.7215
  901MPD2    C213251   2.365   0.499  12.603  0.6968 -0.3892 -0.0996
  901MPD2    C313252   2.304   0.599  12.681 -0.0218  0.0968  0.1546
  901MPD2    C413253   2.189   0.569  12.744  0.0624 -0.1979  0.1239
  901MPD2    C513254   2.123   0.448  12.712  0.2584  0.5578  0.5441
  901MPD2     H13255   2.464   0.530  12.570  1.0423 -1.5880 -0.2008
  901MPD2    H113256   2.141   0.640  12.810 -2.1964 -1.1281 -0.5173
  901MPD2    H213257   2.128   0.260  12.617 -2.0539  0.3343  1.6978
  901MPD2    H313258   2.026   0.440  12.759  0.5082  0.3655  1.0292
  901MPD2     N13259   2.378   0.717  12.696  0.0909  0.4016  0.0753
  901MPD2    H513260   2.463   0.728  12.641  1.1585  0.3678  1.6833
  901MPD2    N113261   2.360   0.284  12.476  0.3714  0.2418 -0.5409
  901MPD2    H713262   2.314   0.194  12.467 -1.8897  1.5385 -1.9234
  902MPD2     C13263   1.224   3.679  12.556 -0.7224  0.1636 -0.8743
  902MPD2    C113264   1.312   3.712  12.460  0.0890  0.2434 -0.5347
  902MPD2    C213265   1.416   3.624  12.434 -0.2430 -0.0531  0.2590
  902MPD2    C313266   1.416   3.491  12.479  0.2488  0.3883 -0.1927
  902MPD2    C413267   1.308   3.458  12.559 -0.0078  0.3187  0.5165
  902MPD2    C513268   1.217   3.553  12.598 -0.0907  0.2684 -0.0760
  902MPD2     H13269   1.497   3.662  12.372 -1.4152  1.3143 -0.4220
  902MPD2    H113270   1.282   3.354  12.570 -0.3902  0.2103 -1.3096
  902MPD2    H213271   1.150   3.751  12.589 -0.1784  0.3314 -0.0187
  902MPD2    H313272   1.134   3.515  12.658  0.3287 -1.0094 -0.3041
  902MPD2     N13273   1.515   3.401  12.434 -0.3052 -0.1379  0.8552
  902MPD2    H513274   1.587   3.448  12.379 -1.5648  0.7941  0.0158
  902MPD2    N113275   1.305   3.838  12.397 -0.1598  0.2880 -0.0850
  902MPD2    H713276   1.237   3.902  12.436 -2.1647 -1.5292 -0.6076
  903MPD2     C13277   1.587   2.807  11.739  0.1902  0.7141 -0.7184
  903MPD2    C113278   1.528   2.900  11.823 -0.3405  0.3790  0.2159
  903MPD2    C213279   1.430   2.991  11.766  0.0306  0.3230  0.5899
  903MPD2    C313280   1.396   2.991  11.634  0.1375  0.6442 -0.1055
  903MPD2    C413281   1.456   2.895  11.561 -0.1540 -0.3599 -0.8589
  903MPD2    C513282   1.550   2.806  11.607  0.8646  0.4743  0.1660
  903MPD2     H13283   1.384   3.073  11.819  0.0393 -0.2756  1.5250
  903MPD2    H113284   1.448   2.889  11.453  0.6633  0.6656 -0.9724
  903MPD2    H213285   1.655   2.737  11.786  1.8582  1.0768 -2.6180
  903MPD2    H313286   1.588   2.732  11.537 -2.9240  0.1307 -1.5133
  903MPD2     N13287   1.309   3.093  11.589 -0.4389  0.4825  0.3786
  903MPD2    H513288   1.300   3.174  11.648 -0.4751  1.5323 -1.0574
  903MPD2    N113289   1.556   2.903  11.962  0.1888  0.6263  0.2786
  903MPD2    H713290   1.641   2.857  11.992  0.8707  0.4258 -1.9425
  904MPD2     C13291   0.981   3.058  13.897 -0.2932  0.1793 -0.1503
  904MPD2    C113292   1.003   3.172  13.839 -0.4797 -0.5122  0.3411
  904MPD2    C213293   1.135   3.209  13.844 -0.0783  0.5695  0.6556
  904MPD2    C313294   1.239   3.141  13.901 -0.1067 -0.6354  0.0377
  904MPD2    C413295   1.215   3.016  13.948  0.1388  0.5790 -0.1878
  904MPD2    C513296   1.084   2.977  13.948  0.2071  0.4644  0.4494
  904MPD2     H13297   1.162   3.308  13.809 -1.8294  0.5289 -0.8093
  904MPD2    H113298   1.276   2.944  14.001  0.6370  0.1871 -1.2941
  904MPD2    H213299   0.880   3.019  13.905 -0.1136  0.0131  1.2549
  904MPD2    H313300   1.067   2.879  13.991  3.6187 -0.3119  0.0176
  904MPD2     N13301   1.364   3.211  13.904  0.0197 -0.6223 -0.0300
  904MPD2    H513302   1.368   3.301  13.857 -1.9548 -0.1858  0.6107
  904MPD2    N113303   0.904   3.256  13.786  0.8514  0.8095 -0.0380
  904MPD2    H713304   0.931   3.340  13.735  0.0302  2.6017  2.4616
  905MPD2     C13305   0.665   2.967  13.306 -0.6519  0.2748 -0.0392
  905MPD2    C113306   0.737   3.085  13.301  0.1375  0.0973  0.2478
  905MPD2    C213307   0.868   3.075  13.272 -0.0973  0.6206  0.2601
  905MPD2    C313308   0.939   2.960  13.254  0.0403  0.2397 -0.0474
  905MPD2    C413309   0.867   2.847  13.255  0.3262  0.9658  0.3683
  905MPD2    C513310   0.729   2.844  13.289  0.2065 -0.2275  0.0858
  905MPD2     H13311   0.927   3.166  13.283  2.1929 -0.9891  1.3945
  905MPD2    H113312   0.926   2.756  13.248  0.2786  1.0181 -0.7804
  905MPD2    H213313   0.562   2.965  13.338 -0.7366 -0.3155 -0.3405
  905MPD2    H313314   0.669   2.754  13.286  0.1878 -0.1942 -0.5300
  905MPD2     N13315   1.078   2.955  13.232  0.3565 -0.5150 -0.1528
  905MPD2    H513316   1.128   2.867  13.234  0.7151 -0.2785  1.1449
  905MPD2    N113317   0.677   3.205  13.354  0.1256  0.6584  0.9009
  905MPD2    H713318   0.578   3.199  13.378 -0.1193  1.0168 -0.0130
  906MPD2     C13319   3.203   2.890  10.948 -0.1134  0.2361 -0.2824
  906MPD2    C113320   3.080   2.916  10.885 -0.2560 -0.9451 -0.1559
  906MPD2    C213321   2.982   2.819  10.887 -0.1521  0.4511  0.2260
  906MPD2    C313322   2.995   2.710  10.969 -0.3034 -0.2541 -0.1574
  906MPD2    C413323   3.111   2.689  11.034 -0.5664 -0.4855  0.1969
  906MPD2    C513324   3.220   2.777  11.021  0.5869  0.4771 -0.5443
  906MPD2     H13325   2.898   2.820  10.819  0.2590  0.4038 -0.2830
  906MPD2    H113326   3.128   2.601  11.095 -1.6115 -1.0167 -0.2783
  906MPD2    H213327   3.288   2.956  10.959  1.8740 -2.1368 -1.6765
  906MPD2    H313328   3.312   2.765  11.078 -1.3144  0.6233  2.5165
  906MPD2     N13329   2.883   2.622  10.976 -0.0580  0.0005  0.5359
  906MPD2    H513330   2.809   2.642  10.910 -1.0947 -0.5283  1.5474
  906MPD2    N113331   3.054   3.030  10.810 -0.1774  0.7553 -0.1292
  906MPD2    H713332   2.959   3.038  10.773  0.0320  0.5409 -0.7244
  907MPD2     C13333   2.126   2.829  15.833 -0.0068 -0.3194 -0.2276
  907MPD2    C113334   2.122   2.696  15.787 -0.1022  0.1633 -0.7083
  907MPD2    C213335   2.184   2.598  15.859  0.2336  0.0854 -0.2758
  907MPD2    C313336   2.228   2.626  15.982  0.0178 -0.5499  0.4958
  907MPD2    C413337   2.221   2.750  16.034  0.4487 -0.4227  0.4760
  907MPD2    C513338   2.173   2.859  15.956 -0.5426  0.3996 -0.5423
  907MPD2     H13339   2.191   2.503  15.807  1.8242  1.0021 -1.7342
  907MPD2    H113340   2.265   2.773  16.130  0.5746 -1.2087  0.6067
  907MPD2    H213341   2.087   2.917  15.783  1.3188  0.2735 -0.2152
  907MPD2    H313342   2.181   2.954  16.008  1.9786  0.1714 -0.4915
  907MPD2     N13343   2.272   2.513  16.062 -0.5945 -0.3707  0.0788
  907MPD2    H513344   2.267   2.423  16.016  1.2172 -0.5035  0.1417
  907MPD2    N113345   2.068   2.661  15.660 -0.0683 -0.4013 -0.2873
  907MPD2    H713346   2.074   2.563  15.637  0.3544 -0.8692  1.8000
  908MPD2     C13347   4.364   3.151   9.294 -0.5645 -0.2101 -0.2237
  908MPD2    C113348   4.279   3.151   9.402 -0.7225  0.2639  0.6562
  908MPD2    C213349   4.327   3.204   9.524  0.2818  0.4541  0.1834
  908MPD2    C313350   4.450   3.257   9.540  0.6425 -0.0996  0.0564
  908MPD2    C413351   4.528   3.265   9.423  0.7531  0.1458  0.2043
  908MPD2    C513352   4.484   3.202   9.309  0.1386 -0.1422  0.2283
  908MPD2     H13353   4.260   3.198   9.609 -0.5688  0.4546 -0.4916
  908MPD2    H113354   4.625   3.313   9.415  1.4829 -0.7291  3.7411
  908MPD2    H213355   4.329   3.112   9.199  1.0312 -0.7018 -0.6072
  908MPD2    H313356   4.549   3.219   9.224  0.3681  1.0026  0.6281
  908MPD2     N13357   4.494   3.291   9.667 -0.2278  0.1793 -0.4703
  908MPD2    H513358   4.428   3.271   9.741 -0.9545 -2.7543 -1.9201
  908MPD2    N113359   4.148   3.106   9.385  0.2678 -0.0729  0.5127
  908MPD2    H713360   4.130   3.063   9.295 -1.8953  0.4982  0.6719
  909MPD2     C13361   0.316   1.036  11.342  0.1557 -0.1042  0.2847
  909MPD2    C113362   0.361   1.164  11.333 -0.7048  0.2190  0.0937
  909MPD2    C213363   0.356   1.243  11.450  0.4525  0.3698 -0.0181
  909MPD2    C313364   0.306   1.191  11.565 -0.3131 -0.7769  0.4063
  909MPD2    C413365   0.252   1.060  11.574 -0.0044 -0.0413 -0.1332
  909MPD2    C513366   0.256   0.991  11.458  0.5758 -0.2638 -0.6746
  909MPD2     H13367   0.383   1.348  11.440  0.6561  0.4057  0.9123
  909MPD2    H113368   0.215   1.022  11.669  2.4681  2.3232  1.8073
  909MPD2    H213369   0.320   0.967  11.259  1.4538 -0.8827  0.9994
  909MPD2    H313370   0.227   0.887  11.468 -2.6012  0.7370  0.3889
  909MPD2     N13371   0.300   1.287  11.674  0.3291 -0.2113  0.0501
  909MPD2    H513372   0.328   1.384  11.667 -0.9091  0.0386 -1.3703
  909MPD2    N113373   0.411   1.229  11.216  0.5714 -0.6120  0.2652
  909MPD2    H713374   0.444   1.324  11.227 -0.4283 -0.1455 -0.8065
  910MPD2     C13375   1.390   3.441  16.044 -0.1459 -0.3679 -0.1456
  910MPD2    C113376   1.434   3.344  15.959  0.5577 -0.2302  0.3699
  910MPD2    C213377   1.376   3.336  15.835  0.0077 -1.0552 -0.5501
  910MPD2    C313378   1.265   3.418  15.795 -0.2416  0.5753 -0.0760
  910MPD2    C413379   1.231   3.518  15.882  0.3605  0.9045 -0.1045
  910MPD2    C513380   1.291   3.530  16.003 -0.1069 -1.2171 -0.2153
  910MPD2     H13381   1.407   3.256  15.769  0.6381 -2.1919  1.1232
  910MPD2    H113382   1.154   3.592  15.860  0.6163  1.7819  1.9102
  910MPD2    H213383   1.438   3.455  16.140 -0.5273  1.3266 -0.1900
  910MPD2    H313384   1.247   3.601  16.072  0.5792 -0.8637 -0.1461
  910MPD2     N13385   1.198   3.410  15.673  0.2610 -0.3145 -1.2076
  910MPD2    H513386   1.127   3.481  15.663  2.9319  2.7953  2.1172
  910MPD2    N113387   1.542   3.258  15.997  0.1486  0.0341  0.2775
  910MPD2    H713388   1.566   3.191  15.925  2.0050  0.6140  0.3495
  911MPD2     C13389   4.058   3.586  15.602 -0.2425 -0.5573 -0.8150
  911MPD2    C113390   4.094   3.630  15.728  0.8023 -0.5673  0.5802
  911MPD2    C213391   4.076   3.760  15.765 -0.6515 -0.2707 -0.0779
  911MPD2    C313392   4.021   3.848  15.679  0.2862  0.0609  0.7304
  911MPD2    C413393   3.985   3.805  15.551 -0.5795  0.1661  0.9892
  911MPD2    C513394   3.997   3.680  15.518 -0.2490  0.3453 -0.2367
  911MPD2     H13395   4.090   3.783  15.870 -3.7349  0.1151  0.2584
  911MPD2    H113396   3.930   3.872  15.486  1.7300  1.9694  0.8788
  911MPD2    H213397   4.061   3.480  15.581 -2.1335 -0.9562  0.9969
  911MPD2    H313398   3.947   3.649  15.426 -0.5870  0.5634 -0.1275
  911MPD2     N13399   3.996   3.983  15.714 -0.5035  0.4979  0.0981
  911MPD2    H513400   3.961   4.042  15.639 -3.1459  1.2466  1.9309
  911MPD2    N113401   4.165   3.533  15.804  0.0004 -0.5011  0.0289
  911MPD2    H713402   4.184   3.444  15.759  2.0640 -0.0181 -0.0178
  912MPD2     C13403   3.676   3.996  15.333  0.3819  0.5097  0.3057
  912MPD2    C113404   3.657   3.996  15.466  0.2150  0.0191  0.2945
  912MPD2    C213405   3.666   3.871  15.525 -0.4259  0.2810  0.9871
  912MPD2    C313406   3.675   3.758  15.449 -0.0922 -0.2186 -0.0795
  912MPD2    C413407   3.682   3.758  15.315 -0.0691 -0.7086  0.2044
  912MPD2    C513408   3.699   3.879  15.258 -0.8346  0.1613 -0.7713
  912MPD2     H13409   3.671   3.867  15.633 -1.2346  1.4302  1.0698
  912MPD2    H113410   3.685   3.671  15.250  2.1616 -0.1569 -0.4586
  912MPD2    H213411   3.696   4.085  15.274  1.6261 -0.0224 -0.0840
  912MPD2    H313412   3.713   3.895  15.151 -1.5722 -0.7469 -0.9991
  912MPD2     N13413   3.667   3.633  15.522 -0.1091  0.3412 -0.0758
  912MPD2    H513414   3.673   3.646  15.623  2.2119 -1.3245  0.0095
  912MPD2    N113415   3.645   4.119  15.536  0.1383 -1.0189  0.1937
  912MPD2    H713416   3.678   4.200  15.484 -3.9447  0.3447 -0.2716
  913MPD2     C13417   4.359   4.226  10.005 -0.4707 -0.1439 -0.1952
  913MPD2    C113418   4.434   4.277  10.109 -0.1704  0.1592  0.0153
  913MPD2    C213419   4.538   4.358  10.077 -0.2574 -0.0727 -0.1736
  913MPD2    C313420   4.563   4.399   9.945  0.0068 -0.0618 -0.3142
  913MPD2    C413421   4.479   4.347   9.844 -0.2853  0.1211  0.1711
  913MPD2    C513422   4.376   4.265   9.875 -0.8310 -0.8269  0.0363
  913MPD2     H13423   4.608   4.397  10.150  0.0305 -0.2781 -0.3377
  913MPD2    H113424   4.489   4.365   9.738  0.9632  1.3573  0.4884
  913MPD2    H213425   4.278   4.157  10.024 -1.2407  0.4180 -1.4505
  913MPD2    H313426   4.303   4.225   9.806 -2.6993  1.4249  0.6935
  913MPD2     N13427   4.674   4.482   9.905 -0.1988  0.8952 -0.4331
  913MPD2    H513428   4.704   4.497   9.810 -0.4629 -0.6539 -0.7607
  913MPD2    N113429   4.400   4.226  10.235  0.1280  0.5218  0.5704
  913MPD2    H713430   4.321   4.162  10.238 -1.5095  2.6348  1.5211
  914MPD2     C13431   2.271   0.618  11.610  0.5342 -0.5907 -0.2929
  914MPD2    C113432   2.299   0.661  11.736 -1.3970 -0.9241  0.3986
  914MPD2    C213433   2.337   0.578  11.833  1.2016  0.1178 -0.0806
  914MPD2    C313434   2.376   0.452  11.796 -0.5473  0.5380 -0.4971
  914MPD2    C413435   2.350   0.410  11.670 -0.5576 -0.0513  0.3990
  914MPD2    C513436   2.301   0.491  11.575  0.6378  0.6467  0.6599
  914MPD2     H13437   2.358   0.616  11.933  3.2000 -0.6112 -0.2333
  914MPD2    H113438   2.377   0.308  11.645 -0.2234  0.1787 -0.1668
  914MPD2    H213439   2.221   0.677  11.534  1.8724  1.2203  0.2305
  914MPD2    H313440   2.281   0.453  11.476 -0.1095 -1.4385  1.6192
  914MPD2     N13441   2.430   0.376  11.902 -0.5903 -0.1296  0.1465
  914MPD2    H513442   2.438   0.420  11.993 -0.7404  2.0605 -0.9061
  914MPD2    N113443   2.272   0.797  11.770  0.2942 -0.3988 -0.0802
  914MPD2    H713444   2.292   0.823  11.866 -0.2637  1.1777 -0.3854
  915MPD2     C13445   0.628   0.601  15.643 -0.5617 -0.8082  0.0935
  915MPD2    C113446   0.502   0.625  15.605  0.1032 -0.2056 -0.1894
  915MPD2    C213447   0.412   0.680  15.691 -0.6117 -0.3534  0.4035
  915MPD2    C313448   0.452   0.723  15.818  0.0525 -1.0366  0.0823
  915MPD2    C413449   0.588   0.717  15.843 -0.2491 -0.2549  0.5403
  915MPD2    C513450   0.667   0.640  15.764  0.4682  0.0165  0.6571
  915MPD2     H13451   0.307   0.690  15.667 -0.5247 -0.1663  0.1031
  915MPD2    H113452   0.633   0.746  15.937 -3.2234  1.8201  1.3340
  915MPD2    H213453   0.698   0.547  15.581 -0.5194 -0.9629  0.2759
  915MPD2    H313454   0.766   0.620  15.803  0.4285 -0.7710  0.3568
  915MPD2     N13455   0.357   0.779  15.908 -0.7268 -0.0128  0.0667
  915MPD2    H513456   0.261   0.777  15.873 -0.6121  0.6288 -0.2889
  915MPD2    N113457   0.461   0.580  15.478  0.9167 -0.6430  0.1633
  915MPD2    H713458   0.526   0.522  15.426 -0.5539 -2.4884  0.3661
  916MPD2     C13459   3.270   3.792  15.443  0.1200  0.2909 -0.3781
  916MPD2    C113460   3.264   3.690  15.526  0.8350 -0.9626  0.2352
  916MPD2    C213461   3.309   3.568  15.488 -0.0566 -0.1786  0.1732
  916MPD2    C313462   3.358   3.534  15.364  0.5415  0.2277  0.3216
  916MPD2    C413463   3.349   3.638  15.271 -0.2229 -0.1525  0.5112
  916MPD2    C513464   3.310   3.761  15.312  0.7943  0.5575  0.5856
  916MPD2     H13465   3.300   3.488  15.561 -1.0384 -0.8453 -0.6612
  916MPD2    H113466   3.367   3.632  15.164  0.6821  1.2555  0.5800
  916MPD2    H213467   3.233   3.892  15.463 -1.8151 -0.4158 -0.3998
  916MPD2    H313468   3.304   3.844  15.243  0.7940  0.1389  0.0858
  916MPD2     N13469   3.399   3.402  15.333 -0.0888  0.1538 -0.8543
  916MPD2    H513470   3.385   3.332  15.406  0.3554 -1.9451 -2.7879
  916MPD2    N113471   3.223   3.714  15.661 -0.2581 -0.1270  0.5461
  916MPD2    H713472   3.192   3.809  15.678  1.3514  0.2960  1.1091
  917MPD2     C13473   4.179   1.022  11.489 -0.3842  0.1651  0.4896
  917MPD2    C113474   4.072   0.971  11.423  0.0125 -0.2304 -0.3870
  917MPD2    C213475   4.056   1.007  11.289  0.6386  0.5479 -0.8280
  917MPD2    C313476   4.137   1.100  11.222 -0.4859 -0.2529  0.0481
  917MPD2    C413477   4.245   1.145  11.297 -0.2345  0.1270  0.1483
  917MPD2    C513478   4.263   1.099  11.423 -0.5715 -0.7935  0.3325
  917MPD2     H13479   3.975   0.963  11.232  0.1532  1.2127 -0.6521
  917MPD2    H113480   4.331   1.197  11.257 -0.2698 -0.2171 -0.3740
  917MPD2    H213481   4.191   0.999  11.594 -0.5917  0.1237  0.5040
  917MPD2    H313482   4.352   1.134  11.474 -1.7596 -0.5741  2.2704
  917MPD2     N13483   4.122   1.145  11.090 -0.1197 -0.1786  0.1553
  917MPD2    H513484   4.201   1.198  11.055  0.6740 -2.3434 -1.3003
  917MPD2    N113485   3.986   0.887  11.496 -0.5682  0.5305  1.0304
  917MPD2    H713486   4.005   0.871  11.594 -1.1387  0.6131  1.1557
  918MPD2     C13487   3.894   1.271  12.170 -0.3842 -0.4859  0.0105
  918MPD2    C113488   3.990   1.185  12.118  0.5288  0.2727 -0.6042
  918MPD2    C213489   3.956   1.069  12.052 -0.7167 -0.2717  0.4027
  918MPD2    C313490   3.821   1.047  12.021  0.4926 -0.4527 -0.9101
  918MPD2    C413491   3.726   1.131  12.067  0.2921  0.4908 -0.7289
  918MPD2    C513492   3.763   1.241  12.142 -0.1234 -0.1886 -0.0749
  918MPD2     H13493   4.036   1.016  12.002 -0.1264  1.0870 -0.0885
  918MPD2    H113494   3.623   1.120  12.034 -0.1247 -1.4447  1.2439
  918MPD2    H213495   3.917   1.357  12.231  1.6897  0.8064 -2.6210
  918MPD2    H313496   3.679   1.301  12.176 -0.1670 -1.1274  1.4696
  918MPD2     N13497   3.795   0.946  11.924  0.0143  0.5543  0.3109
  918MPD2    H513498   3.879   0.902  11.888  1.2986  1.0642  2.6816
  918MPD2    N113499   4.127   1.202  12.153 -0.3076  0.2841  0.1896
  918MPD2    H713500   4.195   1.133  12.123  1.0338  1.5282  0.3471
  919MPD2     C13501   4.331   4.385  11.770 -0.6451 -0.1258  0.2815
  919MPD2    C113502   4.252   4.286  11.707 -0.3270 -0.7240  0.2313
  919MPD2    C213503   4.209   4.318  11.580 -0.8511  0.8576 -0.0161
  919MPD2    C313504   4.232   4.437  11.517 -0.0030  0.1427  0.1858
  919MPD2    C413505   4.315   4.528  11.578  0.3765  0.1741 -0.2958
  919MPD2    C513506   4.358   4.503  11.706  0.4503  0.9687  0.7341
  919MPD2     H13507   4.145   4.246  11.530 -2.3629  2.9852 -1.1178
  919MPD2    H113508   4.353   4.613  11.522  2.1192 -0.4071 -0.0106
  919MPD2    H213509   4.390   4.363  11.857  1.2834  0.7804 -0.7824
  919MPD2    H313510   4.446   4.556  11.742  1.1056  0.6020 -0.3319
  919MPD2     N13511   4.205   4.465  11.377 -0.2991  0.6960  0.7376
  919MPD2    H513512   4.267   4.534  11.336  0.0665 -0.0490  0.0296
  919MPD2    N113513   4.239   4.155  11.756  0.2389  0.0627 -0.1391
  919MPD2    H713514   4.182   4.094  11.698 -0.9559  0.5938  0.4564
  920MPD2     C13515   4.066   0.431  10.704 -0.3560 -1.0117  0.3861
  920MPD2    C113516   3.976   0.335  10.668 -0.3179 -0.4208 -0.2142
  920MPD2    C213517   3.975   0.220  10.735 -0.1613  0.0535 -0.0014
  920MPD2    C313518   4.074   0.193  10.829 -0.4497 -0.4045  0.0505
  920MPD2    C413519   4.167   0.286  10.863  0.0858  0.7018 -0.1338
  920MPD2    C513520   4.161   0.410  10.802  0.3320  0.4155 -0.7408
  920MPD2     H13521   3.905   0.145  10.700 -0.5389  0.7941 -0.8159
  920MPD2    H113522   4.245   0.269  10.937 -0.1056 -0.8506 -0.3043
  920MPD2    H213523   4.062   0.533  10.666  1.7769  0.3340  3.7384
  920MPD2    H313524   4.225   0.493  10.830  0.7399 -0.6999  1.6096
  920MPD2     N13525   4.074   0.060  10.884 -0.1518  0.0465 -0.3267
  920MPD2    H513526   4.018   4.725  10.835 -0.2847 -0.6112  0.7765
  920MPD2    N113527   3.895   0.336  10.555  0.3931 -0.9023 -0.5238
  920MPD2    H713528   3.857   0.250  10.519 -1.4420 -0.7473  1.0383
  921MPD2     C13529   0.019   3.914  16.372  0.1462  0.1377  0.0718
  921MPD2    C113530   0.071   3.817  16.281  0.3453  0.0287 -0.1065
  921MPD2    C213531   4.732   3.708  16.262 -0.2552 -0.0571  0.3260
  921MPD2    C313532   4.600   3.690  16.302  0.1148 -0.2799  0.0646
  921MPD2    C413533   4.554   3.779  16.394  0.0499  0.8639  0.6858
  921MPD2    C513534   4.631   3.889  16.439  0.2090 -0.5968 -0.2344
  921MPD2     H13535   0.015   3.638  16.181 -0.0469 -0.4445  0.7057
  921MPD2    H113536   4.456   3.769  16.439  0.2152  2.2099  1.3441
  921MPD2    H213537   0.083   3.998  16.397 -0.5556  0.3173  1.2263
  921MPD2    H313538   4.592   3.950  16.520 -0.7379  1.3489 -2.1891
  921MPD2     N13539   4.514   3.578  16.279  0.6298 -0.1796 -0.0176
  921MPD2    H513540   4.417   3.589  16.305  0.4614 -0.9073 -0.3319
  921MPD2    N113541   0.198   3.841  16.220  0.4056  0.2968  0.1032
  921MPD2    H713542   0.231   3.937  16.220  0.5693  0.2483  1.9473
  922MPD2     C13543   1.034   2.764  17.148 -0.2934  0.0920  0.6696
  922MPD2    C113544   1.119   2.771  17.252 -0.9992 -0.4291 -0.4145
  922MPD2    C213545   1.157   2.651  17.305 -0.3416  0.7787  0.3329
  922MPD2    C313546   1.119   2.530  17.252 -0.6292  0.0014 -0.5480
  922MPD2    C413547   1.033   2.520  17.149  0.1195 -0.0755 -0.0410
  922MPD2    C513548   0.996   2.643  17.095  0.6966 -0.0827  0.1955
  922MPD2     H13549   1.221   2.652  17.393  0.3382 -0.5501 -0.1474
  922MPD2    H113550   0.999   2.426  17.107 -0.2914  0.2214 -0.3704
  922MPD2    H213551   0.983   2.850  17.104 -0.2204  0.3890  1.1700
  922MPD2    H313552   0.917   2.640  17.020  0.1486 -0.9023  0.8053
  922MPD2     N13553   1.173   2.417  17.308  0.1530  1.3244 -0.1441
  922MPD2    H513554   1.198   2.424  17.406 -2.6533 -0.3945  0.6878
  922MPD2    N113555   1.161   2.894  17.305 -0.4332 -0.5564  0.6412
  922MPD2    H713556   1.218   2.893  17.389  0.8940 -2.9032 -0.2895
  923MPD2     C13557   2.493   3.032   9.038  0.0246 -0.5890 -0.0992
  923MPD2    C113558   2.458   3.163   9.082 -1.2929 -0.3288 -0.0734
  923MPD2    C213559   2.497   3.204   9.205 -0.7298 -0.1185  0.6227
  923MPD2    C313560   2.596   3.131   9.272 -0.4186 -0.8099 -0.5009
  923MPD2    C413561   2.622   3.005   9.232 -0.1698 -0.5276 -0.1150
  923MPD2    C513562   2.566   2.956   9.122 -0.4892  0.5248  0.5766
  923MPD2     H13563   2.453   3.291   9.251  0.2957  2.4269 -3.1506
  923MPD2    H113564   2.695   2.943   9.282 -0.1872  1.2381  2.0989
  923MPD2    H213565   2.461   2.981   8.948 -0.5739 -1.4821  0.6163
  923MPD2    H313566   2.586   2.853   9.097  3.5981  1.6341 -0.8788
  923MPD2     N13567   2.655   3.171   9.393 -0.1303 -0.3699  0.8293
  923MPD2    H513568   2.716   3.104   9.440 -1.6662 -0.2984  2.8916
  923MPD2    N113569   2.383   3.244   8.989 -0.4317  0.1129 -0.4965
  923MPD2    H713570   2.350   3.195   8.906  0.2610 -3.1862  1.1640
  924MPD2     C13571   2.392   1.906  15.637  0.3213 -0.1797 -0.3063
  924MPD2    C113572   2.346   1.860  15.759  0.3304 -0.3958 -0.1572
  924MPD2    C213573   2.395   1.919  15.874 -0.2898 -0.0196 -0.1203
  924MPD2    C313574   2.475   2.033  15.875 -0.3806 -0.5626  0.2406
  924MPD2    C413575   2.516   2.081  15.753  0.2032 -0.6153  0.3168
  924MPD2    C513576   2.487   2.010  15.638  0.2097  0.7539  0.6070
  924MPD2     H13577   2.344   1.884  15.963 -1.3380  0.3441 -0.5794
  924MPD2    H113578   2.570   2.173  15.734  1.2664 -1.3573 -0.2505
  924MPD2    H213579   2.352   1.863  15.546  1.0670 -2.3151  0.3611
  924MPD2    H313580   2.518   2.056  15.544 -0.8002 -2.2855 -1.1906
  924MPD2     N13581   2.505   2.113  15.993  0.4360 -0.3534 -0.3007
  924MPD2    H513582   2.549   2.201  15.973 -2.2350  1.2856  0.9403
  924MPD2    N113583   2.251   1.754  15.753  0.3083  0.6680  0.6660
  924MPD2    H713584   2.271   1.680  15.687 -0.1311  1.4074 -0.2956
  925MPD2     C13585   1.254   0.139  14.331  0.1487  0.2092 -0.5375
  925MPD2    C113586   1.200   0.016  14.292 -0.0241 -0.5346  0.5647
  925MPD2    C213587   1.120   4.676  14.373  0.5187  0.9009 -0.1884
  925MPD2    C313588   1.081   4.718  14.495  0.6810  0.1015 -0.4560
  925MPD2    C413589   1.141   0.099  14.540 -0.8455  0.3995 -0.2629
  925MPD2    C513590   1.234   0.170  14.461 -0.5055  0.5927 -0.2417
  925MPD2     H13591   1.051   4.609  14.323  0.1058  0.5542  0.8348
  925MPD2    H113592   1.123   0.149  14.635  0.6355 -0.4292  0.4620
  925MPD2    H213593   1.297   0.215  14.267  0.6934 -0.8106 -1.3784
  925MPD2    H313594   1.266   0.267  14.497 -0.6894  0.0846  1.3042
  925MPD2     N13595   0.986   4.646  14.575 -0.2198  0.3479  0.0427
  925MPD2    H513596   0.957   4.697  14.657 -1.6589 -1.4765  0.6778
  925MPD2    N113597   1.199   4.707  14.153  0.2986  0.2031  0.2145
  925MPD2    H713598   1.146   4.623  14.131  0.4674 -0.0019  0.5869
  926MPD2     C13599   0.189   2.868  13.128  0.2018 -0.6312  0.2956
  926MPD2    C113600   0.117   2.919  13.017 -0.4761 -0.9410  0.2450
  926MPD2    C213601   0.191   2.989  12.922  0.5163 -0.0401  0.0465
  926MPD2    C313602   0.330   2.994  12.930 -0.6466 -0.2738 -0.1652
  926MPD2    C413603   0.392   2.948  13.039 -0.0622 -0.8467  0.3180
  926MPD2    C513604   0.319   2.886  13.138  0.7359 -0.4783 -0.3889
  926MPD2     H13605   0.145   3.041  12.838  0.8211  0.2294  0.0470
  926MPD2    H113606   0.498   2.936  13.058  0.4332  0.7885 -1.4323
  926MPD2    H213607   0.147   2.813  13.212  0.3500  1.4026  1.6995
  926MPD2    H313608   0.373   2.838  13.219 -1.7183  1.2028  2.2078
  926MPD2     N13609   0.420   3.030  12.835  0.2225 -0.0771  0.1835
  926MPD2    H513610   0.516   3.044  12.866 -0.3226 -0.5895  2.0742
  926MPD2    N113611   4.710   2.908  13.007 -0.2164  0.1000 -0.2449
  926MPD2    H713612   4.670   2.960  12.930  0.3964  0.7559 -0.1103
  927MPD2     C13613   4.652   0.235   0.181  0.1487  0.2217 -0.2504
  927MPD2    C113614   4.551   0.283   0.095 -0.0825  0.0562 -0.0854
  927MPD2    C213615   4.586   0.332  17.715 -0.2269 -0.1350 -0.0563
  927MPD2    C313616   4.718   0.359  17.688  0.4506  0.6815 -0.3060
  927MPD2    C413617   0.083   0.326   0.035 -0.6493  0.4218 -0.1576
  927MPD2    C513618   0.048   0.264   0.151  0.2295 -0.1852 -0.1085
  927MPD2     H13619   4.514   0.377  17.647  0.1511 -0.9495 -0.9988
  927MPD2    H113620   0.188   0.342   0.017 -0.9601  2.2437 -0.3517
  927MPD2    H213621   4.628   0.184   0.274 -0.8859 -1.0807 -1.2261
  927MPD2    H313622   0.123   0.243   0.226 -0.4117 -0.1773  0.5335
  927MPD2     N13623   0.012   0.417  17.566 -0.1901 -0.0618  0.6494
  927MPD2    H513624   4.676   0.427  17.494 -0.3120 -1.7069  0.5424
  927MPD2    N113625   4.421   0.283   0.146 -0.2067  0.5660  0.3633
  927MPD2    H713626   4.410   0.246   0.240  0.4201 -0.3598  0.0695
  928MPD2     C13627   2.613   3.520   0.997 -0.4964 -0.6473  0.4320
  928MPD2    C113628   2.588   3.649   0.991 -0.3716  0.5315  0.3544
  928MPD2    C213629   2.560   3.719   0.871 -0.2049 -0.3263 -0.1680
  928MPD2    C313630   2.552   3.644   0.755 -0.7855  0.1994  0.3731
  928MPD2    C413631   2.572   3.506   0.769  0.0423 -0.7668 -0.5535
  928MPD2    C513632   2.610   3.442   0.883 -0.1193  0.2983 -0.3846
  928MPD2     H13633   2.544   3.826   0.863 -1.1331 -0.5914 -1.7923
  928MPD2    H113634   2.559   3.434   0.690 -0.9953  0.9857 -1.9696
  928MPD2    H213635   2.643   3.479   1.093  2.7835 -1.7118 -1.0623
  928MPD2    H313636   2.625   3.335   0.888 -0.2256  0.3601  1.1212
  928MPD2     N13637   2.527   3.691   0.622  0.4528 -0.2849 -0.1645
  928MPD2    H513638   2.522   3.615   0.555  0.9289 -0.8638  0.4595
  928MPD2    N113639   2.575   3.728   1.111  0.2071 -0.6910  0.1247
  928MPD2    H713640   2.567   3.827   1.094  1.4435 -0.8087 -1.1302
  929MPD2     C13641   2.329   3.772  10.441  0.1704  0.4461 -0.6447
  929MPD2    C113642   2.307   3.711  10.319  0.4974 -0.3262 -0.6550
  929MPD2    C213643   2.349   3.786  10.211  0.5896 -0.4862  0.1553
  929MPD2    C313644   2.416   3.907  10.221 -0.2603  0.9190  0.6431
  929MPD2    C413645   2.439   3.960  10.340 -0.8151  0.5271 -0.0909
  929MPD2    C513646   2.394   3.894  10.454 -0.4172  0.0539 -0.1253
  929MPD2     H13647   2.333   3.737  10.115  0.5013 -0.5462  0.2007
  929MPD2    H113648   2.485   4.058  10.349 -0.7940  0.6228 -1.1903
  929MPD2    H213649   2.292   3.731  10.534  1.4503  1.3230  0.2452
  929MPD2    H313650   2.415   3.917  10.557 -1.1188 -2.1484  0.5004
  929MPD2     N13651   2.461   3.982  10.109 -0.1061 -0.4354 -0.0857
  929MPD2    H513652   2.498   4.071  10.138 -1.5732 -1.0676  3.7888
  929MPD2    N113653   2.249   3.579  10.318 -0.3274 -0.2538 -0.8787
  929MPD2    H713654   2.247   3.530  10.407 -1.3245  1.8032  0.2249
  930MPD2     C13655   4.198   0.565  13.914  0.2748  0.1860  0.5689
  930MPD2    C113656   4.159   0.696  13.901  0.5138 -0.2722 -0.3010
  930MPD2    C213657   4.064   0.727  13.810 -0.4547 -0.0502 -0.6158
  930MPD2    C313658   4.000   0.628  13.731 -0.5226 -0.4706  0.6260
  930MPD2    C413659   4.037   0.496  13.758 -0.1369  0.6596 -0.0753
  930MPD2    C513660   4.129   0.463  13.855  0.5996 -0.3385  0.2041
  930MPD2     H13661   4.039   0.832  13.796  1.1453  0.4983  0.6825
  930MPD2    H113662   3.992   0.413  13.706 -0.0006 -0.9893  2.4295
  930MPD2    H213663   4.285   0.529  13.966 -0.3951 -0.5663  1.1569
  930MPD2    H313664   4.174   0.365  13.866  0.4582 -0.4837 -0.5377
  930MPD2     N13665   3.889   0.649  13.648 -0.1986  0.3111  0.4822
  930MPD2    H513666   3.836   0.563  13.644  1.4360 -0.5402 -1.9447
  930MPD2    N113667   4.216   0.800  13.983  0.1017  0.1413  0.4295
  930MPD2    H713668   4.189   0.897  13.969 -0.1680 -0.0699 -0.4821
  931MPD2     C13669   4.282   4.438   0.036  0.1666 -0.1306  0.1189
  931MPD2    C113670   4.180   4.485   0.120  0.0086  1.0197 -0.6482
  931MPD2    C213671   4.120   4.403   0.220 -0.7262  0.5701  0.5738
  931MPD2    C313672   4.153   4.264   0.216 -0.2916 -0.0409  0.1724
  931MPD2    C413673   4.248   4.223   0.129  0.3674  0.4870  0.5086
  931MPD2    C513674   4.309   4.307   0.042 -0.4120 -0.6826 -0.1300
  931MPD2     H13675   4.069   4.443   0.307 -2.0373  1.7504 -0.7479
  931MPD2    H113676   4.283   4.122   0.109 -3.4542 -0.8138  0.5165
  931MPD2    H213677   4.338   4.506  17.711 -0.6326  0.5230  0.1095
  931MPD2    H313678   4.395   4.278  17.722 -1.6220 -1.1186 -1.6632
  931MPD2     N13679   4.089   4.177   0.311 -0.3688  0.7348  0.0826
  931MPD2    H513680   4.026   4.213   0.382  0.4896 -0.3512  1.4218
  931MPD2    N113681   4.160   4.625   0.122  0.2162 -0.7866  0.1405
  931MPD2    H713682   4.219   4.676   0.057 -2.6522  0.6273 -1.3207
  932MPD2     C13683   1.293   3.784  10.932 -0.3655  0.1915 -0.6446
  932MPD2    C113684   1.371   3.843  11.028 -0.4045  0.1471  0.4058
  932MPD2    C213685   1.472   3.775  11.084 -0.5731 -0.0257 -0.2093
  932MPD2    C313686   1.517   3.657  11.030  1.0839  0.3467 -0.0757
  932MPD2    C413687   1.438   3.604  10.926  0.1061  0.0636  0.2776
  932MPD2    C513688   1.329   3.664  10.878  0.1498  0.2147 -0.0508
  932MPD2     H13689   1.507   3.822  11.176 -2.2997 -1.1773  1.0359
  932MPD2    H113690   1.465   3.508  10.883 -1.4416  1.0069 -2.8039
  932MPD2    H213691   1.209   3.828  10.879 -2.7404  0.3400  3.2503
  932MPD2    H313692   1.267   3.623  10.798 -1.1973  1.0082  0.5876
  932MPD2     N13693   1.625   3.577  11.083 -0.1443 -0.1732  0.1149
  932MPD2    H513694   1.650   3.494  11.030 -1.1139 -0.1588 -0.3540
  932MPD2    N113695   1.332   3.970  11.080 -0.3594 -0.1085 -0.0823
  932MPD2    H713696   1.402   4.010  11.142 -0.3269 -1.2010  0.5916
  933MPD2     C13697   2.431   4.487   1.435  0.4695  0.0921 -0.7917
  933MPD2    C113698   2.419   4.378   1.353  0.3292 -0.4158  0.4426
  933MPD2    C213699   2.321   4.387   1.250 -0.1094 -0.0129 -0.1418
  933MPD2    C313700   2.229   4.495   1.248 -0.2817 -0.3731 -0.2960
  933MPD2    C413701   2.236   4.601   1.338  0.2536 -0.1404  0.1863
  933MPD2    C513702   2.338   4.598   1.430  0.1601 -0.1555  0.3684
  933MPD2     H13703   2.313   4.309   1.174 -0.9607  0.9462 -1.0332
  933MPD2    H113704   2.173   4.689   1.327 -0.8834 -1.0228 -0.2874
  933MPD2    H213705   2.516   4.489   1.502 -0.8320 -0.3155  0.8716
  933MPD2    H313706   2.356   4.682   1.496 -1.9734  2.0572 -1.8691
  933MPD2     N13707   2.132   4.491   1.146  0.2183 -0.3125 -0.0251
  933MPD2    H513708   2.116   4.400   1.104  0.1057  0.6206 -2.0084
  933MPD2    N113709   2.515   4.272   1.358  0.0106 -0.1897  0.0617
  933MPD2    H713710   2.582   4.282   1.433 -0.7984  0.6345  0.6720
  934MPD2     C13711   3.764   1.947   1.426 -0.4308 -0.7671 -0.2227
  934MPD2    C113712   3.800   1.874   1.306 -0.1457 -0.3187  0.1827
  934MPD2    C213713   3.702   1.801   1.241 -0.8581 -0.4517 -0.3735
  934MPD2    C313714   3.575   1.793   1.291 -0.0617 -0.1851 -0.4919
  934MPD2    C413715   3.541   1.874   1.396 -0.6951  0.0589 -0.5870
  934MPD2    C513716   3.633   1.951   1.464 -0.5566  0.6156 -0.7033
  934MPD2     H13717   3.739   1.743   1.157 -0.6302  0.5589 -0.9810
  934MPD2    H113718   3.442   1.880   1.439 -0.7936 -0.8433 -0.6869
  934MPD2    H213719   3.832   2.010   1.483  0.3665 -1.8114 -0.0302
  934MPD2    H313720   3.602   2.016   1.544  0.3340 -2.3288  2.0202
  934MPD2     N13721   3.466   1.727   1.233  0.3993  0.4137 -0.4066
  934MPD2    H513722   3.378   1.732   1.284 -0.5595  0.2306 -2.0379
  934MPD2    N113723   3.927   1.872   1.252 -0.3256 -0.1882 -0.9633
  934MPD2    H713724   3.938   1.830   1.160  0.6973  1.4924 -1.5955
  935MPD2     C13725   2.842   1.272   0.454  0.8319 -0.1355  0.0765
  935MPD2    C113726   2.936   1.204   0.525 -0.5351 -0.2230  0.4833
  935MPD2    C213727   3.011   1.263   0.619  0.2490  0.6239  0.8666
  935MPD2    C313728   2.983   1.398   0.646  0.2062 -0.8261 -0.5651
  935MPD2    C413729   2.880   1.458   0.578 -0.2538  0.0490  0.2376
  935MPD2    C513730   2.798   1.400   0.488 -1.2501 -0.8037  0.0792
  935MPD2     H13731   3.094   1.213   0.668 -0.5861 -2.0384 -0.4402
  935MPD2    H113732   2.843   1.558   0.597  0.6462 -0.1565  3.1655
  935MPD2    H213733   2.780   1.228   0.377  0.6102  3.1080 -1.5775
  935MPD2    H313734   2.717   1.458   0.446 -0.6377  0.2949  0.4183
  935MPD2     N13735   3.033   1.466   0.761  1.0057 -0.2772 -0.5604
  935MPD2    H513736   2.986   1.556   0.773 -0.6449 -0.9586 -1.9078
  935MPD2    N113737   2.949   1.068   0.495 -0.4248  1.3331 -0.1016
  935MPD2    H713738   2.884   1.043   0.421 -0.3582 -0.1010  0.3233
  936MPD2     C13739   1.463   1.880  12.426  0.3784 -0.3433 -0.5606
  936MPD2    C113740   1.460   2.015  12.441 -0.0871 -0.0218  0.2531
  936MPD2    C213741   1.490   2.084  12.325 -0.4894 -0.1425 -0.2651
  936MPD2    C313742   1.543   2.026  12.215 -0.8413  0.4632  0.1113
  936MPD2    C413743   1.567   1.893  12.218  0.5104  0.4153  0.0242
  936MPD2    C513744   1.519   1.817  12.317 -0.1058 -0.2155 -0.3092
  936MPD2     H13745   1.470   2.190  12.324  0.7678  0.0973  0.0437
  936MPD2    H113746   1.621   1.838  12.142 -1.9857 -1.7056 -0.2050
  936MPD2    H213747   1.427   1.814  12.503 -2.9525  0.8316 -1.1101
  936MPD2    H313748   1.532   1.710  12.309  1.5117 -0.1322  1.2697
  936MPD2     N13749   1.582   2.116  12.112 -0.2907 -0.2447 -0.3455
  936MPD2    H513750   1.549   2.209  12.136  0.0317 -0.7878  2.1664
  936MPD2    N113751   1.413   2.094  12.551 -0.2740 -0.3979 -0.4595
  936MPD2    H713752   1.391   2.191  12.530  1.7170  0.1685  0.0043
  937MPD2     C13753   4.493   3.597  11.387  0.4157  0.5294  0.2410
  937MPD2    C113754   4.461   3.730  11.418 -0.3761 -0.3618 -0.0350
  937MPD2    C213755   4.494   3.832  11.328 -1.3453 -0.2521 -0.2361
  937MPD2    C313756   4.552   3.810  11.204 -0.9675 -0.0383  1.2052
  937MPD2    C413757   4.573   3.673  11.170  0.2370 -0.0257 -0.0594
  937MPD2    C513758   4.544   3.574  11.262 -0.9564  0.0360 -0.5013
  937MPD2     H13759   4.483   3.936  11.359 -0.9005  0.5618 -2.8612
  937MPD2    H113760   4.614   3.639  11.076 -0.0866  1.2327 -0.6519
  937MPD2    H213761   4.472   3.520  11.460  1.8704 -0.2717 -0.2000
  937MPD2    H313762   4.545   3.469  11.236 -0.3428 -0.2034  0.4749
  937MPD2     N13763   4.599   3.913  11.117 -0.2942  0.7308  0.1760
  937MPD2    H513764   4.611   4.011  11.141 -1.2877  1.0380 -0.5637
  937MPD2    N113765   4.423   3.773  11.542 -0.7841  0.1041  0.8732
  937MPD2    H713766   4.389   3.868  11.540  0.7131  0.5279 -3.6565
  938MPD2     C13767   2.181   1.799   0.170 -0.7043  0.6396  0.0133
  938MPD2    C113768   2.278   1.789   0.261 -0.0875 -0.6049  0.9265
  938MPD2    C213769   2.289   1.669   0.322 -0.2938 -0.6987 -0.2556
  938MPD2    C313770   2.199   1.563   0.307 -0.6315 -0.2786  0.1867
  938MPD2    C413771   2.094   1.592   0.221  0.1869  0.0280  0.3534
  938MPD2    C513772   2.083   1.709   0.154  0.2993  0.0447 -0.2630
  938MPD2     H13773   2.372   1.671   0.392 -0.3185 -0.2746 -0.2388
  938MPD2    H113774   2.008   1.528   0.203 -0.4717  1.3673 -1.3226
  938MPD2    H213775   2.178   1.888   0.109  2.3666  0.0782 -0.9506
  938MPD2    H313776   2.006   1.733   0.081  1.0158 -2.0706 -1.7064
  938MPD2     N13777   2.208   1.434   0.366 -0.1521  0.7827  1.0111
  938MPD2    H513778   2.128   1.373   0.357  0.7496 -0.2701  0.0923
  938MPD2    N113779   2.367   1.893   0.300  0.0344 -0.4341 -0.3829
  938MPD2    H713780   2.430   1.870   0.376 -0.8115 -0.3774  0.3398
  939MPD2     C13781   3.519   2.265   0.338 -0.3201  0.1460  0.6611
  939MPD2    C113782   3.408   2.315   0.276 -0.5038 -0.0675  0.3465
  939MPD2    C213783   3.341   2.237   0.188 -0.1771 -0.0601  0.2348
  939MPD2    C313784   3.396   2.108   0.151  0.0885 -0.1520  0.8271
  939MPD2    C413785   3.511   2.070   0.207  0.0351  0.0678 -0.6861
  939MPD2    C513786   3.579   2.149   0.294  0.6210 -0.5584 -0.0455
  939MPD2     H13787   3.248   2.281   0.152 -0.2194 -0.3701 -0.0282
  939MPD2    H113788   3.553   1.972   0.190  0.0813  0.0516 -0.4790
  939MPD2    H213789   3.579   2.317   0.412 -0.6474 -1.0044  1.7208
  939MPD2    H313790   3.666   2.105   0.341  1.1073  0.3726 -0.0848
  939MPD2     N13791   3.335   2.039   0.052  0.2250 -0.1186  0.0486
  939MPD2    H513792   3.247   2.071   0.011  0.0874 -2.0620 -1.1888
  939MPD2    N113793   3.375   2.446   0.320 -0.0123  0.5811  0.3301
  939MPD2    H713794   3.429   2.483   0.398 -0.1099 -0.1949  0.7700
  940MPD2     C13795   2.327   2.662  12.475  0.3310 -0.2587 -0.2855
  940MPD2    C113796   2.401   2.599  12.579 -0.0966 -0.1466  0.9957
  940MPD2    C213797   2.501   2.506  12.557 -0.0754  0.2702 -0.0179
  940MPD2    C313798   2.541   2.484  12.427 -0.6198  0.3756 -0.0919
  940MPD2    C413799   2.481   2.552  12.324 -0.1526 -0.4093  0.1374
  940MPD2    C513800   2.370   2.634  12.348 -0.9504 -0.2420 -0.0082
  940MPD2     H13801   2.540   2.459  12.647 -0.7365  0.8037  0.5453
  940MPD2    H113802   2.512   2.536  12.221 -3.8315 -0.5081 -0.9931
  940MPD2    H213803   2.242   2.729  12.483 -2.2671 -3.3620 -1.4924
  940MPD2    H313804   2.314   2.674  12.264  0.1113  1.5884  0.1606
  940MPD2     N13805   2.659   2.412  12.396 -0.4066  0.7076  0.0823
  940MPD2    H513806   2.680   2.406  12.297  2.5950  0.2233  0.7658
  940MPD2    N113807   2.351   2.621  12.716  0.0799  0.1088  0.3293
  940MPD2    H713808   2.401   2.571  12.789  1.3898  0.7840 -0.1098
  941MPD2     C13809   1.224   1.940   9.002 -0.2625 -0.2331 -0.0017
  941MPD2    C113810   1.293   1.886   9.109 -0.1219  0.0111  0.2464
  941MPD2    C213811   1.257   1.760   9.153  0.2573  0.0523 -0.4365
  941MPD2    C313812   1.163   1.684   9.088  0.5161  1.1005 -0.1924
  941MPD2    C413813   1.091   1.736   8.980 -0.2721 -0.0421  0.3975
  941MPD2    C513814   1.122   1.865   8.940  0.2471  0.7137  0.1182
  941MPD2     H13815   1.321   1.720   9.230  0.8326  0.1504 -0.8591
  941MPD2    H113816   1.025   1.674   8.921 -1.2622  2.3818 -1.0156
  941MPD2    H213817   1.244   2.040   8.966  0.2462 -0.1825  0.4215
  941MPD2    H313818   1.086   1.915   8.852  2.3540 -1.0109 -1.7237
  941MPD2     N13819   1.129   1.553   9.131  0.0028  0.5520 -0.0393
  941MPD2    H513820   1.062   1.512   9.067 -1.5849  1.4172  1.0789
  941MPD2    N113821   1.407   1.940   9.181  1.0449  0.0985  0.2968
  941MPD2    H713822   1.430   1.892   9.267 -1.1311  1.0378  1.4185
  942MPD2     C13823   1.069   3.171   8.859  0.1378 -0.0622 -1.0701
  942MPD2    C113824   1.034   3.163   8.991  0.2503  0.2521 -0.2799
  942MPD2    C213825   1.067   3.261   9.082 -0.1734  0.0639 -0.2750
  942MPD2    C313826   1.142   3.368   9.043 -0.0030 -0.6342 -0.1124
  942MPD2    C413827   1.184   3.373   8.912  0.2381 -0.7188 -0.6256
  942MPD2    C513828   1.147   3.279   8.820 -0.2052 -0.3763 -0.5556
  942MPD2     H13829   1.028   3.263   9.183 -0.9826  0.5916 -0.5983
  942MPD2    H113830   1.257   3.446   8.881  1.0687 -1.2110  0.1818
  942MPD2    H213831   1.039   3.097   8.787 -1.6561  1.6202 -2.0478
  942MPD2    H313832   1.178   3.281   8.717 -1.4415 -1.5307 -0.9650
  942MPD2     N13833   1.198   3.464   9.132  0.3410 -0.0285  0.7439
  942MPD2    H513834   1.254   3.537   9.088 -0.2652 -0.0499 -0.0644
  942MPD2    N113835   0.953   3.051   9.034  0.3155  0.3773 -0.3092
  942MPD2    H713836   0.924   3.040   9.130 -2.0082  3.3742 -0.6466
  943MPD2     C13837   0.834   1.279  10.001 -0.3191 -0.3881 -0.1477
  943MPD2    C113838   0.763   1.158   9.986  0.1887  0.0562 -0.6060
  943MPD2    C213839   0.664   1.157   9.893 -0.5037 -0.3074  0.0869
  943MPD2    C313840   0.632   1.258   9.806 -0.2329 -0.3550 -0.0254
  943MPD2    C413841   0.703   1.378   9.817  0.5729 -0.0910 -0.3257
  943MPD2    C513842   0.795   1.382   9.914  0.8374 -0.2736 -0.4097
  943MPD2     H13843   0.621   1.061   9.867 -3.7444  0.9731  0.7995
  943MPD2    H113844   0.690   1.466   9.754 -0.0985  0.8612  1.1187
  943MPD2    H213845   0.921   1.291  10.065 -0.4972 -0.8361  0.1735
  943MPD2    H313846   0.852   1.472   9.931 -0.5204 -0.2572  3.9993
  943MPD2     N13847   0.536   1.253   9.705  0.1781 -0.7510  0.3273
  943MPD2    H513848   0.515   1.344   9.665 -0.9166 -1.8514 -1.6094
  943MPD2    N113849   0.800   1.050  10.069 -0.2275 -0.2086  0.0018
  943MPD2    H713850   0.868   1.066  10.143  0.3888 -1.6098 -0.2703
  944MPD2     C13851   0.069   1.255  10.583 -0.3079 -0.0076  0.2998
  944MPD2    C113852   0.031   1.176  10.692 -0.0802  0.3915 -0.4429
  944MPD2    C213853   0.017   1.237  10.821 -0.5102  0.1838  0.3853
  944MPD2    C313854   0.054   1.368  10.837 -0.6558 -0.6476  0.1364
  944MPD2    C413855   0.105   1.438  10.730  1.0561 -0.0872 -0.4890
  944MPD2    C513856   0.104   1.385  10.606  0.4189 -0.8893 -0.8136
  944MPD2     H13857   4.725   1.173  10.904 -0.7381  0.7705  0.7609
  944MPD2    H113858   0.159   1.532  10.736 -4.2486  2.8922  0.6163
  944MPD2    H213859   0.093   1.212  10.486  1.3956  0.6064  0.4422
  944MPD2    H313860   0.133   1.439  10.517  0.8511 -1.1596 -0.8328
  944MPD2     N13861   0.042   1.427  10.965  0.4592 -0.9026  0.1254
  944MPD2    H513862   0.017   1.361  11.038 -1.4421  1.5064  1.6771
  944MPD2    N113863   0.007   1.043  10.666 -0.2433 -0.2650 -0.3765
  944MPD2    H713864   0.046   1.022  10.575  0.2393  0.7044 -0.3886
    1TMC1    C113865   3.128   1.875  13.677 -0.8448 -0.3321  0.6514
    1TMC1    C213866   3.008   1.930  13.718  0.5840 -0.2695  1.1020
    1TMC1    C313867   2.909   1.920  13.622  0.4900  0.5931  0.0751
    1TMC1    C413868   3.154   1.834  13.548  0.1903 -0.1518 -0.3093
    1TMC1    C513869   3.065   1.852  13.451  0.1778  0.2290  0.3131
    1TMC1    C613870   2.937   1.899  13.488  0.8054  0.2998  0.0535
    1TMC1     C13871   3.240   1.877  13.771 -0.2766  0.4854  0.4311
    1TMC1     O13872   3.329   1.795  13.754 -1.1348  0.3677  0.1738
    1TMC1     H13873   2.987   1.944  13.824  0.6594  1.0618  0.9396
    1TMC1    H113874   3.254   1.810  13.514 -0.0300 -0.1999 -0.9148
    1TMC1    H213875   2.869   1.920  13.407  0.6777 -1.0871 -0.2046
    1TMC1    C713876   3.132   1.932  13.352 -0.3200 -0.3526  0.3016
    1TMC1    C813877   2.806   2.016  13.643  0.1249 -0.8306 -0.2928
    1TMC1    O113878   3.182   2.032  13.395 -0.3641 -0.3615  0.2369
    1TMC1    O213879   2.812   2.113  13.712 -0.4186 -0.9001  0.5487
    1TMC1    O313880   3.214   1.843  13.291 -0.4354  0.4958  0.1208
    1TMC1    H313881   3.181   1.752  13.304 -0.3719  0.3647 -0.6747
    1TMC1    O513882   2.698   1.980  13.574  0.0749  0.4965 -0.3745
    1TMC1    H513883   2.707   1.889  13.539 -0.8171  1.1705 -2.3697
    2MPD2     C13884   3.545   2.137  14.094  0.9223 -0.1526 -0.0328
    2MPD2    C113885   3.425   2.205  14.083 -0.4586  0.8161 -0.3025
    2MPD2    C213886   3.327   2.152  14.002  0.5004 -0.1327 -0.1379
    2MPD2    C313887   3.340   2.033  13.931  0.4458  0.6014  0.2720
    2MPD2    C413888   3.455   1.961  13.951  0.4498 -0.0913  0.6767
    2MPD2    C513889   3.549   2.013  14.036  0.8288 -0.1988  0.4783
    2MPD2     H13890   3.238   2.209  13.977  0.8262 -0.1786 -1.4142
    2MPD2    H113891   3.475   1.864  13.907  2.5529  0.3807  0.5861
    2MPD2    H213892   3.620   2.179  14.160  1.3344 -1.8681  0.6072
    2MPD2    H313893   3.645   1.962  14.037  0.1312 -1.4890  1.4175
    2MPD2     N13894   3.237   1.990  13.848  0.4704  0.1974 -0.4342
    2MPD2    H513895   3.156   2.050  13.839  0.6136  0.5895  0.9249
    2MPD2    N113896   3.411   2.334  14.142  0.1553 -0.1555  0.0241
    2MPD2    H713897   3.499   2.366  14.182  0.2617  0.5638 -0.7802
    3TMC2    C113898   3.329   2.545  14.199  0.0494  0.2042  0.4607
    3TMC2    C213899   3.408   2.543  14.311  0.4627 -0.8053 -0.3523
    3TMC2    C313900   3.412   2.656  14.389 -0.6915  0.0514 -0.4036
    3TMC2    C413901   3.254   2.656  14.167 -0.0925  0.4440  0.0511
    3TMC2    C513902   3.269   2.768  14.241 -0.1988 -0.3953 -0.3901
    3TMC2    C613903   3.339   2.769  14.358  0.0971  1.0442 -0.6668
    3TMC2     C13904   3.301   2.422  14.126  0.0508  0.1942  0.6217
    3TMC2     O13905   3.196   2.411  14.060  0.0960  0.9749 -0.0898
    3TMC2     H13906   3.458   2.452  14.342 -3.4340 -2.9061 -0.2729
    3TMC2    H113907   3.182   2.648  14.087 -0.9970 -1.7065  1.0861
    3TMC2    H213908   3.327   2.857  14.421 -0.5612  0.0714  0.5736
    3TMC2    C713909   3.189   2.884  14.209  0.3163 -0.1091  0.2977
    3TMC2    C813910   3.476   2.637  14.512  0.0645 -0.1040 -0.3909
    3TMC2    O113911   3.195   2.977  14.289 -0.8775  0.3339  0.2596
    3TMC2    O213912   3.469   2.523  14.557 -0.4049 -0.8880  1.0445
    3TMC2    O513913   3.490   2.755  14.576 -0.0220 -0.3945 -0.8424
    3TMC2    H513914   3.506   2.835  14.522 -1.3205  1.1607  1.1106
    4TMC2    C113915   2.853   3.076  13.338 -0.3408  0.3376  0.0328
    4TMC2    C213916   2.886   2.967  13.260 -0.5172 -0.6389  0.9454
    4TMC2    C313917   3.010   2.917  13.260  0.2550 -0.2582 -0.1520
    4TMC2    C413918   2.942   3.117  13.423 -0.3213  0.6912 -0.7218
    4TMC2    C513919   3.064   3.051  13.438  0.1781 -0.1930 -0.0298
    4TMC2    C613920   3.102   2.953  13.355 -0.0391 -0.4444  0.7194
    4TMC2     C13921   2.717   3.088  13.390 -0.1025  0.3719  0.4057
    4TMC2     O13922   2.709   3.106  13.512 -0.0242 -0.6233  0.1028
    4TMC2     H13923   2.808   2.912  13.208  0.0312 -0.5850  0.0791
    4TMC2    H113924   2.927   3.210  13.476 -0.1005 -0.5229  1.4911
    4TMC2    H213925   3.203   2.917  13.350  0.7047  1.3104  3.1341
    4TMC2    C713926   3.094   3.019  13.570 -0.5251  0.1671  0.2269
    4TMC2    C813927   3.047   2.822  13.151  0.5228  0.2302 -1.0443
    4TMC2    O113928   3.197   2.963  13.597  0.2273  0.3979  0.1962
    4TMC2    O213929   3.099   2.714  13.165 -0.1582 -0.1240 -0.3307
    4TMC2    O513930   2.964   2.846  13.044 -0.4370  0.0594  0.8426
    4TMC2    H513931   2.913   2.930  13.051  1.0628  0.9399  1.1261
    5MPD2     C13932   2.212   3.047  13.362 -0.1190  0.1889  0.9137
    5MPD2    C113933   2.259   3.058  13.234 -0.7538  0.9275  0.0166
    5MPD2    C213934   2.393   3.072  13.210  0.3437 -0.6407  0.5180
    5MPD2    C313935   2.483   3.064  13.317 -0.2584  0.9103 -0.0207
    5MPD2    C413936   2.436   3.037  13.445  0.6869  0.2746 -0.2682
    5MPD2    C513937   2.296   3.032  13.464 -0.0326 -0.4842 -0.4391
    5MPD2     H13938   2.436   3.091  13.112  1.6216  0.2197  1.2449
    5MPD2    H113939   2.497   3.009  13.530  0.6855 -0.8355 -0.6352
    5MPD2    H213940   2.104   3.040  13.374 -0.0748 -0.5641  0.8652
    5MPD2    H313941   2.262   3.019  13.566  2.7380  1.1079  0.6853
    5MPD2     N13942   2.621   3.076  13.294  0.4793 -0.4121  0.5365
    5MPD2    H513943   2.651   3.074  13.197 -0.3202  1.6008  0.2522
    5MPD2    N113944   2.166   3.069  13.134  0.0658 -0.2730  0.1938
    5MPD2    H713945   2.068   3.052  13.150  0.3089 -2.0955 -0.2148
    6MPD1     C13946   0.590   3.891  12.770 -0.5332  0.7670  0.6396
    6MPD1    C113947   0.680   3.989  12.803 -0.4304 -0.1172  0.6661
    6MPD1    C213948   0.814   3.956  12.817 -0.6215  0.2032  0.1882
    6MPD1    C313949   0.859   3.826  12.789  0.5654  0.1310 -0.7672
    6MPD1    C413950   0.766   3.735  12.735  0.3056 -0.0595  0.5305
    6MPD1    C513951   0.630   3.769  12.730  0.3358  0.7626 -0.1750
    6MPD1     H13952   0.880   4.035  12.853  0.8826 -1.3388  0.8062
    6MPD1    H113953   0.810   3.642  12.701 -0.1316 -0.8147  2.0401
    6MPD1    H213954   0.488   3.921  12.750 -0.9648  0.1090  1.8872
    6MPD1    H313955   0.559   3.702  12.683 -0.8769  0.7193  1.7337
    6MPD1     N13956   0.986   3.786  12.819 -0.6754 -0.3932  0.4401
    6MPD1    H513957   1.003   3.686  12.807  3.3493 -0.4726  6.5267
    6MPD1    N113958   0.632   4.115  12.840  0.5807  0.3546  0.0873
    6MPD1    H613959   0.691   4.188  12.800  2.5889 -1.2363  0.1613
    6MPD1    H713960   0.537   4.130  12.806  1.3531 -0.1629 -2.3546
    7MPD2     C13961   1.265   3.148  12.857 -0.0965 -0.3365 -0.3348
    7MPD2    C113962   1.381   3.215  12.900  0.5940 -0.0380 -0.0233
    7MPD2    C213963   1.502   3.148  12.915  0.0565 -0.1050  0.3766
    7MPD2    C313964   1.509   3.017  12.884 -0.0042 -0.2914  0.3731
    7MPD2    C413965   1.393   2.950  12.831  0.7540 -0.3372 -1.0867
    7MPD2    C513966   1.275   3.020  12.824 -0.3795  0.5708  0.1143
    7MPD2     H13967   1.596   3.195  12.941 -1.2642  2.8842 -0.2042
    7MPD2    H113968   1.399   2.844  12.811  1.5265 -0.1038 -2.0544
    7MPD2    H213969   1.165   3.188  12.853 -0.3152 -0.7360  1.0058
    7MPD2    H313970   1.189   2.966  12.786  0.4268 -0.6895  0.1197
    7MPD2     N13971   1.634   2.947  12.872  0.0240 -0.7594 -0.0640
    7MPD2    H513972   1.640   2.880  12.796  1.1536  1.5334 -1.9780
    7MPD2    N113973   1.377   3.351  12.926 -0.2305 -0.0066  0.0163
    7MPD2    H713974   1.463   3.392  12.962  0.0291 -0.9910  0.5114
    8TMC3    C113975   1.870   2.969  12.864  0.0456  0.3480  0.0526
    8TMC3    C213976   1.967   2.996  12.953 -0.1775 -0.3945 -0.5034
    8TMC3    C313977   2.070   3.081  12.916  0.0659  0.1034  0.4183
    8TMC3    C413978   1.879   3.018  12.736 -0.4114 -0.1137  0.8463
    8TMC3    C513979   1.968   3.118  12.709 -0.3621  0.0719  1.0708
    8TMC3    C613980   2.072   3.137  12.794  0.5971 -0.1498  0.0966
    8TMC3     C13981   1.743   2.993  12.930 -0.1778 -0.0989 -0.1193
    8TMC3     O13982   1.752   3.061  13.030 -0.2342 -0.8859 -0.1219
    8TMC3     H13983   1.956   2.953  13.052 -4.0246 -0.3206 -0.9078
    8TMC3    H113984   1.795   3.006  12.669 -2.0755  3.0044  2.3943
    8TMC3    H213985   2.144   3.215  12.772  1.4400 -0.3872  2.0467
    8TMC3    C713986   1.901   3.239  12.663  0.5881 -0.0398 -0.3452
    8TMC3    C813987   2.191   3.090  12.997 -0.1867  0.7348 -0.1766
    8TMC3    O113988   1.785   3.225  12.627 -0.5079 -0.2813 -0.2629
    8TMC3    O213989   2.293   3.120  12.936 -0.2319  0.1477  0.2632
    9TMC3    C113990   1.211   3.781  12.874 -0.0298  0.2408  0.0040
    9TMC3    C213991   1.332   3.823  12.816  0.2118 -0.0240 -0.6267
    9TMC3    C313992   1.437   3.736  12.810  1.0276  1.2056  0.2695
    9TMC3    C413993   1.194   3.655  12.929  0.3486 -0.3720  0.1036
    9TMC3    C513994   1.301   3.571  12.921 -0.0493 -1.3232  0.9981
    9TMC3    C613995   1.418   3.611  12.872 -0.7291 -0.0825 -0.2920
    9TMC3     C13996   1.094   3.865  12.847 -0.1673 -0.3574 -0.3100
    9TMC3     O13997   1.109   3.985  12.840 -0.3668 -0.2087  0.6557
    9TMC3     H13998   1.354   3.916  12.765 -1.5610  1.2068  0.8512
    9TMC3    H113999   1.100   3.628  12.976 -0.2757 -0.1666 -1.0104
    9TMC3    H214000   1.504   3.552  12.902  0.5495  1.3647 -1.0975
    9TMC3    C714001   1.266   3.433  12.920 -0.1187  0.6712 -0.4861
    9TMC3    C814002   1.561   3.770  12.741  0.2032 -0.6298  0.7769
    9TMC3    O114003   1.147   3.416  12.910 -0.0311  0.2608 -0.0650
    9TMC3    O214004   1.597   3.886  12.743  0.1264  0.2203  0.1194
   10MPD2     C14005   2.006   3.569  12.592  0.2429  0.0106  0.1547
   10MPD2    C114006   1.926   3.471  12.632  0.0339 -0.7153  0.6916
   10MPD2    C214007   1.797   3.506  12.670 -0.1645  0.2328  0.1716
   10MPD2    C314008   1.754   3.638  12.670 -0.3427 -0.0293  0.6698
   10MPD2    C414009   1.841   3.739  12.632  0.0239  0.7065  0.5675
   10MPD2    C514010   1.968   3.704  12.589 -0.2665  0.7919 -0.3041
   10MPD2     H14011   1.728   3.431  12.705 -0.1731 -0.3244 -1.0648
   10MPD2    H114012   1.800   3.839  12.621  0.9600  0.9486 -0.7465
   10MPD2    H214013   2.110   3.554  12.564  0.0303 -0.5295 -0.3363
   10MPD2    H314014   2.049   3.767  12.553 -0.8230  0.9309 -1.3007
   10MPD2     N14015   1.626   3.652  12.716 -0.2333 -0.5721 -0.1443
   10MPD2    H514016   1.583   3.565  12.744 -3.5420  1.4006  0.8700
   10MPD2    N114017   1.979   3.346  12.653 -0.1065  0.1521  0.6525
   10MPD2    H714018   2.078   3.329  12.637  0.1903  1.1920  1.4101
   11MPD2     C14019   2.991   3.058  14.069 -0.4694  0.2190 -0.0598
   11MPD2    C114020   3.074   2.968  14.000 -0.3113  0.3819 -0.1196
   11MPD2    C214021   3.070   2.973  13.863 -0.4101  0.0945 -0.0564
   11MPD2    C314022   2.985   3.062  13.791  0.0261 -0.1285  0.2011
   11MPD2    C414023   2.902   3.146  13.868  0.3726  0.5836 -0.0705
   11MPD2    C514024   2.909   3.146  14.003  0.6442 -0.4851  0.0328
   11MPD2     H14025   3.133   2.900  13.814 -0.4134  0.9815 -1.4022
   11MPD2    H114026   2.839   3.222  13.824 -1.9995 -0.3884  1.6388
   11MPD2    H214027   2.987   3.052  14.177 -2.2773 -2.5431 -0.2851
   11MPD2    H314028   2.843   3.208  14.063  2.4908  1.8517 -0.3558
   11MPD2     N14029   2.992   3.074  13.651 -0.2762  0.1606  0.2877
   11MPD2    H514030   2.925   3.132  13.601  0.6994  2.1761  1.2946
   11MPD2    N114031   3.155   2.880  14.077  0.5638  0.0511 -0.3192
   11MPD2    H714032   3.203   2.816  14.014  1.8540 -0.3741  1.1118
    1MPD1     C14033   0.295   4.391  16.546 -0.2859 -0.6109  0.2428
    1MPD1    C114034   0.352   4.506  16.494 -0.1418 -0.5049  0.1597
    1MPD1    C214035   0.482   4.540  16.538 -1.1372  0.0515  0.8640
    1MPD1    C314036   0.564   4.459  16.618 -0.7250 -0.3702  0.4063
    1MPD1    C414037   0.504   4.336  16.664  0.0040  0.2238  0.1743
    1MPD1    C514038   0.371   4.307  16.625 -0.1594 -0.4067  0.4383
    1MPD1     H14039   0.524   4.632  16.498  2.2735 -0.8257  2.4135
    1MPD1    H114040   0.545   4.281  16.747 -2.3968 -0.3313  0.9851
    1MPD1    H214041   0.195   4.361  16.518 -0.5554  0.6926 -0.1717
    1MPD1    H314042   0.330   4.211  16.653 -1.3278 -0.3359 -1.0964
    1MPD1     N14043   0.698   4.484  16.645  0.1869 -0.6187 -0.7238
    1MPD1    H514044   0.751   4.404  16.677  0.6793  0.7578  1.9800
    1MPD1    N114045   0.275   4.600  16.426  0.2777 -0.8314 -0.1387
    1MPD1    H614046   0.200   4.565  16.367  0.1271 -0.8530  0.0652
    1MPD1    H714047   0.323   4.670  16.370 -0.3619 -0.7082 -0.5345
    2MPD1     C14048   1.502   0.477  16.700 -0.0642 -0.2899 -0.1437
    2MPD1    C114049   1.567   0.361  16.674  0.0979 -0.6236 -0.1628
    2MPD1    C214050   1.493   0.245  16.686 -0.3164 -0.2204 -1.0471
    2MPD1    C314051   1.358   0.245  16.700 -0.9541 -0.3068 -0.0281
    2MPD1    C414052   1.293   0.364  16.701  0.2593  0.1114  0.2353
    2MPD1    C514053   1.366   0.474  16.705  0.0882 -0.3600  0.7362
    2MPD1     H14054   1.539   0.147  16.686 -0.4883 -0.3070  0.9613
    2MPD1    H114055   1.185   0.371  16.707  0.0887 -0.6528 -1.6535
    2MPD1    H214056   1.552   0.572  16.718  0.6183 -1.0321  1.8971
    2MPD1    H314057   1.309   0.565  16.712  2.6264  1.2117  0.9642
    2MPD1     N14058   1.285   0.119  16.698 -0.0334 -0.1424 -0.2746
    2MPD1    H514059   1.336   0.031  16.691  0.1951 -0.0125 -0.2298
    2MPD1    N114060   1.706   0.344  16.666 -0.2105  0.0544  0.0821
    2MPD1    H614061   1.743   0.431  16.629 -0.9930  0.6604  0.7096
    2MPD1    H714062   1.726   0.265  16.606  1.2087  1.1831 -0.9274
    3TMC3    C114063   1.102   4.720  16.661 -0.6074 -0.1615  0.1260
    3TMC3    C214064   1.178   4.634  16.588 -0.6665  0.7757 -0.4066
    3TMC3    C314065   1.117   4.528  16.537 -0.3714 -0.1901 -0.3569
    3TMC3    C414066   0.965   4.707  16.675  0.3588 -0.0110 -0.0813
    3TMC3    C514067   0.904   4.590  16.630 -0.0190  0.1093 -0.7344
    3TMC3    C614068   0.985   4.507  16.561  0.1122 -0.0255  0.0528
    3TMC3     C14069   1.150   0.113  16.696  0.9868  0.3443  0.0778
    3TMC3     O14070   1.064   0.194  16.721 -0.0756 -0.0028  0.9741
    3TMC3     H14071   1.278   4.666  16.559  0.3569 -2.3020 -0.2420
    3TMC3    H114072   0.907   0.043  16.733  1.6731 -0.3634  1.6688
    3TMC3    H214073   0.931   4.425  16.515 -0.5073 -0.4823  1.5868
    3TMC3    C714074   0.759   4.600  16.618 -0.1375  0.8784 -0.4607
    3TMC3    C814075   1.186   4.446  16.434 -0.2438 -0.2853 -0.0846
    3TMC3    O114076   0.711   4.708  16.581  0.4604 -0.3434 -0.7595
    3TMC3    O214077   1.115   4.360  16.383  0.8738 -0.5387 -0.6526
    4MPD1     C14078   1.606   4.278  16.193 -0.0435 -0.2780  0.8554
    4MPD1    C114079   1.647   4.383  16.277  0.3307 -0.0466 -0.3899
    4MPD1    C214080   1.551   4.436  16.368 -0.5251 -0.1132  0.6835
    4MPD1    C314081   1.417   4.397  16.351  0.5786 -0.7184 -0.3252
    4MPD1    C414082   1.380   4.296  16.259 -0.3512 -0.0720  0.0120
    4MPD1    C514083   1.480   4.237  16.188 -0.0189 -0.6135  0.1877
    4MPD1     H14084   1.576   4.499  16.452  3.0988 -0.6360 -0.0050
    4MPD1    H114085   1.282   4.251  16.251  0.0540 -1.0084  0.2768
    4MPD1    H214086   1.669   4.229  16.120 -0.6235 -1.6559  1.2621
    4MPD1    H314087   1.452   4.144  16.141  0.5440 -0.8954  0.3991
    4MPD1     N14088   1.323   4.467  16.429 -0.3539  0.2297  0.1773
    4MPD1    H514089   1.363   4.540  16.487  1.2595 -0.5053 -0.0164
    4MPD1    N114090   1.786   4.392  16.300  0.3997  0.5721 -0.8881
    4MPD1    H614091   1.844   4.376  16.218  2.4850 -0.4996  0.7713
    4MPD1    H714092   1.806   4.484  16.339  1.7658  0.6083 -1.6785
    1TCq1    O114093   2.977   3.092  11.709 -0.1573 -0.3482 -0.2783
    1TCq1    C114094   2.922   3.031  11.605 -0.0884  0.5780  0.1320
    1TCq1    O214095   2.977   3.043  11.495  0.2827  0.2641  0.6247
    1TCq1    C214096   2.782   3.046  11.620 -0.0129  0.1727 -0.4986
    1TCq1    C314097   2.716   3.002  11.511 -0.2484 -0.5301 -0.0189
    1TCq1    C414098   2.590   3.034  11.491  0.1735 -0.1788  0.7916
    1TCq1    C514099   2.536   3.135  11.563 -0.4838  0.6090  0.2436
    1TCq1    C614100   2.610   3.186  11.667 -0.1439 -0.1517 -0.3128
    1TCq1    C714101   2.737   3.151  11.691 -0.3581  0.3158  0.1500
    1TCq1    C814102   2.560   3.300  11.746  0.9641  0.2015  0.7897
    1TCq1    O414103   2.593   3.311  11.861 -0.1471  0.1836  0.6042
    1TCq1    C914104   2.526   2.995  11.366  0.7070  0.1698  0.2411
    1TCq1    O514105   2.599   3.007  11.265 -0.5491 -0.3680 -0.5691
    1TCq1    O614106   2.402   2.988  11.369  0.2733  0.1053  0.4029
    1TCq1    H114107   2.928   3.077  11.793  1.4122  0.2191  0.7377
    1TCq1    H214108   2.759   2.913  11.466 -2.1585 -1.2708 -0.3547
    1TCq1    H314109   2.433   3.159  11.541 -0.8027 -1.6288 -0.6799
    1TCq1    H414110   2.788   3.202  11.772 -3.8981  0.9733  1.9418
    2MPD1     C14111   2.277   3.738  11.774  0.4225  0.3580  0.0388
    2MPD1    C114112   2.283   3.692  11.643 -0.2486  0.0975  0.3141
    2MPD1    C214113   2.355   3.576  11.607 -0.6823 -0.4538  0.3447
    2MPD1    C314114   2.420   3.501  11.700 -0.5841  0.0333  0.1039
    2MPD1    C414115   2.405   3.539  11.834  0.4818  0.6063  1.1306
    2MPD1    C514116   2.332   3.652  11.868 -0.2598 -0.4576 -0.1503
    2MPD1     H14117   2.370   3.556  11.501  2.3260  0.6059  0.5693
    2MPD1    H114118   2.445   3.484  11.918  1.6528  0.5770  0.5521
    2MPD1    H214119   2.230   3.834  11.794 -1.1662 -0.7000  1.4262
    2MPD1    H314120   2.322   3.681  11.972  0.3102  0.6357 -0.4074
    2MPD1     N14121   2.487   3.385  11.665  0.1038  0.3740 -0.4986
    2MPD1    H514122   2.461   3.357  11.571 -1.2368 -0.6913  0.1861
    2MPD1    N114123   2.207   3.766  11.551  0.2054  0.3330  0.7409
    2MPD1    H614124   2.125   3.812  11.589 -1.3015 -2.2640  0.6718
    2MPD1    H714125   2.179   3.700  11.478 -1.9678  1.6039  0.4372
    1TMC1    C114126   1.025   1.310   9.645  0.7541 -0.6559  0.3072
    1TMC1    C214127   1.107   1.409   9.687 -0.0379  0.6844 -0.3781
    1TMC1    C314128   1.092   1.526   9.630 -0.2462  0.6637  0.2621
    1TMC1    C414129   0.915   1.340   9.570  0.5180 -0.6852  0.1723
    1TMC1    C514130   0.887   1.464   9.534  0.0151 -0.1665 -0.4219
    1TMC1    C614131   0.985   1.553   9.550  0.3670  0.0419 -0.0559
    1TMC1     C14132   1.041   1.175   9.693 -0.3844  0.5169 -0.4401
    1TMC1     O14133   0.995   1.089   9.624 -0.1275  0.3868  0.1587
    1TMC1     H14134   1.186   1.392   9.759 -2.2823 -1.6697  1.5603
    1TMC1    H114135   0.850   1.254   9.552 -2.8582  1.6642  1.1165
    1TMC1    H214136   0.987   1.646   9.495 -0.5055  0.3348  0.4048
    1TMC1    C714137   0.783   1.488   9.441 -0.3581 -0.1563 -0.1524
    1TMC1    C814138   1.204   1.614   9.644 -0.0531 -0.4471  0.4245
    1TMC1    O114139   0.752   1.398   9.367  0.3586 -0.2257 -0.0529
    1TMC1    O214140   1.320   1.577   9.660  0.6053  0.2003 -0.0940
    1TMC1    O314141   0.759   1.620   9.429  0.4474 -0.1539  0.3065
    1TMC1    H314142   0.758   1.665   9.516 -2.7710  0.9344 -0.3081
    1TMC1    O514143   1.161   1.736   9.605  0.0185  0.1490 -0.4850
    1TMC1    H514144   1.070   1.761   9.632  1.0114  0.2257  2.8367
    2MPD1     C14145   1.144   0.845  10.077 -0.2675  0.4690 -0.4769
    2MPD1    C114146   1.184   0.967  10.123 -0.0138 -0.7669  0.4957
    2MPD1    C214147   1.157   1.081  10.039  0.1306 -0.1423 -0.8304
    2MPD1    C314148   1.105   1.063   9.908 -0.2836 -0.0214  0.1472
    2MPD1    C414149   1.087   0.927   9.861  0.1180  0.2062  0.0527
    2MPD1    C514150   1.103   0.825   9.952  0.1839 -0.1636 -0.6634
    2MPD1     H14151   1.168   1.180  10.083 -1.4520 -0.2264 -0.2336
    2MPD1    H114152   1.063   0.897   9.760  0.7113 -1.0622  0.2914
    2MPD1    H214153   1.166   0.760  10.141 -1.1119  0.5365 -0.0939
    2MPD1    H314154   1.097   0.723   9.918  0.1258  0.6498 -3.1312
    2MPD1     N14155   1.088   1.173   9.824  0.2507 -0.4377  0.1697
    2MPD1    H514156   1.102   1.261   9.871 -2.3366 -0.4733  1.0102
    2MPD1    N114157   1.210   0.981  10.257  0.1370 -0.4551 -0.5050
    2MPD1    H614158   1.279   1.053  10.277  1.4090 -1.3421 -1.6531
    2MPD1    H714159   1.246   0.892  10.292 -2.5651 -2.1132 -1.9800
    1MPD1     C14160   3.966   2.521  11.709 -0.4029 -0.5784  0.4196
    1MPD1    C114161   3.953   2.600  11.817 -0.0039 -0.3123 -1.0168
    1MPD1    C214162   3.953   2.737  11.794  0.5072 -0.2993 -0.2019
    1MPD1    C314163   3.935   2.784  11.663  0.5841 -0.6238  1.2634
    1MPD1    C414164   3.929   2.699  11.554 -0.0101 -0.2498 -0.3004
    1MPD1    C514165   3.962   2.567  11.579  0.5260 -0.3061 -0.7926
    1MPD1     H14166   3.957   2.811  11.874 -0.4309 -0.6159  0.1446
    1MPD1    H114167   3.950   2.735  11.453  2.9528 -0.9663  0.0423
    1MPD1    H214168   3.989   2.416  11.724 -0.2381 -0.0801  3.7757
    1MPD1    H314169   3.975   2.494  11.500  0.3450 -2.0171  0.7588
    1MPD1     N14170   3.917   2.929  11.643  0.0628 -0.0389  0.4184
    1MPD1    H514171   3.932   2.993  11.720 -2.1662  2.3152 -1.0878
    1MPD1    N114172   3.990   2.556  11.947  0.8477  0.5184  0.1250
    1MPD1    H614173   3.954   2.614  12.023 -0.1119 -0.2391  0.2392
    1MPD1    H714174   3.951   2.462  11.956  0.4779  0.5389 -1.4090
    2MPD1     C14175   2.796   4.073  11.778 -0.2778 -0.0694  0.4510
    2MPD1    C114176   2.795   4.107  11.647  0.3148  0.4276 -0.2757
    2MPD1    C214177   2.846   4.016  11.556 -0.6221  0.9425 -0.1865
    2MPD1    C314178   2.897   3.892  11.601 -0.3046  0.1801 -0.9850
    2MPD1    C414179   2.889   3.865  11.734  0.2328  0.7824  0.6972
    2MPD1    C514180   2.836   3.951  11.820  0.3849 -0.4713 -0.5273
    2MPD1     H14181   2.843   4.031  11.449 -0.9001 -0.9159 -0.4378
    2MPD1    H114182   2.932   3.774  11.776 -0.7189 -0.1122 -0.2757
    2MPD1    H214183   2.763   4.139  11.857 -2.3161  0.3120 -0.7080
    2MPD1    H314184   2.824   3.928  11.925 -0.5251  2.7522  0.0663
    2MPD1     N14185   2.940   3.797  11.508 -0.4113 -0.0380 -0.1421
    2MPD1    H514186   2.974   3.711  11.549 -0.3622  1.3743  2.7791
    2MPD1    N114187   2.761   4.239  11.611 -0.3859 -0.1661 -0.0440
    2MPD1    H614188   2.691   4.286  11.669 -0.7751  0.1249 -0.7480
    2MPD1    H714189   2.731   4.240  11.513 -0.5702  2.3436  0.0452
    3MPD1     C14190   2.647   3.128  10.771 -0.4941  0.2099  0.8224
    3MPD1    C114191   2.700   3.063  10.878  0.2757 -0.0441 -0.9377
    3MPD1    C214192   2.778   3.143  10.963  0.9633 -0.0489  0.1291
    3MPD1    C314193   2.803   3.276  10.945 -0.4693 -0.6421 -0.3391
    3MPD1    C414194   2.749   3.327  10.833 -0.3262 -0.3553 -0.0549
    3MPD1    C514195   2.685   3.253  10.735  0.3493  0.2814  0.0823
    3MPD1     H14196   2.820   3.094  11.051  1.5996 -1.3225 -0.8856
    3MPD1    H114197   2.776   3.430  10.812  1.5803 -1.0961 -1.1920
    3MPD1    H214198   2.571   3.086  10.705 -1.5567 -1.2655  2.9918
    3MPD1    H314199   2.631   3.312  10.663 -0.4977 -0.9462 -0.2941
    3MPD1     N14200   2.895   3.337  11.035  0.1454  0.2570  0.0040
    3MPD1    H514201   2.933   3.281  11.110  0.6478  1.0794  0.3638
    3MPD1    N114202   2.654   2.937  10.919 -0.1166  0.5238  0.1269
    3MPD1    H614203   2.642   2.870  10.843 -0.8978  2.3801 -1.3619
    3MPD1    H714204   2.702   2.888  10.995  1.3011  2.9332  0.7847
    4MPD2     C14205   3.823   3.685  11.791 -0.2431  0.2698 -0.1161
    4MPD2    C114206   3.936   3.661  11.712  0.8740  0.2181  0.6156
    4MPD2    C214207   3.997   3.764  11.640  0.1720  0.3332 -0.1896
    4MPD2    C314208   3.953   3.895  11.659  0.5460 -0.6625  0.8178
    4MPD2    C414209   3.844   3.919  11.736 -0.0779  0.5778 -0.4839
    4MPD2    C514210   3.787   3.820  11.814 -0.2851 -0.1546  0.4896
    4MPD2     H14211   4.072   3.729  11.570  1.1531  1.1182  0.4600
    4MPD2    H114212   3.807   4.021  11.731  2.0514  1.3980  0.1040
    4MPD2    H214213   3.773   3.611  11.851 -1.1517  1.2378  0.3090
    4MPD2    H314214   3.704   3.851  11.877 -0.1515 -0.5132  0.8424
    4MPD2     N14215   3.994   3.992  11.569  0.5256 -0.2460  0.4299
    4MPD2    H514216   3.915   4.055  11.562  0.9967  0.4557  1.5209
    4MPD2    N114217   3.999   3.536  11.699 -0.1179 -0.6096  0.4810
    4MPD2    H714218   4.075   3.539  11.631  0.4840  0.9000  1.2011
    5TMC3    C114219   4.005   3.305  11.668 -0.2649 -0.1265  0.2859
    5TMC3    C214220   3.919   3.198  11.643  0.4279 -0.0800  0.1479
    5TMC3    C314221   3.921   3.136  11.528  0.8367 -0.2023  0.4678
    5TMC3    C414222   4.099   3.334  11.573 -1.2951  0.3032 -0.0929
    5TMC3    C514223   4.093   3.269  11.455  0.0378 -0.7989 -0.1603
    5TMC3    C614224   4.010   3.166  11.431  0.5031 -0.0141  0.2489
    5TMC3     C14225   3.936   3.413  11.733  0.4236 -0.1490  0.0606
    5TMC3     O14226   3.825   3.385  11.770  0.0417 -0.6041 -0.0653
    5TMC3     H14227   3.833   3.173  11.704 -0.8171  2.3104 -0.6302
    5TMC3    H114228   4.169   3.414  11.591 -1.2403 -0.0761  1.3848
    5TMC3    H214229   4.010   3.120  11.333 -1.3191 -0.0975  0.3004
    5TMC3    C714230   4.115   3.364  11.350  0.3275  1.1456  0.0634
    5TMC3    C814231   3.885   2.995  11.526 -0.9694  0.0275  0.0867
    5TMC3    O114232   4.128   3.479  11.386  0.2891  0.0449 -0.4012
    5TMC3    O214233   3.848   2.955  11.416  0.0658 -0.0743  0.0237
    6TMC3    C114234   3.009   3.685  11.316 -0.1036 -0.7628  0.6608
    6TMC3    C214235   2.954   3.641  11.197  0.8626 -0.0655 -0.1370
    6TMC3    C314236   3.002   3.518  11.148 -0.2177 -0.3315 -0.5166
    6TMC3    C414237   3.110   3.619  11.378  0.0316 -0.5150 -0.2195
    6TMC3    C514238   3.157   3.505  11.321  0.2237  0.1972  0.0049
    6TMC3    C614239   3.103   3.448  11.207  0.0358  0.1661  0.5674
    6TMC3     C14240   2.951   3.803  11.370  0.7708  0.0686 -0.1764
    6TMC3     O14241   2.914   3.886  11.291  0.1022 -0.4992  0.1750
    6TMC3     H14242   2.880   3.702  11.147  1.5954  0.8460 -0.1201
    6TMC3    H114243   3.143   3.653  11.476 -3.6222  0.1126  0.8056
    6TMC3    H214244   3.146   3.365  11.152 -0.9800  1.6876 -2.5296
    6TMC3    C714245   3.304   3.476  11.350 -0.3346 -0.5288  0.4768
    6TMC3    C814246   2.928   3.470  11.031  0.0647  0.4138 -0.5041
    6TMC3    O114247   3.359   3.571  11.413 -0.8176  0.4021 -0.1070
    6TMC3    O214248   2.885   3.561  10.961  0.0419 -1.0363  0.5006
    7MPD2     C14249   4.182   3.494  10.858 -0.6817 -0.3632  0.0868
    7MPD2    C114250   4.179   3.570  10.970 -0.4143 -0.2839  1.0509
    7MPD2    C214251   4.157   3.513  11.097  0.0735 -0.8133  0.2878
    7MPD2    C314252   4.124   3.379  11.103 -0.0704 -0.5118  0.7035
    7MPD2    C414253   4.093   3.317  10.988  0.0048 -0.2757 -0.0873
    7MPD2    C514254   4.129   3.370  10.863 -0.2568 -0.0006 -1.0019
    7MPD2     H14255   4.189   3.572  11.183 -1.0343 -1.7270  1.3203
    7MPD2    H114256   4.063   3.213  10.988  2.4429 -0.9772 -0.5741
    7MPD2    H214257   4.207   3.533  10.760 -0.5382 -1.8033 -0.4487
    7MPD2    H314258   4.123   3.305  10.776 -1.9629 -2.3978  0.9040
    7MPD2     N14259   4.111   3.309  11.222  0.5072  0.0714  0.4715
    7MPD2    H514260   4.093   3.211  11.205 -0.6972  0.3467  0.1951
    7MPD2    N114261   4.220   3.705  10.951 -0.7679  0.6637  0.0354
    7MPD2    H714262   4.257   3.721  10.858 -0.7421 -0.0525 -0.0804
    8TMC3    C114263   4.101   3.819  11.142  0.1244 -0.1122  0.0197
    8TMC3    C214264   3.978   3.756  11.132  0.2353 -0.5620  0.0999
    8TMC3    C314265   3.892   3.777  11.237 -0.1540 -0.7421 -0.9151
    8TMC3    C414266   4.126   3.916  11.241  0.5927 -0.7198 -0.3122
    8TMC3    C514267   4.029   3.940  11.336 -0.3097  0.0371  0.3687
    8TMC3    C614268   3.911   3.874  11.334  0.3250 -0.7480  0.1860
    8TMC3     C14269   4.207   3.813  11.037 -0.6517  0.3004 -0.0134
    8TMC3     O14270   4.270   3.916  11.010  0.7709 -0.1855 -0.2545
    8TMC3     H14271   3.942   3.700  11.046  2.3221 -0.5282 -0.7861
    8TMC3    H114272   4.227   3.949  11.261  0.7150 -1.1840 -0.1731
    8TMC3    H214273   3.835   3.891  11.409  1.5433  0.1259  1.2041
    8TMC3    C714274   4.085   3.972  11.469  0.3538  0.2145  0.0595
    8TMC3    C814275   3.779   3.684  11.254  0.4798 -0.0330  0.4013
    8TMC3    O114276   4.201   3.944  11.485 -0.3204  0.3253  0.4223
    8TMC3    O214277   3.704   3.714  11.345  0.2385 -0.6358  0.2176
    9MPD2     C14278   3.742   3.332  11.160 -0.1160  0.0043  0.1481
    9MPD2    C114279   3.701   3.454  11.215  0.3823 -0.0080  0.5995
    9MPD2    C214280   3.571   3.472  11.257 -0.4494  0.6315 -0.0826
    9MPD2    C314281   3.494   3.358  11.260  0.9979  0.6756  0.3782
    9MPD2    C414282   3.536   3.243  11.207 -0.3395  1.2638 -0.0266
    9MPD2    C514283   3.657   3.224  11.156  0.3891  0.5295  0.1126
    9MPD2     H14284   3.540   3.572  11.285 -1.1491  0.3101  0.2956
    9MPD2    H114285   3.466   3.164  11.182  2.0182 -1.0864  0.8004
    9MPD2    H214286   3.834   3.324  11.104 -1.0081  1.2194 -1.4898
    9MPD2    H314287   3.680   3.133  11.102  1.7095  0.9556 -0.0615
    9MPD2     N14288   3.353   3.370  11.288  0.2271 -0.6271  0.1475
    9MPD2    H514289   3.293   3.293  11.257 -2.8378  1.2764  1.3335
    9MPD2    N114290   3.793   3.559  11.194  0.1062 -0.4635  0.4845
    9MPD2    H714291   3.877   3.533  11.144  0.2033  0.3492  0.2213
    1MPD1     C14292   3.901   3.124  16.569 -0.2667  0.5541  0.4733
    1MPD1    C114293   3.778   3.137  16.635  0.0274  0.3127  0.3123
    1MPD1    C214294   3.662   3.100  16.569 -0.5920 -0.5251  0.2198
    1MPD1    C314295   3.666   3.026  16.452 -0.6075 -0.1996  0.6571
    1MPD1    C414296   3.791   3.008  16.393  0.0833 -0.8953 -0.0606
    1MPD1    C514297   3.906   3.053  16.452  0.7872  0.0316  0.4348
    1MPD1     H14298   3.565   3.118  16.615 -0.9739  0.4478 -0.9443
    1MPD1    H114299   3.802   2.957  16.298 -0.6265 -0.3336 -0.4430
    1MPD1    H214300   3.991   3.163  16.614 -0.6596  2.8873 -0.7828
    1MPD1    H314301   3.999   3.026  16.403 -1.5093 -2.1810 -2.6302
    1MPD1     N14302   3.552   2.977  16.385  0.3004  0.6699  0.1881
    1MPD1    H514303   3.572   2.905  16.316  0.8267  2.4846 -1.5564
    1MPD1    N114304   3.779   3.205  16.758  0.1094 -0.1509 -0.1873
    1MPD1    H614305   3.863   3.173  16.806  0.4646  0.5992 -0.3006
    1MPD1    H714306   3.695   3.189  16.813 -0.7414  3.2255 -0.5071
    2TMC2    C114307   3.109   2.849  16.301  0.6241 -0.3763 -0.0452
    2TMC2    C214308   3.143   2.821  16.170  0.2586 -0.4358 -0.1876
    2TMC2    C314309   3.270   2.856  16.122  0.4341 -0.1110 -0.3161
    2TMC2    C414310   3.200   2.889  16.390  0.1471  0.0335 -0.5928
    2TMC2    C514311   3.326   2.920  16.343 -0.5811  0.3930  0.3242
    2TMC2    C614312   3.357   2.917  16.208 -0.4125 -0.1972 -0.8706
    2TMC2     C14313   2.987   2.777  16.342  0.3635 -0.3126 -0.1916
    2TMC2     O14314   2.945   2.697  16.260  0.5902 -0.3051  0.1347
    2TMC2     H14315   3.074   2.772  16.102  1.1736 -2.4503  0.3047
    2TMC2    H114316   3.183   2.891  16.497  1.0719  0.0160 -0.4466
    2TMC2    H214317   3.447   2.963  16.169  0.3248 -0.8871  0.0140
    2TMC2    C714318   3.423   2.974  16.436  0.1956  0.3023  0.6539
    2TMC2    C814319   3.305   2.832  15.984 -0.0160 -0.4375  0.0513
    2TMC2    O114320   3.380   3.022  16.540 -0.3035 -0.6389  0.1904
    2TMC2    O214321   3.234   2.787  15.895 -0.7582  0.0901  0.5603
    2TMC2    O514322   3.436   2.816  15.988  0.0712 -1.1142 -0.8921
    2TMC2    H514323   3.475   2.786  16.073  0.5065 -2.6309 -1.6307
    3MPD1     C14324   2.578   2.685  16.654 -0.4925 -0.2585 -0.0093
    3MPD1    C114325   2.650   2.796  16.692  0.2959 -0.4351  0.4744
    3MPD1    C214326   2.759   2.837  16.617  0.2686 -1.0383 -0.1260
    3MPD1    C314327   2.804   2.775  16.504  0.5533  0.0170  0.1037
    3MPD1    C414328   2.723   2.669  16.463  0.7460  0.2189 -0.4880
    3MPD1    C514329   2.616   2.619  16.536  0.2599 -0.4437  0.7546
    3MPD1     H14330   2.820   2.919  16.651 -0.2409 -0.6680 -0.1082
    3MPD1    H114331   2.750   2.615  16.373 -0.7126  0.2914 -0.9739
    3MPD1    H214332   2.503   2.644  16.720 -2.0917  2.8209  0.1074
    3MPD1    H314333   2.572   2.524  16.507  1.9303 -0.5989 -1.3305
    3MPD1     N14334   2.924   2.824  16.456  0.5437  0.5093  0.0674
    3MPD1    H514335   2.962   2.908  16.498  0.3877  0.1877  0.8493
    3MPD1    N114336   2.633   2.857  16.821  0.1295 -0.3024 -0.4388
    3MPD1    H614337   2.666   2.951  16.800  2.0003 -0.6955  0.7524
    3MPD1    H714338   2.535   2.860  16.850  0.4739  1.8845  0.4910
    1TMC1    C114339   2.011   1.976  12.998  0.5411 -0.6062 -0.1172
    1TMC1    C214340   1.994   1.840  12.980  0.1069 -0.0868  0.8764
    1TMC1    C314341   1.866   1.792  12.975  0.2328  0.8265 -0.1340
    1TMC1    C414342   1.904   2.057  13.023  0.3336 -0.1459  0.7095
    1TMC1    C514343   1.781   1.999  13.027 -0.7881 -0.9039 -0.7279
    1TMC1    C614344   1.760   1.868  13.006 -0.3926 -0.1331  0.3277
    1TMC1     C14345   2.136   2.022  13.060 -0.4129 -0.0719 -0.3828
    1TMC1     O14346   2.142   2.136  13.106 -0.0259  0.5561  0.4163
    1TMC1     H14347   2.067   1.772  12.939  0.8160  1.4221 -0.3887
    1TMC1    H114348   1.918   2.160  13.053  1.3167 -0.2042  0.4486
    1TMC1    H214349   1.664   1.825  13.031 -0.7766 -0.4330 -1.6459
    1TMC1    C714350   1.666   2.076  13.058  0.3990  0.2121  0.3069
    1TMC1    C814351   1.865   1.655  13.025  0.4123 -0.5153 -0.5400
    1TMC1    O114352   1.565   2.029  13.106 -0.5541 -0.7368  0.9905
    1TMC1    O214353   1.965   1.592  13.060 -0.2338 -0.1930 -0.5127
    1TMC1    O314354   1.687   2.202  13.029 -0.2148 -0.2010 -0.2120
    1TMC1    H314355   1.754   2.207  12.958  0.3408  3.0018  0.5224
    1TMC1    O514356   1.750   1.598  12.982  0.6085 -0.2630 -0.4171
    1TMC1    H514357   1.675   1.654  12.954  0.9417 -0.1767 -1.1360
    2MPD2     C14358   2.392   2.036  13.194  0.2968 -0.2375  0.3778
    2MPD2    C114359   2.356   1.937  13.102 -0.3492 -0.1400  0.3657
    2MPD2    C214360   2.449   1.845  13.065  0.0484  0.2447 -1.3003
    2MPD2    C314361   2.580   1.853  13.112 -0.1228 -0.0182 -0.0605
    2MPD2    C414362   2.605   1.937  13.213 -0.5252  0.2415 -0.2582
    2MPD2    C514363   2.510   2.029  13.259 -0.2160  0.0534 -0.7807
    2MPD2     H14364   2.420   1.784  12.980 -0.2315 -0.5018 -0.6640
    2MPD2    H114365   2.699   1.943  13.265 -0.0310  1.0394 -1.2500
    2MPD2    H214366   2.333   2.123  13.222 -0.7563 -1.5411  2.1520
    2MPD2    H314367   2.535   2.093  13.342 -0.5895  1.5220 -1.7977
    2MPD2     N14368   2.675   1.763  13.059 -0.2182  0.2434  0.1681
    2MPD2    H514369   2.642   1.692  12.995  0.1655  0.5905 -0.4138
    2MPD2    N114370   2.237   1.939  13.035  0.0556 -0.0498 -0.3236
    2MPD2    H714371   2.224   1.867  12.964 -0.0951 -1.8578  1.5449
    3TCq1    O114372   3.314   1.604  13.000  0.3833 -0.2570 -0.0136
    3TCq1    C114373   3.241   1.688  12.924 -0.6820 -0.3875  0.5031
    3TCq1    O214374   3.269   1.807  12.907 -0.1816 -0.4039  0.0714
    3TCq1    C214375   3.109   1.636  12.940  0.3309 -0.5653 -0.4590
    3TCq1    C314376   3.078   1.509  12.897  0.4164  0.3274 -1.7561
    3TCq1    C414377   2.946   1.473  12.900 -0.0390 -0.4232  0.0722
    3TCq1    C514378   2.857   1.557  12.964 -0.4996 -0.2835  0.4180
    3TCq1    C614379   2.893   1.683  12.998  0.0258 -0.7550 -0.4079
    3TCq1    C714380   3.014   1.728  12.988  0.3733  0.5490 -0.8578
    3TCq1    C814381   2.813   1.760  13.086 -0.4000 -0.1373 -0.4877
    3TCq1    O414382   2.872   1.837  13.162  0.1419 -0.6879 -0.4223
    3TCq1    C914383   2.903   1.343  12.862  0.1214 -0.2720 -0.9719
    3TCq1    O514384   2.990   1.276  12.802  0.3217  0.8446 -0.0086
    3TCq1    O614385   2.788   1.306  12.895 -0.3031  0.0696  0.6585
    3TCq1    H114386   3.262   1.522  13.016 -0.3284 -0.0829 -1.5136
    3TCq1    H214387   3.152   1.441  12.857  1.0882 -0.3865  0.7044
    3TCq1    H314388   2.762   1.512  12.993  0.0360 -2.4532 -1.1201
    3TCq1    H414389   3.049   1.827  13.017 -0.3492  0.8796 -1.1348
    1MPD2     C14390   1.159   3.137  14.649 -0.2657  0.2149 -0.2721
    1MPD2    C114391   1.044   3.102  14.583  0.2084  0.3182  0.5765
    1MPD2    C214392   1.020   2.965  14.561  0.1832 -0.3990  0.2414
    1MPD2    C314393   1.117   2.866  14.594  0.6526  0.1862 -0.4250
    1MPD2    C414394   1.234   2.910  14.652 -0.0355  0.1626  0.0026
    1MPD2    C514395   1.249   3.042  14.678  0.0430  0.3799  0.9253
    1MPD2     H14396   0.924   2.930  14.524  0.9619  0.0061 -2.1946
    1MPD2    H114397   1.317   2.842  14.670  0.8144  1.2312  0.0977
    1MPD2    H214398   1.176   3.239  14.682  0.7807 -0.0375 -0.0189
    1MPD2    H314399   1.345   3.074  14.718  0.1599  0.1096  0.8585
    1MPD2     N14400   1.090   2.729  14.557  0.1325  0.3431  0.1457
    1MPD2    H514401   1.011   2.715  14.495 -0.7641  1.1702  1.0752
    1MPD2    N114402   0.949   3.198  14.556  0.1596  0.1360 -0.1040
    1MPD2    H714403   0.965   3.288  14.600 -0.5474  0.3820 -0.3426
    2TMC3    C114404   0.735   3.274  14.531  0.3997  0.1819 -0.2106
    2TMC3    C214405   0.643   3.217  14.617  0.0038 -0.6599 -0.0670
    2TMC3    C314406   0.512   3.245  14.601 -0.0141 -0.5541 -0.9019
    2TMC3    C414407   0.699   3.360  14.437 -0.4681  0.1861  0.2172
    2TMC3    C514408   0.568   3.393  14.418  0.0068  0.1777 -0.8109
    2TMC3    C614409   0.475   3.333  14.505  0.0429 -0.2125  0.8025
    2TMC3     C14410   0.839   3.181  14.486  0.2233 -0.5373  0.7131
    2TMC3     O14411   0.798   3.085  14.423 -0.0992 -0.0344 -0.4219
    2TMC3     H14412   0.680   3.144  14.688  2.2911  1.0445  0.5034
    2TMC3    H114413   0.773   3.378  14.360 -1.4272  0.3432 -0.6677
    2TMC3    H214414   0.374   3.330  14.467 -0.0202  0.5427  0.9126
    2TMC3    C714415   0.519   3.451  14.300 -0.4152  0.1634  0.2037
    2TMC3    C814416   0.432   3.123  14.596  0.0863 -0.3814  0.0801
    2TMC3    O114417   0.400   3.438  14.277  0.0178 -0.1031 -0.7742
    2TMC3    O214418   0.310   3.133  14.599 -0.7833 -0.0237 -0.0344
    3TCq1    O114419   0.949   4.191  13.442 -0.5853  0.2660 -0.1916
    3TCq1    C114420   0.981   4.271  13.546 -0.2523  0.7372  0.0899
    3TCq1    O214421   1.058   4.362  13.545  0.2968  0.0599  0.3257
    3TCq1    C214422   0.958   4.198  13.671 -0.2629 -0.3051  0.2635
    3TCq1    C314423   1.039   4.221  13.783 -0.1274 -0.9058 -0.1711
    3TCq1    C414424   1.018   4.149  13.897 -0.3897  0.4442  0.4304
    3TCq1    C514425   0.915   4.061  13.902  0.0888  0.0896  0.5747
    3TCq1    C614426   0.831   4.042  13.792 -0.3150 -0.0416  0.0449
    3TCq1    C714427   0.849   4.115  13.672  1.0579  0.0675  0.1417
    3TCq1    C814428   0.729   3.941  13.795 -0.2471  0.6695  0.0979
    3TCq1    O414429   0.664   3.929  13.694  0.7223  0.2990  0.1365
    3TCq1    C914430   1.102   4.164  14.016 -0.2628 -0.0250 -0.3532
    3TCq1    O514431   1.068   4.099  14.117  0.5126  0.2437  0.1753
    3TCq1    O614432   1.214   4.223  14.004  0.4641  0.1119  0.1698
    3TCq1    H114433   0.912   4.104  13.466  2.0696 -0.0867  2.6418
    3TCq1    H214434   1.122   4.288  13.764 -2.8382  2.7994  1.1256
    3TCq1    H314435   0.906   3.992  13.985  0.8131 -0.5622  0.1187
    3TCq1    H414436   0.789   4.092  13.585  0.6342  1.3257  0.1038
    4MPD2     C14437   0.548   3.716  13.868  0.0142 -0.0635 -0.0464
    4MPD2    C114438   0.654   3.752  13.945  0.0865 -0.2029  0.9351
    4MPD2    C214439   0.677   3.677  14.060  0.1546  0.2313 -0.5245
    4MPD2    C314440   0.584   3.586  14.107 -0.5442 -0.3964 -0.5689
    4MPD2    C414441   0.485   3.541  14.022  0.0705 -0.2963  0.0864
    4MPD2    C514442   0.463   3.613  13.911 -0.3788  0.2233  0.1140
    4MPD2     H14443   0.754   3.705  14.130  0.1365 -0.1580 -0.3511
    4MPD2    H114444   0.412   3.464  14.043  1.8706 -2.1769 -0.6058
    4MPD2    H214445   0.517   3.775  13.782 -1.5725  0.2236  0.7221
    4MPD2    H314446   0.381   3.591  13.843 -0.3304  2.5884 -0.7138
    4MPD2     N14447   0.613   3.522  14.232  0.3020  0.2950 -0.2371
    4MPD2    H514448   0.697   3.553  14.279 -0.4258  1.3337  0.3853
    4MPD2    N114449   0.732   3.867  13.912 -0.1256 -0.6867  0.1846
    4MPD2    H714450   0.808   3.897  13.973  0.4426 -0.8918 -0.4231
    5TMC2    C114451   0.869   2.480  14.491  0.4320 -0.1629  0.7329
    5TMC2    C214452   0.837   2.416  14.607  0.1913 -0.3330 -0.5873
    5TMC2    C314453   0.924   2.403  14.710 -0.0296 -0.1555  0.5058
    5TMC2    C414454   0.995   2.521  14.473 -0.0082  0.9011  0.4578
    5TMC2    C514455   1.091   2.502  14.573  0.2745  0.5041  0.1445
    5TMC2    C614456   1.055   2.446  14.691 -0.2011  0.3307 -0.2311
    5TMC2     C14457   0.780   2.582  14.444  0.1269 -0.6908  0.1032
    5TMC2     O14458   0.839   2.690  14.434  1.0168  0.5270 -0.7629
    5TMC2     H14459   0.736   2.380  14.623  0.6846 -0.6714  1.7166
    5TMC2    H114460   1.022   2.565  14.378  2.1653 -0.1301  0.5980
    5TMC2    H214461   1.129   2.446  14.770 -1.0384 -0.6885  0.5467
    5TMC2    C714462   1.161   2.620  14.592  0.4243  0.5596 -0.0248
    5TMC2    C814463   0.864   2.387  14.841 -0.2871 -0.1855 -0.0197
    5TMC2    O114464   1.236   2.612  14.689 -0.2537 -0.4021  0.3963
    5TMC2    O214465   0.745   2.382  14.853  0.2114 -0.2009 -0.0853
    5TMC2    O514466   0.956   2.342  14.924  0.6306  0.7070 -0.2815
    5TMC2    H514467   1.042   2.329  14.879  0.7543  0.0933  0.1269
    6MPD2     C14468   0.345   2.839  14.524  0.3418  0.0324  0.4297
    6MPD2    C114469   0.480   2.881  14.534 -0.7214  0.2107 -0.3065
    6MPD2    C214470   0.575   2.783  14.511 -0.5344 -0.0954  0.5169
    6MPD2    C314471   0.550   2.656  14.479 -0.1164 -0.4251 -0.0870
    6MPD2    C414472   0.415   2.614  14.462  0.1117  0.5883  0.1685
    6MPD2    C514473   0.317   2.714  14.473 -0.1826  1.0614 -0.0831
    6MPD2     H14474   0.678   2.809  14.529 -0.9697 -0.1884  3.1098
    6MPD2    H114475   0.373   2.518  14.436  0.6849  0.5440 -0.5947
    6MPD2    H214476   0.264   2.908  14.545  0.6372  0.1471  1.1853
    6MPD2    H314477   0.212   2.700  14.451 -0.5043  1.2937  1.2499
    6MPD2     N14478   0.644   2.555  14.457  0.0329 -0.1481 -0.6199
    6MPD2    H514479   0.605   2.461  14.468  1.6380 -0.9326 -1.6931
    6MPD2    N114480   0.517   3.016  14.565  0.2352  0.6684 -0.3959
    6MPD2    H714481   0.617   3.034  14.561  0.1720  1.1551  0.2053
  945NH4     N114482   3.176   0.329  10.455 -0.7524 -0.7095 -0.1911
  945NH4     H214483   3.202   0.356  10.359 -1.6830  2.3999  0.4410
  945NH4     H314484   3.098   0.391  10.485  0.2489 -0.5877  2.1910
  945NH4     H414485   3.259   0.336  10.517 -0.7046  1.3593 -0.5163
  945NH4     H514486   3.149   0.228  10.455  0.4145 -1.0290  0.8060
  946SOD     NA14487   0.608   2.053   9.416 -0.0353  0.0736 -0.6557
  947SOD     NA14488   2.591   3.976  14.515 -0.7910  0.4331 -0.1641
  948SOD     NA14489   3.392   3.703  13.235 -0.1244  0.0825  0.2914
  949SOD     NA14490   3.076   0.895  16.145  0.1764 -0.0677 -0.4618
  950SOD     NA14491   3.593   3.395  11.696  0.0748 -0.2106  0.0407
  951SOD     NA14492   4.717   2.483   2.872  0.2528 -0.1626 -0.1327
  952SOD     NA14493   0.643   0.225   7.362 -0.0465  0.6283 -0.5345
  953SOL     OW14494   1.639   1.366   2.990  0.7499 -0.3340 -0.1133
  953SOL    HW114495   1.622   1.399   3.078  0.8731  0.6988 -0.4704
  953SOL    HW214496   1.709   1.304   3.010  0.0557 -0.1321  2.9704
  954SOL     OW14497   3.539   3.927   5.663 -0.3616  0.4549 -0.5288
  954SOL    HW114498   3.506   3.855   5.609 -2.5810  0.5652  0.6776
  954SOL    HW214499   3.518   3.896   5.751  0.7431 -1.4867 -0.9251
  955SOL     OW14500   1.787   4.318   3.149  0.0102  0.0120 -0.6413
  955SOL    HW114501   1.720   4.384   3.165 -0.0088 -0.2521  0.3765
  955SOL    HW214502   1.847   4.373   3.098  0.4112 -1.0442 -1.3035
  956SOL     OW14503   1.634   3.730  12.053  0.2443 -0.3272  0.0978
  956SOL    HW114504   1.669   3.816  12.032 -1.5149  0.6874  1.3431
  956SOL    HW214505   1.545   3.755  12.078 -0.0390 -0.5023 -0.7372
  957SOL     OW14506   1.703   1.122   7.064  0.5010  0.0852 -0.0434
  957SOL    HW114507   1.766   1.160   7.126  0.3977 -0.5828  0.4775
  957SOL    HW214508   1.623   1.104   7.113  0.2672  1.5734  0.1167
  958SOL     OW14509   1.766   0.958  16.689  0.4115  0.2510 -0.4581
  958SOL    HW114510   1.717   0.916  16.760 -0.0221 -0.7324 -1.3517
  958SOL    HW214511   1.850   0.980  16.729  0.0552 -0.1830  0.5348
  959SOL     OW14512   4.528   2.350  11.371 -0.1245 -0.2156 -0.2685
  959SOL    HW114513   4.523   2.438  11.333 -0.2032 -0.6920 -1.3611
  959SOL    HW214514   4.459   2.348  11.437 -1.9667  0.4307 -2.1667
  960SOL     OW14515   2.786   0.333   2.215  0.1909 -0.3833 -0.1144
  960SOL    HW114516   2.796   0.302   2.305  0.9382  0.1916 -0.0031
  960SOL    HW214517   2.691   0.347   2.212  0.1343 -0.7430 -0.0677
  961SOL     OW14518   0.677   0.653  13.916 -0.3867  0.0021  0.0043
  961SOL    HW114519   0.695   0.612  14.001  1.4701 -1.0561 -0.9021
  961SOL    HW214520   0.637   0.728  13.959  0.1809  0.5723 -0.4688
  962SOL     OW14521   2.989   1.148   2.036  0.0384 -0.4207 -0.4831
  962SOL    HW114522   2.936   1.139   1.957 -0.7337 -0.5963  0.0502
  962SOL    HW214523   2.995   1.243   2.039 -1.5907 -0.2131 -4.0289
  963SOL     OW14524   4.188   0.642   2.903 -0.5409 -0.1194  0.6058
  963SOL    HW114525   4.200   0.575   2.836 -2.2747  1.6471 -1.4701
  963SOL    HW214526   4.129   0.603   2.967 -1.2367  0.9269  0.6010
  964SOL     OW14527   4.553   2.402  11.059 -0.5569 -0.0314 -0.0084
  964SOL    HW114528   4.478   2.377  11.004 -0.9947  0.0293  0.5610
  964SOL    HW214529   4.605   2.322  11.053 -0.1196  0.1223  1.7323
  965SOL     OW14530   4.282   1.672   2.177  0.3372  0.1932 -0.3428
  965SOL    HW114531   4.327   1.664   2.261  1.2940  0.4721 -0.8318
  965SOL    HW214532   4.194   1.698   2.206  1.2653  0.7713  1.9238
  966SOL     OW14533   4.000   1.537   2.034  0.3116  0.3336  0.4555
  966SOL    HW114534   4.051   1.614   2.060 -1.2261  1.0105  1.5351
  966SOL    HW214535   3.995   1.496   2.120  0.7086 -1.3001 -0.3157
  967SOL     OW14536   2.417   0.973   5.825  0.3467  0.5208 -0.1886
  967SOL    HW114537   2.454   0.890   5.856  1.4566  0.2874 -2.1357
  967SOL    HW214538   2.480   1.017   5.768 -0.3939 -1.0312 -2.2377
  968SOL     OW14539   0.689   3.517  16.613 -0.0072  0.0729 -0.0681
  968SOL    HW114540   0.739   3.596  16.635 -0.8569  0.4442  0.5226
  968SOL    HW214541   0.690   3.470  16.696  0.5404  3.7312  1.9925
  969SOL     OW14542   3.273   1.506   1.359 -0.1757 -0.3450  0.1070
  969SOL    HW114543   3.260   1.423   1.312  0.3070 -0.9598  1.0427
  969SOL    HW214544   3.368   1.496   1.371 -0.1488 -0.1763  0.0354
  970SOL     OW14545   2.693   4.674   5.415  0.3535 -0.2471 -0.1374
  970SOL    HW114546   2.605   4.649   5.443  0.4923 -0.8930 -0.2686
  970SOL    HW214547   2.723   4.719   5.494  0.9301 -1.9640  0.6344
  971SOL     OW14548   3.264   3.208  16.680 -0.0537 -0.0490 -0.0388
  971SOL    HW114549   3.248   3.255  16.597  1.1387 -0.1018 -0.2989
  971SOL    HW214550   3.306   3.130  16.644  1.0711 -0.7248  2.7503
  972SOL     OW14551   3.576   3.227  11.531 -0.1581  0.3497 -0.1139
  972SOL    HW114552   3.574   3.227  11.435  2.2027 -1.1059 -0.1658
  972SOL    HW214553   3.495   3.177  11.541  0.4687 -0.2874  1.7033
  973SOL     OW14554   1.640   0.505   8.688  0.1547  0.2337 -0.5479
  973SOL    HW114555   1.607   0.507   8.778 -1.7543  0.2447 -1.2537
  973SOL    HW214556   1.730   0.533   8.701 -0.0118  1.0368 -1.1696
  974SOL     OW14557   3.003   0.545   3.670  0.2883  0.3180  0.1268
  974SOL    HW114558   3.033   0.627   3.708  3.3309 -0.6743 -0.1153
  974SOL    HW214559   3.089   0.506   3.655 -0.0311 -1.1241  1.8672
  975SOL     OW14560   1.375   0.443   1.654 -0.3850  0.2877 -0.4835
  975SOL    HW114561   1.424   0.363   1.673 -1.8404 -0.0390  1.7818
  975SOL    HW214562   1.361   0.447   1.559 -2.9011  0.7808 -0.0703
  976SOL     OW14563   4.007   4.694   9.005 -0.3084 -0.7461 -0.2859
  976SOL    HW114564   3.916   4.723   9.007 -0.7719 -2.3071  1.0123
  976SOL    HW214565   4.037   4.717   9.093  0.2636  0.2753 -0.7487
  977SOL     OW14566   0.400   1.345   0.253 -0.3985 -0.0548 -0.3233
  977SOL    HW114567   0.422   1.410   0.185 -1.8157 -1.0359 -1.7167
  977SOL    HW214568   0.307   1.364   0.267 -0.6143  0.3703 -2.2674
  978SOL     OW14569   0.848   4.262   6.898  0.1797 -0.5950 -0.1348
  978SOL    HW114570   0.782   4.330   6.906  1.3368  0.4606  0.4583
  978SOL    HW214571   0.918   4.295   6.955  0.5279 -0.1105 -0.8430
  979SOL     OW14572   0.228   0.362   7.292  0.0116  0.4235 -0.8997
  979SOL    HW114573   0.147   0.334   7.336  0.8210 -3.4712 -1.9311
  979SOL    HW214574   0.210   0.341   7.200 -0.1493  1.8873 -1.2111
  980SOL     OW14575   4.375   1.216  12.921 -0.2287  0.6959 -0.7491
  980SOL    HW114576   4.375   1.308  12.894  0.9043  0.9791  0.2054
  980SOL    HW214577   4.297   1.218  12.976  0.8161  0.6590  0.7283
  981SOL     OW14578   1.123   0.949  17.474  0.2716 -0.1050  0.4068
  981SOL    HW114579   1.154   0.911  17.391  1.2127 -1.0389  1.1905
  981SOL    HW214580   1.128   0.871  17.530  0.0409  0.8950  1.8099
  982SOL     OW14581   1.176   1.019  15.458 -0.7301  0.3278 -0.9370
  982SOL    HW114582   1.096   1.062  15.428 -1.6959 -2.1500 -1.9099
  982SOL    HW214583   1.181   0.950  15.392  0.7140 -0.9920  0.5629
  983SOL     OW14584   3.961   4.429   2.522  0.3133 -0.1107 -0.3344
  983SOL    HW114585   3.953   4.522   2.542  0.0497  0.0002 -0.9910
  983SOL    HW214586   4.038   4.421   2.466 -0.1560  0.7827 -1.0869
  984SOL     OW14587   0.097   0.672   9.952  0.4128  0.0196  0.2676
  984SOL    HW114588   0.010   0.637   9.931  1.2427 -1.2470 -0.9697
  984SOL    HW214589   0.095   0.741   9.886  0.5990  0.9691  1.2392
  985SOL     OW14590   4.572   0.946   4.590 -0.4159  0.1114  0.5871
  985SOL    HW114591   4.552   0.856   4.614 -0.8268 -0.8741 -3.4114
  985SOL    HW214592   4.502   0.980   4.646 -0.2952  2.4236 -0.6478
  986SOL     OW14593   3.259   2.132   3.635  0.0837 -0.3135 -0.2065
  986SOL    HW114594   3.173   2.142   3.594  0.0100  1.1166  0.2928
  986SOL    HW214595   3.226   2.086   3.712 -0.5568 -0.0830 -0.3409
  987SOL     OW14596   4.093   4.601   5.104  0.1918  0.0409  0.0684
  987SOL    HW114597   4.049   4.522   5.070  0.5033 -0.4881  0.8813
  987SOL    HW214598   4.128   4.625   5.019  0.1993  1.1079  0.3804
  988SOL     OW14599   4.541   4.626   7.806  0.3109  0.2892  0.6701
  988SOL    HW114600   4.601   4.666   7.742  1.0173  0.0688  1.1982
  988SOL    HW214601   4.608   4.572   7.849  1.8715  1.0264 -0.8009
  989SOL     OW14602   3.752   3.727  12.996  0.1341 -0.4151  0.4344
  989SOL    HW114603   3.806   3.781  12.939  2.2328 -3.9239 -0.8781
  989SOL    HW214604   3.826   3.680  13.035  2.8151  2.1049 -1.5901
  990SOL     OW14605   2.107   1.901  10.789  0.1205 -0.0556  0.3329
  990SOL    HW114606   2.058   1.886  10.708  0.9418 -1.4947  0.0886
  990SOL    HW214607   2.046   1.871  10.856  0.1541  0.1075  0.4353
  991SOL     OW14608   1.895   2.753   5.688  0.1316 -0.2820  0.5900
  991SOL    HW114609   1.844   2.694   5.633  0.2397 -1.5143  1.7791
  991SOL    HW214610   1.977   2.713   5.657  1.2548  0.2491  2.8415
  992SOL     OW14611   3.311   0.636   9.642  0.0298  0.2498  0.0788
  992SOL    HW114612   3.299   0.551   9.600  1.0536 -0.8966  2.0944
  992SOL    HW214613   3.241   0.689   9.603 -1.9152 -3.2885 -1.2142
  993SOL     OW14614   2.757   2.358   7.379 -0.9966 -0.0589  0.6470
  993SOL    HW114615   2.807   2.437   7.363  0.2097 -1.1029 -0.7573
  993SOL    HW214616   2.737   2.368   7.472 -2.0791 -0.5412  0.4646
  994SOL     OW14617   3.232   3.992   5.128 -0.2630  0.2782 -0.1773
  994SOL    HW114618   3.186   4.072   5.154  1.5064  0.7067  1.6847
  994SOL    HW214619   3.321   4.012   5.158  0.1392  2.3931 -2.8469
  995SOL     OW14620   0.931   1.310   3.632  0.3008  0.3109  0.4616
  995SOL    HW114621   0.936   1.260   3.714  1.6895  1.6021  1.1514
  995SOL    HW214622   1.016   1.353   3.623  0.0962  1.0277  1.9727
  996SOL     OW14623   1.573   3.320   7.915  0.1734  0.1068 -0.0727
  996SOL    HW114624   1.500   3.262   7.894  1.0203 -0.7304 -0.7148
  996SOL    HW214625   1.645   3.258   7.926 -0.5429 -0.4364  1.4254
  997SOL     OW14626   3.009   4.612   7.706  0.0080 -0.4416 -0.2299
  997SOL    HW114627   3.044   4.669   7.775 -1.4903  0.5897 -0.3078
  997SOL    HW214628   3.048   4.532   7.740  1.1546 -0.0068 -0.5388
  998SOL     OW14629   0.075   0.158  14.517  0.0921  0.1836 -0.1098
  998SOL    HW114630   0.140   0.199  14.574 -0.2252  0.5792 -0.0348
  998SOL    HW214631   0.061   0.223  14.449  0.7962  0.0706 -0.3703
  999SOL     OW14632   3.053   2.785   7.150  0.6318 -0.0776  1.2057
  999SOL    HW114633   2.973   2.828   7.181  1.2334  0.7488  1.6048
  999SOL    HW214634   3.114   2.841   7.196  1.6037 -1.5417  1.6884
 1000SOL     OW14635   3.037   1.613   9.244  0.3239 -0.6746 -0.3575
 1000SOL    HW114636   2.964   1.595   9.303  0.4526 -1.6625 -0.4970
 1000SOL    HW214637   3.092   1.655   9.311 -0.7263 -0.3766  0.3176
 1001SOL     OW14638   1.942   0.495   8.757 -0.3810 -0.1982  0.5877
 1001SOL    HW114639   2.028   0.525   8.727 -0.6166 -0.5165 -0.4033
 1001SOL    HW214640   1.951   0.404   8.785  0.3096  0.1808  1.6118
 1002SOL     OW14641   3.374   0.077   3.416  0.0737 -0.4659 -0.5693
 1002SOL    HW114642   3.369   0.018   3.341 -0.2759  0.6336 -1.4271
 1002SOL    HW214643   3.455   0.120   3.387  0.6032 -0.7153  0.5634
 1003SOL     OW14644   3.374   2.577   4.330  0.2836 -0.6749 -0.0208
 1003SOL    HW114645   3.397   2.642   4.263 -0.3677  1.3455  1.6880
 1003SOL    HW214646   3.448   2.517   4.335 -0.1364 -1.3671 -2.2152
 1004SOL     OW14647   4.519   2.174   2.616  0.4314 -0.5694  0.0636
 1004SOL    HW114648   4.578   2.237   2.656 -1.0040  1.2916 -0.7597
 1004SOL    HW214649   4.453   2.227   2.572  0.4486 -0.4269  0.2096
 1005SOL     OW14650   2.894   0.319   4.354 -0.1748  0.0529 -0.1481
 1005SOL    HW114651   2.933   0.244   4.308  1.5677  0.8303  0.0587
 1005SOL    HW214652   2.968   0.361   4.398  0.5454 -2.2504  0.7847
 1006SOL     OW14653   3.975   3.673   3.596 -0.3746 -0.2202  0.3298
 1006SOL    HW114654   3.926   3.721   3.663  0.0906  3.0683 -1.6538
 1006SOL    HW214655   3.921   3.676   3.517 -1.8361 -0.6326  1.3191
 1007SOL     OW14656   2.524   1.454   4.515 -0.0469 -0.1106  0.6550
 1007SOL    HW114657   2.520   1.369   4.471  1.1135 -1.1828  2.6055
 1007SOL    HW214658   2.616   1.457   4.540  0.1643 -3.2211  0.3210
 1008SOL     OW14659   2.917   2.624  12.622  0.5000 -0.2179  0.5060
 1008SOL    HW114660   2.864   2.550  12.650  0.5628 -0.5206 -0.1688
 1008SOL    HW214661   2.865   2.690  12.667  1.3578  3.0080 -3.1599
 1009SOL     OW14662   3.269   3.823   2.377  0.1848 -0.3922  0.2346
 1009SOL    HW114663   3.309   3.895   2.426 -0.7114  1.2355 -1.4129
 1009SOL    HW214664   3.329   3.762   2.419  1.1566 -0.0892 -0.7086
 1010SOL     OW14665   1.980   2.635  16.223  0.4863 -0.7191 -0.0541
 1010SOL    HW114666   2.073   2.656  16.236  0.6282 -1.0377 -0.5408
 1010SOL    HW214667   1.987   2.542  16.201 -1.5504 -1.2498  1.5528
 1011SOL     OW14668   1.510   2.913   6.757 -0.1300 -0.1946  0.2588
 1011SOL    HW114669   1.491   2.822   6.780 -0.0778 -0.1659  0.4197
 1011SOL    HW214670   1.562   2.938   6.834 -0.4555  1.7621 -0.1537
 1012SOL     OW14671   3.294   2.047   7.495  0.6439  0.5278  0.7168
 1012SOL    HW114672   3.205   2.083   7.490 -0.3285 -1.8183  1.0253
 1012SOL    HW214673   3.337   2.058   7.411 -1.4631 -2.1364 -0.7309
 1013SOL     OW14674   2.605   4.658   4.688 -0.0417 -0.0599  0.1896
 1013SOL    HW114675   2.606   4.564   4.702  0.0589  0.2071  2.0633
 1013SOL    HW214676   2.571   4.666   4.599  2.5568  3.4119 -0.4756
 1014SOL     OW14677   3.339   1.333   7.915 -0.2732  0.0605  0.6769
 1014SOL    HW114678   3.420   1.351   7.867 -1.4592  0.5387 -1.1840
 1014SOL    HW214679   3.285   1.288   7.850  2.1194 -0.4254 -0.9775
 1015SOL     OW14680   3.196   0.603   7.636  0.0520 -0.1920 -0.2062
 1015SOL    HW114681   3.249   0.676   7.605  3.0358 -1.9744  0.7606
 1015SOL    HW214682   3.115   0.653   7.624 -1.8978 -3.5636 -1.0135
 1016SOL     OW14683   2.812   0.181  13.189 -0.6153 -0.4729  0.1674
 1016SOL    HW114684   2.891   0.226  13.221 -0.6039 -0.9545  0.8182
 1016SOL    HW214685   2.752   0.226  13.248  1.1788  2.4729 -0.2443
 1017SOL     OW14686   1.396   3.978  16.927 -0.0688  0.5270 -0.0200
 1017SOL    HW114687   1.358   3.965  17.014  0.6180 -0.0749  0.1916
 1017SOL    HW214688   1.413   3.886  16.907  2.6065  0.6608  1.6573
 1018SOL     OW14689   4.094   2.001   6.758  0.2597  0.2498 -0.7375
 1018SOL    HW114690   4.029   1.958   6.702 -0.7276 -0.5236  0.9891
 1018SOL    HW214691   4.131   1.922   6.798  1.1823  0.6385 -0.8320
 1019SOL     OW14692   1.828   1.164   1.832 -0.1761 -0.8543 -0.6647
 1019SOL    HW114693   1.795   1.222   1.901 -2.8496 -1.0879 -1.7302
 1019SOL    HW214694   1.758   1.099   1.842 -1.3170  0.4130 -0.3363
 1020SOL     OW14695   2.811   2.063  15.390  0.1696  0.2218 -0.1455
 1020SOL    HW114696   2.845   2.067  15.480  0.1454  1.7068 -0.1967
 1020SOL    HW214697   2.838   2.149  15.357 -0.1302  0.4671  0.2360
 1021SOL     OW14698   3.804   3.776   8.410 -0.0924 -0.0397 -0.3539
 1021SOL    HW114699   3.892   3.742   8.395 -0.2107  0.3004 -1.8833
 1021SOL    HW214700   3.795   3.857   8.359 -0.1953  0.0457 -0.1994
 1022SOL     OW14701   4.226   3.966  14.446  0.0557  0.1487 -0.0385
 1022SOL    HW114702   4.186   3.962  14.532 -1.1648  0.7923 -0.5768
 1022SOL    HW214703   4.259   3.877  14.438  3.2773  1.1330  2.0354
 1023SOL     OW14704   0.677   2.426   7.863  0.5074  0.0056  0.2369
 1023SOL    HW114705   0.704   2.336   7.882 -2.1938 -0.8280  0.0885
 1023SOL    HW214706   0.760   2.465   7.834  0.3305  1.4197  1.6487
 1024SOL     OW14707   2.153   3.662   6.251 -0.6279  0.1705 -0.6827
 1024SOL    HW114708   2.162   3.739   6.195  1.6620 -0.2911 -0.9451
 1024SOL    HW214709   2.068   3.631   6.222 -0.5236 -1.5394  0.8282
 1025SOL     OW14710   3.204   0.715   2.332 -0.0718  0.6465 -0.5302
 1025SOL    HW114711   3.219   0.620   2.327 -3.4741  0.0119  1.0184
 1025SOL    HW214712   3.160   0.721   2.416 -0.4426  0.5106 -0.7124
 1026SOL     OW14713   3.334   1.534  13.774 -0.3307 -0.1577  0.2764
 1026SOL    HW114714   3.390   1.528  13.852  0.4692  1.4864 -0.1680
 1026SOL    HW214715   3.334   1.630  13.769  0.6224 -0.0591  1.8188
 1027SOL     OW14716   1.641   1.615   1.717  0.2121  0.6773 -0.1955
 1027SOL    HW114717   1.599   1.701   1.714 -1.2970  0.0011  1.1273
 1027SOL    HW214718   1.594   1.566   1.650  0.9298 -0.4481  0.1316
 1028SOL     OW14719   0.418   0.430  16.242  0.4795 -0.7897  0.1439
 1028SOL    HW114720   0.511   0.431  16.265  0.9366 -0.2725 -1.7447
 1028SOL    HW214721   0.394   0.521  16.260 -0.2886 -1.0330  0.3416
 1029SOL     OW14722   2.619   2.276   5.427  0.5330  0.1190  0.6641
 1029SOL    HW114723   2.693   2.259   5.369 -0.0558 -3.3563  0.9286
 1029SOL    HW214724   2.669   2.268   5.509 -1.3724 -3.2593  1.4693
 1030SOL     OW14725   3.515   2.282   7.628 -0.0892  0.6280  0.0785
 1030SOL    HW114726   3.426   2.308   7.607  0.0856  0.3340 -1.0372
 1030SOL    HW214727   3.548   2.255   7.542 -0.2111  0.0716  0.2100
 1031SOL     OW14728   3.012   0.721   8.779 -0.2819  0.3208  0.1990
 1031SOL    HW114729   2.934   0.713   8.725 -0.4799  0.2640  0.4970
 1031SOL    HW214730   2.983   0.655   8.841  0.3853 -2.5151 -2.4830
 1032SOL     OW14731   4.544   4.691   5.242 -0.1041  0.3123 -0.3144
 1032SOL    HW114732   4.555   0.051   5.231  0.2606  0.2948 -0.0912
 1032SOL    HW214733   4.487   4.671   5.167 -1.9744  1.0676  0.8998
 1033SOL     OW14734   2.964   1.272  14.778 -0.2085  0.2552  0.1753
 1033SOL    HW114735   2.884   1.319  14.804  0.9295  2.1638  0.2401
 1033SOL    HW214736   2.974   1.307  14.690  0.8626 -1.1177 -0.2562
 1034SOL     OW14737   0.628   2.637   7.445 -0.0101  0.0959  0.3781
 1034SOL    HW114738   0.707   2.637   7.499 -0.2153 -1.5995  0.6539
 1034SOL    HW214739   0.573   2.598   7.512 -0.1603  2.5809  1.6853
 1035SOL     OW14740   0.083   2.057   7.496 -0.8330 -0.4017 -0.1141
 1035SOL    HW114741   0.124   1.979   7.458 -2.2869 -1.3563  0.2773
 1035SOL    HW214742   0.036   2.018   7.570 -1.6614  2.7396  1.0182
 1036SOL     OW14743   0.646   1.307   4.684 -0.5246 -0.1424  0.0090
 1036SOL    HW114744   0.619   1.369   4.752  1.4406  1.2413 -0.4836
 1036SOL    HW214745   0.614   1.350   4.604  1.2438 -0.1868 -0.7135
 1037SOL     OW14746   2.432   2.538   4.305  0.8652 -0.2149  0.6552
 1037SOL    HW114747   2.500   2.485   4.347  0.3249 -0.9305  0.6284
 1037SOL    HW214748   2.388   2.584   4.377  0.3270  2.1880 -1.2114
 1038SOL     OW14749   4.729   3.724   8.311  0.1106 -0.1935  0.0300
 1038SOL    HW114750   4.700   3.743   8.401 -0.4971 -1.7662  0.1764
 1038SOL    HW214751   0.059   3.657   8.331  1.3767  0.8857 -0.5002
 1039SOL     OW14752   1.597   2.617   2.972 -0.5163 -0.3815  0.1754
 1039SOL    HW114753   1.508   2.647   2.986 -0.4718  0.1886 -0.8370
 1039SOL    HW214754   1.602   2.549   3.040  1.2617 -1.5669 -1.1501
 1040SOL     OW14755   2.234   1.860   1.115  0.1531 -0.0019 -0.3202
 1040SOL    HW114756   2.226   1.942   1.067  0.5496 -0.2287 -0.7717
 1040SOL    HW214757   2.194   1.892   1.196 -0.7864 -2.6473  0.2851
 1041SOL     OW14758   3.457   2.844   2.694 -0.6777  0.1849  0.2838
 1041SOL    HW114759   3.450   2.750   2.711  1.1175  0.1212  0.6915
 1041SOL    HW214760   3.373   2.868   2.655 -0.4183  0.5229 -0.0797
 1042SOL     OW14761   1.701   3.989  12.050  0.0635 -0.1193  0.1050
 1042SOL    HW114762   1.655   4.016  12.129  0.2982 -2.0888  0.9031
 1042SOL    HW214763   1.773   4.052  12.046 -0.5124  0.4877 -0.8287
 1043SOL     OW14764   3.022   3.324  12.799 -0.6293 -0.3366 -0.2802
 1043SOL    HW114765   2.966   3.290  12.730 -1.3735 -0.5818  0.4428
 1043SOL    HW214766   3.033   3.245  12.852 -1.5294  0.7519  1.5187
 1044SOL     OW14767   3.194   2.823   2.858 -0.5164  0.0471  0.2382
 1044SOL    HW114768   3.188   2.917   2.841  2.9957  0.4699  1.4863
 1044SOL    HW214769   3.136   2.780   2.795  0.5864 -0.6634 -0.2785
 1045SOL     OW14770   2.190   3.883   2.050  0.3878  0.2809 -0.3709
 1045SOL    HW114771   2.213   3.960   2.103  1.4050  0.4092 -0.9963
 1045SOL    HW214772   2.107   3.857   2.090  1.3911 -1.2835  0.6800
 1046SOL     OW14773   4.402   1.481   0.895  0.2990 -0.2493  0.1085
 1046SOL    HW114774   4.381   1.404   0.842  0.2818 -0.3586  0.2753
 1046SOL    HW214775   4.322   1.493   0.945 -1.0590 -0.8322 -1.9299
 1047SOL     OW14776   3.594   4.208   7.806  0.0633  0.2083 -0.2077
 1047SOL    HW114777   3.517   4.165   7.769 -0.8776  2.4584 -0.8629
 1047SOL    HW214778   3.565   4.290   7.846  0.8254  0.2589  0.2568
 1048SOL     OW14779   0.600   2.112   1.379  0.0999 -0.5022  0.0729
 1048SOL    HW114780   0.528   2.073   1.428 -0.5524  1.0594  0.3717
 1048SOL    HW214781   0.672   2.058   1.412  0.1008 -1.1253 -0.9533
 1049SOL     OW14782   2.772   3.163   5.076  0.2441  0.7426 -0.4884
 1049SOL    HW114783   2.689   3.169   5.123 -0.0405  0.1847 -0.9246
 1049SOL    HW214784   2.765   3.223   5.002 -0.7265 -1.0406 -1.8426
 1050SOL     OW14785   2.833   4.682   8.473 -0.5408 -0.0057 -0.4765
 1050SOL    HW114786   2.828   4.662   8.379  1.8346 -0.4312 -0.4974
 1050SOL    HW214787   2.877   0.032   8.480  0.4032 -0.5879  0.4496
 1051SOL     OW14788   3.601   2.234   1.749 -0.3870 -0.0651 -0.3882
 1051SOL    HW114789   3.518   2.195   1.780 -0.8228 -0.0982 -1.6238
 1051SOL    HW214790   3.595   2.315   1.799 -0.9757  1.1542 -2.4562
 1052SOL     OW14791   4.426   2.537  15.623 -0.0252 -0.0243  0.2961
 1052SOL    HW114792   4.509   2.560  15.582  0.9570 -1.0725  1.6566
 1052SOL    HW214793   4.358   2.554  15.558 -0.0691  1.5667  0.7662
 1053SOL     OW14794   1.722   3.250   7.137  0.0068 -0.1836  0.2344
 1053SOL    HW114795   1.808   3.291   7.143  0.5960 -1.1142 -2.1591
 1053SOL    HW214796   1.665   3.317   7.176  2.6252  2.9476 -1.3270
 1054SOL     OW14797   3.947   0.731  11.011  0.6146 -0.3948  0.3826
 1054SOL    HW114798   3.950   0.826  11.019  3.2984 -0.7920  4.0254
 1054SOL    HW214799   3.992   0.704  11.091  1.5082  0.4705  0.1605
 1055SOL     OW14800   0.302   0.172  14.321  0.3507 -0.7695  0.8659
 1055SOL    HW114801   0.386   0.168  14.276 -0.0571  0.6889 -0.0093
 1055SOL    HW214802   0.340   0.159  14.408  2.6272  0.0292  0.0009
 1056SOL     OW14803   1.470   3.998   8.310  0.7171  0.3359  0.5684
 1056SOL    HW114804   1.441   3.930   8.371  0.0973  0.4823  0.4464
 1056SOL    HW214805   1.513   3.939   8.249  1.1816 -1.6092  2.7868
 1057SOL     OW14806   3.467   1.808   3.150  0.2396 -0.6455 -0.0358
 1057SOL    HW114807   3.487   1.846   3.236 -2.2221 -1.4204  0.8924
 1057SOL    HW214808   3.553   1.772   3.129  1.3081  1.5883  0.4551
 1058SOL     OW14809   3.330   3.437   3.874  0.0104  0.0841 -0.5146
 1058SOL    HW114810   3.307   3.503   3.939  1.7718 -0.2972  0.4971
 1058SOL    HW214811   3.414   3.409   3.911 -0.3759 -1.0083 -0.4790
 1059SOL     OW14812   1.678   1.227  15.716  0.2225  0.1614 -0.1768
 1059SOL    HW114813   1.627   1.161  15.669  1.0834 -2.1308  2.1274
 1059SOL    HW214814   1.659   1.307  15.667  0.2500 -0.8366 -1.8304
 1060SOL     OW14815   0.889   3.807  10.004  0.0198  0.4879  0.1083
 1060SOL    HW114816   0.906   3.899   9.985  0.0434  0.3742 -0.4378
 1060SOL    HW214817   0.978   3.773   9.999 -0.1633 -0.0950  0.8978
 1061SOL     OW14818   3.404   4.395   0.371 -0.3689  0.2115 -0.0287
 1061SOL    HW114819   3.315   4.360   0.359 -0.3708  0.1763  0.0967
 1061SOL    HW214820   3.386   4.489   0.374 -2.4195 -0.3164  3.7584
 1062SOL     OW14821   1.064   2.256   9.676  0.5577 -0.7439 -0.4194
 1062SOL    HW114822   1.135   2.193   9.689 -0.1136 -1.6797 -1.2725
 1062SOL    HW214823   1.058   2.247   9.581  0.9768 -0.1878 -0.5003
 1063SOL     OW14824   1.177   0.724   2.637  0.9386 -0.7886  0.3874
 1063SOL    HW114825   1.146   0.741   2.548 -2.1518 -4.1447  0.8040
 1063SOL    HW214826   1.095   0.709   2.683  0.8155 -2.1264 -0.2821
 1064SOL     OW14827   1.216   1.784   1.767 -0.1952 -0.0291 -0.2467
 1064SOL    HW114828   1.238   1.864   1.815  1.3966 -2.1220  2.4791
 1064SOL    HW214829   1.157   1.744   1.831  1.1448 -1.2209  0.2367
 1065SOL     OW14830   0.278   2.850   2.129  0.3157 -0.2235 -0.0924
 1065SOL    HW114831   0.258   2.764   2.168 -0.1537 -0.5903 -1.1598
 1065SOL    HW214832   0.372   2.840   2.117  0.5506  0.7252  0.9748
 1066SOL     OW14833   3.951   2.379   5.700 -0.3624 -0.4408  0.5044
 1066SOL    HW114834   3.901   2.430   5.636  3.1566  1.3074 -0.8229
 1066SOL    HW214835   4.043   2.382   5.675 -0.6012 -1.0753 -0.4818
 1067SOL     OW14836   3.975   3.725   1.957 -0.0908  0.6159 -0.6008
 1067SOL    HW114837   3.960   3.804   2.009 -0.3235  0.8408 -1.0053
 1067SOL    HW214838   4.036   3.682   2.017  0.1384  0.5843 -0.8524
 1068SOL     OW14839   1.731   4.301   2.285 -0.3964  0.0975  0.1768
 1068SOL    HW114840   1.798   4.296   2.353 -0.4297  0.7665  0.2576
 1068SOL    HW214841   1.656   4.295   2.343 -1.6870 -0.6916 -1.5709
 1069SOL     OW14842   3.602   2.086   4.337  0.3284 -0.0721 -0.6205
 1069SOL    HW114843   3.611   2.135   4.255 -1.4605  1.3277  0.0282
 1069SOL    HW214844   3.682   2.114   4.381 -0.3645  0.0678  0.5470
 1070SOL     OW14845   3.710   4.539   7.958  0.1994  0.1905 -0.2734
 1070SOL    HW114846   3.739   4.629   7.973 -0.5245  0.1321  1.5814
 1070SOL    HW214847   3.618   4.542   7.985 -0.3423  0.7595 -2.2386
 1071SOL     OW14848   3.094   2.667   4.169 -0.3732 -0.2249  0.2759
 1071SOL    HW114849   3.087   2.686   4.263  0.0659  0.5150  0.1598
 1071SOL    HW214850   3.165   2.604   4.161 -1.1666 -0.7439 -2.8672
 1072SOL     OW14851   1.761   1.959   8.567 -0.4007  0.2158  0.0131
 1072SOL    HW114852   1.834   1.934   8.511 -0.6092  1.9981 -1.0483
 1072SOL    HW214853   1.785   1.905   8.642  1.5172  1.9428  0.6246
 1073SOL     OW14854   3.505   4.007   2.405 -0.6963 -0.3415  0.4363
 1073SOL    HW114855   3.481   4.100   2.411  0.7711 -0.0135  1.1332
 1073SOL    HW214856   3.533   4.010   2.313 -1.3424 -1.3680  0.2154
 1074SOL     OW14857   3.018   1.484   9.926 -0.1205  0.0815 -0.2480
 1074SOL    HW114858   3.039   1.571   9.892  0.9113 -0.4475 -0.9702
 1074SOL    HW214859   2.958   1.464   9.854 -1.8000 -0.1941  1.2515
 1075SOL     OW14860   2.816   1.486  17.552 -0.1974 -0.3805  0.4032
 1075SOL    HW114861   2.838   1.406  17.504 -0.9040 -1.7053  2.2967
 1075SOL    HW214862   2.821   1.446  17.639  1.3574  3.9242  2.2644
 1076SOL     OW14863   1.670   3.526  12.246 -0.2359  0.6424  0.0754
 1076SOL    HW114864   1.604   3.525  12.177  2.4858  1.5370 -2.5175
 1076SOL    HW214865   1.730   3.590  12.207  3.8130 -2.8294  0.6436
 1077SOL     OW14866   1.283   0.633   7.384  0.1288  0.1111  0.4333
 1077SOL    HW114867   1.344   0.663   7.451 -0.5009 -1.4723  1.6986
 1077SOL    HW214868   1.335   0.664   7.309  2.4625  0.3882  2.1608
 1078SOL     OW14869   3.012   2.349   5.458  0.2672  0.0978  0.3992
 1078SOL    HW114870   2.960   2.361   5.378  1.6453 -1.0170 -0.6527
 1078SOL    HW214871   2.953   2.294   5.510  2.0844 -1.2322  1.0609
 1079SOL     OW14872   4.183   1.417   8.897 -0.3148  0.5786  0.3761
 1079SOL    HW114873   4.150   1.424   8.987  0.2215  0.7388  0.5613
 1079SOL    HW214874   4.201   1.510   8.886  2.4793 -0.1580 -1.0642
 1080SOL     OW14875   0.529   1.474  15.053 -0.4561 -0.0646 -0.0876
 1080SOL    HW114876   0.605   1.516  15.012 -0.8753  2.4455  1.7319
 1080SOL    HW214877   0.547   1.381  15.048  1.3847  0.2323  1.3324
 1081SOL     OW14878   2.596   3.371   2.947 -0.1836  0.0611 -0.2865
 1081SOL    HW114879   2.571   3.280   2.930  0.0184 -0.1701  0.6695
 1081SOL    HW214880   2.657   3.389   2.875 -0.6962 -1.6055 -1.1430
 1082SOL     OW14881   0.291   4.178   1.260 -0.2300  0.7167  0.0805
 1082SOL    HW114882   0.272   4.119   1.188 -0.6734 -0.5033  1.1949
 1082SOL    HW214883   0.387   4.170   1.257 -0.4427 -2.0315  1.0140
 1083SOL     OW14884   2.225   3.169   3.497  0.0779 -0.9859  0.4811
 1083SOL    HW114885   2.264   3.247   3.536 -1.1950 -0.5843  0.9357
 1083SOL    HW214886   2.203   3.121   3.577 -2.7338 -0.2400  0.1309
 1084SOL     OW14887   1.316   4.435   7.303  1.1119 -0.4294  0.2899
 1084SOL    HW114888   1.300   4.363   7.365  0.2523 -0.0057  0.5710
 1084SOL    HW214889   1.411   4.431   7.303  1.0358 -2.5357 -1.1033
 1085SOL     OW14890   1.081   3.347   5.897  0.6066 -0.4533  0.0082
 1085SOL    HW114891   1.000   3.315   5.856 -0.5936  1.5659  0.7892
 1085SOL    HW214892   1.066   3.442   5.902 -0.5740 -0.4985 -2.6096
 1086SOL     OW14893   0.150   1.680  17.122  0.2248 -0.2549 -0.1358
 1086SOL    HW114894   0.195   1.595  17.128  1.5879  0.4778  0.1858
 1086SOL    HW214895   0.219   1.745  17.110  0.4551 -0.8135 -1.9045
 1087SOL     OW14896   3.722   1.540   7.193  0.4487  0.5434  0.2073
 1087SOL    HW114897   3.750   1.535   7.285 -0.9560 -2.4807  0.4744
 1087SOL    HW214898   3.748   1.630   7.179  1.3958  0.4549  1.3521
 1088SOL     OW14899   0.638   4.154   2.674 -0.2645  0.8346  0.0004
 1088SOL    HW114900   0.704   4.216   2.703 -1.0816  2.2977 -1.2688
 1088SOL    HW214901   0.606   4.191   2.591 -0.5819 -0.4043 -0.4455
 1089SOL     OW14902   2.125   2.479   7.027 -0.2360  0.1021  0.0831
 1089SOL    HW114903   2.088   2.563   7.056 -0.9523  0.2305 -1.2293
 1089SOL    HW214904   2.067   2.467   6.952  0.5298  0.0368 -0.4998
 1090SOL     OW14905   4.197   1.886   1.979  0.4736  0.0017 -0.4638
 1090SOL    HW114906   4.206   1.966   2.030  0.1136 -1.1389  1.3871
 1090SOL    HW214907   4.220   1.815   2.039 -2.0143 -0.6987 -0.3507
 1091SOL     OW14908   4.309   1.380   7.317 -0.2377  0.0729 -0.0782
 1091SOL    HW114909   4.258   1.300   7.324  1.7048 -1.0846  0.7363
 1091SOL    HW214910   4.401   1.354   7.311 -0.4072 -0.3972 -0.5882
 1092SOL     OW14911   3.568   1.967   6.082  0.3215  0.1652  0.0557
 1092SOL    HW114912   3.474   1.951   6.094  0.5010  0.0517  1.3550
 1092SOL    HW214913   3.596   2.020   6.156  2.0415 -0.0640 -0.4432
 1093SOL     OW14914   3.831   1.563   4.468  0.2610  0.3879 -0.3725
 1093SOL    HW114915   3.780   1.522   4.538 -0.2378 -1.3952 -1.7933
 1093SOL    HW214916   3.769   1.585   4.398 -1.3259 -0.8911  0.6354
 1094SOL     OW14917   4.167   2.683   2.488  0.4540 -0.2102  0.5939
 1094SOL    HW114918   4.181   2.776   2.507  1.8687  0.2046 -2.3431
 1094SOL    HW214919   4.176   2.681   2.392  2.2034 -0.3036  0.7599
 1095SOL     OW14920   1.457   1.589   5.786  0.0127  0.0490  0.1580
 1095SOL    HW114921   1.460   1.554   5.875  2.6958 -0.8722 -0.2990
 1095SOL    HW214922   1.546   1.622   5.777 -0.6050  1.9217  0.9840
 1096SOL     OW14923   0.943   1.813  15.211  0.2276  0.1400 -0.0150
 1096SOL    HW114924   1.031   1.781  15.191  0.0013  0.3293 -1.2747
 1096SOL    HW214925   0.961   1.907  15.216 -2.3356  0.6135  0.6386
 1097SOL     OW14926   1.040   4.423  10.309  0.2530 -0.4530  0.0385
 1097SOL    HW114927   1.114   4.366  10.285 -0.4845 -0.7880 -1.4152
 1097SOL    HW214928   1.088   4.502  10.334  2.0845 -0.9451 -1.9644
 1098SOL     OW14929   1.171   2.965   6.606 -0.0520  0.0041 -0.1052
 1098SOL    HW114930   1.131   2.952   6.520 -0.1884  0.6003 -0.1326
 1098SOL    HW214931   1.242   3.024   6.580 -1.8367  1.7954 -0.9191
 1099SOL     OW14932   3.908   0.216   3.950 -0.0540 -0.3154 -0.0510
 1099SOL    HW114933   3.939   0.306   3.958 -0.0106 -0.0734 -3.2373
 1099SOL    HW214934   3.996   0.178   3.959  1.2048  2.5582 -0.2544
 1100SOL     OW14935   0.097   4.195   1.436  0.6753  0.2383  0.0978
 1100SOL    HW114936   0.080   4.106   1.403  2.9120 -0.8289  1.8377
 1100SOL    HW214937   0.163   4.221   1.371  1.2228 -1.5847 -0.0749
 1101SOL     OW14938   1.154   2.803   7.484 -0.0604  0.5518  0.5431
 1101SOL    HW114939   1.211   2.764   7.417 -0.6789  0.1599  0.2491
 1101SOL    HW214940   1.085   2.826   7.422  0.7817  0.7178 -0.3359
 1102SOL     OW14941   3.352   2.329  16.873 -0.5253  0.9804  0.1635
 1102SOL    HW114942   3.287   2.358  16.809 -0.9152  1.1171  0.6198
 1102SOL    HW214943   3.297   2.285  16.938  1.0661 -3.7032 -1.6316
 1103SOL     OW14944   1.873   1.145   8.913 -0.6145  0.4506  0.1659
 1103SOL    HW114945   1.942   1.131   8.849 -1.4226  1.1868 -0.8552
 1103SOL    HW214946   1.818   1.070   8.890  0.1396 -0.0009 -0.1647
 1104SOL     OW14947   0.433   0.934  10.175  1.0042  0.4350  0.0130
 1104SOL    HW114948   0.422   0.839  10.182 -0.0263  0.4711 -1.1074
 1104SOL    HW214949   0.344   0.965  10.189  1.0400 -0.1395  1.5687
 1105SOL     OW14950   3.871   0.073   0.979 -0.2280  0.7363  0.2975
 1105SOL    HW114951   3.899   0.151   1.028  0.8699 -0.7240  1.9755
 1105SOL    HW214952   3.941   0.048   0.919  0.7312  1.4606  1.1204
 1106SOL     OW14953   1.347   2.911   0.076 -0.4192 -0.4706  0.1600
 1106SOL    HW114954   1.295   2.991   0.073 -0.4586 -0.4696  1.0409
 1106SOL    HW214955   1.371   2.911   0.168  1.1542  2.0640 -0.2500
 1107SOL     OW14956   0.840   3.910   5.787  0.0472  0.1248 -0.0197
 1107SOL    HW114957   0.881   3.937   5.705  1.0685 -0.5206  0.2871
 1107SOL    HW214958   0.819   3.817   5.781  0.4294  0.1762 -2.1811
 1108SOL     OW14959   2.007   4.713  12.807 -0.3011 -0.2484  0.4785
 1108SOL    HW114960   2.039   4.650  12.871  1.8154  0.0067 -0.3214
 1108SOL    HW214961   1.963   0.042  12.862  0.7697  1.3601 -0.5405
 1109SOL     OW14962   1.628   0.496  12.618 -0.7960 -0.5313 -0.2880
 1109SOL    HW114963   1.667   0.579  12.590 -2.4639  0.5636  0.5949
 1109SOL    HW214964   1.555   0.491  12.556 -0.5852 -0.8898 -0.5066
 1110SOL     OW14965   3.926   0.886   8.484  0.6255 -0.0821 -0.0327
 1110SOL    HW114966   3.913   0.887   8.579  0.7900  2.2423 -0.0312
 1110SOL    HW214967   3.881   0.807   8.455  0.0517 -0.1066  0.9216
 1111SOL     OW14968   0.269   3.446   2.085  0.0490  0.0557  0.0482
 1111SOL    HW114969   0.242   3.458   2.176 -1.6532  1.3933 -0.6331
 1111SOL    HW214970   0.356   3.412   2.103 -0.5133 -0.8772  1.0707
 1112SOL     OW14971   3.620   2.257  16.264  0.0255  0.2709 -0.3919
 1112SOL    HW114972   3.574   2.173  16.276 -1.1450  1.0575  0.6022
 1112SOL    HW214973   3.679   2.246  16.339 -0.0251  2.0801 -0.1030
 1113SOL     OW14974   3.041   4.051  10.058 -0.0131 -0.4266 -0.0573
 1113SOL    HW114975   3.069   3.969  10.019  2.5882 -0.0433  1.0393
 1113SOL    HW214976   3.080   4.048  10.146 -1.1999 -1.0412  0.4500
 1114SOL     OW14977   0.122   4.109   9.381  0.2561  0.0696 -0.0692
 1114SOL    HW114978   0.157   4.068   9.460 -0.2192  1.5161  0.8818
 1114SOL    HW214979   0.196   4.167   9.363  0.2309  0.7924  2.1107
 1115SOL     OW14980   0.662   1.246   8.188  0.1722  0.7818 -0.2795
 1115SOL    HW114981   0.748   1.243   8.146  0.4695 -1.5580  0.5026
 1115SOL    HW214982   0.614   1.312   8.138 -1.3472  0.4124  0.6985
 1116SOL     OW14983   1.323   4.650   2.600  0.2026 -0.2317 -0.0897
 1116SOL    HW114984   1.361   4.681   2.682 -0.0647  1.3622 -0.5696
 1116SOL    HW214985   1.269   4.723   2.568  0.3689 -0.3815 -0.7194
 1117SOL     OW14986   2.862   0.624   5.982  0.1054  0.1880 -0.0440
 1117SOL    HW114987   2.855   0.583   6.068 -0.1177  1.4056  0.5270
 1117SOL    HW214988   2.883   0.713   6.009  2.6309 -0.8026  1.2462
 1118SOL     OW14989   2.579   0.803   2.705 -0.2024 -0.0885 -0.4431
 1118SOL    HW114990   2.663   0.760   2.690 -1.6772 -3.6553  1.4604
 1118SOL    HW214991   2.563   0.822   2.613  0.3679 -3.4959 -1.2623
 1119SOL     OW14992   0.390   0.324   4.842  0.2540  1.0371 -0.0308
 1119SOL    HW114993   0.358   0.255   4.783  0.6396 -0.4696  1.5364
 1119SOL    HW214994   0.433   0.379   4.776 -0.6884  2.5712  0.6469
 1120SOL     OW14995   0.909   3.455   1.558 -0.1752 -0.3695 -0.2812
 1120SOL    HW114996   0.985   3.400   1.540 -0.1008  0.6660 -3.0435
 1120SOL    HW214997   0.838   3.401   1.525 -0.0301 -1.6235  1.4319
 1121SOL     OW14998   1.431   3.903   3.542  0.0288 -0.1412 -0.2263
 1121SOL    HW114999   1.404   3.860   3.461  1.2998  2.0544 -1.8390
 1121SOL    HW215000   1.391   3.840   3.602  0.9661 -0.4780  0.0386
 1122SOL     OW15001   1.079   3.476   8.008  0.0555  0.0513 -0.1035
 1122SOL    HW115002   1.172   3.455   7.999  0.7724  2.5184  1.4368
 1122SOL    HW215003   1.075   3.563   7.968  0.5174  2.0715  4.2808
 1123SOL     OW15004   2.353   4.627   5.920  0.5769  0.4266 -0.0684
 1123SOL    HW115005   2.349   4.666   5.832  0.2732 -0.6468 -0.5212
 1123SOL    HW215006   2.283   4.668   5.970  1.1069  1.5890 -0.2682
 1124SOL     OW15007   2.975   1.174   3.223  0.7678 -0.2558 -0.2736
 1124SOL    HW115008   3.041   1.232   3.185 -1.4601  1.3259 -1.7085
 1124SOL    HW215009   2.937   1.122   3.152  2.3724 -1.6455 -0.1244
 1125SOL     OW15010   1.661   0.861   8.412  0.1145 -0.2279 -0.4704
 1125SOL    HW115011   1.662   0.883   8.319  3.6012  0.5149 -0.2479
 1125SOL    HW215012   1.697   0.939   8.455 -0.8160 -0.7683  1.3199
 1126SOL     OW15013   1.760   0.622   1.606 -0.4346  0.1043 -0.4892
 1126SOL    HW115014   1.735   0.601   1.696  0.0317  0.0201 -0.3842
 1126SOL    HW215015   1.780   0.715   1.610 -0.9103  0.2256 -0.8211
 1127SOL     OW15016   2.486   0.823  14.519 -0.9307 -0.0434 -0.0164
 1127SOL    HW115017   2.391   0.816  14.531 -0.8605  0.1768  0.6519
 1127SOL    HW215018   2.482   0.847  14.427 -1.4154  2.2758  0.6119
 1128SOL     OW15019   4.077   3.824  16.161  0.0084  0.1506 -0.3589
 1128SOL    HW115020   4.055   3.884  16.090  2.7648 -1.2321 -2.3829
 1128SOL    HW215021   4.095   3.743  16.113 -0.5464  0.9490 -1.9294
 1129SOL     OW15022   0.318   1.244   8.636  0.6023 -0.1889 -0.8025
 1129SOL    HW115023   0.225   1.237   8.614  0.9953 -2.2351 -1.7960
 1129SOL    HW215024   0.354   1.246   8.548 -0.7809 -0.8796 -1.3785
 1130SOL     OW15025   3.530   2.459   1.904  0.5245 -0.0872 -0.3918
 1130SOL    HW115026   3.536   2.549   1.938  0.1215 -0.3358  0.3323
 1130SOL    HW215027   3.451   2.464   1.852 -0.8342 -0.1596  1.6647
 1131SOL     OW15028   0.450   1.029   6.763  0.0605 -0.3175  0.0544
 1131SOL    HW115029   0.541   1.014   6.739  0.4533  1.9278  0.2070
 1131SOL    HW215030   0.395   0.973   6.708 -1.1891  1.0834 -0.1256
 1132SOL     OW15031   1.150   4.608   8.271  0.5062  0.2171 -0.5999
 1132SOL    HW115032   1.126   4.686   8.222 -1.5555 -1.6875 -2.6159
 1132SOL    HW215033   1.197   4.554   8.208  0.2973  0.1577 -0.7055
 1133SOL     OW15034   1.201   3.868   6.559 -0.3175  0.1963 -0.9225
 1133SOL    HW115035   1.234   3.920   6.486  0.6351 -0.2460 -0.8055
 1133SOL    HW215036   1.236   3.787   6.521  0.5175  0.3584 -0.4957
 1134SOL     OW15037   3.764   3.765   1.738 -0.0611  0.0082 -0.5440
 1134SOL    HW115038   3.748   3.675   1.708  0.5743 -0.0946 -0.5789
 1134SOL    HW215039   3.849   3.748   1.779 -1.0487 -1.1994  1.0452
 1135SOL     OW15040   1.828   4.620   9.176  0.3316 -0.2263  0.1339
 1135SOL    HW115041   1.852   4.609   9.268 -1.8678 -2.7536  0.4303
 1135SOL    HW215042   1.811   4.525   9.170 -2.2129  0.1760  0.9289
 1136SOL     OW15043   1.983   3.627  14.158 -0.4113  0.3151  0.4221
 1136SOL    HW115044   1.948   3.596  14.242 -0.1375 -0.2555  0.3268
 1136SOL    HW215045   1.968   3.721  14.152 -0.2636  0.3648  0.8062
 1137SOL     OW15046   3.204   4.206   2.677  0.1787  0.0195 -0.0129
 1137SOL    HW115047   3.289   4.227   2.714 -0.3325 -1.1786  1.8790
 1137SOL    HW215048   3.193   4.111   2.686 -2.8659  0.1786 -1.9587
 1138SOL     OW15049   3.873   0.308   2.689 -0.1743  0.0047  0.4346
 1138SOL    HW115050   3.794   0.360   2.675  0.9926  0.7508 -3.4907
 1138SOL    HW215051   3.906   0.312   2.599 -2.1309  0.8857 -0.2403
 1139SOL     OW15052   3.346   3.181   7.996 -0.0416 -0.1445  0.7255
 1139SOL    HW115053   3.364   3.088   8.006  0.6465 -0.1624 -0.7067
 1139SOL    HW215054   3.338   3.181   7.901 -1.1980  0.4422  0.8181
 1140SOL     OW15055   0.595   1.737   3.330  0.0732  0.2212  0.1728
 1140SOL    HW115056   0.521   1.690   3.369 -0.1522 -0.3561 -0.9399
 1140SOL    HW215057   0.587   1.714   3.237  4.1395 -1.1330  0.1454
 1141SOL     OW15058   2.234   2.187   8.213 -0.2765  0.0630 -0.0799
 1141SOL    HW115059   2.279   2.127   8.272  0.6691  1.5460  0.7049
 1141SOL    HW215060   2.147   2.152   8.196 -0.5008 -0.2705  1.7987
 1142SOL     OW15061   4.229   2.942   2.520  0.3305 -0.3675  0.0844
 1142SOL    HW115062   4.264   2.964   2.606  0.4740  0.5305 -0.2013
 1142SOL    HW215063   4.306   2.940   2.464  0.6100 -2.9586  0.5719
 1143SOL     OW15064   1.522   2.661  11.137  0.1334  0.3623 -0.7454
 1143SOL    HW115065   1.584   2.674  11.209 -1.4888  1.3690  0.4311
 1143SOL    HW215066   1.478   2.743  11.157 -0.1053 -0.8869  3.7013
 1144SOL     OW15067   4.508   2.472   7.154 -0.3189  0.2841 -0.1138
 1144SOL    HW115068   4.595   2.510   7.165 -0.2383 -0.0713  0.4992
 1144SOL    HW215069   4.518   2.383   7.122  0.0567  1.4133 -3.1517
 1145SOL     OW15070   3.448   0.582   7.321 -0.2590  0.2269 -0.4228
 1145SOL    HW115071   3.480   0.638   7.392 -0.9910  0.2078 -0.0788
 1145SOL    HW215072   3.472   0.638   7.248 -1.6528 -0.5119 -1.4381
 1146SOL     OW15073   1.718   4.288  14.314 -0.2898  0.3550  0.2756
 1146SOL    HW115074   1.721   4.341  14.234  1.2038 -1.1249 -0.6376
 1146SOL    HW215075   1.657   4.219  14.287  0.0590 -0.6613  2.1382
 1147SOL     OW15076   4.589   1.583   4.843  0.2599 -0.3534 -0.4407
 1147SOL    HW115077   4.671   1.565   4.888  0.3280  1.6334  0.2401
 1147SOL    HW215078   4.617   1.545   4.759  0.0216 -0.2508 -0.5681
 1148SOL     OW15079   2.347   1.109   4.724 -0.3162 -0.4519 -0.5105
 1148SOL    HW115080   2.259   1.120   4.688  0.5772  2.5015 -1.8095
 1148SOL    HW215081   2.383   1.039   4.668 -2.4162 -1.8603 -0.0889
 1149SOL     OW15082   3.825   1.610   8.141 -0.7124 -0.2298 -0.5234
 1149SOL    HW115083   3.852   1.691   8.097 -0.2815  0.4238  0.9298
 1149SOL    HW215084   3.769   1.565   8.078 -0.3893 -1.3340 -0.0174
 1150SOL     OW15085   0.625   1.580   6.474  0.7046  0.3589 -0.0856
 1150SOL    HW115086   0.561   1.589   6.403  0.3370 -0.7402  0.0997
 1150SOL    HW215087   0.701   1.596   6.419  0.1973 -0.4052 -1.0165
 1151SOL     OW15088   1.662   2.650   0.550 -0.6906 -0.0522 -0.0254
 1151SOL    HW115089   1.643   2.741   0.572  1.5438  0.5179 -0.4412
 1151SOL    HW215090   1.586   2.605   0.585  0.8192 -1.0348  1.9758
 1152SOL     OW15091   3.107   2.164  13.093 -0.3219 -0.7831  0.1296
 1152SOL    HW115092   3.202   2.172  13.102 -0.4692  0.6790  0.4040
 1152SOL    HW215093   3.091   2.155  13.187  2.0314  1.4622  0.7568
 1153SOL     OW15094   1.905   1.458  17.393 -0.2086  0.1348 -0.3980
 1153SOL    HW115095   1.921   1.482  17.302  2.2650 -0.1593 -0.0364
 1153SOL    HW215096   1.990   1.482  17.431 -0.1803 -0.7104  0.0684
 1154SOL     OW15097   2.689   4.723   3.985  0.3487  0.1276 -0.0576
 1154SOL    HW115098   2.759   0.052   3.973  0.3051  0.7877  3.4517
 1154SOL    HW215099   2.673   4.692   3.895 -0.5884 -2.0793  0.8831
 1155SOL     OW15100   0.765   0.651   5.479  0.7371 -0.4013 -0.0810
 1155SOL    HW115101   0.839   0.687   5.430 -0.1569  0.5555 -0.7296
 1155SOL    HW215102   0.806   0.574   5.518  1.0205 -0.7778 -1.1308
 1156SOL     OW15103   0.611   1.856   1.173  0.0879  0.2608  0.3458
 1156SOL    HW115104   0.686   1.913   1.154  1.1898 -0.8579  1.3509
 1156SOL    HW215105   0.632   1.826   1.262  3.1978  0.6467 -0.2518
 1157SOL     OW15106   1.276   0.971  13.641  0.6118 -0.0472 -0.3104
 1157SOL    HW115107   1.215   0.940  13.708  1.0612  0.5774  0.3806
 1157SOL    HW215108   1.260   0.897  13.583  3.3797  2.3874 -4.1814
 1158SOL     OW15109   1.101   4.275   3.105  0.2647  0.6660  0.0739
 1158SOL    HW115110   1.014   4.235   3.104  0.9607 -0.8460 -2.9551
 1158SOL    HW215111   1.093   4.353   3.159  0.7723 -0.6465  2.0164
 1159SOL     OW15112   4.470   2.114   3.850 -0.5736 -0.1189  0.0121
 1159SOL    HW115113   4.481   2.143   3.940  0.3272 -1.2635  0.2781
 1159SOL    HW215114   4.375   2.106   3.850 -0.4989 -1.0122  0.5300
 1160SOL     OW15115   3.666   0.082  12.657  0.0388 -0.1479 -0.0432
 1160SOL    HW115116   3.618   0.164  12.654  1.8690  0.9356  0.1243
 1160SOL    HW215117   3.653   0.043  12.570  0.3307  0.6286 -0.4347
 1161SOL     OW15118   0.743   2.404   3.343 -0.1061  0.5165 -0.1216
 1161SOL    HW115119   0.701   2.354   3.273  0.1350 -0.0046  0.1036
 1161SOL    HW215120   0.666   2.420   3.398  0.0786  2.1349 -0.3205
 1162SOL     OW15121   3.585   2.211   4.109 -0.0178  0.1365 -0.4695
 1162SOL    HW115122   3.591   2.305   4.092  0.2527  0.5526  1.9337
 1162SOL    HW215123   3.537   2.189   4.029  0.2199 -2.0305 -0.0187
 1163SOL     OW15124   4.638   0.640  13.110 -0.3741 -0.1172 -0.0091
 1163SOL    HW115125   4.578   0.604  13.175 -1.1372  2.1156  0.5101
 1163SOL    HW215126   4.713   0.674  13.159  0.5630 -0.4627 -1.1862
 1164SOL     OW15127   4.428   1.644   2.429 -0.3136 -0.0854  0.1842
 1164SOL    HW115128   4.513   1.651   2.473 -0.5465 -1.1316  0.7949
 1164SOL    HW215129   4.422   1.549   2.442  0.4670 -0.3466 -1.3169
 1165SOL     OW15130   0.540   2.355   5.343  0.3125  0.4701  0.5402
 1165SOL    HW115131   0.597   2.284   5.314 -1.4082  0.6596 -3.2906
 1165SOL    HW215132   0.576   2.360   5.432  1.4197  0.9550  0.0593
 1166SOL     OW15133   3.887   1.495   3.480  0.5257 -0.1902  0.1131
 1166SOL    HW115134   3.810   1.551   3.481  1.0493  0.5408 -0.3702
 1166SOL    HW215135   3.854   1.435   3.413  2.4366  0.0032 -1.0270
 1167SOL     OW15136   0.350   2.428  10.341  0.3385 -0.3176 -0.0902
 1167SOL    HW115137   0.442   2.407  10.358 -0.5553 -3.5657  0.8212
 1167SOL    HW215138   0.350   2.520  10.368  3.7720 -0.4648  0.3564
 1168SOL     OW15139   2.938   0.880   6.050 -0.3631 -0.6832  0.1410
 1168SOL    HW115140   2.986   0.859   6.130 -1.1591  0.7632  0.9852
 1168SOL    HW215141   2.933   0.976   6.049 -1.3077 -0.7168  1.9668
 1169SOL     OW15142   2.953   4.691  12.692  0.3016  0.8096 -0.1141
 1169SOL    HW115143   2.959   4.694  12.597 -2.1366  1.5965 -0.2583
 1169SOL    HW215144   3.005   4.612  12.705  1.6608  1.4943 -1.5187
 1170SOL     OW15145   0.613   2.718  11.184  0.0718 -0.0928 -0.4082
 1170SOL    HW115146   0.614   2.803  11.140 -1.6614 -0.4933 -1.2053
 1170SOL    HW215147   0.541   2.707  11.246  3.0210 -0.1875  2.9619
 1171SOL     OW15148   3.055   4.190  12.660  0.3292  0.1936  0.2256
 1171SOL    HW115149   3.140   4.207  12.619  0.0450  1.8635  0.3373
 1171SOL    HW215150   3.055   4.094  12.664 -0.6152  0.2292  0.9269
 1172SOL     OW15151   4.415   3.693   2.346  0.1262 -0.1136 -0.0414
 1172SOL    HW115152   4.465   3.710   2.426 -0.0683  1.8850 -0.3606
 1172SOL    HW215153   4.465   3.719   2.269 -2.4304  2.5499 -0.7989
 1173SOL     OW15154   1.008   2.264   5.480  0.5617 -0.0391 -0.7496
 1173SOL    HW115155   0.982   2.313   5.402 -0.0735  0.6773 -0.0887
 1173SOL    HW215156   1.005   2.174   5.449 -0.7702  0.1110 -1.0443
 1174SOL     OW15157   1.128   1.456   8.083  0.3844 -0.6501  0.0609
 1174SOL    HW115158   1.185   1.380   8.069 -0.5708 -1.7453  2.1495
 1174SOL    HW215159   1.185   1.501   8.146  1.3581  1.2365 -2.1709
 1175SOL     OW15160   2.265   3.351   1.816 -0.1542 -0.1142 -0.1127
 1175SOL    HW115161   2.207   3.417   1.780 -1.9885 -0.6841  1.8061
 1175SOL    HW215162   2.270   3.287   1.745 -1.6891  0.0515 -0.3599
 1176SOL     OW15163   1.274   0.021   4.025 -0.9475  0.0610  0.1632
 1176SOL    HW115164   1.262   4.711   3.942  1.0245 -0.1335 -0.0066
 1176SOL    HW215165   1.208   4.710   4.077 -0.6662  0.4670  0.8836
 1177SOL     OW15166   1.782   4.204  15.141  0.1767  0.4852  0.0873
 1177SOL    HW115167   1.722   4.262  15.188 -0.6157 -1.4418  1.4685
 1177SOL    HW215168   1.868   4.244  15.151  0.1341  0.2398  1.4194
 1178SOL     OW15169   4.704   2.934   5.907 -0.5064 -0.1119 -0.5100
 1178SOL    HW115170   4.643   2.867   5.876 -0.3962 -1.0639  1.3542
 1178SOL    HW215171   4.672   2.932   5.997  2.6795 -0.2574  0.6069
 1179SOL     OW15172   1.186   3.496   1.304  0.3679  0.2789 -0.0138
 1179SOL    HW115173   1.156   3.570   1.356 -0.8133 -0.9408  1.0580
 1179SOL    HW215174   1.227   3.541   1.231 -1.8427 -0.4510 -1.7288
 1180SOL     OW15175   4.442   1.563  11.342  0.2090  0.2669 -0.0088
 1180SOL    HW115176   4.492   1.639  11.312 -0.2049  0.9227  0.9615
 1180SOL    HW215177   4.412   1.521  11.262  0.0442 -0.7801  0.6101
 1181SOL     OW15178   4.561   1.756   2.920  0.3566 -0.5393 -0.3065
 1181SOL    HW115179   4.615   1.823   2.879  0.3742 -0.7362 -0.6080
 1181SOL    HW215180   4.598   1.766   3.007  1.5916 -1.9074 -0.6760
 1182SOL     OW15181   4.653   3.603   2.902  0.1115  0.0117  0.3730
 1182SOL    HW115182   4.682   3.632   2.988  0.2419  1.0585 -0.0265
 1182SOL    HW215183   4.694   3.676   2.856  0.9853 -1.1826 -0.7619
 1183SOL     OW15184   0.717   0.342  15.030 -0.4518  0.2175 -0.5782
 1183SOL    HW115185   0.644   0.283  15.014 -0.0304 -0.2113 -0.9053
 1183SOL    HW215186   0.667   0.421  15.051 -0.0506  0.6333 -1.1761
 1184SOL     OW15187   3.470   3.459   4.330  0.7907 -0.0804 -0.5096
 1184SOL    HW115188   3.559   3.442   4.361  0.9367  0.7178 -0.5139
 1184SOL    HW215189   3.419   3.398   4.383 -0.0227  1.1589  0.1181
 1185SOL     OW15190   2.805   1.740   7.573  0.0829  0.2429  0.8774
 1185SOL    HW115191   2.887   1.736   7.523 -1.5289 -2.5233 -1.5220
 1185SOL    HW215192   2.822   1.684   7.649 -1.4036 -1.3430  0.0464
 1186SOL     OW15193   4.024   2.345  15.567  0.0176 -0.0917 -0.2759
 1186SOL    HW115194   3.968   2.400  15.513 -0.9692 -2.0577 -1.2459
 1186SOL    HW215195   3.969   2.293  15.625 -1.3502  1.1223 -0.4948
 1187SOL     OW15196   1.475   1.342   1.664 -0.1188  0.6859  0.2099
 1187SOL    HW115197   1.444   1.431   1.646  1.8375  1.0130 -1.6003
 1187SOL    HW215198   1.524   1.339   1.582 -0.5157 -0.4393  0.0117
 1188SOL     OW15199   1.303   0.541   7.828  0.0421  0.2465  0.7585
 1188SOL    HW115200   1.378   0.484   7.844  0.2542  0.3084 -0.0044
 1188SOL    HW215201   1.240   0.474   7.800  1.6675 -0.5783 -0.9513
 1189SOL     OW15202   2.800   3.087   1.172  0.3186  0.4765 -1.2315
 1189SOL    HW115203   2.894   3.086   1.189 -0.1452 -1.3562  1.3050
 1189SOL    HW215204   2.785   3.181   1.166  1.3866  0.7594  0.5401
 1190SOL     OW15205   4.030   3.909   7.973  0.4247 -0.1333 -0.4787
 1190SOL    HW115206   3.979   3.985   8.001 -1.0376 -0.3202 -2.6922
 1190SOL    HW215207   4.102   3.925   8.034  0.6113 -3.1360  0.1081
 1191SOL     OW15208   2.346   3.494   6.332  0.4153  0.1128 -0.3540
 1191SOL    HW115209   2.291   3.555   6.282 -1.8915 -1.9153 -0.2885
 1191SOL    HW215210   2.428   3.516   6.287 -0.1450 -1.8515 -2.3180
 1192SOL     OW15211   1.999   4.199   4.130 -0.2256  0.1253  0.0132
 1192SOL    HW115212   2.004   4.294   4.127  0.8334  0.0569 -0.0917
 1192SOL    HW215213   1.982   4.196   4.225  0.2756  0.9062  0.1193
 1193SOL     OW15214   1.772   2.373  11.644 -0.2971  0.0748 -0.0657
 1193SOL    HW115215   1.837   2.303  11.646 -0.3004  0.0717 -0.0675
 1193SOL    HW215216   1.820   2.452  11.669 -2.2688  0.9380  1.0173
 1194SOL     OW15217   3.235   4.230   6.904  0.1641 -0.1036 -0.1979
 1194SOL    HW115218   3.151   4.209   6.863 -0.1705 -2.0063  1.4553
 1194SOL    HW215219   3.239   4.171   6.979 -0.8700  0.9138  0.6517
 1195SOL     OW15220   0.205   3.150   4.180  0.0810 -0.2349  0.0753
 1195SOL    HW115221   0.183   3.058   4.164 -1.8832  0.0552  1.1504
 1195SOL    HW215222   0.142   3.165   4.251  0.3265 -2.2291  0.7054
 1196SOL     OW15223   4.420   4.341   3.081  0.0697  0.6493  0.1935
 1196SOL    HW115224   4.384   4.369   2.997 -1.8119 -0.1297  0.7292
 1196SOL    HW215225   4.513   4.358   3.068  0.2488 -0.3129  0.2259
 1197SOL     OW15226   1.033   2.104   5.934  0.1284  0.1916 -0.3510
 1197SOL    HW115227   0.997   2.025   5.893 -2.5725  1.2053  0.0175
 1197SOL    HW215228   1.045   2.165   5.860  0.9654 -0.5272 -0.8067
 1198SOL     OW15229   3.256   3.740   5.838  0.0459 -0.0838  0.1092
 1198SOL    HW115230   3.268   3.767   5.929 -1.7534 -0.1814  0.3898
 1198SOL    HW215231   3.274   3.647   5.854  1.6883  0.9101  4.1808
 1199SOL     OW15232   4.629   3.140  10.725  0.2403 -0.2424  0.5067
 1199SOL    HW115233   4.604   3.096  10.806 -0.5332 -1.8083 -0.5985
 1199SOL    HW215234   4.587   3.226  10.733  0.9714  0.3928 -2.5024
 1200SOL     OW15235   4.109   0.187  17.560  0.0137  0.2914  0.0592
 1200SOL    HW115236   4.183   0.138  17.598  0.6024  0.3010 -1.0840
 1200SOL    HW215237   4.033   0.133  17.582  0.0224  0.9126  1.5980
 1201SOL     OW15238   2.127   1.692   7.114  0.1775  0.5836 -0.6838
 1201SOL    HW115239   2.086   1.717   7.032 -1.1526  1.9476  0.4106
 1201SOL    HW215240   2.089   1.605   7.122  0.5124  0.5661  0.8032
 1202SOL     OW15241   0.201   2.497  17.731  0.1744 -0.1632  0.0876
 1202SOL    HW115242   0.131   2.505  17.666 -0.2760  0.8157  0.6974
 1202SOL    HW215243   0.249   2.577  17.712 -1.2014  0.3762 -1.1246
 1203SOL     OW15244   2.659   1.259   8.808 -0.1596 -0.3381  0.6749
 1203SOL    HW115245   2.725   1.327   8.792 -0.0116 -0.5637  0.3318
 1203SOL    HW215246   2.647   1.256   8.903  0.4722  0.4896  0.7871
 1204SOL     OW15247   4.227   3.590   1.198  0.4331  0.2117  0.0597
 1204SOL    HW115248   4.238   3.685   1.203  0.6783  0.2179 -0.6864
 1204SOL    HW215249   4.311   3.544   1.195 -0.0528 -0.6690 -0.0029
 1205SOL     OW15250   2.023   1.037  10.205 -0.2502  0.2447  0.1871
 1205SOL    HW115251   2.117   1.029  10.190 -0.2368  0.4087  0.1810
 1205SOL    HW215252   2.010   1.125  10.168 -1.1738 -0.1089 -0.3279
 1206SOL     OW15253   3.448   1.591   6.159 -0.7947  0.4060 -0.5004
 1206SOL    HW115254   3.364   1.616   6.120 -0.7837 -1.5980 -1.8339
 1206SOL    HW215255   3.468   1.650   6.231 -2.0679  0.1805  0.0397
 1207SOL     OW15256   3.312   2.993   4.729 -0.2870  0.0193  0.3619
 1207SOL    HW115257   3.295   2.962   4.640  2.7144  1.0583 -0.5660
 1207SOL    HW215258   3.369   2.927   4.769 -0.6581 -0.7097 -0.2920
 1208SOL     OW15259   0.836   2.219   4.473 -0.0329 -0.6179  0.9090
 1208SOL    HW115260   0.880   2.301   4.497 -0.0683 -0.3982  0.2337
 1208SOL    HW215261   0.751   2.258   4.458  0.2560 -1.3620 -2.5725
 1209SOL     OW15262   1.608   4.077   4.259  0.2005 -0.0456 -0.1878
 1209SOL    HW115263   1.614   4.062   4.353  0.1411 -2.3182 -0.5504
 1209SOL    HW215264   1.606   3.995   4.210  1.6555 -1.1602  1.6023
 1210SOL     OW15265   3.712   1.343   3.296 -0.0691 -0.7413  0.1607
 1210SOL    HW115266   3.638   1.373   3.244  0.2545 -0.7037 -0.2792
 1210SOL    HW215267   3.771   1.309   3.229 -0.2906  3.4052 -2.1246
 1211SOL     OW15268   1.902   1.638   7.682 -0.0318 -0.2505  0.3100
 1211SOL    HW115269   1.814   1.659   7.715 -0.0227  0.1052  0.1137
 1211SOL    HW215270   1.893   1.550   7.647  1.1283  0.4319 -1.6812
 1212SOL     OW15271   3.091   2.324   4.280 -0.2611 -0.3140  0.8780
 1212SOL    HW115272   3.179   2.306   4.312  0.7467 -0.1966 -1.8359
 1212SOL    HW215273   3.109   2.367   4.196  0.6061  0.9924  1.7390
 1213SOL     OW15274   0.686   0.694   6.234 -0.2596  0.3514  0.3392
 1213SOL    HW115275   0.781   0.699   6.225 -0.3367  0.9343 -0.2088
 1213SOL    HW215276   0.663   0.785   6.217  0.0902  0.7583  2.0544
 1214SOL     OW15277   3.315   2.145   8.804  0.6277  0.2379  0.5569
 1214SOL    HW115278   3.289   2.188   8.885  1.6981  2.2917 -0.1909
 1214SOL    HW215279   3.375   2.077   8.834 -0.0226  0.1838  1.7356
 1215SOL     OW15280   1.054   3.506   5.184 -0.2500  0.3639  0.3437
 1215SOL    HW115281   1.030   3.571   5.118 -0.2524 -1.5744 -1.5615
 1215SOL    HW215282   1.109   3.551   5.249  1.1867  0.5496 -1.0039
 1216SOL     OW15283   4.446   3.706   9.747 -0.4590  0.3616 -0.4008
 1216SOL    HW115284   4.410   3.790   9.717 -0.9367  0.1767 -0.3498
 1216SOL    HW215285   4.529   3.729   9.787 -1.8844  1.5370  1.8955
 1217SOL     OW15286   0.526   0.556   1.349 -0.2829 -0.3806 -0.2188
 1217SOL    HW115287   0.604   0.519   1.392  0.0742  2.3285  1.4677
 1217SOL    HW215288   0.511   0.642   1.388 -1.8611 -1.0152  0.6021
 1218SOL     OW15289   2.017   1.218   4.388  0.2363  0.0491 -0.4988
 1218SOL    HW115290   2.075   1.286   4.355  1.4813 -0.9311 -0.3071
 1218SOL    HW215291   1.933   1.239   4.347  0.8914  2.2904 -0.6713
 1219SOL     OW15292   3.835   2.237  16.038  0.1151 -0.1061 -0.3613
 1219SOL    HW115293   3.740   2.252  16.040 -0.4061 -3.3237 -1.0024
 1219SOL    HW215294   3.830   2.147  16.071 -1.1105  0.1305  0.0900
 1220SOL     OW15295   4.219   3.245   1.528 -0.1156 -0.2058 -0.1693
 1220SOL    HW115296   4.300   3.257   1.478  0.3258  0.4504  0.6994
 1220SOL    HW215297   4.248   3.215   1.615  0.4419 -0.9729 -0.6174
 1221SOL     OW15298   4.729   2.365   4.769 -0.2013  0.3285 -0.2695
 1221SOL    HW115299   4.660   2.299   4.773  0.9244 -0.9747 -1.9628
 1221SOL    HW215300   4.676   2.444   4.781  1.4384  1.4819 -0.6877
 1222SOL     OW15301   0.369   3.447   4.927 -0.0272 -0.1836  0.1272
 1222SOL    HW115302   0.454   3.405   4.939  0.3234  0.2599 -0.8016
 1222SOL    HW215303   0.363   3.502   5.005  3.8350 -0.4076  0.5876
 1223SOL     OW15304   3.495   2.645   7.864  0.2111 -0.0198  0.2352
 1223SOL    HW115305   3.426   2.584   7.836 -1.7345  3.0722 -1.6966
 1223SOL    HW215306   3.451   2.715   7.815  0.7840  0.4485  0.3961
 1224SOL     OW15307   1.504   0.987  15.624  0.1706  0.9024  0.1491
 1224SOL    HW115308   1.470   1.066  15.582 -2.7272 -0.0544  0.6974
 1224SOL    HW215309   1.458   0.923  15.570  1.9039  2.9979 -3.7957
 1225SOL     OW15310   3.621   1.322  10.976 -0.3225 -0.3443 -0.3409
 1225SOL    HW115311   3.638   1.330  10.882  3.3441  1.3358  0.4488
 1225SOL    HW215312   3.696   1.368  11.014 -1.1791  0.3030  0.5554
 1226SOL     OW15313   1.930   3.531   6.162 -0.2056  0.3645 -0.0092
 1226SOL    HW115314   1.847   3.559   6.201 -0.4294 -0.5937  0.1969
 1226SOL    HW215315   1.963   3.473   6.230  3.9773  1.8447 -0.8076
 1227SOL     OW15316   0.783   1.350   5.217  0.0318  0.5087  0.0292
 1227SOL    HW115317   0.715   1.308   5.269  0.3075 -0.4870 -0.3969
 1227SOL    HW215318   0.745   1.343   5.129  0.0951  0.9516 -0.0361
 1228SOL     OW15319   2.636   0.172   7.230 -0.2170 -0.2564 -0.2753
 1228SOL    HW115320   2.566   0.182   7.295  1.2320 -1.2948  1.4597
 1228SOL    HW215321   2.583   0.142   7.157  1.1754 -1.2745 -0.8665
 1229SOL     OW15322   1.216   2.787   2.282  0.1256  0.1257 -0.0735
 1229SOL    HW115323   1.172   2.868   2.255 -1.4480 -0.3450  0.9935
 1229SOL    HW215324   1.248   2.811   2.369  0.0737  1.0325 -0.3010
 1230SOL     OW15325   2.305   0.467   7.263 -0.0301  0.0073  0.4837
 1230SOL    HW115326   2.358   0.390   7.285 -1.1732 -1.2169 -0.9735
 1230SOL    HW215327   2.310   0.499   7.353 -1.6080  1.7171 -0.0416
 1231SOL     OW15328   3.714   3.760   6.180  0.3050 -0.3872 -0.5698
 1231SOL    HW115329   3.713   3.678   6.230  1.0631 -0.4308 -0.6211
 1231SOL    HW215330   3.804   3.772   6.150  0.4568  1.3984  0.6199
 1232SOL     OW15331   4.688   3.327   3.219  0.2704 -0.2514  0.0045
 1232SOL    HW115332   4.641   3.258   3.174 -0.9834  0.5930  0.0016
 1232SOL    HW215333   4.638   3.401   3.184 -0.8070  0.0683  2.1821
 1233SOL     OW15334   3.984   2.112   1.647  0.1815  0.3954  0.0297
 1233SOL    HW115335   4.020   2.185   1.596 -2.7500  0.6219 -1.7022
 1233SOL    HW215336   3.996   2.041   1.583  1.3311 -0.8333  1.6073
 1234SOL     OW15337   3.693   3.022   0.692 -0.0980 -0.4878  0.3767
 1234SOL    HW115338   3.608   3.052   0.658 -0.0282 -0.8994 -0.1651
 1234SOL    HW215339   3.660   2.948   0.743 -2.1581 -0.3207 -0.6916
 1235SOL     OW15340   0.539   2.463  10.042  0.5051 -0.0546 -0.1487
 1235SOL    HW115341   0.576   2.455  10.130 -0.2828 -1.2910  0.0631
 1235SOL    HW215342   0.513   2.555  10.032 -1.4771 -0.5548  0.4430
 1236SOL     OW15343   1.868   0.617  12.110  0.1139  0.7944  0.0092
 1236SOL    HW115344   1.842   0.575  12.028  1.1602  0.3404 -0.0928
 1236SOL    HW215345   1.810   0.577  12.175  3.6761 -2.8510  0.9054
 1237SOL     OW15346   4.377   2.894   1.357  0.1419 -0.6264  0.2888
 1237SOL    HW115347   4.348   2.812   1.397  0.5508 -2.1326 -2.5504
 1237SOL    HW215348   4.366   2.955   1.431  1.5720 -0.3122  0.2429
 1238SOL     OW15349   3.591   4.635   2.904  0.3286  0.0956 -0.5407
 1238SOL    HW115350   3.650   4.561   2.886 -2.2586 -1.2096 -3.5466
 1238SOL    HW215351   3.555   4.638   2.816  2.7345 -1.8687 -1.5757
 1239SOL     OW15352   0.154   0.053   6.445 -0.2879 -0.0317  0.7354
 1239SOL    HW115353   0.068   0.090   6.468  0.3024  1.2562  0.8559
 1239SOL    HW215354   0.190   0.067   6.532  1.2221 -0.8920  0.2404
 1240SOL     OW15355   1.029   0.242   1.760 -0.4340 -0.0840 -0.3650
 1240SOL    HW115356   0.992   0.317   1.714  0.5002 -0.8152 -2.3081
 1240SOL    HW215357   1.066   0.188   1.690  1.3510  0.5254  0.1240
 1241SOL     OW15358   1.966   2.991   1.317  0.2648 -0.0052  0.0395
 1241SOL    HW115359   1.980   2.933   1.392 -1.0312  0.1213  0.3803
 1241SOL    HW215360   2.046   2.977   1.267 -1.0624  1.0598 -2.3902
 1242SOL     OW15361   2.828   1.210   4.030  0.3102 -0.3490  0.6171
 1242SOL    HW115362   2.781   1.153   4.090 -2.0360  2.4012  1.3629
 1242SOL    HW215363   2.914   1.166   4.029 -0.5364 -1.9224 -4.4838
 1243SOL     OW15364   4.685   3.275   3.482 -0.0050 -0.1612  0.0005
 1243SOL    HW115365   4.648   3.189   3.464  1.7674 -1.3102  1.8926
 1243SOL    HW215366   4.652   3.309   3.398 -0.7355 -1.7023 -0.3322
 1244SOL     OW15367   2.760   1.680   6.211  0.2817  0.2484 -0.3625
 1244SOL    HW115368   2.735   1.763   6.172  0.9733  1.5459  2.0049
 1244SOL    HW215369   2.834   1.657   6.153  0.3761  0.5090 -0.3450
 1245SOL     OW15370   0.440   1.482   7.538  0.0254 -0.3215  0.5208
 1245SOL    HW115371   0.407   1.498   7.450  0.9435 -1.0905  0.0379
 1245SOL    HW215372   0.384   1.531   7.598  1.3538  0.3477  1.2108
 1246SOL     OW15373   3.954   0.633   3.063  0.3232  0.1498  0.6539
 1246SOL    HW115374   3.881   0.573   3.076  0.4501  0.2376  1.7674
 1246SOL    HW215375   3.907   0.700   3.014  1.0762  1.0390  1.1467
 1247SOL     OW15376   0.225   2.133  11.150 -0.2263  0.6797 -0.1710
 1247SOL    HW115377   0.259   2.046  11.172  1.4201  1.6175  0.9297
 1247SOL    HW215378   0.211   2.172  11.236  1.0248 -1.1832  0.8775
 1248SOL     OW15379   2.811   0.233   8.744  0.3012 -0.0927 -0.2245
 1248SOL    HW115380   2.755   0.159   8.722  0.1286 -0.1396  0.3576
 1248SOL    HW215381   2.883   0.237   8.682 -0.7670 -1.0569 -1.5182
 1249SOL     OW15382   0.839   0.546   4.725 -0.2708 -0.1306  0.4672
 1249SOL    HW115383   0.774   0.524   4.792 -2.1908  0.6199 -1.1577
 1249SOL    HW215384   0.790   0.615   4.680 -1.3875 -0.4846  1.1435
 1250SOL     OW15385   2.726   1.312   2.617 -0.0662  0.0027 -0.1231
 1250SOL    HW115386   2.645   1.316   2.668  0.1998 -0.0794  0.3072
 1250SOL    HW215387   2.687   1.306   2.530  2.1924 -3.0385 -0.9317
 1251SOL     OW15388   0.476   0.202   6.055  0.0680  0.1800  0.1611
 1251SOL    HW115389   0.402   0.208   6.115 -2.2008 -1.2762 -2.4744
 1251SOL    HW215390   0.489   0.294   6.035  0.4710  0.1537  0.3123
 1252SOL     OW15391   2.473   2.731   1.340  0.3848  0.1185  0.1135
 1252SOL    HW115392   2.390   2.685   1.326 -0.4765  1.7160  0.0330
 1252SOL    HW215393   2.498   2.761   1.252  0.4426  1.0834  0.4608
 1253SOL     OW15394   1.670   1.664   4.736  0.4309 -0.0380  0.0211
 1253SOL    HW115395   1.687   1.606   4.662  0.2637 -0.0945  0.0269
 1253SOL    HW215396   1.720   1.614   4.801  0.7831 -0.8607 -0.8857
 1254SOL     OW15397   4.103   0.344   9.512 -0.4442 -0.9053 -0.1873
 1254SOL    HW115398   4.164   0.384   9.450 -0.4213  1.3314  1.2423
 1254SOL    HW215399   4.126   0.387   9.594 -1.1894  1.9979 -1.4756
 1255SOL     OW15400   0.491   0.671   8.968 -0.1557 -0.1289 -0.2936
 1255SOL    HW115401   0.447   0.684   9.052  1.3560 -1.2702  0.6697
 1255SOL    HW215402   0.558   0.605   8.986 -0.6435 -0.0923  1.7399
 1256SOL     OW15403   1.651   0.359  15.827  0.2172 -0.5408  0.2819
 1256SOL    HW115404   1.625   0.388  15.914 -0.6025 -1.9605  0.5054
 1256SOL    HW215405   1.731   0.411  15.820  0.7712 -1.5883 -1.2883
 1257SOL     OW15406   1.052   1.658   3.788  0.1829  0.0157  0.2449
 1257SOL    HW115407   1.121   1.724   3.791 -1.2851  1.4770  1.8835
 1257SOL    HW215408   1.067   1.612   3.871  1.4900 -0.2377 -0.1382
 1258SOL     OW15409   3.465   4.662   5.709 -0.4851 -0.2730 -0.1958
 1258SOL    HW115410   3.525   4.606   5.659  0.1521 -1.2605  1.6773
 1258SOL    HW215411   3.381   4.632   5.676  0.2521 -1.3703 -1.0424
 1259SOL     OW15412   4.014   4.127   4.622  0.2202  0.3617 -0.1154
 1259SOL    HW115413   3.929   4.109   4.582  0.5231 -1.5037  0.0799
 1259SOL    HW215414   4.071   4.064   4.578  3.1854  1.8202  1.5944
 1260SOL     OW15415   3.057   0.615  12.388 -0.5559 -0.2512 -0.1887
 1260SOL    HW115416   2.979   0.658  12.353 -0.2780 -0.7759 -1.4601
 1260SOL    HW215417   3.019   0.593  12.473  0.6133 -0.0478  0.3860
 1261SOL     OW15418   1.904   0.089  11.598  0.2670  0.1319  0.3587
 1261SOL    HW115419   1.867   0.168  11.559  1.0212  0.3188  0.0424
 1261SOL    HW215420   1.991   0.110  11.631 -0.2242  0.8674  1.2236
 1262SOL     OW15421   0.779   1.781   8.972  0.1828 -0.1770 -0.6322
 1262SOL    HW115422   0.779   1.798   8.878  1.0286  0.5085 -0.5049
 1262SOL    HW215423   0.835   1.703   8.970 -0.3765 -0.4997 -3.0479
 1263SOL     OW15424   0.654   3.417   8.130 -0.9065 -0.2193 -0.1773
 1263SOL    HW115425   0.736   3.401   8.084  0.1957  2.0215  0.9860
 1263SOL    HW215426   0.688   3.467   8.204 -0.2930 -1.0469  0.0869
 1264SOL     OW15427   0.752   2.196   3.672  0.2292  0.1483  0.8701
 1264SOL    HW115428   0.722   2.150   3.751 -0.1429 -1.1949 -0.0608
 1264SOL    HW215429   0.801   2.134   3.620  1.8453  1.0163  1.3695
 1265SOL     OW15430   0.182   1.102   3.668  0.5862 -0.1283 -0.3906
 1265SOL    HW115431   0.155   1.042   3.598 -0.7965  1.1722 -0.9677
 1265SOL    HW215432   0.218   1.179   3.626 -1.3702  1.0539  0.1231
 1266SOL     OW15433   1.223   2.241  14.881  0.0973 -0.2790 -0.1726
 1266SOL    HW115434   1.253   2.177  14.816 -2.5034 -1.6347 -0.0339
 1266SOL    HW215435   1.242   2.198  14.964  0.6247 -3.4274 -1.9008
 1267SOL     OW15436   0.104   2.270   7.747  0.2080  0.4435 -0.7128
 1267SOL    HW115437   0.102   2.216   7.669 -1.0102  0.7864 -0.9220
 1267SOL    HW215438   0.191   2.311   7.748  1.3354 -1.9653 -2.0078
 1268SOL     OW15439   3.539   4.080   4.110  0.2602 -0.0989 -0.3630
 1268SOL    HW115440   3.460   4.080   4.057 -0.2508 -1.2693  0.3758
 1268SOL    HW215441   3.501   4.136   4.177 -3.6362 -3.4187  0.2126
 1269SOL     OW15442   4.172   1.706   5.984 -0.5269  0.2853  0.0095
 1269SOL    HW115443   4.213   1.787   6.012  0.9956 -0.2215 -0.7778
 1269SOL    HW215444   4.235   1.641   6.014 -3.0107 -2.5356 -0.7676
 1270SOL     OW15445   0.850   1.138  15.077  0.1154  0.2232 -0.3337
 1270SOL    HW115446   0.767   1.134  15.030 -1.4522  1.3387  2.3194
 1270SOL    HW215447   0.824   1.173  15.163  1.6622  0.7814 -0.0892
 1271SOL     OW15448   0.810   2.809   6.600 -0.4457  0.2416  0.4194
 1271SOL    HW115449   0.879   2.873   6.583 -1.2150  0.5754 -1.4470
 1271SOL    HW215450   0.740   2.842   6.543 -1.7606 -1.3011  1.1375
 1272SOL     OW15451   1.231   2.293   0.111  0.2574  0.1820 -0.2271
 1272SOL    HW115452   1.243   2.208   0.069  3.0904  1.0758 -1.2642
 1272SOL    HW215453   1.319   2.331   0.123  0.0444  0.6160 -0.0157
 1273SOL     OW15454   2.094   2.255   3.181 -0.2318  0.2059  0.2274
 1273SOL    HW115455   2.059   2.195   3.115  1.9883  0.8557 -1.5266
 1273SOL    HW215456   2.019   2.313   3.194 -1.3953 -1.0038 -1.0935
 1274SOL     OW15457   1.955   4.352   5.118 -0.1590 -0.3603 -0.0545
 1274SOL    HW115458   1.931   4.406   5.194 -0.0168 -2.4355  1.4532
 1274SOL    HW215459   1.987   4.418   5.057 -0.5285  1.9886  2.2871
 1275SOL     OW15460   1.773   3.177   8.403 -0.2455  0.2734 -0.9695
 1275SOL    HW115461   1.828   3.164   8.326 -0.1268 -0.0534 -0.8300
 1275SOL    HW215462   1.689   3.159   8.361 -0.1348 -2.1836 -0.1268
 1276SOL     OW15463   2.518   1.090   6.722 -0.4272 -0.3842  0.0865
 1276SOL    HW115464   2.532   1.162   6.661  0.2329 -0.2705  0.3692
 1276SOL    HW215465   2.441   1.046   6.687  0.4981 -0.7288 -1.4896
 1277SOL     OW15466   2.973   3.115  11.227  0.3605 -0.3841 -0.4708
 1277SOL    HW115467   2.970   3.091  11.320 -2.0252 -0.3323 -0.5194
 1277SOL    HW215468   2.924   3.045  11.184 -0.8803  0.2179 -0.0497
 1278SOL     OW15469   3.393   2.031  11.787  0.5236  0.1653  0.0306
 1278SOL    HW115470   3.473   1.998  11.828  1.3959  2.1022 -0.0823
 1278SOL    HW215471   3.429   2.098  11.729  1.5897 -0.7084 -0.3246
 1279SOL     OW15472   1.912   2.342   6.255 -0.1246  0.3894 -0.9687
 1279SOL    HW115473   1.843   2.322   6.318 -0.6427  0.6655 -1.4417
 1279SOL    HW215474   1.945   2.429   6.278  1.5586 -0.2007 -1.1025
 1280SOL     OW15475   1.788   1.196   5.460  0.3650  0.5187  0.5694
 1280SOL    HW115476   1.769   1.134   5.389  2.6882  0.4119  0.0507
 1280SOL    HW215477   1.717   1.259   5.446  0.0200 -0.1725 -0.8554
 1281SOL     OW15478   3.821   0.659   8.375 -0.0537 -0.2721 -0.6585
 1281SOL    HW115479   3.827   0.698   8.288  0.4247  0.9379 -0.0694
 1281SOL    HW215480   3.744   0.707   8.405 -1.2893 -2.8044  0.2715
 1282SOL     OW15481   0.630   0.750   8.002  0.0869  0.3943  0.3464
 1282SOL    HW115482   0.595   0.837   8.021  1.0252  0.7717  0.3924
 1282SOL    HW215483   0.668   0.729   8.087  0.3713 -0.3918  0.0331
 1283SOL     OW15484   0.515   4.203  17.070 -0.0827  0.2161 -0.2204
 1283SOL    HW115485   0.428   4.222  17.033 -0.7309 -1.5390  0.4100
 1283SOL    HW215486   0.494   4.157  17.151  1.6008 -0.1290  0.0061
 1284SOL     OW15487   1.475   0.740   8.797  0.2682 -0.0068 -0.3905
 1284SOL    HW115488   1.438   0.824   8.768  1.2595  0.8338  0.7584
 1284SOL    HW215489   1.443   0.691   8.722 -1.2937 -0.3242  0.4860
 1285SOL     OW15490   1.507   2.212   2.052 -0.2020  0.3541 -0.0388
 1285SOL    HW115491   1.422   2.221   2.095 -1.2086  0.0122 -1.9312
 1285SOL    HW215492   1.482   2.259   1.972 -1.2535 -0.4359 -0.1786
 1286SOL     OW15493   0.236   0.044   3.529 -0.0194 -0.0486 -0.0657
 1286SOL    HW115494   0.298   0.065   3.460  1.2598  1.9234  1.6633
 1286SOL    HW215495   0.298   0.015   3.596 -1.2057 -0.3311  0.9274
 1287SOL     OW15496   1.698   1.221  10.598  0.0631  0.4531  0.6181
 1287SOL    HW115497   1.770   1.281  10.617  0.4319 -0.3335  1.6739
 1287SOL    HW215498   1.709   1.203  10.505 -2.9510  0.1268  0.3222
 1288SOL     OW15499   0.542   0.233   8.591 -0.0509  0.2166 -0.0693
 1288SOL    HW115500   0.510   0.306   8.538 -2.2005 -0.7970 -0.1962
 1288SOL    HW215501   0.574   0.276   8.670  3.5617 -3.1744  0.3259
 1289SOL     OW15502   0.043   4.466   2.475  0.0103  0.0525 -0.0404
 1289SOL    HW115503   0.066   4.464   2.382 -2.1331 -1.1497 -0.5234
 1289SOL    HW215504   0.024   4.373   2.486 -2.1012  0.7304  2.0194
 1290SOL     OW15505   1.287   1.774  11.179  0.1197 -0.0269  0.0303
 1290SOL    HW115506   1.230   1.781  11.256 -0.2448 -2.0770 -0.0753
 1290SOL    HW215507   1.327   1.861  11.181 -1.2444  0.5756  1.0821
 1291SOL     OW15508   1.052   0.867   5.573 -0.4315 -0.0306  0.2524
 1291SOL    HW115509   1.056   0.890   5.480 -1.2534  0.6713  0.3917
 1291SOL    HW215510   1.077   0.775   5.568 -0.6460 -0.1870  2.0747
 1292SOL     OW15511   2.255   0.714   8.360  0.0331  0.0103 -0.2652
 1292SOL    HW115512   2.261   0.620   8.379 -0.9057 -0.1152 -0.5526
 1292SOL    HW215513   2.313   0.719   8.284  1.0639 -0.1709  0.5253
 1293SOL     OW15514   2.296   0.088   2.799  0.4404  0.4364 -0.5503
 1293SOL    HW115515   2.201   0.078   2.807  0.2906  2.7855  0.5939
 1293SOL    HW215516   2.323   0.019   2.859 -1.0165  0.7852  0.5044
 1294SOL     OW15517   0.276   2.169   1.574  0.0320  0.1974  0.1859
 1294SOL    HW115518   0.248   2.159   1.665 -2.0911 -0.0295 -0.4694
 1294SOL    HW215519   0.258   2.081   1.540 -1.4134  0.4294  0.3425
 1295SOL     OW15520   4.526   0.715   2.544  0.2850  0.4201  0.0247
 1295SOL    HW115521   4.536   0.785   2.609 -4.0775 -0.1710  1.3781
 1295SOL    HW215522   4.502   0.649   2.610  0.1321 -0.4790 -0.9280
 1296SOL     OW15523   3.100   3.917  12.935 -0.2801  0.5445 -0.1103
 1296SOL    HW115524   3.086   4.007  12.964 -2.2849  0.2544 -0.1979
 1296SOL    HW215525   3.115   3.869  13.016 -0.9585 -0.5750 -0.6473
 1297SOL     OW15526   1.248   3.552   3.615 -0.2366 -0.3319 -0.4762
 1297SOL    HW115527   1.176   3.491   3.598 -0.0062 -0.5375 -0.7222
 1297SOL    HW215528   1.311   3.512   3.554 -0.8880  0.1266 -1.4491
 1298SOL     OW15529   0.171   0.595   5.354 -0.3203 -0.0358  0.1760
 1298SOL    HW115530   0.231   0.544   5.407  1.3379  1.4549 -0.2697
 1298SOL    HW215531   0.106   0.632   5.414 -1.7036 -2.2556  0.0327
 1299SOL     OW15532   4.335   0.489   4.884 -0.1643  0.1854  0.2291
 1299SOL    HW115533   4.362   0.397   4.884  0.0740  0.2703 -2.5380
 1299SOL    HW215534   4.389   0.524   4.956 -1.9041 -0.0885  1.6601
 1300SOL     OW15535   3.337   0.547  13.579  0.3268 -0.1692 -0.3239
 1300SOL    HW115536   3.296   0.599  13.648  1.1469  1.5839 -1.1463
 1300SOL    HW215537   3.263   0.526  13.522 -1.1615  3.9114  0.1166
 1301SOL     OW15538   2.253   1.617   3.162  0.1422 -0.0234 -0.0576
 1301SOL    HW115539   2.183   1.641   3.222 -3.3882 -2.5163 -3.1742
 1301SOL    HW215540   2.227   1.528   3.137 -2.1079  0.3889  0.7902
 1302SOL     OW15541   1.286   1.826   9.890 -0.6042  0.2481  0.0960
 1302SOL    HW115542   1.305   1.780   9.972  0.1220  1.2894  0.5047
 1302SOL    HW215543   1.229   1.896   9.923  1.3034  0.8537  2.0609
 1303SOL     OW15544   0.970   2.506   4.847  0.0968  0.2928 -0.2702
 1303SOL    HW115545   0.921   2.585   4.871  0.7759  0.2286  1.2559
 1303SOL    HW215546   1.050   2.525   4.895 -0.6221  0.3871  0.8982
 1304SOL     OW15547   0.043   0.697   7.375  0.2455 -0.1548 -0.1838
 1304SOL    HW115548   0.110   0.732   7.433 -0.4462  0.6766  0.1177
 1304SOL    HW215549   0.015   0.618   7.422 -3.1517  1.4367  0.4872
 1305SOL     OW15550   0.319   4.241  15.019 -0.0348  0.0687 -0.8611
 1305SOL    HW115551   0.408   4.247  15.053 -0.1297 -0.4357 -0.5239
 1305SOL    HW215552   0.279   4.317  15.061 -0.2015  0.9711 -2.6629
 1306SOL     OW15553   4.585   0.218   5.192  0.2191 -0.3721  0.0033
 1306SOL    HW115554   4.576   0.312   5.205  2.6503  0.2486 -2.8582
 1306SOL    HW215555   4.637   0.205   5.113 -0.4587 -0.5638 -0.4052
 1307SOL     OW15556   0.944   4.446  15.005  0.5542  0.0534  0.5628
 1307SOL    HW115557   0.991   4.450  15.088 -1.3036 -1.2959  1.6636
 1307SOL    HW215558   1.016   4.455  14.943  0.2502 -0.2461  0.1689
 1308SOL     OW15559   0.486   3.108   7.831 -0.5348  0.1510 -0.3773
 1308SOL    HW115560   0.570   3.062   7.817  0.2582  2.2895 -2.5867
 1308SOL    HW215561   0.461   3.079   7.919  1.4176 -0.9098 -0.1395
 1309SOL     OW15562   3.623   2.250   5.181  0.1624  0.0964  0.3388
 1309SOL    HW115563   3.611   2.158   5.206 -0.1931 -0.1544 -0.7542
 1309SOL    HW215564   3.617   2.308   5.257  1.5632 -0.2540  0.7198
 1310SOL     OW15565   1.722   3.320   3.427 -0.2294  0.4066  0.5276
 1310SOL    HW115566   1.795   3.376   3.399  0.1590 -0.6626 -0.5924
 1310SOL    HW215567   1.692   3.278   3.346  0.8462 -0.9011  0.8019
 1311SOL     OW15568   3.236   2.332   8.599  0.3087  0.2013 -0.3021
 1311SOL    HW115569   3.276   2.281   8.669  1.4721  0.1371 -1.0023
 1311SOL    HW215570   3.316   2.352   8.549 -0.2966 -0.9401 -1.7422
 1312SOL     OW15571   0.686   1.035   0.880  0.4203 -0.0766 -0.4500
 1312SOL    HW115572   0.674   0.940   0.877 -1.3396  0.2030 -2.1402
 1312SOL    HW215573   0.690   1.064   0.789  1.0038  1.7454  0.1530
 1313SOL     OW15574   1.753   2.380  13.815  0.3292  0.2216  0.0518
 1313SOL    HW115575   1.839   2.409  13.846 -0.0121  0.4343  0.8076
 1313SOL    HW215576   1.702   2.395  13.895  0.4403  1.6364 -0.1477
 1314SOL     OW15577   3.537   0.597   1.062  0.4058 -0.3299 -0.1159
 1314SOL    HW115578   3.494   0.673   1.024 -0.2612 -0.9429 -0.5889
 1314SOL    HW215579   3.614   0.592   1.005 -0.0840  3.3513 -1.0635
 1315SOL     OW15580   0.977   4.216   3.646 -0.1424  0.1665 -0.5496
 1315SOL    HW115581   1.053   4.176   3.603  1.4023  1.7951  0.7230
 1315SOL    HW215582   1.025   4.264   3.713 -0.8790  1.4227 -0.9301
 1316SOL     OW15583   2.326   1.314   5.169 -0.0395 -0.0069 -0.3456
 1316SOL    HW115584   2.243   1.308   5.121 -0.8339  0.4618  0.9743
 1316SOL    HW215585   2.350   1.223   5.148 -2.3842 -1.3204  2.5993
 1317SOL     OW15586   1.829   1.871   4.718 -0.3140 -0.1115 -0.0924
 1317SOL    HW115587   1.775   1.793   4.724 -1.2522  0.5174 -0.4571
 1317SOL    HW215588   1.768   1.943   4.704 -0.1528 -0.0895 -0.6858
 1318SOL     OW15589   0.725   2.572   1.736 -0.1445 -0.4832 -0.6206
 1318SOL    HW115590   0.740   2.633   1.664  1.4200  0.8989  0.8848
 1318SOL    HW215591   0.756   2.490   1.697  0.8973 -0.6622  0.5857
 1319SOL     OW15592   4.375   3.599   6.635 -0.1474 -0.7661  0.2663
 1319SOL    HW115593   4.376   3.692   6.612  1.1641 -0.7564  0.3656
 1319SOL    HW215594   4.469   3.583   6.648  0.7336  1.3802 -3.3028
 1320SOL     OW15595   4.502   1.593   4.308  0.3753 -0.0621 -0.3722
 1320SOL    HW115596   4.507   1.657   4.237  1.3252  0.4208  0.1298
 1320SOL    HW215597   4.430   1.636   4.354  0.2447 -0.0014 -0.6364
 1321SOL     OW15598   1.463   2.333   4.887  0.1712  0.4279  0.1622
 1321SOL    HW115599   1.476   2.373   4.801 -1.4110  0.0807 -0.2434
 1321SOL    HW215600   1.393   2.272   4.864  0.8421 -0.0695 -0.5508
 1322SOL     OW15601   1.300   3.514   8.300 -0.5547 -0.1660  0.1271
 1322SOL    HW115602   1.245   3.592   8.304  1.6173  1.3060  1.1802
 1322SOL    HW215603   1.318   3.508   8.206  1.4912 -2.1115  0.6523
 1323SOL     OW15604   3.212   4.196  15.609 -0.4149 -0.4196  0.7836
 1323SOL    HW115605   3.262   4.219  15.531  0.5502 -1.6899  1.0311
 1323SOL    HW215606   3.157   4.274  15.621  1.0870  0.4243  2.2924
 1324SOL     OW15607   1.680   2.317   1.492 -0.4412 -0.2126 -0.1365
 1324SOL    HW115608   1.716   2.294   1.577 -0.9528 -1.0636 -0.1509
 1324SOL    HW215609   1.752   2.377   1.469 -0.5946 -0.7835 -2.1839
 1325SOL     OW15610   0.525   3.697  10.671 -0.2213 -0.1221 -0.1528
 1325SOL    HW115611   0.576   3.760  10.723 -0.6301 -0.6388  0.8796
 1325SOL    HW215612   0.598   3.650  10.630 -0.5870 -0.5904 -0.2552
 1326SOL     OW15613   0.319   4.635  11.278  0.4582  0.5009  0.1826
 1326SOL    HW115614   0.274   4.555  11.304  0.7312 -0.6709 -3.0041
 1326SOL    HW215615   0.244   4.695  11.279  1.0999  1.2932  1.5918
 1327SOL     OW15616   2.604   0.811   4.080 -0.0315 -0.6197 -0.4101
 1327SOL    HW115617   2.597   0.715   4.075 -1.0824 -0.5540 -0.1930
 1327SOL    HW215618   2.698   0.821   4.063 -0.3132  0.7173 -1.1976
 1328SOL     OW15619   4.674   2.095   6.680  0.5562  0.5338 -0.0647
 1328SOL    HW115620   0.007   2.123   6.741  0.9839  0.4275 -0.4901
 1328SOL    HW215621   4.650   2.186   6.661  1.9547  0.9673  0.1953
 1329SOL     OW15622   1.394   3.029   9.792  0.1300  0.1471  0.0022
 1329SOL    HW115623   1.374   2.962   9.857  2.4179 -0.5135  0.0056
 1329SOL    HW215624   1.405   3.104   9.851  1.2245 -0.5771  0.7119
 1330SOL     OW15625   1.996   4.564   1.911  0.5501  0.0189 -0.1177
 1330SOL    HW115626   1.905   4.576   1.882  0.9415  0.6813 -1.0625
 1330SOL    HW215627   1.994   4.592   2.002  1.3023  1.3432 -0.5047
 1331SOL     OW15628   4.065   2.613  17.509 -0.3067 -0.2420 -0.2501
 1331SOL    HW115629   4.097   2.603  17.419  0.1997 -1.0515  0.0176
 1331SOL    HW215630   4.095   2.529  17.545 -1.0553 -0.0151  0.9221
 1332SOL     OW15631   4.397   1.808   6.332 -0.2619 -0.7272  0.2839
 1332SOL    HW115632   4.447   1.813   6.251 -1.2836 -2.3722 -0.4586
 1332SOL    HW215633   4.388   1.899   6.361  1.4502  0.0081 -1.5041
 1333SOL     OW15634   0.882   0.978  12.132 -0.3234  0.2589  0.4276
 1333SOL    HW115635   0.858   0.890  12.163 -1.9031  0.9755  1.2263
 1333SOL    HW215636   0.804   1.021  12.166  0.5399  1.4629  0.8821
 1334SOL     OW15637   0.665   2.470   7.207  0.8989 -0.3230 -0.5699
 1334SOL    HW115638   0.580   2.434   7.234  1.1093 -0.5026 -0.1490
 1334SOL    HW215639   0.675   2.533   7.278  0.2999 -1.3321  0.4229
 1335SOL     OW15640   3.923   3.314  13.373 -0.4520  0.7250 -0.1394
 1335SOL    HW115641   3.899   3.249  13.439 -1.2820  0.8672 -0.2982
 1335SOL    HW215642   3.847   3.313  13.316 -0.6018  0.1927  0.0674
 1336SOL     OW15643   3.664   3.083   7.707 -0.3493 -0.2758 -0.3561
 1336SOL    HW115644   3.692   3.013   7.648  1.0913  3.0315 -3.6127
 1336SOL    HW215645   3.720   3.158   7.690 -0.1206 -1.1404 -3.4056
 1337SOL     OW15646   3.709   3.518   8.384 -0.1937 -0.6442  0.1202
 1337SOL    HW115647   3.739   3.609   8.391  1.9128 -1.1174 -2.7570
 1337SOL    HW215648   3.664   3.492   8.464  0.6480  0.2672  0.8860
 1338SOL     OW15649   4.028   1.074   6.521 -0.0125 -0.1377  0.2703
 1338SOL    HW115650   4.103   1.015   6.526 -0.2463 -0.5158 -0.6723
 1338SOL    HW215651   4.064   1.153   6.479 -0.9638  0.9179  1.4279
 1339SOL     OW15652   0.857   3.835  12.447  0.1437 -0.1178  0.0292
 1339SOL    HW115653   0.856   3.930  12.437 -0.6026 -0.0817  0.4732
 1339SOL    HW215654   0.786   3.814  12.507 -0.3171  3.3357  0.7046
 1340SOL     OW15655   0.545   1.506   6.205 -0.0907 -0.1468  1.0544
 1340SOL    HW115656   0.550   1.439   6.136  0.6876 -0.3818  1.3367
 1340SOL    HW215657   0.540   1.587   6.155  0.2365 -0.0141  1.2343
 1341SOL     OW15658   0.702   0.286   2.658  0.1579  0.1470  0.4468
 1341SOL    HW115659   0.745   0.295   2.573  0.2806  0.3375  0.5298
 1341SOL    HW215660   0.651   0.366   2.666 -0.0796 -0.0668  1.0867
 1342SOL     OW15661   3.512   0.070   6.218 -0.2324 -0.1438 -0.2424
 1342SOL    HW115662   3.597   0.114   6.223 -1.2088  1.5628  1.0643
 1342SOL    HW215663   3.516   0.030   6.131  0.0287 -0.9848  0.1502
 1343SOL     OW15664   2.455   2.045   1.171  0.0197 -0.0289  0.0362
 1343SOL    HW115665   2.535   1.998   1.195  0.2614  1.4189  2.0340
 1343SOL    HW215666   2.420   2.076   1.254 -0.4367 -0.0389 -0.1531
 1344SOL     OW15667   1.456   4.095  14.035  0.0114  0.4263  0.1111
 1344SOL    HW115668   1.367   4.123  14.012 -1.0220 -0.4913  2.9049
 1344SOL    HW215669   1.447   4.097  14.131  2.5231 -0.6559  0.3763
 1345SOL     OW15670   3.285   3.824   6.100  0.2822  0.1219  0.1334
 1345SOL    HW115671   3.212   3.805   6.159 -0.2697  0.3083 -0.4843
 1345SOL    HW215672   3.348   3.844   6.169  0.2521  0.9256 -0.0761
 1346SOL     OW15673   2.352   1.072   2.637  0.3441  0.0747  0.0453
 1346SOL    HW115674   2.278   1.014   2.618 -1.5602  2.2503  0.8402
 1346SOL    HW215675   2.376   1.081   2.545 -1.4846  1.0698 -0.3445
 1347SOL     OW15676   4.696   3.721   8.028  0.1412 -0.0210  0.2755
 1347SOL    HW115677   4.650   3.638   8.039  0.6416 -0.0842  1.8555
 1347SOL    HW215678   4.727   3.727   8.118 -3.5958 -2.2873  1.7089
 1348SOL     OW15679   1.526   4.679   5.926  0.2535 -0.4697  0.1278
 1348SOL    HW115680   1.459   0.009   5.947  1.7303  1.6913 -1.7917
 1348SOL    HW215681   1.470   4.610   5.892 -0.3331  0.1320 -0.1193
 1349SOL     OW15682   4.010   3.687  12.447  0.2708  0.3520  0.0441
 1349SOL    HW115683   4.091   3.672  12.398  1.2310  0.2464  1.6652
 1349SOL    HW215684   3.967   3.744  12.383  2.5892  2.4935  0.3975
 1350SOL     OW15685   4.471   1.579   5.333  0.1059  0.5334  0.1376
 1350SOL    HW115686   4.483   1.615   5.245  0.6018 -1.5011 -0.6318
 1350SOL    HW215687   4.442   1.492   5.307  0.8890 -0.0292  1.1514
 1351SOL     OW15688   2.650   3.088  12.022 -0.6747  0.1627 -0.1611
 1351SOL    HW115689   2.625   3.168  11.976 -1.2896 -0.3087 -0.6295
 1351SOL    HW215690   2.735   3.066  11.983  0.6033 -0.1322  2.7386
 1352SOL     OW15691   1.924   0.788  10.240  0.2951 -0.5235  0.3338
 1352SOL    HW115692   2.002   0.737  10.261 -0.3495 -0.9223  1.7770
 1352SOL    HW215693   1.961   0.876  10.236  0.1717 -0.4567  0.6208
 1353SOL     OW15694   4.650   2.423   3.893 -0.1089  0.6567  0.0995
 1353SOL    HW115695   4.688   2.343   3.927 -1.8465  0.5706  1.8783
 1353SOL    HW215696   4.586   2.444   3.961 -1.6082  0.3589 -1.2056
 1354SOL     OW15697   0.272   1.613   3.281  0.1171 -0.3011 -0.1921
 1354SOL    HW115698   0.243   1.692   3.235 -0.9251  0.5999  1.9897
 1354SOL    HW215699   0.263   1.657   3.366  2.0671  0.8945 -0.6211
 1355SOL     OW15700   4.566   2.253   6.985  0.6029 -0.4172  0.4895
 1355SOL    HW115701   4.579   2.168   7.027  0.2949  0.0277  1.4959
 1355SOL    HW215702   4.649   2.262   6.939  0.5545 -1.5712  0.1895
 1356SOL     OW15703   1.553   2.850   7.538  0.0753 -0.1396 -0.5082
 1356SOL    HW115704   1.637   2.895   7.552 -0.7192  0.9737  0.7341
 1356SOL    HW215705   1.575   2.771   7.490  0.4976 -0.5612  0.3836
 1357SOL     OW15706   2.935   0.755  12.696 -0.5300  0.4380  0.0248
 1357SOL    HW115707   3.029   0.763  12.676 -0.4466  0.5508  0.4572
 1357SOL    HW215708   2.929   0.835  12.748  1.6344  1.6182 -1.5508
 1358SOL     OW15709   0.823   1.408  15.781  0.4001 -0.2644 -0.5463
 1358SOL    HW115710   0.858   1.414  15.870 -0.6677 -0.7374 -0.1058
 1358SOL    HW215711   0.901   1.426  15.728 -0.3302  0.2912 -1.4364
 1359SOL     OW15712   3.172   4.547   5.701  0.1877 -0.2094 -0.3737
 1359SOL    HW115713   3.112   4.534   5.775  0.9000 -0.1325  0.2104
 1359SOL    HW215714   3.173   4.459   5.664  0.1265 -0.6314  0.6232
 1360SOL     OW15715   3.445   1.609   5.366 -0.1257  0.1126  0.3185
 1360SOL    HW115716   3.540   1.612   5.368 -0.1763  1.1015  0.9846
 1360SOL    HW215717   3.417   1.700   5.368 -0.6690 -0.0550  0.4245
 1361SOL     OW15718   3.644   1.181   5.638 -0.0794 -0.5131  0.2888
 1361SOL    HW115719   3.617   1.101   5.683 -1.5182  0.6282  1.4611
 1361SOL    HW215720   3.636   1.154   5.547  2.9511  2.1709 -0.7935
 1362SOL     OW15721   4.218   3.682  16.349 -0.3084 -0.0301 -0.7555
 1362SOL    HW115722   4.189   3.772  16.368  0.7138  0.3587 -1.0641
 1362SOL    HW215723   4.199   3.687  16.256 -1.9238  1.4633 -0.3554
 1363SOL     OW15724   4.539   0.650  13.925 -0.2206 -0.1896 -0.6366
 1363SOL    HW115725   4.481   0.644  14.001 -1.5343  1.4677 -1.5052
 1363SOL    HW215726   4.615   0.603  13.959 -1.2747 -1.0988  0.4988
 1364SOL     OW15727   2.232   2.277  15.891 -0.2115  0.4183  0.6475
 1364SOL    HW115728   2.293   2.300  15.821  1.3219 -0.1944  1.7880
 1364SOL    HW215729   2.253   2.184  15.895 -0.2251  0.2829 -2.5173
 1365SOL     OW15730   2.659   3.008   6.686  0.4754 -0.0115  0.3727
 1365SOL    HW115731   2.589   2.943   6.683  1.3990 -0.9191 -1.1808
 1365SOL    HW215732   2.718   2.968   6.750  2.1978  2.4979  0.3894
 1366SOL     OW15733   4.493   1.120  15.276  0.0218  0.3176 -0.1053
 1366SOL    HW115734   4.584   1.109  15.249 -0.4967 -0.6907 -1.4560
 1366SOL    HW215735   4.454   1.063  15.210 -0.0814 -0.2179  0.4089
 1367SOL     OW15736   2.043   0.567  15.283  0.3707 -0.2927  0.8949
 1367SOL    HW115737   1.986   0.490  15.284 -0.5490  0.3432 -3.4447
 1367SOL    HW215738   2.117   0.539  15.337  1.3701 -2.6446 -1.7110
 1368SOL     OW15739   3.102   3.901  12.655  0.3578 -0.0770  0.5183
 1368SOL    HW115740   3.079   3.811  12.634  1.0999 -0.3744  0.9568
 1368SOL    HW215741   3.112   3.894  12.750 -1.4690 -2.8375  0.5140
 1369SOL     OW15742   2.802   2.044   6.102 -0.3613 -0.4436  0.2431
 1369SOL    HW115743   2.825   2.031   6.010  5.7672 -0.4406  1.7432
 1369SOL    HW215744   2.740   1.972   6.111 -0.4877 -0.4802 -0.8451
 1370SOL     OW15745   0.604   1.648   7.870  0.8206 -0.2058 -0.2779
 1370SOL    HW115746   0.641   1.732   7.840 -1.6447  0.8164 -0.4636
 1370SOL    HW215747   0.621   1.594   7.793  0.8289 -2.7939  1.5694
 1371SOL     OW15748   1.373   1.849   6.184 -0.1570  0.4250 -0.4219
 1371SOL    HW115749   1.339   1.928   6.226  1.6052  0.5314  0.8119
 1371SOL    HW215750   1.382   1.878   6.093 -1.8991  2.2324 -0.0085
 1372SOL     OW15751   4.659   3.853   4.623 -0.1720 -0.6474  0.2226
 1372SOL    HW115752   4.632   3.789   4.557  1.0674 -1.4130  0.4558
 1372SOL    HW215753   0.004   3.891   4.589 -0.5626 -0.6163 -0.6649
 1373SOL     OW15754   0.220   1.534   5.472 -0.1123  0.7634 -0.2795
 1373SOL    HW115755   0.148   1.523   5.410  1.4695 -1.8755 -1.6345
 1373SOL    HW215756   0.181   1.580   5.546 -0.1649 -0.7994  0.6689
 1374SOL     OW15757   1.953   4.323   7.311 -0.0095  0.2194  0.0524
 1374SOL    HW115758   1.958   4.236   7.351  0.1502  1.0201  1.7605
 1374SOL    HW215759   1.882   4.364   7.360 -1.1413 -2.2259  0.4855
 1375SOL     OW15760   3.297   1.040   0.019  0.2082  0.0701 -0.1495
 1375SOL    HW115761   3.309   1.109  17.692  0.0725 -0.8643 -1.1564
 1375SOL    HW215762   3.312   0.959  17.709  1.1414  0.8550 -1.1703
 1376SOL     OW15763   2.528   1.373   1.812 -0.0173 -0.3243 -0.0426
 1376SOL    HW115764   2.549   1.280   1.821  1.6889  0.1076  0.4907
 1376SOL    HW215765   2.437   1.366   1.784  0.6347 -0.6646 -2.1338
 1377SOL     OW15766   0.003   0.425  14.620 -0.3204  0.1842 -0.0436
 1377SOL    HW115767   0.063   0.491  14.656 -0.1641  1.3670 -2.4572
 1377SOL    HW215768   4.693   0.473  14.551 -1.4008  0.3776  0.7840
 1378SOL     OW15769   2.604   1.754   2.058  1.0353 -0.2634 -0.2162
 1378SOL    HW115770   2.696   1.758   2.084  0.7477  0.4576  0.7056
 1378SOL    HW215771   2.601   1.801   1.975  0.0304 -0.6975 -0.4317
 1379SOL     OW15772   1.113   1.771  14.586  0.3707  0.3406  0.2520
 1379SOL    HW115773   1.198   1.813  14.594  0.3692  0.6730 -1.6641
 1379SOL    HW215774   1.124   1.701  14.651  1.4991 -1.2275 -1.6411
 1380SOL     OW15775   0.601   4.218   5.015  0.4382 -0.6888  0.1079
 1380SOL    HW115776   0.528   4.158   4.999 -0.2657 -0.5024  2.6388
 1380SOL    HW215777   0.604   4.271   4.935  0.0508  0.3502  0.7830
 1381SOL     OW15778   1.649   3.393  13.641  0.5847  0.1461 -0.0592
 1381SOL    HW115779   1.601   3.412  13.560 -0.6861  2.4190  1.2528
 1381SOL    HW215780   1.737   3.386  13.602  0.1007 -3.0639 -0.5062
 1382SOL     OW15781   2.735   2.509   3.859  0.6093  0.4739  0.1329
 1382SOL    HW115782   2.769   2.567   3.927 -0.6737  0.3193  0.8971
 1382SOL    HW215783   2.643   2.500   3.886  0.1344 -0.0286 -1.6819
 1383SOL     OW15784   3.231   4.646  10.610  0.4558  0.1528  0.4366
 1383SOL    HW115785   3.276   4.643  10.695  0.1826 -0.8720  0.5506
 1383SOL    HW215786   3.183   4.728  10.619 -1.9305 -1.1751 -0.1579
 1384SOL     OW15787   3.415   0.896   7.414  0.8346 -0.4202 -0.8442
 1384SOL    HW115788   3.336   0.864   7.370 -1.5397  2.1384  1.4714
 1384SOL    HW215789   3.395   0.881   7.507 -0.0673  0.8499 -0.8302
 1385SOL     OW15790   0.568   3.898   3.022  0.3095  0.3613 -0.1363
 1385SOL    HW115791   0.523   3.836   3.079  0.6205  0.4625  0.2195
 1385SOL    HW215792   0.651   3.851   3.013  0.4774  0.5047  0.6630
 1386SOL     OW15793   3.698   3.059   6.487  0.0488  0.2380 -0.2887
 1386SOL    HW115794   3.696   3.151   6.514  1.5179  0.1000  0.2995
 1386SOL    HW215795   3.619   3.063   6.433 -0.7739  1.5649  1.0127
 1387SOL     OW15796   1.426   3.683   3.069  0.2115  0.0116 -0.0357
 1387SOL    HW115797   1.459   3.745   3.003  0.6581  0.8655  0.9999
 1387SOL    HW215798   1.433   3.595   3.031 -0.6517 -0.3456  0.6461
 1388SOL     OW15799   4.177   2.373   3.909 -0.0446  0.5221  0.1179
 1388SOL    HW115800   4.190   2.294   3.856 -1.5966  0.6283 -0.4081
 1388SOL    HW215801   4.085   2.372   3.884  0.0558 -0.3941 -0.2097
 1389SOL     OW15802   0.892   4.223   7.859 -0.3809  0.5404  0.0621
 1389SOL    HW115803   0.916   4.201   7.949 -3.1810 -0.9915  0.4478
 1389SOL    HW215804   0.804   4.261   7.860  0.4004  2.3424 -0.7961
 1390SOL     OW15805   0.177   3.771   1.503 -0.5983  0.8330  0.1912
 1390SOL    HW115806   0.182   3.685   1.461 -1.3380  0.8933 -0.0018
 1390SOL    HW215807   0.256   3.814   1.470  0.5004 -0.6898  0.8152
 1391SOL     OW15808   0.709   4.074   5.590 -0.8834  0.2493 -0.5120
 1391SOL    HW115809   0.793   4.047   5.555 -1.0847  1.8361 -2.1942
 1391SOL    HW215810   0.720   4.059   5.684 -2.0112  1.4741 -0.1704
 1392SOL     OW15811   4.709   0.371   2.986 -0.3095  0.1064  0.2517
 1392SOL    HW115812   4.636   0.364   3.048  1.1960  2.9646  2.3604
 1392SOL    HW215813   4.682   0.309   2.918 -1.5702  0.2299  0.6480
 1393SOL     OW15814   0.855   3.043   0.208 -0.1394 -0.7966  0.4172
 1393SOL    HW115815   0.788   2.980   0.183  0.6673 -1.4259 -0.1764
 1393SOL    HW215816   0.901   2.999   0.279 -2.1175 -1.8071  1.0737
 1394SOL     OW15817   3.544   3.274  10.864 -0.4504  0.3377  0.2794
 1394SOL    HW115818   3.639   3.277  10.874 -0.4937 -1.2177  1.1854
 1394SOL    HW215819   3.523   3.181  10.858 -0.3380  0.0978  3.3105
 1395SOL     OW15820   0.404   1.672   4.192 -0.1841  0.0153  0.3474
 1395SOL    HW115821   0.483   1.666   4.138 -1.5209  0.7337 -1.6913
 1395SOL    HW215822   0.380   1.581   4.206  0.8098 -0.1142  1.2017
 1396SOL     OW15823   1.662   3.306   5.215 -0.0497 -0.2902  0.0634
 1396SOL    HW115824   1.637   3.252   5.290  2.4737  0.8960  1.7319
 1396SOL    HW215825   1.744   3.337   5.252  0.3346 -0.9521 -0.2488
 1397SOL     OW15826   3.002   3.781  12.237  0.4916 -0.3947  0.2401
 1397SOL    HW115827   3.006   3.862  12.287 -0.2337 -0.0789 -0.2216
 1397SOL    HW215828   2.932   3.734  12.283  1.8774 -0.5840  2.1808
 1398SOL     OW15829   0.847   2.669   6.982 -0.0596 -0.0189  0.7019
 1398SOL    HW115830   0.845   2.765   6.976  1.4544 -0.0057  0.4472
 1398SOL    HW215831   0.765   2.661   6.933 -0.8654 -0.3197  2.1009
 1399SOL     OW15832   0.902   1.653   6.411 -0.5969  0.5863 -0.7750
 1399SOL    HW115833   0.970   1.586   6.410  1.2782  2.4804  0.3323
 1399SOL    HW215834   0.942   1.729   6.452  0.0113  0.9222 -1.9903
 1400SOL     OW15835   4.570   3.500   8.690 -0.5963  0.1490  0.0049
 1400SOL    HW115836   4.572   3.541   8.777 -1.6375  0.9283 -0.3399
 1400SOL    HW215837   4.656   3.460   8.686 -0.4248  0.5531 -0.3780
 1401SOL     OW15838   1.381   0.818   2.112 -0.1223 -0.7599 -0.1586
 1401SOL    HW115839   1.465   0.854   2.140 -0.6581  2.3681 -2.6014
 1401SOL    HW215840   1.407   0.775   2.031 -1.6252  0.6595 -1.3800
 1402SOL     OW15841   0.426   1.579   8.662  0.5682 -0.4127  0.8007
 1402SOL    HW115842   0.455   1.507   8.719 -0.0400 -2.3844 -1.3901
 1402SOL    HW215843   0.428   1.654   8.721  2.5293 -0.4534  0.7833
 1403SOL     OW15844   2.774   3.797   5.860  0.1411  0.4022 -0.0830
 1403SOL    HW115845   2.863   3.797   5.824  0.4843  1.1322  0.7866
 1403SOL    HW215846   2.781   3.737   5.934 -0.3874  2.1848  1.4087
 1404SOL     OW15847   2.151   2.797  10.316  0.1284  0.1697  0.2762
 1404SOL    HW115848   2.227   2.806  10.373 -1.4535 -0.2644  2.4597
 1404SOL    HW215849   2.087   2.759  10.376  1.2895  0.2785  1.5789
 1405SOL     OW15850   2.616   4.511   6.017  0.8215 -0.7442  0.1450
 1405SOL    HW115851   2.643   4.455   5.944 -0.3396  0.1236 -0.9677
 1405SOL    HW215852   2.530   4.537   5.984  0.0319 -0.2782  2.6183
 1406SOL     OW15853   3.661   0.289   1.617 -0.2487 -0.4054  0.8785
 1406SOL    HW115854   3.613   0.325   1.692  0.3971 -0.6990  1.4300
 1406SOL    HW215855   3.753   0.289   1.642 -0.1036  0.0105  0.3468
 1407SOL     OW15856   2.606   2.075   3.877 -0.2790 -0.9504  0.2066
 1407SOL    HW115857   2.563   2.090   3.793  0.5218 -0.3280 -0.0919
 1407SOL    HW215858   2.548   2.120   3.939  1.3163  1.0005  0.2909
 1408SOL     OW15859   3.486   0.584   1.489 -0.4513  0.0225  0.4787
 1408SOL    HW115860   3.548   0.645   1.450 -2.5354  1.6509 -0.3080
 1408SOL    HW215861   3.513   0.574   1.580  0.0488  0.7117  0.4043
 1409SOL     OW15862   4.231   0.423   2.049 -0.0103  0.2644  0.7272
 1409SOL    HW115863   4.257   0.336   2.078  0.7997  0.0330 -0.6871
 1409SOL    HW215864   4.277   0.422   1.965 -2.1716 -1.6437 -0.4347
 1410SOL     OW15865   3.379   4.327   2.869  0.2375  0.1798  0.0975
 1410SOL    HW115866   3.381   4.290   2.957  0.2356 -0.6835 -0.2724
 1410SOL    HW215867   3.355   4.418   2.888  0.6311  0.5191 -1.0491
 1411SOL     OW15868   0.643   0.054   5.041 -0.3439  0.3790  0.7458
 1411SOL    HW115869   0.612   4.700   5.020  1.4400 -0.0028 -0.3172
 1411SOL    HW215870   0.572   0.112   5.013  0.7966  1.5146  0.2519
 1412SOL     OW15871   1.004   0.656  16.816 -0.3621  0.2182 -0.6811
 1412SOL    HW115872   1.058   0.658  16.895  2.4988  1.2867 -2.6777
 1412SOL    HW215873   0.916   0.659  16.854  0.4905  1.9550  1.1282
 1413SOL     OW15874   1.160   2.890   3.530 -0.3504  0.0028  0.1970
 1413SOL    HW115875   1.211   2.833   3.587  0.2167  0.1701 -0.1480
 1413SOL    HW215876   1.171   2.849   3.444  2.3960 -1.2205  1.1472
 1414SOL     OW15877   0.944   3.645   6.428  0.4348  0.0236  0.9755
 1414SOL    HW115878   1.012   3.672   6.367 -0.7777 -1.2051 -0.9498
 1414SOL    HW215879   0.918   3.730   6.462 -1.0798  0.7511 -2.0051
 1415SOL     OW15880   2.259   0.758   7.192 -0.0929  0.0251  0.0951
 1415SOL    HW115881   2.313   0.778   7.116 -0.3890 -2.0861 -0.6987
 1415SOL    HW215882   2.285   0.669   7.219 -1.7843 -0.7705 -0.8669
 1416SOL     OW15883   3.028   2.447  17.525  0.1329  0.0425 -0.3091
 1416SOL    HW115884   3.109   2.495  17.544  0.3189  0.6812 -2.7996
 1416SOL    HW215885   2.969   2.490  17.587 -0.0180  0.6628 -0.8934
 1417SOL     OW15886   3.185   3.248   5.327 -0.2140  0.1589  0.4474
 1417SOL    HW115887   3.166   3.216   5.415  0.1423  1.4054  0.9637
 1417SOL    HW215888   3.103   3.223   5.282  0.1836 -2.9593  1.4797
 1418SOL     OW15889   4.620   4.452  12.600 -0.7561  0.3014  0.6280
 1418SOL    HW115890   4.568   4.441  12.680 -0.9236  1.9411  0.7550
 1418SOL    HW215891   4.590   4.540  12.576 -1.4930 -0.1448 -0.0714
 1419SOL     OW15892   3.194   4.326  10.260 -0.1571  0.9637 -0.8391
 1419SOL    HW115893   3.217   4.366  10.176  2.0195 -1.4083 -1.3553
 1419SOL    HW215894   3.247   4.247  10.269 -1.9893 -0.1131  0.2845
 1420SOL     OW15895   3.596   0.153   2.745  0.4848  0.0983  0.0711
 1420SOL    HW115896   3.678   0.144   2.794 -0.1179 -0.1253  1.0432
 1420SOL    HW215897   3.609   0.233   2.696  1.3778  0.6453  1.1907
 1421SOL     OW15898   4.053   3.431   1.438 -0.2060 -0.1397 -0.1252
 1421SOL    HW115899   4.109   3.464   1.367 -0.8588 -1.3070 -1.1947
 1421SOL    HW215900   4.114   3.371   1.480  2.5158  3.2965  0.8923
 1422SOL     OW15901   2.678   1.990   0.866 -0.2007 -0.3542 -0.2948
 1422SOL    HW115902   2.769   1.963   0.877 -0.3110 -0.9015 -0.7520
 1422SOL    HW215903   2.647   1.916   0.814  1.0496  1.3302 -3.4503
 1423SOL     OW15904   4.682   3.599   5.187  0.4711 -0.1065 -0.0518
 1423SOL    HW115905   4.671   3.525   5.128 -0.2618 -1.0701  1.2952
 1423SOL    HW215906   4.637   3.669   5.139  0.9565  0.4530  0.3089
 1424SOL     OW15907   1.210   0.984   7.863 -0.1881 -0.7298 -1.0925
 1424SOL    HW115908   1.118   0.965   7.842 -0.7495  2.5282 -1.6846
 1424SOL    HW215909   1.242   0.899   7.893  1.0163  0.1082 -0.0071
 1425SOL     OW15910   2.522   2.594  17.319  0.0855 -0.2253 -0.4576
 1425SOL    HW115911   2.539   2.657  17.249  0.3595  0.5765  0.3347
 1425SOL    HW215912   2.572   2.630  17.392 -2.4563  0.0162  1.1531
 1426SOL     OW15913   1.766   0.453   1.142  0.0235  0.2803 -0.1537
 1426SOL    HW115914   1.684   0.485   1.181  0.1455 -0.7381  0.9347
 1426SOL    HW215915   1.739   0.413   1.060  2.0316 -0.8063 -0.2869
 1427SOL     OW15916   3.268   0.140  11.758 -0.1675 -0.4495 -0.1085
 1427SOL    HW115917   3.278   0.076  11.828 -2.1034  0.0136  0.5834
 1427SOL    HW215918   3.324   0.211  11.791 -1.5652  1.1696 -1.2083
 1428SOL     OW15919   1.184   0.239  15.110  0.0900 -0.2638 -0.3714
 1428SOL    HW115920   1.090   0.251  15.122  0.3591  2.4869 -0.9675
 1428SOL    HW215921   1.179   0.144  15.108  0.2018 -0.2686 -0.4253
 1429SOL     OW15922   2.919   0.334   6.372 -0.2182 -0.3903  0.3540
 1429SOL    HW115923   2.993   0.384   6.339 -0.2008 -0.8140 -0.2487
 1429SOL    HW215924   2.903   0.266   6.307  1.2157  0.1908 -0.5975
 1430SOL     OW15925   2.601   0.278   1.420  0.4902 -0.7060  0.4250
 1430SOL    HW115926   2.670   0.342   1.434 -0.1697  0.4380 -1.5052
 1430SOL    HW215927   2.644   0.207   1.371 -1.2051 -0.0817 -2.0022
 1431SOL     OW15928   1.494   3.400   6.533  0.1307 -1.1684  0.3501
 1431SOL    HW115929   1.490   3.308   6.505 -0.3069 -0.8486 -0.6027
 1431SOL    HW215930   1.513   3.381   6.625 -0.9701 -1.7634  0.4512
 1432SOL     OW15931   4.266   2.594  12.109  0.1898  0.2278 -0.3350
 1432SOL    HW115932   4.190   2.648  12.130  0.6398  1.9571 -3.1469
 1432SOL    HW215933   4.335   2.632  12.165 -1.1694  1.0206  0.7985
 1433SOL     OW15934   2.977   3.818   2.840 -0.1523  0.2091  0.1516
 1433SOL    HW115935   2.909   3.883   2.828  0.7387  1.5366  2.3085
 1433SOL    HW215936   2.960   3.751   2.773  1.0807  1.4105 -1.3673
 1434SOL     OW15937   0.261   0.115   1.450 -0.6934  0.1423  0.3808
 1434SOL    HW115938   0.303   0.196   1.479  1.8627 -0.9100 -0.3869
 1434SOL    HW215939   0.185   0.148   1.403 -1.9850 -0.6987  1.8764
 1435SOL     OW15940   4.564   1.258   7.283 -0.3123  0.8935  0.2134
 1435SOL    HW115941   4.638   1.313   7.257  0.6910 -0.2072  0.7389
 1435SOL    HW215942   4.601   1.171   7.274  1.0986  1.3255  1.8350
 1436SOL     OW15943   1.116   4.027  12.532 -0.4844 -0.1590 -0.1623
 1436SOL    HW115944   1.086   4.009  12.621  0.8845 -1.5854  0.0021
 1436SOL    HW215945   1.029   4.041  12.494  0.3297 -1.0533 -2.3353
 1437SOL     OW15946   3.076   4.532  17.165  0.2076 -0.6423 -0.5966
 1437SOL    HW115947   3.036   4.449  17.190  0.2094 -0.1993  0.8533
 1437SOL    HW215948   3.107   4.532  17.074 -1.1778  0.2739 -1.0678
 1438SOL     OW15949   0.383   4.129   8.242 -0.1509 -0.1938  0.2203
 1438SOL    HW115950   0.326   4.081   8.182  0.3597 -0.5761  0.0478
 1438SOL    HW215951   0.332   4.210   8.232 -0.8749 -0.3878  2.3289
 1439SOL     OW15952   0.664   2.646   6.767  0.1039 -0.0643  0.3304
 1439SOL    HW115953   0.583   2.696   6.759  1.6949  2.5984  0.8667
 1439SOL    HW215954   0.717   2.705   6.713 -0.0080  1.8671  2.3209
 1440SOL     OW15955   0.817   0.380  10.608  0.6211 -0.0599  0.2254
 1440SOL    HW115956   0.790   0.453  10.664  2.4361  1.4017 -0.7960
 1440SOL    HW215957   0.893   0.342  10.652 -0.5935 -2.9074 -0.1592
 1441SOL     OW15958   0.088   0.025   5.796 -0.3182 -0.3274 -0.2758
 1441SOL    HW115959   0.049   4.708   5.725 -2.3420 -0.6083  1.0362
 1441SOL    HW215960   0.151   0.081   5.751 -0.6355 -0.2040 -0.5738
 1442SOL     OW15961   3.431   2.619   5.151 -0.4016  0.4492  0.6824
 1442SOL    HW115962   3.475   2.632   5.234  0.4986 -0.8184  0.4069
 1442SOL    HW215963   3.436   2.706   5.111  1.2157  0.4654  0.9332
 1443SOL     OW15964   1.426   1.762   9.458  0.0689  0.2624  0.0334
 1443SOL    HW115965   1.455   1.778   9.548 -0.7456  2.0003 -0.0174
 1443SOL    HW215966   1.333   1.743   9.468 -0.0745  1.0731  0.2515
 1444SOL     OW15967   4.205   0.312   0.694  0.3241  0.3050 -0.1074
 1444SOL    HW115968   4.233   0.389   0.645  0.3459 -0.2027 -0.8942
 1444SOL    HW215969   4.290   0.272   0.715  0.9230  0.2956 -2.4703
 1445SOL     OW15970   1.596   0.728  14.314 -0.3520  0.0964  0.3105
 1445SOL    HW115971   1.639   0.811  14.334  1.1582 -0.7215  0.5061
 1445SOL    HW215972   1.672   0.675  14.341  0.2268  0.6835 -0.1524
 1446SOL     OW15973   2.398   2.449   9.160 -0.3993 -0.0120 -0.6476
 1446SOL    HW115974   2.376   2.536   9.128 -1.3023 -0.7182 -1.9655
 1446SOL    HW215975   2.311   2.411   9.151 -1.3843  2.1105  0.0710
 1447SOL     OW15976   2.162   1.634   6.523 -0.0232 -0.3514 -0.0244
 1447SOL    HW115977   2.078   1.589   6.517 -0.5999  0.9555 -1.9384
 1447SOL    HW215978   2.181   1.647   6.430 -0.2425  0.5970  0.0613
 1448SOL     OW15979   3.692   2.972   8.211 -0.4034 -0.8565 -0.4711
 1448SOL    HW115980   3.662   3.023   8.286 -0.8057  0.4186 -1.4987
 1448SOL    HW215981   3.786   2.964   8.231 -0.4344  0.5240  0.2148
 1449SOL     OW15982   3.104   4.105   7.913  0.2893 -0.4078  0.3567
 1449SOL    HW115983   3.062   4.190   7.928  2.3130  0.2910  2.1430
 1449SOL    HW215984   3.153   4.110   7.995 -0.4088 -0.5451  0.7778
 1450SOL     OW15985   3.294   2.703   8.885  0.7426  0.4708  0.0668
 1450SOL    HW115986   3.243   2.775   8.920 -0.8023  0.2231 -1.6627
 1450SOL    HW215987   3.236   2.678   8.813  1.9074  0.6574 -0.9469
 1451SOL     OW15988   3.783   3.364  16.317 -0.1974  0.1057  0.7950
 1451SOL    HW115989   3.747   3.275  16.318 -1.0273  0.4146 -1.4248
 1451SOL    HW215990   3.757   3.409  16.397 -1.4083  0.6455  0.1027
 1452SOL     OW15991   3.391   2.702   2.977  0.4182  0.4834 -0.0302
 1452SOL    HW115992   3.361   2.620   2.938  1.2427  0.6955 -1.1129
 1452SOL    HW215993   3.338   2.764   2.928 -0.1944 -1.4883 -1.8651
 1453SOL     OW15994   4.599   3.526   4.774 -0.0855  0.3502 -0.9168
 1453SOL    HW115995   4.527   3.523   4.711 -2.1723 -0.3245  1.4760
 1453SOL    HW215996   4.662   3.590   4.744  3.7266 -1.0887  4.0951
 1454SOL     OW15997   0.750   4.197   3.032  0.1269  0.0033 -0.1904
 1454SOL    HW115998   0.777   4.262   2.967  1.6558 -0.5353 -0.0952
 1454SOL    HW215999   0.830   4.149   3.055 -0.4569 -0.5572  0.6592
 1455SOL     OW16000   3.069   1.304  11.359  0.2637 -0.1357  0.7612
 1455SOL    HW116001   3.004   1.342  11.418 -0.2323 -0.8773  0.7017
 1455SOL    HW216002   3.149   1.354  11.373 -0.1032  1.0924 -1.4079
 1456SOL     OW16003   0.725   3.653   9.383 -0.2965  0.4900 -0.4251
 1456SOL    HW116004   0.695   3.598   9.454  1.7096  1.8369  1.4849
 1456SOL    HW216005   0.767   3.724   9.432  0.9807 -0.3957 -0.2241
 1457SOL     OW16006   1.875   3.612   7.888 -0.2584  0.5770  0.3853
 1457SOL    HW116007   1.958   3.653   7.913 -0.4260  2.1311 -1.5538
 1457SOL    HW216008   1.837   3.597   7.974  0.9759  0.0703  0.8408
 1458SOL     OW16009   1.536   2.740   9.967  0.7161 -0.3536  0.4361
 1458SOL    HW116010   1.552   2.699   9.882 -0.2244 -2.7582  1.4189
 1458SOL    HW216011   1.544   2.666  10.028 -2.0239  0.4847  1.8156
 1459SOL     OW16012   1.508   2.529   2.235 -0.3393 -0.5926  0.5196
 1459SOL    HW116013   1.475   2.523   2.325  0.5840 -2.3322  0.7565
 1459SOL    HW216014   1.576   2.462   2.247 -0.6336 -0.8831  0.5632
 1460SOL     OW16015   3.957   3.608  13.115  0.8942 -0.0651 -0.0459
 1460SOL    HW116016   4.003   3.530  13.147 -1.3680 -0.7894  1.4417
 1460SOL    HW216017   3.953   3.663  13.194 -0.8333  1.0232 -0.9056
 1461SOL     OW16018   2.160   1.447   8.163 -0.3627  0.3705  0.3150
 1461SOL    HW116019   2.073   1.406   8.167  0.1974 -0.7144  1.4296
 1461SOL    HW216020   2.144   1.540   8.178  0.2077  0.0919  2.5846
 1462SOL     OW16021   0.382   3.731   8.532 -0.4452 -0.0871  0.0180
 1462SOL    HW116022   0.318   3.674   8.576 -0.1026 -0.8040 -0.4105
 1462SOL    HW216023   0.458   3.696   8.579  0.6487  0.1981 -1.5403
 1463SOL     OW16024   2.037   4.618   8.160  1.1786  0.3776  0.8208
 1463SOL    HW116025   2.066   4.551   8.098  0.1702  0.5865  0.1323
 1463SOL    HW216026   1.957   4.654   8.123  2.9307  3.1687 -0.2450
 1464SOL     OW16027   1.498   2.650   9.668  0.1468  0.2337 -0.0729
 1464SOL    HW116028   1.534   2.582   9.611  1.4574 -1.4028  2.6926
 1464SOL    HW216029   1.419   2.606   9.698  1.3399 -0.5326  1.9882
 1465SOL     OW16030   1.594   2.879   8.101 -0.2853 -0.9356 -0.3069
 1465SOL    HW116031   1.539   2.800   8.105 -0.8866 -0.5223 -0.3232
 1465SOL    HW216032   1.682   2.844   8.092  0.5757  1.3609 -0.7474
 1466SOL     OW16033   2.087   1.295   1.397 -0.3277  0.6533 -0.3710
 1466SOL    HW116034   1.993   1.281   1.384 -0.2481 -1.9188  1.7854
 1466SOL    HW216035   2.101   1.386   1.372 -0.4235  0.2157 -1.9875
 1467SOL     OW16036   0.375   0.669  11.037 -0.1786 -0.1772  0.0374
 1467SOL    HW116037   0.312   0.614  11.083 -1.1146 -0.4023 -1.5109
 1467SOL    HW216038   0.336   0.661  10.949  0.6760  2.2296 -0.5604
 1468SOL     OW16039   0.365   0.678   1.692  0.0262  0.1337  0.0870
 1468SOL    HW116040   0.444   0.678   1.638 -0.5203  0.7966 -0.7197
 1468SOL    HW216041   0.305   0.695   1.619  0.0875 -0.2489 -0.0531
 1469SOL     OW16042   1.638   2.630   6.567 -0.2558  0.4680  0.0491
 1469SOL    HW116043   1.645   2.571   6.642  0.8866  0.9544  0.3265
 1469SOL    HW216044   1.543   2.623   6.558 -0.1849  1.1171 -1.1665
 1470SOL     OW16045   4.704   2.717  12.407 -0.0522  0.1266 -0.2918
 1470SOL    HW116046   4.673   2.627  12.416  1.5362 -0.5538 -1.6968
 1470SOL    HW216047   0.016   2.719  12.323 -1.1270 -0.6650 -0.9184
 1471SOL     OW16048   3.683   2.321   7.841 -0.3269  0.2253  0.4043
 1471SOL    HW116049   3.733   2.387   7.791 -0.9854 -0.4526 -1.1615
 1471SOL    HW216050   3.629   2.288   7.769  1.1048  1.8572 -1.4258
 1472SOL     OW16051   1.270   1.491   6.516  0.2207  0.0438  0.6595
 1472SOL    HW116052   1.190   1.450   6.484 -1.0031  1.4912  1.8082
 1472SOL    HW216053   1.238   1.559   6.576  2.0655  2.3035 -0.9096
 1473SOL     OW16054   1.153   0.657   5.221 -0.2788 -0.1626  0.3289
 1473SOL    HW116055   1.084   0.691   5.164 -0.4370 -1.3438 -0.1758
 1473SOL    HW216056   1.091   0.624   5.286 -1.0447  0.6788  0.0263
 1474SOL     OW16057   0.552   1.985   4.127  0.1079  0.4492  0.0811
 1474SOL    HW116058   0.461   1.959   4.118  0.0348  1.2066 -1.3973
 1474SOL    HW216059   0.610   1.911   4.112  0.5247  1.0287 -1.1601
 1475SOL     OW16060   2.815   4.043   2.769 -0.3325  0.1681  0.3404
 1475SOL    HW116061   2.886   4.100   2.738 -1.8428  1.9010  0.0501
 1475SOL    HW216062   2.798   4.085   2.854  2.1056  0.4098  0.7260
 1476SOL     OW16063   0.299   3.569  10.545 -0.2914 -0.1873  0.1970
 1476SOL    HW116064   0.305   3.506  10.617 -2.7948 -1.2733 -0.5384
 1476SOL    HW216065   0.351   3.641  10.581 -2.6069  1.1059  0.9118
 1477SOL     OW16066   4.459   2.198  15.263  0.2990 -0.5780 -0.5226
 1477SOL    HW116067   4.504   2.180  15.180 -0.2858 -0.6502 -0.8202
 1477SOL    HW216068   4.431   2.110  15.287 -0.7570  0.3366  1.5887
 1478SOL     OW16069   2.346   2.702   9.042 -0.3106 -0.1970 -0.0276
 1478SOL    HW116070   2.254   2.709   9.016 -0.1435 -1.9669 -1.1117
 1478SOL    HW216071   2.393   2.741   8.969  0.2335  1.1019  1.0118
 1479SOL     OW16072   1.792   0.628   3.345 -0.0715 -0.1802 -1.3920
 1479SOL    HW116073   1.784   0.612   3.439 -0.7139  0.5779 -1.3185
 1479SOL    HW216074   1.866   0.688   3.352 -0.8747  0.5622  0.6575
 1480SOL     OW16075   1.388   0.108   3.050  0.2114 -0.5740 -0.1884
 1480SOL    HW116076   1.407   0.171   3.119 -1.1213  0.6658 -0.9756
 1480SOL    HW216077   1.293   0.097   3.057  0.1508 -1.3087 -2.0475
 1481SOL     OW16078   0.436   4.282   2.921  0.2494  0.4760 -0.2929
 1481SOL    HW116079   0.465   4.191   2.910 -0.6094  0.4832 -2.6194
 1481SOL    HW216080   0.345   4.290   2.890 -0.2643 -3.5465  0.1330
 1482SOL     OW16081   2.449   2.119   6.195  0.5305  0.7624  0.6955
 1482SOL    HW116082   2.362   2.150   6.219  0.6627  2.6087 -1.1846
 1482SOL    HW216083   2.459   2.055   6.265  2.8972 -1.6585 -1.8680
 1483SOL     OW16084   0.335   2.905   5.253  0.3316  0.2842  0.0758
 1483SOL    HW116085   0.394   2.962   5.203 -1.4253  0.0058 -2.3513
 1483SOL    HW216086   0.335   2.954   5.335  1.6408  0.0327  0.2206
 1484SOL     OW16087   0.658   3.678   1.432  0.2166 -0.7123  0.0793
 1484SOL    HW116088   0.713   3.612   1.388  1.3847  0.9265 -0.9167
 1484SOL    HW216089   0.574   3.641   1.405 -0.7480  1.2716  0.3841
 1485SOL     OW16090   4.091   2.781   3.766  0.2853 -1.1002  0.6634
 1485SOL    HW116091   4.066   2.779   3.859 -2.1313 -0.2001  0.0295
 1485SOL    HW216092   4.025   2.841   3.730  1.1582  1.1577  2.8267
 1486SOL     OW16093   2.259   2.626   3.283  0.1614  0.4721 -0.4801
 1486SOL    HW116094   2.321   2.555   3.269  2.7286  2.5278  0.4911
 1486SOL    HW216095   2.323   2.697   3.277 -0.3398  0.8834 -1.0827
 1487SOL     OW16096   0.783   2.506   9.840 -0.0887 -0.0069 -0.5770
 1487SOL    HW116097   0.711   2.535   9.895  0.9325  1.8490 -0.1791
 1487SOL    HW216098   0.847   2.576   9.855 -0.1604 -0.4463  1.7943
 1488SOL     OW16099   1.310   1.949   2.404 -0.4980 -0.3047  0.7503
 1488SOL    HW116100   1.305   1.854   2.415 -0.8646 -0.4347 -0.5160
 1488SOL    HW216101   1.262   1.960   2.322 -2.1123  0.2085  1.7552
 1489SOL     OW16102   4.427   3.885   7.868  0.9664  0.2040 -0.4114
 1489SOL    HW116103   4.423   3.795   7.902 -0.2570  0.8272  1.0782
 1489SOL    HW216104   4.352   3.927   7.910 -0.8892 -2.0556 -1.4454
 1490SOL     OW16105   0.798   2.068   6.738  0.4963 -0.4274  0.4668
 1490SOL    HW116106   0.759   2.149   6.705 -1.1335 -0.9858  1.0369
 1490SOL    HW216107   0.744   2.004   6.692 -0.6581  0.3238  0.7829
 1491SOL     OW16108   1.624   2.095   4.957 -0.2125  0.0952 -0.1013
 1491SOL    HW116109   1.607   2.051   5.040  2.4093  0.5456  0.6729
 1491SOL    HW216110   1.556   2.161   4.953 -1.3007 -1.1542 -2.4042
 1492SOL     OW16111   3.998   1.320   1.378  0.0674  0.0114 -0.0274
 1492SOL    HW116112   4.026   1.394   1.325  0.5078 -0.2247 -0.1281
 1492SOL    HW216113   4.066   1.321   1.445  0.9904  1.7652 -0.9746
 1493SOL     OW16114   3.563   0.265   9.469  0.2346  0.2393  0.4887
 1493SOL    HW116115   3.606   0.246   9.553 -2.1012  0.2398  1.6947
 1493SOL    HW216116   3.487   0.208   9.486 -2.0393  2.9386 -0.7017
 1494SOL     OW16117   4.246   3.132   1.796  0.0849 -0.2051  0.2119
 1494SOL    HW116118   4.246   3.161   1.887 -0.4355  1.2661 -0.2606
 1494SOL    HW216119   4.231   3.038   1.808  1.6371 -0.6112 -1.0092
 1495SOL     OW16120   3.185   3.143   2.991  0.1679  0.5238  0.8030
 1495SOL    HW116121   3.122   3.214   2.979 -1.9016 -0.9201  3.0750
 1495SOL    HW216122   3.123   3.071   3.005 -0.3184  0.5807 -0.9221
 1496SOL     OW16123   0.770   1.388   8.429  0.1601 -0.4685 -0.0244
 1496SOL    HW116124   0.736   1.349   8.348 -2.0184 -1.0744  1.1716
 1496SOL    HW216125   0.715   1.350   8.498  1.1645  1.1470  1.6552
 1497SOL     OW16126   1.314   4.083  14.279 -0.0000  0.0546 -0.1218
 1497SOL    HW116127   1.300   4.178  14.289 -1.1958  0.0063 -1.4051
 1497SOL    HW216128   1.235   4.060  14.231  0.2215 -0.7089 -0.1202
 1498SOL     OW16129   2.185   2.201  15.345 -0.6463  0.0646  0.1883
 1498SOL    HW116130   2.091   2.218  15.344 -0.4789  0.9398 -0.1900
 1498SOL    HW216131   2.214   2.292  15.350 -1.2791  0.3727 -1.9132
 1499SOL     OW16132   0.346   1.737   3.498  0.6690 -0.4524  0.5050
 1499SOL    HW116133   0.331   1.830   3.515  2.3557 -0.4756  2.1997
 1499SOL    HW216134   0.282   1.691   3.552 -0.0538  0.0664  0.0806
 1500SOL     OW16135   2.858   3.471   1.352 -0.3036  0.7138 -0.6335
 1500SOL    HW116136   2.938   3.519   1.332  0.0757  0.3914  0.1201
 1500SOL    HW216137   2.788   3.521   1.309 -0.7672  0.1580 -0.5296
 1501SOL     OW16138   1.458   0.835  15.866  0.3809 -0.2970  0.0639
 1501SOL    HW116139   1.372   0.841  15.823  0.6985 -2.4273 -0.8491
 1501SOL    HW216140   1.500   0.885  15.796 -1.8289 -1.5718 -2.1625
 1502SOL     OW16141   3.338   4.369   5.356 -0.2099 -0.6998 -0.3337
 1502SOL    HW116142   3.337   4.335   5.267  0.9316 -0.6014 -0.3799
 1502SOL    HW216143   3.411   4.431   5.355 -2.8033  2.4198 -0.4075
 1503SOL     OW16144   3.706   3.714  10.403 -0.3883 -0.2708  0.1621
 1503SOL    HW116145   3.758   3.723  10.483 -1.8034  0.2923  1.0196
 1503SOL    HW216146   3.762   3.739  10.330 -1.7899 -1.9306 -1.4721
 1504SOL     OW16147   0.221   1.773   9.769  0.3210  0.6917  0.1784
 1504SOL    HW116148   0.291   1.838   9.770  1.2311 -0.2630 -0.4884
 1504SOL    HW216149   0.176   1.782   9.853 -0.4716  0.2289 -0.1949
 1505SOL     OW16150   0.187   2.828   3.091  0.0619  0.0147 -0.3555
 1505SOL    HW116151   0.195   2.921   3.109  1.3870 -0.5405  2.0171
 1505SOL    HW216152   0.195   2.791   3.179 -2.1506  0.9320  0.1959
 1506SOL     OW16153   2.115   1.702  14.350 -0.1190  0.1702 -0.7291
 1506SOL    HW116154   2.101   1.645  14.274  2.5759  0.4728 -1.4522
 1506SOL    HW216155   2.165   1.770  14.306  1.4573 -0.3177  0.2831
 1507SOL     OW16156   3.629   4.726   8.612  0.1762 -0.4372 -0.1325
 1507SOL    HW116157   3.561   0.040   8.566  0.1587  0.6872  1.0813
 1507SOL    HW216158   3.581   4.643   8.612  0.9215 -0.8588 -1.3288
 1508SOL     OW16159   0.953   0.191  16.974 -0.0379  0.7341  0.3526
 1508SOL    HW116160   1.033   0.140  16.988  0.4267  1.1045 -1.0493
 1508SOL    HW216161   0.976   0.229  16.890 -0.5184 -1.8761 -0.9508
 1509SOL     OW16162   0.228   0.830   6.891  0.3570 -0.6253 -0.2222
 1509SOL    HW116163   0.219   0.914   6.937 -0.5224  0.7130 -2.7982
 1509SOL    HW216164   0.189   0.769   6.953 -2.1697  0.2316 -1.0085
 1510SOL     OW16165   3.836   2.896   7.571 -0.4859  0.9844  0.1779
 1510SOL    HW116166   3.811   2.851   7.652 -0.6655  1.0209  0.1433
 1510SOL    HW216167   3.930   2.877   7.573 -0.6857 -0.0375  0.1284
 1511SOL     OW16168   0.867   4.207   6.401  0.2699 -0.0693  0.6153
 1511SOL    HW116169   0.814   4.222   6.323  0.1083 -0.1022  0.7189
 1511SOL    HW216170   0.853   4.113   6.405 -0.5872  0.0655  0.7535
 1512SOL     OW16171   3.822   4.233   7.481  0.2862  0.1583 -0.1805
 1512SOL    HW116172   3.875   4.175   7.535 -0.7721  0.3773  1.0722
 1512SOL    HW216173   3.816   4.312   7.533 -0.1160  1.5563 -2.3460
 1513SOL     OW16174   0.014   2.827  17.700 -0.0471  0.3856 -0.2575
 1513SOL    HW116175   0.011   2.792   0.050  2.2181  0.7972 -0.0172
 1513SOL    HW216176   0.018   2.741  17.658 -3.0136  0.1214  0.0164
 1514SOL     OW16177   1.285   1.623  15.261  0.1974  0.1310  0.1165
 1514SOL    HW116178   1.371   1.643  15.224  1.6244 -2.3039  2.1337
 1514SOL    HW216179   1.254   1.710  15.288  0.7826  0.3791 -0.0295
 1515SOL     OW16180   4.076   4.599   7.662 -0.7055  0.0859 -0.0747
 1515SOL    HW116181   4.116   4.560   7.740 -1.7023 -0.3445  0.2107
 1515SOL    HW216182   4.002   4.542   7.644 -1.0775  0.8476 -0.9240
 1516SOL     OW16183   4.510   1.692   2.005  0.3145  0.3006  0.2454
 1516SOL    HW116184   4.545   1.604   2.013 -0.3872  0.1304  1.4928
 1516SOL    HW216185   4.443   1.688   2.073 -1.7012 -2.5568 -1.9260
 1517SOL     OW16186   2.562   1.450   0.719  0.6089 -0.0800 -0.1063
 1517SOL    HW116187   2.577   1.543   0.735  1.6806 -0.2052 -0.3820
 1517SOL    HW216188   2.500   1.463   0.647  1.2141  1.1628 -0.3989
 1518SOL     OW16189   3.818   0.119   9.177  0.3567 -0.2714  0.2112
 1518SOL    HW116190   3.842   0.211   9.167  0.1668 -0.3055 -0.5331
 1518SOL    HW216191   3.886   0.099   9.241  2.4952  0.7711 -1.7560
 1519SOL     OW16192   3.545   2.866   4.801  0.4813  0.1131 -0.3488
 1519SOL    HW116193   3.597   2.911   4.734  0.5134 -0.1637 -0.5095
 1519SOL    HW216194   3.554   2.782   4.755 -1.1729 -0.2885  0.0401
 1520SOL     OW16195   2.652   3.705  11.764  0.3228 -0.6954 -0.5890
 1520SOL    HW116196   2.590   3.632  11.770  1.1105 -1.2360  1.0283
 1520SOL    HW216197   2.735   3.665  11.791  1.3321  2.5853  1.1183
 1521SOL     OW16198   4.230   3.036   7.490  0.4982  0.0553 -0.6283
 1521SOL    HW116199   4.163   3.037   7.559  1.1119  1.5971 -0.0479
 1521SOL    HW216200   4.217   3.118   7.441 -0.3360  1.8419  2.5721
 1522SOL     OW16201   0.932   0.934   1.477  0.0242  0.3000 -0.8113
 1522SOL    HW116202   0.868   0.991   1.435 -0.6490 -0.4771 -0.8495
 1522SOL    HW216203   0.881   0.906   1.553  0.8766  0.3681 -0.2110
 1523SOL     OW16204   4.070   3.462   8.535 -0.3162 -0.1248  0.5512
 1523SOL    HW116205   4.033   3.493   8.452  0.6457 -0.4406  0.0062
 1523SOL    HW216206   4.161   3.436   8.520 -1.0979 -2.0992 -0.7844
 1524SOL     OW16207   0.547   3.951   7.787  0.0739 -0.1308  0.4342
 1524SOL    HW116208   0.472   3.900   7.756  0.6253  0.6807 -2.2339
 1524SOL    HW216209   0.587   3.899   7.856  4.6191 -0.9330 -2.7790
 1525SOL     OW16210   1.243   0.945   7.450 -0.4113 -0.7826  0.3501
 1525SOL    HW116211   1.164   0.977   7.408  0.9533 -0.7954 -2.2319
 1525SOL    HW216212   1.267   0.882   7.382  2.1280  1.9672 -1.2930
 1526SOL     OW16213   4.292   2.903   5.304 -0.3879 -0.0417  0.3568
 1526SOL    HW116214   4.321   2.870   5.219 -2.6334  2.5182 -1.4138
 1526SOL    HW216215   4.371   2.883   5.354  1.3829 -0.8340 -2.7710
 1527SOL     OW16216   3.460   4.553   7.085  0.1635 -0.7528 -0.2459
 1527SOL    HW116217   3.367   4.564   7.067 -0.1734 -1.8213  0.7815
 1527SOL    HW216218   3.454   4.573   7.178  0.4561  0.8859 -0.5868
 1528SOL     OW16219   2.681   2.142   5.130 -0.2929 -0.4900  0.0804
 1528SOL    HW116220   2.685   2.178   5.042 -0.2465  2.1786  1.1569
 1528SOL    HW216221   2.774   2.127   5.142  0.7776  3.9700 -2.5759
 1529SOL     OW16222   2.002   2.118  16.540 -0.0302 -0.0079 -0.1017
 1529SOL    HW116223   1.912   2.088  16.558 -0.0532 -0.3190 -0.7302
 1529SOL    HW216224   1.999   2.126  16.445  1.3047 -0.0033 -0.1349
 1530SOL     OW16225   0.905   0.501   9.899  0.3183 -0.4231  0.8090
 1530SOL    HW116226   0.885   0.556   9.823 -1.4332 -0.3969  1.2798
 1530SOL    HW216227   0.825   0.451   9.915 -1.4910  1.9687 -0.7277
 1531SOL     OW16228   2.201   0.263   5.769  0.5116  0.4910  0.2254
 1531SOL    HW116229   2.233   0.337   5.718  0.3373  0.3399 -0.1010
 1531SOL    HW216230   2.209   0.283   5.863 -2.1215  3.4768 -0.1790
 1532SOL     OW16231   4.030   3.434   7.558  0.2711  0.4895  0.2084
 1532SOL    HW116232   3.975   3.509   7.535  0.0766  0.2858  0.0028
 1532SOL    HW216233   3.960   3.372   7.581 -0.7379  1.3401 -0.5631
 1533SOL     OW16234   0.578   2.264   6.717  0.3604  0.6102  0.3831
 1533SOL    HW116235   0.494   2.219   6.722 -0.4640  2.1530  0.6169
 1533SOL    HW216236   0.561   2.327   6.647  1.7766 -0.7542 -1.1767
 1534SOL     OW16237   2.903   0.242   1.411 -0.3802  0.7474  0.3279
 1534SOL    HW116238   2.958   0.187   1.467 -1.5642 -1.7172 -0.8993
 1534SOL    HW216239   2.912   0.328   1.451  0.6659  0.9647 -0.4035
 1535SOL     OW16240   1.615   4.020   8.740  0.7886  0.0190  0.0315
 1535SOL    HW116241   1.522   4.043   8.748  0.4124 -1.5061  0.1738
 1535SOL    HW216242   1.661   4.103   8.750 -0.3700  0.8547 -1.4609
 1536SOL     OW16243   4.636   2.124   5.687 -0.2339  0.0049  0.3882
 1536SOL    HW116244   4.713   2.115   5.743  0.5764 -0.4114 -0.7879
 1536SOL    HW216245   4.650   2.048   5.629  0.7696 -0.0094  0.6445
 1537SOL     OW16246   0.539   4.289   0.534 -0.3763 -0.0053 -0.0023
 1537SOL    HW116247   0.457   4.333   0.510 -1.8641 -2.6567  0.2230
 1537SOL    HW216248   0.520   4.266   0.625 -0.9850 -2.1226 -0.6741
 1538SOL     OW16249   3.808   3.236  12.781 -0.1938 -0.1476 -0.3212
 1538SOL    HW116250   3.861   3.282  12.846 -1.5610  0.5265  0.3209
 1538SOL    HW216251   3.790   3.312  12.726 -0.9191  0.8434  1.2900
 1539SOL     OW16252   3.802   4.580   8.313 -0.1099 -0.0407 -0.0774
 1539SOL    HW116253   3.771   4.667   8.287 -0.1390 -0.2506 -0.7334
 1539SOL    HW216254   3.742   4.513   8.281 -0.0815  0.1159 -0.4590
 1540SOL     OW16255   2.087   1.785  16.906 -0.2063 -0.4518 -0.5169
 1540SOL    HW116256   2.052   1.802  16.819  1.8528 -2.7257 -1.7837
 1540SOL    HW216257   2.035   1.844  16.961 -0.7681 -2.4363  1.0538
 1541SOL     OW16258   0.009   1.273   4.098  0.1947  0.5365 -0.1175
 1541SOL    HW116259   4.656   1.249   4.069  0.7867 -0.6781 -0.9133
 1541SOL    HW216260   0.063   1.213   4.047  1.7084  0.7309  1.2545
 1542SOL     OW16261   3.325   0.043  12.025  0.1304  0.1708 -0.0823
 1542SOL    HW116262   3.410   0.085  12.040  0.6152 -0.7277 -0.3339
 1542SOL    HW216263   3.259   0.084  12.081  0.0266 -2.0255  1.4148
 1543SOL     OW16264   2.690   0.700   6.882  0.0692 -0.1969 -0.1283
 1543SOL    HW116265   2.638   0.620   6.891 -1.8427  1.1160  0.4782
 1543SOL    HW216266   2.628   0.770   6.899  1.7315  1.8188 -2.4708
 1544SOL     OW16267   4.215   0.170  15.107  0.8571 -0.4238 -0.6585
 1544SOL    HW116268   4.253   0.239  15.162  1.0485  0.0889 -1.4358
 1544SOL    HW216269   4.136   0.140  15.152  0.6503  0.1892 -0.6103
 1545SOL     OW16270   2.933   4.454   3.080 -0.0788  0.0118 -0.5122
 1545SOL    HW116271   2.969   4.373   3.045  0.7709  0.3251 -0.3479
 1545SOL    HW216272   2.957   4.517   3.012  1.5205 -1.7273 -1.5365
 1546SOL     OW16273   1.788   1.760   2.660 -0.4867  0.0851 -0.4065
 1546SOL    HW116274   1.754   1.671   2.672 -0.0085  0.3111  2.6524
 1546SOL    HW216275   1.723   1.799   2.718  2.6170  2.9330  1.0992
 1547SOL     OW16276   0.095   3.783   5.459 -0.7933 -0.2526  0.3625
 1547SOL    HW116277   0.136   3.850   5.513 -0.6112 -0.7075  0.7836
 1547SOL    HW216278   0.030   3.755   5.522  0.3265 -2.1325  0.6678
 1548SOL     OW16279   0.109   1.542   9.634  0.2741 -0.0536 -0.3529
 1548SOL    HW116280   0.132   1.635   9.629 -1.2562  0.2536 -1.5511
 1548SOL    HW216281   0.148   1.514   9.717 -1.1421 -0.0271  0.3288
 1549SOL     OW16282   0.207   1.590   3.708 -0.1219 -0.1522 -0.4472
 1549SOL    HW116283   0.253   1.661   3.752  1.1332  0.1120 -2.2148
 1549SOL    HW216284   0.271   1.520   3.718  0.3069 -0.0614 -2.5245
 1550SOL     OW16285   1.937   1.628   9.846  0.0073 -0.4783  1.0293
 1550SOL    HW116286   1.992   1.570   9.898  1.7799 -0.8530 -1.3063
 1550SOL    HW216287   1.864   1.567   9.833  1.0412 -1.8072  1.5721
 1551SOL     OW16288   0.751   2.675   6.046 -0.9061 -0.3684  0.2207
 1551SOL    HW116289   0.696   2.752   6.032 -0.2638  0.1340  0.4246
 1551SOL    HW216290   0.679   2.614   6.055  0.2967 -1.9735 -0.9839
 1552SOL     OW16291   1.494   1.701   1.459  0.0396  0.1402  0.0298
 1552SOL    HW116292   1.442   1.636   1.507  0.5645 -1.4378 -1.5213
 1552SOL    HW216293   1.503   1.661   1.372  2.6233 -0.8401  0.7538
 1553SOL     OW16294   1.451   1.654   1.167 -0.0602  0.1157  0.5170
 1553SOL    HW116295   1.372   1.601   1.165  0.6748 -1.0691  2.3702
 1553SOL    HW216296   1.416   1.743   1.178  1.3912  0.6839  0.5999
 1554SOL     OW16297   1.150   3.102   2.241  0.0286  0.5590 -0.1220
 1554SOL    HW116298   1.178   3.160   2.312 -0.2720 -0.3272  0.7304
 1554SOL    HW216299   1.064   3.141   2.228 -0.4708 -1.0452 -1.7335
 1555SOL     OW16300   1.787   0.046   8.964  0.5626  0.6943 -0.3449
 1555SOL    HW116301   1.785   4.727   9.043  1.8188 -0.4201 -1.0792
 1555SOL    HW216302   1.797   0.132   9.005  0.4907 -0.2882  1.7136
 1556SOL     OW16303   3.328   1.390   6.520  0.2381 -0.2560 -0.1873
 1556SOL    HW116304   3.337   1.383   6.615 -3.8401  2.7641  0.4418
 1556SOL    HW216305   3.316   1.485   6.515 -1.2550 -0.4567 -0.6253
 1557SOL     OW16306   2.578   3.629   6.234 -0.2421  0.0158 -0.2474
 1557SOL    HW116307   2.619   3.633   6.320  0.9237 -0.3206 -0.7864
 1557SOL    HW216308   2.646   3.590   6.179 -2.1699 -1.9771 -1.2343
 1558SOL     OW16309   1.731   1.168  11.990 -0.0235 -0.3167 -0.7167
 1558SOL    HW116310   1.824   1.149  11.976 -0.1708 -1.1943 -0.5301
 1558SOL    HW216311   1.713   1.219  11.911 -4.2238 -0.2760  0.2908
 1559SOL     OW16312   2.524   0.744  14.062 -0.1285  0.0620 -0.3353
 1559SOL    HW116313   2.616   0.771  14.063 -0.8220  2.5074 -0.4696
 1559SOL    HW216314   2.527   0.660  14.108  0.0699  0.0794 -0.3163
 1560SOL     OW16315   1.476   2.481   7.128 -0.1197 -0.0865 -0.5244
 1560SOL    HW116316   1.568   2.492   7.150 -0.5107  2.4814 -0.1084
 1560SOL    HW216317   1.462   2.531   7.048  1.2381 -1.0129 -1.3246
 1561SOL     OW16318   0.875   4.046   8.843  0.0244 -0.6096  0.0751
 1561SOL    HW116319   0.940   4.116   8.833 -1.8473  1.8140  4.5099
 1561SOL    HW216320   0.851   4.044   8.936 -0.2418 -0.6372  0.0083
 1562SOL     OW16321   4.257   0.692   9.656  0.1842  0.0079  0.8713
 1562SOL    HW116322   4.214   0.640   9.723 -0.7191 -0.9114 -0.4173
 1562SOL    HW216323   4.207   0.663   9.579 -0.4212 -0.8713  1.5991
 1563SOL     OW16324   3.443   4.360  13.270 -0.3222 -0.3543  0.4861
 1563SOL    HW116325   3.364   4.361  13.323 -0.6457 -0.5376  0.0078
 1563SOL    HW216326   3.469   4.451  13.257 -2.4274  0.2035  0.2855
 1564SOL     OW16327   0.429   1.372   6.668  0.1563  0.3021 -0.0569
 1564SOL    HW116328   0.417   1.316   6.591 -2.3585 -0.1977  0.6750
 1564SOL    HW216329   0.476   1.446   6.630  1.7457 -2.5083 -3.5358
 1565SOL     OW16330   2.522   2.580  14.671 -0.3688  0.0972 -0.1428
 1565SOL    HW116331   2.609   2.618  14.688 -0.5565  0.7791 -0.7091
 1565SOL    HW216332   2.497   2.639  14.600  2.4634 -1.0853 -2.1192
 1566SOL     OW16333   0.689   3.659   4.094  0.3075 -0.2104  0.6116
 1566SOL    HW116334   0.666   3.567   4.094 -1.0088  0.1169 -0.7299
 1566SOL    HW216335   0.780   3.658   4.063 -0.1443 -2.3784 -0.6476
 1567SOL     OW16336   3.264   1.553   2.294  0.4793  0.9868 -0.5500
 1567SOL    HW116337   3.234   1.471   2.255 -1.6113  2.5145 -2.1401
 1567SOL    HW216338   3.186   1.579   2.343  0.2561 -2.6713  1.0508
 1568SOL     OW16339   0.351   4.325   5.550  0.0444 -0.1466  0.2991
 1568SOL    HW116340   0.443   4.330   5.525  0.6990 -0.1751  2.7258
 1568SOL    HW216341   0.339   4.415   5.580 -0.9728  0.5617 -2.1501
 1569SOL     OW16342   3.254   3.602   5.071  0.2550  0.6431  0.4466
 1569SOL    HW116343   3.184   3.643   5.121  0.1803  3.1603 -1.7284
 1569SOL    HW216344   3.209   3.589   4.987  1.4984 -1.7591  0.1536
 1570SOL     OW16345   1.888   1.975   2.337  0.4024  0.3249  0.3269
 1570SOL    HW116346   1.879   2.016   2.423 -2.3856 -2.2916  1.2730
 1570SOL    HW216347   1.970   2.011   2.302  0.9430  1.2874  2.5791
 1571SOL     OW16348   3.680   3.213   7.244 -0.1479 -0.3645 -0.7669
 1571SOL    HW116349   3.620   3.188   7.173 -1.7210  0.2266  0.3552
 1571SOL    HW216350   3.755   3.243   7.192  0.2252 -1.8832 -1.1051
 1572SOL     OW16351   3.485   2.619   4.627 -0.0280  0.1231 -0.4533
 1572SOL    HW116352   3.500   2.559   4.554 -0.0270  1.9886 -1.9797
 1572SOL    HW216353   3.411   2.577   4.671  1.1153 -0.3052  1.0877
 1573SOL     OW16354   0.894   2.006   3.509 -0.3973 -0.1335  0.1623
 1573SOL    HW116355   0.987   2.029   3.517  0.2021 -2.2265 -1.0728
 1573SOL    HW216356   0.886   1.911   3.515  1.3259 -0.2169  1.2853
 1574SOL     OW16357   2.041   2.006   5.108 -0.3400  0.4627  0.0280
 1574SOL    HW116358   1.963   2.026   5.057 -1.0263  0.4527  1.0775
 1574SOL    HW216359   2.048   2.093   5.148  2.8411 -0.0998  0.7350
 1575SOL     OW16360   0.749   3.573   7.210 -0.0218 -0.1777 -0.2273
 1575SOL    HW116361   0.833   3.595   7.250  0.4488 -0.6514 -0.9612
 1575SOL    HW216362   0.765   3.480   7.193  0.4396 -0.5248  2.0696
 1576SOL     OW16363   1.530   1.371  10.903 -0.2969 -1.1772  0.7014
 1576SOL    HW116364   1.494   1.446  10.951  0.7738 -2.0556  2.8455
 1576SOL    HW216365   1.497   1.376  10.813 -1.6822 -2.6906  1.1281
 1577SOL     OW16366   2.037   0.005   8.801 -0.5347  0.3505  0.2977
 1577SOL    HW116367   2.085   0.087   8.798 -3.0482  1.8772  1.1853
 1577SOL    HW216368   2.039   4.729   8.896 -4.1673 -0.7712  0.2504
 1578SOL     OW16369   2.470   0.693   3.533 -0.4070 -0.3962 -0.8008
 1578SOL    HW116370   2.545   0.746   3.559  0.2526 -1.4544 -0.5552
 1578SOL    HW216371   2.487   0.608   3.572  1.7448  0.9180  1.0997
 1579SOL     OW16372   1.258   1.719   0.928  0.6818  0.0432  0.2936
 1579SOL    HW116373   1.188   1.728   0.864 -1.7942 -0.0085  2.9711
 1579SOL    HW216374   1.307   1.801   0.924  0.0134  0.5174  1.7208
 1580SOL     OW16375   2.827   1.036   0.231 -0.1512  0.4359 -0.4804
 1580SOL    HW116376   2.916   1.060   0.207  0.2823  0.2368  0.9855
 1580SOL    HW216377   2.775   1.115   0.214  0.5099  1.0226  0.2705
 1581SOL     OW16378   4.607   1.840   5.118 -0.1467 -0.1116  0.2765
 1581SOL    HW116379   4.632   1.861   5.028  0.8490  1.8168  1.0091
 1581SOL    HW216380   4.532   1.786   5.090  1.1927 -0.2507 -3.0610
 1582SOL     OW16381   3.769   3.987   7.179  0.6103  0.0583 -0.7808
 1582SOL    HW116382   3.733   4.066   7.138 -1.7884 -0.6102  0.0341
 1582SOL    HW216383   3.710   3.915   7.157  1.2128  0.4340 -3.6974
 1583SOL     OW16384   0.071   3.680   7.757 -0.5553  0.1801  0.4335
 1583SOL    HW116385   4.733   3.713   7.704  0.9924  0.7398 -1.3803
 1583SOL    HW216386   0.043   3.712   7.842 -0.4999 -0.6772  0.7745
 1584SOL     OW16387   3.478   2.498   4.054 -0.5544  0.0654  0.6873
 1584SOL    HW116388   3.386   2.472   4.063 -0.4887 -0.3070  0.2872
 1584SOL    HW216389   3.471   2.593   4.056  0.1065  0.1202  0.1291
 1585SOL     OW16390   1.180   1.023   6.732  0.0273 -0.3193 -0.2117
 1585SOL    HW116391   1.251   1.082   6.756 -0.4699 -0.6128  2.0020
 1585SOL    HW216392   1.217   0.936   6.746  1.1993  0.3404  0.8055
 1586SOL     OW16393   3.823   1.483  11.049 -0.4282 -0.1140  0.0284
 1586SOL    HW116394   3.912   1.478  11.084  0.3698  1.6026 -1.7212
 1586SOL    HW216395   3.810   1.576  11.067 -2.9893  0.2071 -3.4416
 1587SOL     OW16396   1.281   2.204   9.898  0.1112 -0.1173  0.3598
 1587SOL    HW116397   1.222   2.129   9.895  0.3294 -0.2285 -1.2679
 1587SOL    HW216398   1.228   2.278   9.926  0.1115  0.3089 -0.7783
 1588SOL     OW16399   0.206   4.372   8.231 -0.2534 -0.1166  0.3279
 1588SOL    HW116400   0.117   4.344   8.255 -0.4027  0.0058 -0.0879
 1588SOL    HW216401   0.207   4.357   8.137 -1.0245 -2.2567  0.6349
 1589SOL     OW16402   4.006   2.912   6.404 -0.5012  0.3141 -0.1044
 1589SOL    HW116403   4.065   2.958   6.464 -1.3160  0.8788  0.2601
 1589SOL    HW216404   3.963   2.981   6.354 -0.6374  0.7569  0.6295
 1590SOL     OW16405   1.296   3.330   1.636  0.4111 -0.2354 -0.7504
 1590SOL    HW116406   1.362   3.261   1.647  1.1245  0.9506  2.5988
 1590SOL    HW216407   1.267   3.347   1.726  0.9758  1.9045 -0.9683
 1591SOL     OW16408   3.563   2.362   1.515  0.1716 -0.9083  0.0458
 1591SOL    HW116409   3.615   2.326   1.587 -1.5024 -1.2407  1.0894
 1591SOL    HW216410   3.570   2.293   1.449 -1.1609 -0.9957 -0.0070
 1592SOL     OW16411   1.724   1.978   4.386  0.2730  0.0922 -0.1426
 1592SOL    HW116412   1.730   1.954   4.479  2.5265 -0.6443 -0.4739
 1592SOL    HW216413   1.741   2.072   4.381 -0.0376  0.2430  1.7167
 1593SOL     OW16414   4.305   4.412  16.394  0.3155  0.1584 -0.4372
 1593SOL    HW116415   4.385   4.361  16.405  0.1819  0.3439  1.3647
 1593SOL    HW216416   4.336   4.494  16.432  0.6400 -0.4543  0.5980
 1594SOL     OW16417   1.104   3.260  10.818  0.0138 -0.1515  0.5057
 1594SOL    HW116418   1.163   3.213  10.759 -0.0635  2.0436 -1.3735
 1594SOL    HW216419   1.159   3.274  10.895 -1.2915 -1.7929  1.7226
 1595SOL     OW16420   0.477   0.312   8.252 -0.1504  0.1586 -0.3078
 1595SOL    HW116421   0.417   0.327   8.325  0.1475  0.5844 -0.1522
 1595SOL    HW216422   0.425   0.262   8.189  1.2594  0.9244 -2.0643
 1596SOL     OW16423   3.657   1.899   4.537 -0.6782  0.0765 -0.7027
 1596SOL    HW116424   3.597   1.840   4.585  1.0454 -0.6419  0.5881
 1596SOL    HW216425   3.610   1.927   4.459 -0.9470  0.3704 -0.4350
 1597SOL     OW16426   4.650   3.843   6.535 -0.3769  0.6619 -0.5297
 1597SOL    HW116427   4.573   3.871   6.485  0.2202  0.7208 -1.4102
 1597SOL    HW216428   4.696   3.926   6.544 -3.9204  2.6747 -0.7696
 1598SOL     OW16429   3.199   2.843   8.575  0.0912  0.5325 -0.8591
 1598SOL    HW116430   3.106   2.869   8.572 -0.4290 -1.4798 -1.8035
 1598SOL    HW216431   3.188   2.762   8.625  2.5551  0.3619 -0.5961
 1599SOL     OW16432   1.498   0.312   3.797 -0.0042  0.3231  0.4385
 1599SOL    HW116433   1.493   0.331   3.703  2.3253 -1.5387 -0.0445
 1599SOL    HW216434   1.406   0.292   3.815 -0.6593  2.4166 -0.5756
 1600SOL     OW16435   4.062   4.709   8.307 -0.4566  0.2026 -0.6813
 1600SOL    HW116436   4.076   4.718   8.213  0.4235 -2.1472 -0.7725
 1600SOL    HW216437   3.997   4.641   8.323  0.5021  0.2008  3.2134
 1601SOL     OW16438   1.278   0.039   5.029  0.1760 -0.8326  0.2839
 1601SOL    HW116439   1.259   4.716   5.103  1.2903  1.7305  2.5396
 1601SOL    HW216440   1.246   4.714   4.961 -0.5074 -0.1433 -0.0069
 1602SOL     OW16441   2.823   0.747   8.282 -0.3135  0.6426 -0.0414
 1602SOL    HW116442   2.776   0.804   8.343  1.5654  0.3570  1.6994
 1602SOL    HW216443   2.754   0.706   8.229 -0.8599  0.6941  0.6274
 1603SOL     OW16444   2.770   0.411  14.288  0.0554  0.1167  0.0363
 1603SOL    HW116445   2.690   0.463  14.284  0.2501  0.2293 -2.3857
 1603SOL    HW216446   2.736   0.347  14.351 -3.8714  1.4163 -0.7438
 1604SOL     OW16447   1.316   2.101  15.106  0.0643  0.0907  0.1712
 1604SOL    HW116448   1.251   2.049  15.154  0.7695 -1.4355 -0.5325
 1604SOL    HW216449   1.360   2.161  15.167  0.9064  0.7130 -1.0449
 1605SOL     OW16450   4.050   3.474   9.617  0.5387  0.0276  0.0828
 1605SOL    HW116451   4.039   3.380   9.604  1.1462  0.0319 -0.4603
 1605SOL    HW216452   4.145   3.483   9.623  0.8745 -2.3894 -1.5695
 1606SOL     OW16453   0.162   1.932   1.980 -0.1738  0.6269  0.1228
 1606SOL    HW116454   0.070   1.919   1.958 -0.5132 -1.0842  2.4699
 1606SOL    HW216455   0.204   1.846   1.971 -0.5992  0.4656 -0.2935
 1607SOL     OW16456   1.907   0.800   4.202 -0.8136 -0.6150  0.2336
 1607SOL    HW116457   1.865   0.793   4.288 -1.2835 -0.3653  0.0269
 1607SOL    HW216458   1.894   0.715   4.158  0.1939 -1.3982  1.4716
 1608SOL     OW16459   0.237   3.545   6.219  0.0205 -0.1781  0.1924
 1608SOL    HW116460   0.327   3.579   6.229  0.3557 -1.1617  0.4930
 1608SOL    HW216461   0.201   3.587   6.297  0.7092 -0.6405  0.7657
 1609SOL     OW16462   0.523   3.516   6.243  0.0946  0.3551 -0.4307
 1609SOL    HW116463   0.606   3.488   6.203 -1.0343 -0.7443 -1.9874
 1609SOL    HW216464   0.550   3.586   6.302  2.0861  0.8948 -1.9704
 1610SOL     OW16465   4.196   1.539   1.054  0.7396 -0.2391  0.1464
 1610SOL    HW116466   4.117   1.521   1.002  0.5435  1.5821 -0.1888
 1610SOL    HW216467   4.166   1.546   1.144  0.5518  1.1483 -0.0298
 1611SOL     OW16468   0.973   2.010   7.275  0.1930  0.3305  0.2676
 1611SOL    HW116469   0.886   2.021   7.314 -0.0959  0.2049 -0.3343
 1611SOL    HW216470   0.963   1.932   7.221  0.8868  0.1089  0.4649
 1612SOL     OW16471   0.359   1.798  10.045 -0.4682  0.1129  0.2293
 1612SOL    HW116472   0.385   1.884  10.080 -0.9898  0.0062  0.8761
 1612SOL    HW216473   0.356   1.747  10.126  0.0666 -0.0640  0.1411
 1613SOL     OW16474   4.701   0.274   3.733 -0.0216  0.1130 -0.5316
 1613SOL    HW116475   0.001   0.269   3.644  0.1549 -1.7689 -0.3516
 1613SOL    HW216476   4.732   0.355   3.774  0.1342 -0.2310  0.0386
 1614SOL     OW16477   0.012   1.811  13.652  0.1633 -0.2061  0.3778
 1614SOL    HW116478   0.075   1.756  13.698  2.8739  1.2040 -1.5905
 1614SOL    HW216479   0.009   1.876  13.722  1.4410 -0.1858  0.4204
 1615SOL     OW16480   4.013   2.133   3.499  0.5261 -0.0653 -0.2692
 1615SOL    HW116481   4.015   2.226   3.478 -0.7557  0.4403  1.9035
 1615SOL    HW216482   3.923   2.104   3.510 -0.6289  3.6515 -0.0679
 1616SOL     OW16483   2.028   2.428   1.877 -0.2057  0.9111  0.3636
 1616SOL    HW116484   2.062   2.359   1.934 -1.1260 -0.4441 -0.7044
 1616SOL    HW216485   1.951   2.387   1.837  2.1234 -2.5504 -0.5686
 1617SOL     OW16486   2.500   3.721   3.810  0.2380 -0.6190  0.5421
 1617SOL    HW116487   2.430   3.773   3.850  2.3699  2.7950 -0.1451
 1617SOL    HW216488   2.457   3.641   3.779  0.0178  0.0606 -0.9325
 1618SOL     OW16489   1.881   4.495   3.589  0.0807 -0.1961 -0.2911
 1618SOL    HW116490   1.805   4.500   3.648 -0.7039  0.6851 -1.4061
 1618SOL    HW216491   1.926   4.416   3.622 -0.0239 -0.0709  0.1503
 1619SOL     OW16492   4.335   0.917   5.564  0.4669  0.4026 -0.1370
 1619SOL    HW116493   4.327   0.822   5.556 -0.0044  0.4609 -0.3512
 1619SOL    HW216494   4.383   0.927   5.646 -0.8181  0.4773  0.6038
 1620SOL     OW16495   4.403   0.265   9.039  0.0343  0.5292  0.0248
 1620SOL    HW116496   4.472   0.321   9.075  0.3815  0.7735 -1.0132
 1620SOL    HW216497   4.431   0.225   8.957 -1.2580 -2.1286  0.8824
 1621SOL     OW16498   2.504   3.831  14.682 -0.0978  0.1535 -0.0894
 1621SOL    HW116499   2.579   3.859  14.735 -0.1191 -0.2981  0.1804
 1621SOL    HW216500   2.446   3.780  14.738 -0.8931  0.4321 -0.6548
 1622SOL     OW16501   2.725   1.442   1.012 -0.4516  0.6596  0.2788
 1622SOL    HW116502   2.724   1.351   0.983 -0.2006  1.2547 -1.5317
 1622SOL    HW216503   2.695   1.422   1.101 -1.5429 -0.9090 -0.4367
 1623SOL     OW16504   4.026   3.677   1.609 -0.5441 -0.0812 -0.0733
 1623SOL    HW116505   4.061   3.602   1.561 -0.0183 -0.8593  1.5255
 1623SOL    HW216506   3.962   3.631   1.664  0.9600 -2.1412 -0.0432
 1624SOL     OW16507   1.843   2.283  12.324 -0.4368  0.3528  0.2022
 1624SOL    HW116508   1.899   2.224  12.273 -0.8920  0.7982 -0.8043
 1624SOL    HW216509   1.869   2.367  12.287 -1.1983  1.4903  2.2527
 1625SOL     OW16510   0.463   3.797   3.960 -0.0663  0.0690  0.1769
 1625SOL    HW116511   0.484   3.706   3.978 -1.3090 -0.2012  0.2370
 1625SOL    HW216512   0.515   3.805   3.880  0.9161  0.7566  0.8745
 1626SOL     OW16513   0.510   0.060   7.286 -0.4135  0.1511 -0.2204
 1626SOL    HW116514   0.514   0.007   7.206 -0.3663 -1.3292  0.7614
 1626SOL    HW216515   0.414   0.058   7.291 -0.4274 -0.0380 -0.5629
 1627SOL     OW16516   4.333   0.656   5.649 -0.3082  0.2408 -0.2399
 1627SOL    HW116517   4.308   0.658   5.742  1.1192  1.0783  0.1243
 1627SOL    HW216518   4.404   0.591   5.642  0.4022  0.9543  0.3426
 1628SOL     OW16519   0.071   1.960  12.149  0.1580 -0.8242  0.4596
 1628SOL    HW116520   0.101   1.895  12.212 -1.1527 -0.7567  1.1558
 1628SOL    HW216521   0.056   1.897  12.077  1.5260 -0.7045  0.0810
 1629SOL     OW16522   0.811   0.856   1.161 -0.1887  0.8505  0.1533
 1629SOL    HW116523   0.892   0.822   1.122 -0.6245 -2.1001  1.8275
 1629SOL    HW216524   0.849   0.911   1.229  0.5179  0.6379 -0.0663
 1630SOL     OW16525   3.784   0.669   3.553  0.4057 -0.4260 -0.4274
 1630SOL    HW116526   3.705   0.643   3.507  0.4930 -2.0015  0.3021
 1630SOL    HW216527   3.750   0.752   3.587  2.9272  1.1076 -1.6464
 1631SOL     OW16528   2.471   4.606   4.433  0.0347  0.4065 -0.5174
 1631SOL    HW116529   2.457   4.636   4.343  0.4133 -1.8077 -1.3126
 1631SOL    HW216530   2.423   4.673   4.483 -0.0231 -1.9629  2.5865
 1632SOL     OW16531   0.909   1.191   3.901 -0.0348  0.4947  0.7729
 1632SOL    HW116532   0.841   1.238   3.949 -0.5185  1.9924 -1.3732
 1632SOL    HW216533   0.987   1.191   3.956 -0.2258  0.8127  1.0482
 1633SOL     OW16534   1.443   1.241   9.968 -0.0698 -0.2593  0.1686
 1633SOL    HW116535   1.456   1.208   9.880  0.0667  0.2346  0.0008
 1633SOL    HW216536   1.369   1.192  10.005 -0.0135  0.2809  0.9996
 1634SOL     OW16537   1.747   3.987   0.579  0.1351  0.0896  0.3766
 1634SOL    HW116538   1.769   3.936   0.657  0.6664 -1.7093 -0.9246
 1634SOL    HW216539   1.794   3.926   0.522 -2.4940 -1.8437  0.2866
 1635SOL     OW16540   3.104   3.892   3.332 -0.1166  0.1837 -0.1261
 1635SOL    HW116541   3.181   3.835   3.344 -0.7888 -0.0874  3.0473
 1635SOL    HW216542   3.066   3.846   3.258 -1.6836  2.5015 -0.7497
 1636SOL     OW16543   3.891   4.622   9.553  0.1780  0.2301  0.3995
 1636SOL    HW116544   3.896   4.713   9.524 -0.5581  0.4971  1.1016
 1636SOL    HW216545   3.815   4.599   9.499  2.3767 -1.3709 -2.0155
 1637SOL     OW16546   1.862   1.733   2.226  0.1493  0.2095  0.1221
 1637SOL    HW116547   1.769   1.718   2.213 -0.0409 -0.0751  1.8123
 1637SOL    HW216548   1.858   1.824   2.256  0.9599  0.3116 -0.0690
 1638SOL     OW16549   4.048   1.648   5.520  0.1376 -0.4324  0.0665
 1638SOL    HW116550   4.069   1.579   5.582 -0.4773 -0.7330 -0.0574
 1638SOL    HW216551   4.092   1.621   5.440  1.4207 -0.0291  0.6350
 1639SOL     OW16552   1.944   3.346   7.988 -0.4423  0.4294  0.1461
 1639SOL    HW116553   1.865   3.400   7.990 -0.7448 -0.0362  0.9613
 1639SOL    HW216554   1.915   3.272   8.042  1.8720 -0.5348  0.0579
 1640SOL     OW16555   1.700   1.135   8.265  0.0128  0.0964  0.3381
 1640SOL    HW116556   1.755   1.117   8.189  1.0134  0.3458  0.9996
 1640SOL    HW216557   1.620   1.156   8.217  0.5613  2.5040  0.5007
 1641SOL     OW16558   3.671   0.696   7.993 -0.0228 -0.0680 -0.1212
 1641SOL    HW116559   3.632   0.763   8.050  0.2549 -0.1381  0.1488
 1641SOL    HW216560   3.760   0.695   8.027 -0.4067 -0.4283  0.8784
 1642SOL     OW16561   4.659   0.744   2.889  0.0279 -0.0547  0.1567
 1642SOL    HW116562   4.617   0.817   2.842  0.1857 -0.9560 -1.3721
 1642SOL    HW216563   4.637   0.670   2.833 -0.0052  0.0446  0.0387
 1643SOL     OW16564   1.685   4.551   6.759 -0.8943 -0.0228  0.2344
 1643SOL    HW116565   1.631   4.538   6.681  2.2907 -1.5623 -1.7306
 1643SOL    HW216566   1.760   4.579   6.706 -0.2972 -2.1455 -0.0334
 1644SOL     OW16567   3.957   0.932   8.131  0.0537 -0.3139 -0.5157
 1644SOL    HW116568   4.016   0.865   8.163  0.3585  0.2362  0.0638
 1644SOL    HW216569   3.873   0.895   8.158  0.6636 -3.2461 -2.6131
 1645SOL     OW16570   1.712   3.957   4.852 -0.1844 -0.0312 -0.5420
 1645SOL    HW116571   1.800   3.940   4.816  0.0729 -0.7779  0.4412
 1645SOL    HW216572   1.728   4.049   4.873 -0.6016 -0.3313  1.0341
 1646SOL     OW16573   0.496   1.179   3.909  0.0449 -0.2248  0.1965
 1646SOL    HW116574   0.509   1.112   3.842  0.3528  1.1010 -1.0632
 1646SOL    HW216575   0.587   1.194   3.934 -1.2575  1.6190  3.7881
 1647SOL     OW16576   0.800   2.248   5.204  0.4456  0.4372 -0.2002
 1647SOL    HW116577   0.805   2.248   5.108  1.7743  0.6742 -0.1315
 1647SOL    HW216578   0.832   2.337   5.217  0.4714  0.6890 -1.9000
 1648SOL     OW16579   4.373   1.810   3.784  0.2283  0.4749  0.0849
 1648SOL    HW116580   4.461   1.833   3.811  0.7706  1.9019 -2.8626
 1648SOL    HW216581   4.326   1.812   3.867  3.7303  0.9524  2.0112
 1649SOL     OW16582   1.186   2.217   3.775  0.6947 -0.3543 -0.6130
 1649SOL    HW116583   1.125   2.193   3.844  0.4535 -0.4905 -0.8731
 1649SOL    HW216584   1.234   2.281   3.827  0.0329  1.1113 -1.8227
 1650SOL     OW16585   2.625   3.292  14.358  0.0004 -0.1349  0.2639
 1650SOL    HW116586   2.568   3.242  14.417 -0.5582 -1.8412 -1.7535
 1650SOL    HW216587   2.560   3.341  14.309 -1.2349 -0.9065  1.1407
 1651SOL     OW16588   3.556   3.920   2.714  0.1996 -0.0681  0.2247
 1651SOL    HW116589   3.503   3.961   2.645 -2.3114 -0.5214  1.9092
 1651SOL    HW216590   3.598   3.994   2.758 -0.6343  0.8861 -0.5532
 1652SOL     OW16591   1.360   0.430   0.711 -0.3545  0.0754 -0.0859
 1652SOL    HW116592   1.278   0.443   0.759  0.7263  0.6445  1.6180
 1652SOL    HW216593   1.359   0.334   0.715  1.7794  0.0691 -0.0576
 1653SOL     OW16594   4.419   3.975   9.756 -0.1530 -0.0790 -0.0673
 1653SOL    HW116595   4.486   3.989   9.823 -0.7497 -0.1396  0.5340
 1653SOL    HW216596   4.440   4.052   9.703  3.8417 -1.6231 -0.7858
 1654SOL     OW16597   2.070   1.996   6.400 -0.2600 -0.8385  0.7494
 1654SOL    HW116598   2.131   1.927   6.376 -0.8622 -0.8327 -0.7964
 1654SOL    HW216599   2.083   2.052   6.324  0.2274 -0.0770  1.3979
 1655SOL     OW16600   1.362   4.022   1.948  0.5328  0.6805  0.3006
 1655SOL    HW116601   1.346   4.066   2.031  0.4274 -0.6369  0.9821
 1655SOL    HW216602   1.388   4.101   1.900 -0.8359  0.8823 -0.0901
 1656SOL     OW16603   0.146   1.853   1.009 -0.3721  0.3897  0.0869
 1656SOL    HW116604   0.168   1.772   0.962  0.2156  0.0013  1.0423
 1656SOL    HW216605   0.062   1.875   0.969 -0.7570 -0.5247  0.3885
 1657SOL     OW16606   1.581   0.488   6.988  0.2848  0.2364  1.0833
 1657SOL    HW116607   1.595   0.505   7.081  0.3422  1.6081  0.8298
 1657SOL    HW216608   1.564   0.394   6.990 -2.1198  0.6706 -0.0449
 1658SOL     OW16609   1.951   2.395   4.635  0.0527  0.0983 -0.4047
 1658SOL    HW116610   1.940   2.300   4.635 -0.4263  0.1562 -1.0211
 1658SOL    HW216611   1.867   2.439   4.646  0.4719  0.9649 -0.7172
 1659SOL     OW16612   2.645   3.499   5.788  0.1098 -1.1424  0.5815
 1659SOL    HW116613   2.601   3.583   5.781 -1.9829 -2.2034  1.1574
 1659SOL    HW216614   2.573   3.436   5.788 -1.4508  0.6533  1.1424
 1660SOL     OW16615   3.744   1.049  14.493 -0.7759 -0.3355 -0.1104
 1660SOL    HW116616   3.721   1.104  14.418 -3.1345  0.4167  1.1758
 1660SOL    HW216617   3.716   0.966  14.455 -1.1922 -0.2561  0.0249
 1661SOL     OW16618   0.357   2.359  11.918 -0.3496 -0.3564 -0.4234
 1661SOL    HW116619   0.311   2.286  11.959 -1.7619  1.8019  1.8767
 1661SOL    HW216620   0.384   2.321  11.835 -2.1930 -0.1181 -1.1366
 1662SOL     OW16621   4.101   1.364   6.705  0.0453  0.0237  0.0860
 1662SOL    HW116622   4.120   1.393   6.794  1.3500  1.5751 -0.6823
 1662SOL    HW216623   4.179   1.317   6.675  0.9478 -0.0053  2.4836
 1663SOL     OW16624   3.011   0.504   8.283  0.0137  0.2159 -0.8505
 1663SOL    HW116625   3.014   0.598   8.265  0.0845  1.2082  4.1660
 1663SOL    HW216626   2.917   0.489   8.290 -0.0138 -0.0195 -1.8067
 1664SOL     OW16627   2.075   0.564   1.947  0.2813 -0.0669  0.2260
 1664SOL    HW116628   2.082   0.653   1.982 -0.1918  0.6502 -1.4984
 1664SOL    HW216629   2.069   0.515   2.029  1.0272 -1.1634 -0.3652
 1665SOL     OW16630   4.503   4.692   0.362  0.0180 -0.2657 -0.4177
 1665SOL    HW116631   4.551   4.637   0.301  1.0290  0.6403 -0.4385
 1665SOL    HW216632   4.449   4.633   0.416  2.4583 -1.9422  0.1674
 1666SOL     OW16633   2.131   0.714  12.091 -0.6571  0.1349 -0.0293
 1666SOL    HW116634   2.036   0.705  12.084 -0.5583 -1.5007  0.5487
 1666SOL    HW216635   2.146   0.703  12.185 -0.8895  0.9072  0.0954
 1667SOL     OW16636   0.761   2.311   2.005 -0.4842 -0.1928  0.5488
 1667SOL    HW116637   0.700   2.237   2.000  0.3282 -0.8663  0.6267
 1667SOL    HW216638   0.727   2.371   1.938  0.5269 -0.6992 -0.4222
 1668SOL     OW16639   2.138   4.359   1.985 -0.2289 -0.3800 -1.1807
 1668SOL    HW116640   2.070   4.292   1.977 -0.7821  0.1245 -0.7055
 1668SOL    HW216641   2.077   4.432   1.986 -1.3423 -1.3297  2.0235
 1669SOL     OW16642   3.407   4.263   0.872 -0.0846  0.2257 -0.1806
 1669SOL    HW116643   3.376   4.352   0.856 -2.2742 -0.2453  1.5018
 1669SOL    HW216644   3.323   4.237   0.910  0.6040 -0.4266  0.9092
 1670SOL     OW16645   0.261   4.414   7.776 -0.2756  0.2390  0.3375
 1670SOL    HW116646   0.246   4.346   7.710  1.3414 -0.4235  0.6511
 1670SOL    HW216647   0.332   4.379   7.830  0.7912  1.8225 -0.0521
 1671SOL     OW16648   4.448   3.143   3.317  0.1831 -0.7556  0.2084
 1671SOL    HW116649   4.380   3.210   3.308  0.8816 -0.2677 -1.4804
 1671SOL    HW216650   4.495   3.151   3.234 -1.0862 -0.6139 -0.5049
 1672SOL     OW16651   2.177   2.432  14.311  0.0555  0.6245 -0.5642
 1672SOL    HW116652   2.135   2.517  14.321 -1.3443  0.1255 -2.1862
 1672SOL    HW216653   2.260   2.458  14.272  0.8526  1.6775  1.7804
 1673SOL     OW16654   1.417   0.111   5.407 -0.1946 -0.4336 -0.4244
 1673SOL    HW116655   1.353   0.119   5.478  1.0574 -1.3556  0.7884
 1673SOL    HW216656   1.483   0.064   5.457 -1.1768 -0.6288  0.6851
 1674SOL     OW16657   2.568   1.881   6.048  0.0362  0.3383  0.4481
 1674SOL    HW116658   2.513   1.959   6.038 -2.4910 -1.7154 -1.8621
 1674SOL    HW216659   2.511   1.818   6.003 -1.1685 -0.3335  2.8940
 1675SOL     OW16660   3.560   3.404   2.499  0.1573 -0.4675 -0.0794
 1675SOL    HW116661   3.559   3.325   2.552 -2.9516 -0.1457  0.3356
 1675SOL    HW216662   3.651   3.429   2.514  0.4579 -0.6929 -1.5370
 1676SOL     OW16663   0.692   1.173   8.875 -0.1016 -0.5530  0.1132
 1676SOL    HW116664   0.697   1.080   8.898 -3.5764 -1.3588 -2.3828
 1676SOL    HW216665   0.691   1.213   8.962  1.0043 -0.8270  0.2512
 1677SOL     OW16666   0.049   1.436   7.263 -0.0167  0.7651 -0.9010
 1677SOL    HW116667   0.030   1.530   7.255  1.8133  1.2697  0.5643
 1677SOL    HW216668   0.123   1.431   7.202  0.4264  3.0962 -0.5682
 1678SOL     OW16669   3.059   1.964   6.744  0.1965  1.1122  0.2302
 1678SOL    HW116670   3.149   1.998   6.749  1.4097 -2.0613  0.3776
 1678SOL    HW216671   3.074   1.895   6.679 -1.1823  0.8975  0.1500
 1679SOL     OW16672   2.600   4.317   8.196 -0.5993  0.0460 -0.3717
 1679SOL    HW116673   2.576   4.231   8.163 -1.5895 -0.5592  1.9299
 1679SOL    HW216674   2.530   4.327   8.260  3.3369  0.7367  3.7802
 1680SOL     OW16675   0.938   2.297   8.053  0.5184 -0.1243  0.2631
 1680SOL    HW116676   0.911   2.387   8.036 -2.3869 -1.1503 -0.6476
 1680SOL    HW216677   0.855   2.253   8.033 -0.4127  1.6555  0.2295
 1681SOL     OW16678   4.698   2.988  13.897  0.0950 -0.1681  0.3387
 1681SOL    HW116679   4.613   3.020  13.929 -0.8745 -0.6953 -1.7351
 1681SOL    HW216680   0.009   3.072  13.890 -0.4254  0.0382 -0.5743
 1682SOL     OW16681   2.713   0.283   9.186  0.1118 -0.2329  0.5420
 1682SOL    HW116682   2.702   0.370   9.224 -0.2862 -0.1085  0.1334
 1682SOL    HW216683   2.705   0.306   9.094  1.0449  0.0516  0.5253
 1683SOL     OW16684   2.362   3.927  15.855  0.1843 -0.4320 -0.3632
 1683SOL    HW116685   2.266   3.925  15.853  0.1227  0.0259  1.2821
 1683SOL    HW216686   2.383   3.997  15.917 -1.4449  0.1630 -0.4833
 1684SOL     OW16687   4.583   0.598   9.914 -0.6432  0.1221 -0.5152
 1684SOL    HW116688   4.504   0.614   9.965  0.2789  1.1106  0.6082
 1684SOL    HW216689   4.546   0.617   9.828 -0.2529 -0.4968 -0.8174
 1685SOL     OW16690   1.944   0.775   8.729  0.7403  0.3852  0.1558
 1685SOL    HW116691   1.966   0.683   8.721 -1.3773 -0.3246  2.3637
 1685SOL    HW216692   1.942   0.808   8.640  1.3748  0.2240  0.0786
 1686SOL     OW16693   1.478   2.128   7.867 -0.4992  0.6714 -0.2737
 1686SOL    HW116694   1.457   2.160   7.779  0.5652 -0.2952 -0.8765
 1686SOL    HW216695   1.537   2.056   7.847 -1.8638 -0.6837  0.5463
 1687SOL     OW16696   2.669   3.135  16.778 -0.1841  0.4616 -0.2823
 1687SOL    HW116697   2.709   3.195  16.714  1.8427  0.5054  1.0254
 1687SOL    HW216698   2.679   3.184  16.859 -0.2487  0.7920 -0.4734
 1688SOL     OW16699   1.740   1.904  16.490  0.5739  0.0458  0.5409
 1688SOL    HW116700   1.709   1.979  16.542 -1.2108 -0.7881  0.6821
 1688SOL    HW216701   1.725   1.936  16.401 -0.5293 -0.7179  0.4459
 1689SOL     OW16702   1.084   2.809   2.824  0.1774 -0.4244 -0.3030
 1689SOL    HW116703   1.013   2.773   2.771 -1.1680 -1.3699  2.1225
 1689SOL    HW216704   1.153   2.744   2.807 -0.1570 -0.9133  0.2121
 1690SOL     OW16705   4.352   0.201   4.024  0.2300 -0.1177 -0.2166
 1690SOL    HW116706   4.388   0.288   4.010  1.3445 -0.4620  0.5622
 1690SOL    HW216707   4.387   0.160   3.945  1.6413 -0.8220  0.7982
 1691SOL     OW16708   2.388   2.456   7.094 -0.5957 -0.8007 -0.7052
 1691SOL    HW116709   2.406   2.409   7.013 -0.4242 -0.4923 -0.8458
 1691SOL    HW216710   2.294   2.439   7.097 -1.0175  1.8217  0.5688
 1692SOL     OW16711   1.380   3.626   4.776 -0.6785  0.1885 -0.4676
 1692SOL    HW116712   1.427   3.570   4.838  0.6228  0.6398 -1.0338
 1692SOL    HW216713   1.384   3.578   4.693  1.7918 -0.4687  0.0308
 1693SOL     OW16714   2.399   3.751   9.132  0.1639  0.2692 -0.5434
 1693SOL    HW116715   2.432   3.665   9.158 -2.3093 -0.8811 -1.3254
 1693SOL    HW216716   2.425   3.801   9.210  1.2741  0.3928 -0.9907
 1694SOL     OW16717   4.689   1.661   3.220 -0.0498 -0.0747 -0.3029
 1694SOL    HW116718   4.728   1.738   3.260 -2.2748  0.6928  0.3698
 1694SOL    HW216719   4.598   1.691   3.215  0.5588  1.5786 -1.3533
 1695SOL     OW16720   4.423   2.105   2.962 -0.1776  0.4986 -0.0536
 1695SOL    HW116721   4.406   2.094   3.055 -0.1098 -1.1761 -0.2486
 1695SOL    HW216722   4.340   2.124   2.917  0.7572  0.1712 -1.9027
 1696SOL     OW16723   3.440   0.908   2.563  0.6385 -0.3787  0.6077
 1696SOL    HW116724   3.468   0.847   2.495  0.7256  0.7546 -0.3453
 1696SOL    HW216725   3.511   0.894   2.626  1.0804 -0.1977  0.1463
 1697SOL     OW16726   4.255   4.090   9.265 -0.0383  0.2485  0.5364
 1697SOL    HW116727   4.183   4.043   9.307 -0.5470 -1.3954 -2.2130
 1697SOL    HW216728   4.224   4.105   9.175  0.6382 -0.9843  0.1043
 1698SOL     OW16729   4.085   1.927   4.229  0.1603 -0.4818  0.1026
 1698SOL    HW116730   4.005   1.876   4.245 -0.6686  1.4691  2.1670
 1698SOL    HW216731   4.046   1.996   4.176 -0.7085 -1.4773 -0.5456
 1699SOL     OW16732   2.213   2.207   7.741 -0.3931  0.3080  0.0702
 1699SOL    HW116733   2.278   2.143   7.770  0.2398  0.4622 -0.9980
 1699SOL    HW216734   2.189   2.172   7.656  1.6863  2.9263 -1.6100
 1700SOL     OW16735   1.738   2.708  17.155  0.9224 -0.2321  0.4785
 1700SOL    HW116736   1.650   2.692  17.191  0.5151  3.0685  0.9633
 1700SOL    HW216737   1.776   2.729  17.240 -1.8464  1.2836  1.3209
 1701SOL     OW16738   3.748   4.600   3.938  0.2249  0.3633 -0.1801
 1701SOL    HW116739   3.758   4.695   3.947  2.8902  0.0141  0.4846
 1701SOL    HW216740   3.831   4.591   3.892  1.5184  1.1938  1.9912
 1702SOL     OW16741   0.100   1.113   8.756  0.3800 -0.2417  0.2555
 1702SOL    HW116742   0.075   1.133   8.847 -0.1257  1.1331 -0.1740
 1702SOL    HW216743   0.042   1.173   8.709 -1.8486 -0.7357  2.3690
 1703SOL     OW16744   0.513   1.821   1.932 -0.2891 -0.2895  0.1978
 1703SOL    HW116745   0.507   1.761   2.007  0.9367 -0.2001  0.3668
 1703SOL    HW216746   0.424   1.804   1.902 -0.4927  3.1162 -1.0607
 1704SOL     OW16747   3.934   0.973  17.322 -0.3307 -0.3104  0.3299
 1704SOL    HW116748   3.849   0.929  17.315  0.9272 -2.3156 -2.4427
 1704SOL    HW216749   3.998   0.908  17.293  1.7135  0.8155  2.3308
 1705SOL     OW16750   1.947   3.414  14.543 -0.0911 -0.0441  0.0050
 1705SOL    HW116751   1.875   3.433  14.604  0.9432  0.5488  1.0394
 1705SOL    HW216752   1.930   3.490  14.486 -1.8083  1.1676  2.0898
 1706SOL     OW16753   0.744   1.230   3.267 -0.3027 -0.2279  0.1221
 1706SOL    HW116754   0.752   1.168   3.195  0.3260 -0.0842  0.0656
 1706SOL    HW216755   0.712   1.181   3.343  1.2184 -0.6461  0.4997
 1707SOL     OW16756   1.135   4.575   1.698  0.3578  0.6631  0.5073
 1707SOL    HW116757   1.064   4.575   1.761 -0.4912 -2.5953 -0.4631
 1707SOL    HW216758   1.151   4.481   1.705  0.0972  0.6381  0.7298
 1708SOL     OW16759   0.207   3.478   5.789  0.0581 -0.4132  0.8234
 1708SOL    HW116760   0.114   3.467   5.809  0.1938 -1.2376  1.0160
 1708SOL    HW216761   0.216   3.543   5.859 -0.6794  1.9366 -1.2839
 1709SOL     OW16762   0.808   1.049   4.258 -0.4258 -0.2568  0.3829
 1709SOL    HW116763   0.836   1.141   4.257  1.0745 -0.6976  1.4669
 1709SOL    HW216764   0.712   1.053   4.259 -0.3316  1.8682  0.6650
 1710SOL     OW16765   1.716   2.143   7.531 -0.3339 -0.3206 -0.1060
 1710SOL    HW116766   1.624   2.143   7.557 -0.3245 -0.0667 -0.0734
 1710SOL    HW216767   1.730   2.049   7.519  1.3040 -0.0011 -0.6957
 1711SOL     OW16768   0.412   2.194   7.806 -0.0621 -0.4300 -0.6206
 1711SOL    HW116769   0.445   2.243   7.881 -0.4140  0.6403 -1.1674
 1711SOL    HW216770   0.377   2.114   7.845 -0.7789  0.3798  0.3786
 1712SOL     OW16771   3.647   4.669   4.651 -0.4024  0.3259 -0.3983
 1712SOL    HW116772   3.706   4.718   4.594  0.4110 -0.9493 -0.6587
 1712SOL    HW216773   3.578   4.638   4.593  0.1363 -1.5427 -0.0564
 1713SOL     OW16774   2.708   4.164  14.458  0.1343  0.6007 -0.0341
 1713SOL    HW116775   2.716   4.248  14.502  1.1583  0.0183  0.8766
 1713SOL    HW216776   2.769   4.176  14.385  1.0463 -0.9660  0.4736
 1714SOL     OW16777   0.663   3.387   4.921  0.0745 -0.5511 -0.3782
 1714SOL    HW116778   0.721   3.371   4.847  0.7869  1.9458 -0.3414
 1714SOL    HW216779   0.676   3.310   4.977  1.0985 -1.3422 -1.7305
 1715SOL     OW16780   2.931   4.534  13.427  0.4431  0.0603 -0.0257
 1715SOL    HW116781   2.967   4.589  13.497 -1.9358  1.1844  0.3219
 1715SOL    HW216782   2.851   4.573  13.391  0.0306  0.0191  0.8434
 1716SOL     OW16783   3.500   2.126   3.840 -0.2649  0.2808 -0.4982
 1716SOL    HW116784   3.500   2.055   3.777  0.7601 -0.9782  0.9238
 1716SOL    HW216785   3.407   2.147   3.841 -0.3771 -0.2329  0.6225
 1717SOL     OW16786   3.717   1.531  11.488 -0.1179  0.7563  0.7364
 1717SOL    HW116787   3.742   1.452  11.440 -0.7231 -0.4796  2.4526
 1717SOL    HW216788   3.716   1.591  11.414  2.7889  0.6061  0.5532
 1718SOL     OW16789   2.693   4.201  11.315 -0.1322 -0.0857  0.1127
 1718SOL    HW116790   2.771   4.253  11.299 -1.0235  1.1236 -0.2708
 1718SOL    HW216791   2.696   4.137  11.244  2.6438 -0.9599  1.0222
 1719SOL     OW16792   3.438   0.265   3.160 -0.3289 -0.4988  0.7649
 1719SOL    HW116793   3.498   0.205   3.116 -0.2450 -0.4492  0.8123
 1719SOL    HW216794   3.361   0.263   3.103 -0.3516  1.0533  0.7201
 1720SOL     OW16795   1.545   3.372   2.404  0.2257 -0.3193 -0.0236
 1720SOL    HW116796   1.559   3.457   2.360 -0.9024  0.6769  1.5586
 1720SOL    HW216797   1.624   3.361   2.457  0.0748 -2.4221 -0.2360
 1721SOL     OW16798   3.458   1.899   7.750 -0.4392  0.4409  0.0610
 1721SOL    HW116799   3.528   1.947   7.793 -0.3894 -0.1137  0.6030
 1721SOL    HW216800   3.444   1.947   7.669  0.3803  0.0878 -0.2894
 1722SOL     OW16801   0.266   1.710   6.518  0.6911 -0.1487  0.6126
 1722SOL    HW116802   0.291   1.620   6.537  2.7157  0.9552  3.1679
 1722SOL    HW216803   0.170   1.703   6.518  0.6795  0.1106 -2.6022
 1723SOL     OW16804   3.818   2.898   2.262  0.6436  0.2257  0.8462
 1723SOL    HW116805   3.740   2.953   2.269 -1.5767 -2.7950 -0.3659
 1723SOL    HW216806   3.806   2.825   2.323 -2.1410 -1.2185 -1.4553
 1724SOL     OW16807   1.804   3.701   2.544 -0.3863 -0.1410  0.3953
 1724SOL    HW116808   1.756   3.782   2.527  0.4443  0.7870  2.3804
 1724SOL    HW216809   1.895   3.730   2.552 -0.2777 -0.3061 -0.3139
 1725SOL     OW16810   1.513   0.897   2.971  0.0078 -0.0549 -0.3592
 1725SOL    HW116811   1.516   0.802   2.986 -0.7863 -0.2671 -1.4821
 1725SOL    HW216812   1.511   0.906   2.876 -0.0643 -2.6670 -0.6002
 1726SOL     OW16813   4.642   2.857   2.973  0.4949 -0.3926 -0.1611
 1726SOL    HW116814   4.654   2.894   2.886 -0.8508 -0.2954 -0.2995
 1726SOL    HW216815   4.735   2.860   2.997  1.1173  1.2040 -2.8199
 1727SOL     OW16816   2.316   2.779   7.085 -0.2865 -0.1760  0.3528
 1727SOL    HW116817   2.369   2.699   7.084  0.5739  0.3854  0.5844
 1727SOL    HW216818   2.296   2.790   6.992 -1.2572 -0.2125  0.5630
 1728SOL     OW16819   0.022   4.389   7.093  0.3388 -0.0164 -0.0904
 1728SOL    HW116820   0.063   4.342   7.166 -0.3580 -0.9869 -0.3188
 1728SOL    HW216821   4.672   4.389   7.138  0.6704 -1.4763  0.5582
 1729SOL     OW16822   3.858   2.006  11.123 -0.4082  0.7574  0.8123
 1729SOL    HW116823   3.898   2.018  11.209 -1.8955  1.1724  1.4511
 1729SOL    HW216824   3.765   2.006  11.145 -0.8660  2.5366 -1.1460
 1730SOL     OW16825   4.563   1.733   8.787 -0.4100 -0.0847 -0.4163
 1730SOL    HW116826   4.652   1.722   8.754 -1.1533 -0.6655 -2.2792
 1730SOL    HW216827   4.576   1.764   8.876 -0.9443 -0.0881 -0.3365
 1731SOL     OW16828   2.030   0.010  15.369 -0.2916 -0.0074 -0.4794
 1731SOL    HW116829   2.028   0.100  15.400 -0.3600 -1.9247  5.3030
 1731SOL    HW216830   2.008   4.705  15.454 -1.9275 -0.9235 -1.3506
 1732SOL     OW16831   3.398   1.272   8.189  1.1646 -0.4041  0.7731
 1732SOL    HW116832   3.392   1.306   8.099 -0.1368 -2.5723  0.0283
 1732SOL    HW216833   3.313   1.300   8.223  0.7943  0.5620 -0.9285
 1733SOL     OW16834   1.841   0.817   6.355  0.4668  0.0064 -0.0958
 1733SOL    HW116835   1.874   0.782   6.272  1.9924 -0.0851  0.5514
 1733SOL    HW216836   1.861   0.749   6.420  0.2037  0.2001  0.1890
 1734SOL     OW16837   4.649   2.277   7.403 -0.0446  0.4023 -0.4924
 1734SOL    HW116838   4.716   2.210   7.396  0.3038  0.5786  1.0991
 1734SOL    HW216839   4.703   2.353   7.383 -0.1290  0.9092  1.2134
 1735SOL     OW16840   3.869   1.011  16.607  0.6088 -0.5712  0.2290
 1735SOL    HW116841   3.804   1.053  16.550  0.8626 -0.7998 -0.2324
 1735SOL    HW216842   3.842   1.046  16.692 -2.3821 -0.9616 -0.5438
 1736SOL     OW16843   3.652   4.071  10.778 -0.3201  0.6015 -0.2132
 1736SOL    HW116844   3.627   4.126  10.704  1.9050 -4.1161 -4.4300
 1736SOL    HW216845   3.587   4.004  10.758 -1.7917  2.2972 -1.0753
 1737SOL     OW16846   2.368   3.140   7.134 -0.1820 -0.0878  0.4195
 1737SOL    HW116847   2.389   3.229   7.161 -1.5253 -0.0271  1.2464
 1737SOL    HW216848   2.436   3.122   7.068 -1.9224  0.8682 -1.6108
 1738SOL     OW16849   4.035   1.882   3.778 -0.3010  0.0127 -0.0227
 1738SOL    HW116850   4.088   1.832   3.715 -0.2991  1.3464 -1.0778
 1738SOL    HW216851   4.003   1.809   3.831 -0.9821  1.3664  1.4332
 1739SOL     OW16852   2.358   1.761   5.944 -0.0155  0.3397 -0.1566
 1739SOL    HW116853   2.383   1.799   5.860 -1.0353  0.0994 -0.5663
 1739SOL    HW216854   2.318   1.678   5.920 -1.4623  0.9916  0.0056
 1740SOL     OW16855   4.508   4.296   8.711 -0.0707  0.6893 -0.3154
 1740SOL    HW116856   4.560   4.331   8.784 -1.8086  1.3229  0.6164
 1740SOL    HW216857   4.425   4.339   8.732 -0.9869  0.2598 -3.1262
 1741SOL     OW16858   0.471   3.427  17.208  0.2691 -0.0912 -0.2601
 1741SOL    HW116859   0.560   3.457  17.230  0.9481 -1.1289 -1.6005
 1741SOL    HW216860   0.494   3.346  17.162  1.0088  0.5493 -1.0269
 1742SOL     OW16861   0.365   2.032   9.306 -0.1826 -0.3406  0.5485
 1742SOL    HW116862   0.333   1.998   9.390  2.8573  2.6624  2.9324
 1742SOL    HW216863   0.284   2.057   9.263  0.9287 -0.0903 -1.4127
 1743SOL     OW16864   3.109   3.487   3.362 -0.0144 -0.2986 -0.1263
 1743SOL    HW116865   3.095   3.453   3.450  1.8327  1.6117  0.9052
 1743SOL    HW216866   3.036   3.441   3.321  0.6776 -1.3836 -0.1479
 1744SOL     OW16867   0.418   2.408  11.185 -0.5879  0.3644 -0.5233
 1744SOL    HW116868   0.373   2.337  11.231 -1.6740  1.3218 -0.1148
 1744SOL    HW216869   0.426   2.473  11.254  0.3061  0.1158 -0.3969
 1745SOL     OW16870   1.188   1.047   5.731  0.4853  0.8265 -0.5639
 1745SOL    HW116871   1.144   0.966   5.705  0.3020  0.4974  0.7951
 1745SOL    HW216872   1.133   1.097   5.670  0.1320  0.1358 -0.8055
 1746SOL     OW16873   4.159   2.242  16.203  0.2197  0.3039  0.1375
 1746SOL    HW116874   4.092   2.181  16.234 -0.4100  1.7122  1.5175
 1746SOL    HW216875   4.192   2.256  16.291  2.0102 -0.9455 -0.3431
 1747SOL     OW16876   0.481   3.963   2.782  1.1404  0.3940 -0.1965
 1747SOL    HW116877   0.519   3.952   2.869  0.5735 -0.7432 -0.0929
 1747SOL    HW216878   0.531   4.035   2.744  1.2118  0.1828 -0.5027
 1748SOL     OW16879   0.410   2.646  15.246  0.8835  0.3401  0.2741
 1748SOL    HW116880   0.486   2.607  15.203 -0.2449  0.0281 -1.4373
 1748SOL    HW216881   0.378   2.703  15.177  0.9502  0.0158 -0.0222
 1749SOL     OW16882   2.579   2.697   5.499 -0.3763 -0.5497 -0.7616
 1749SOL    HW116883   2.643   2.644   5.546  0.7824  2.1039  0.7040
 1749SOL    HW216884   2.633   2.771   5.468 -0.7602 -0.0583 -0.2572
 1750SOL     OW16885   2.027   0.161  11.142  0.2407 -0.0256  0.9009
 1750SOL    HW116886   1.972   0.104  11.196 -0.7790  0.4258  0.3492
 1750SOL    HW216887   2.069   0.088  11.096  0.2376  1.0187 -0.7874
 1751SOL     OW16888   4.364   1.187   0.944  0.3263 -0.0289 -0.3838
 1751SOL    HW116889   4.300   1.143   1.000  0.3101  1.0350  0.4157
 1751SOL    HW216890   4.390   1.251   1.010  0.2444 -0.2342 -0.1487
 1752SOL     OW16891   1.760   1.866   7.503 -0.6835  0.7726 -0.3097
 1752SOL    HW116892   1.799   1.796   7.449 -0.8059  0.9678 -0.6493
 1752SOL    HW216893   1.774   1.839   7.594 -0.8121  0.9673 -0.2337
 1753SOL     OW16894   2.164   3.968   2.379 -0.1022  0.2841 -0.0469
 1753SOL    HW116895   2.174   4.008   2.292 -0.8448 -0.6116 -0.5405
 1753SOL    HW216896   2.252   3.933   2.396 -0.6185 -1.8838 -1.8292
 1754SOL     OW16897   1.213   1.832   0.205 -0.0790 -0.5495 -0.5045
 1754SOL    HW116898   1.250   1.864   0.287  0.8860 -1.3716 -0.6211
 1754SOL    HW216899   1.214   1.917   0.160 -0.0085 -0.6937 -0.7739
 1755SOL     OW16900   3.921   4.263   1.586  0.4874 -0.5521 -0.1718
 1755SOL    HW116901   3.861   4.280   1.659  2.4043  0.3659  1.1966
 1755SOL    HW216902   3.875   4.189   1.547  0.0357 -0.9254  1.0553
 1756SOL     OW16903   4.610   2.031   8.587  0.0603  0.0993 -0.0996
 1756SOL    HW116904   4.529   2.031   8.639  0.2810 -2.0469  0.2704
 1756SOL    HW216905   4.678   2.026   8.654 -0.7620  0.1800  0.7364
 1757SOL     OW16906   2.778   0.072  14.410 -0.0444  0.1949  0.0876
 1757SOL    HW116907   2.822   0.035  14.333 -0.8966 -0.1677 -0.2333
 1757SOL    HW216908   2.693   0.097  14.373 -0.0508  0.1453  0.0689
 1758SOL     OW16909   1.111   4.479   1.377 -0.2160  0.1847 -0.4327
 1758SOL    HW116910   1.118   4.397   1.426 -1.9024  0.3086  0.0188
 1758SOL    HW216911   1.037   4.453   1.322 -0.2284 -0.7112  0.0049
 1759SOL     OW16912   2.707   3.852   3.922 -0.1613 -0.1755 -0.0452
 1759SOL    HW116913   2.775   3.826   3.860 -1.4076  1.7140 -2.2294
 1759SOL    HW216914   2.629   3.810   3.884 -0.2129 -1.3990  1.4113
 1760SOL     OW16915   4.429   3.341   4.233 -0.0582  0.0491  0.5611
 1760SOL    HW116916   4.338   3.334   4.264  0.0587 -2.9443  0.2410
 1760SOL    HW216917   4.421   3.380   4.146 -0.8555 -1.4034 -0.0200
 1761SOL     OW16918   1.385   0.090  12.018  0.6121  0.0544  0.6358
 1761SOL    HW116919   1.457   0.139  11.977  0.7160  0.4601  1.2932
 1761SOL    HW216920   1.343   0.157  12.073 -4.3047 -2.8115  0.3355
 1762SOL     OW16921   2.379   4.046  12.643 -0.1291 -0.1245  0.2563
 1762SOL    HW116922   2.434   3.969  12.631 -1.1257 -0.6244 -1.0964
 1762SOL    HW216923   2.308   4.013  12.589 -0.3710  1.9986 -0.7318
 1763SOL     OW16924   3.199   1.421  14.945  0.1950  0.2156  0.2663
 1763SOL    HW116925   3.195   1.326  14.949 -1.2199  0.3134  1.2558
 1763SOL    HW216926   3.293   1.426  14.928  0.0237 -1.0066 -1.0837
 1764SOL     OW16927   3.842   1.023   3.393  0.3106 -0.1581 -0.3787
 1764SOL    HW116928   3.898   1.083   3.345 -0.1795  2.3622  2.1960
 1764SOL    HW216929   3.885   0.942   3.365  0.2359 -0.4931  0.4782
 1765SOL     OW16930   3.572   2.036   2.073 -0.5046 -0.4889  0.7099
 1765SOL    HW116931   3.554   2.114   2.126  1.7790 -0.8241  1.9891
 1765SOL    HW216932   3.503   2.053   2.009 -2.0515 -1.0003  2.2357
 1766SOL     OW16933   0.568   2.001   5.021 -0.2316 -0.5543 -0.4016
 1766SOL    HW116934   0.598   2.033   5.107 -0.8294  0.2604 -0.4957
 1766SOL    HW216935   0.527   2.082   4.990  1.3371  0.7060  0.8114
 1767SOL     OW16936   1.445   0.623   3.742  0.5400  1.0095  0.6756
 1767SOL    HW116937   1.410   0.662   3.662  1.2800 -0.7420 -0.4986
 1767SOL    HW216938   1.418   0.532   3.730 -0.7469  1.5015 -0.1074
 1768SOL     OW16939   0.965   3.678   0.843 -0.3627  0.0802  0.5463
 1768SOL    HW116940   1.019   3.723   0.908 -2.0636  0.7569  1.4881
 1768SOL    HW216941   1.014   3.710   0.767  0.0892  1.0664  1.2567
 1769SOL     OW16942   3.575   3.001   3.394  0.1138  0.8328 -0.2736
 1769SOL    HW116943   3.622   3.063   3.339 -2.0476  1.2686 -1.6141
 1769SOL    HW216944   3.518   2.946   3.340  0.2541  0.9845 -0.5763
 1770SOL     OW16945   1.444   1.955   4.563  0.2942 -0.1461 -0.1557
 1770SOL    HW116946   1.351   1.974   4.552  0.5753  1.0953 -0.3742
 1770SOL    HW216947   1.483   1.999   4.488  1.5007 -1.8741 -0.5472
 1771SOL     OW16948   3.029   0.840   1.182 -0.0921  0.0302  0.4144
 1771SOL    HW116949   3.086   0.775   1.225 -0.4319 -1.4532 -1.3465
 1771SOL    HW216950   2.940   0.810   1.202 -1.2177  1.7190 -2.1728
 1772SOL     OW16951   0.602   2.283   4.362  0.3982 -0.0276 -0.1143
 1772SOL    HW116952   0.536   2.296   4.294  0.7358 -1.9638 -0.8097
 1772SOL    HW216953   0.580   2.195   4.392  1.3874  0.2095  1.2779
 1773SOL     OW16954   0.798   4.703   7.546  0.0381  0.5102 -0.6041
 1773SOL    HW116955   0.740   0.040   7.570  0.5492  0.8006 -0.2543
 1773SOL    HW216956   0.761   4.704   7.457 -1.6079 -1.6958  0.0378
 1774SOL     OW16957   4.513   0.826   7.926 -0.0309  0.0418  0.2716
 1774SOL    HW116958   4.540   0.907   7.882  0.8711 -1.1564 -1.3782
 1774SOL    HW216959   4.421   0.849   7.939 -0.5558 -1.6836 -0.3889
 1775SOL     OW16960   2.427   4.696   5.521 -0.3909  0.3840 -0.4613
 1775SOL    HW116961   2.356   4.689   5.586 -0.4418  1.5088 -0.3971
 1775SOL    HW216962   2.435   0.056   5.515 -1.3142  0.5949  1.6799
 1776SOL     OW16963   2.467   2.034  14.962  0.6534  0.3458  0.4609
 1776SOL    HW116964   2.390   2.014  15.015  0.1245  1.6634  0.1730
 1776SOL    HW216965   2.437   1.994  14.881  1.7030  1.2582 -0.3712
 1777SOL     OW16966   4.681   3.282   4.669  0.1600  0.2015 -0.2649
 1777SOL    HW116967   4.641   3.355   4.717  0.9040 -0.4119  1.2687
 1777SOL    HW216968   0.040   3.288   4.688 -0.0685 -0.0501  0.9150
 1778SOL     OW16969   3.277   4.142   8.158  0.1580  0.4074 -0.1501
 1778SOL    HW116970   3.321   4.180   8.234 -0.7766  0.4596  0.3673
 1778SOL    HW216971   3.348   4.084   8.130 -0.2701 -0.2455  0.1346
 1779SOL     OW16972   3.669   2.435   5.011 -0.1526  0.9236 -0.2485
 1779SOL    HW116973   3.583   2.429   4.970 -0.5437 -0.0934  0.7314
 1779SOL    HW216974   3.662   2.357   5.066 -0.9801  1.0471 -0.1774
 1780SOL     OW16975   1.957   0.522   6.863 -0.5766  0.1558 -0.4538
 1780SOL    HW116976   1.957   0.427   6.868  0.4730  0.2372  1.1647
 1780SOL    HW216977   2.001   0.551   6.943 -2.2256  1.5075 -0.0399
 1781SOL     OW16978   0.702   1.579  10.666  0.0846  0.7111  0.5161
 1781SOL    HW116979   0.774   1.519  10.685 -0.1471 -0.7485 -3.2997
 1781SOL    HW216980   0.744   1.663  10.649  0.5808  0.3031 -0.2836
 1782SOL     OW16981   1.319   4.007   4.024  0.5346  0.0675 -0.3634
 1782SOL    HW116982   1.339   4.034   4.114 -1.8208  0.0985  0.1598
 1782SOL    HW216983   1.405   3.983   3.989  0.5916 -1.6777  0.9238
 1783SOL     OW16984   1.311   1.796  10.866  0.1425  0.5992 -0.2530
 1783SOL    HW116985   1.335   1.777  10.956 -2.6267  1.4037  0.6539
 1783SOL    HW216986   1.286   1.706  10.845  0.0478  0.8863 -1.3936
 1784SOL     OW16987   2.903   2.370  15.653 -1.0591  0.4097  0.8636
 1784SOL    HW116988   2.811   2.395  15.660 -1.0339  0.6965  0.1778
 1784SOL    HW216989   2.907   2.274  15.649 -2.8384  0.3438  0.5098
 1785SOL     OW16990   1.270   3.789   6.208  0.8625 -0.1749 -0.2350
 1785SOL    HW116991   1.254   3.722   6.142 -1.6974  0.8181 -0.6095
 1785SOL    HW216992   1.310   3.728   6.271 -1.4183 -0.1078  1.2681
 1786SOL     OW16993   2.653   1.484  11.271  0.3507  0.0331  0.3130
 1786SOL    HW116994   2.617   1.519  11.353  1.5126 -1.4450  1.4342
 1786SOL    HW216995   2.595   1.409  11.258  0.2257  0.1531  0.1816
 1787SOL     OW16996   0.299   1.129   5.137 -0.1066 -0.1702 -0.0703
 1787SOL    HW116997   0.216   1.148   5.180  1.3309 -2.3654  3.6866
 1787SOL    HW216998   0.332   1.056   5.189 -0.1135 -0.2712 -0.2072
 1788SOL     OW16999   0.425   0.895   4.571 -0.5271  0.1953  0.2491
 1788SOL    HW117000   0.496   0.847   4.528 -1.2287  0.0422 -0.7380
 1788SOL    HW217001   0.450   0.893   4.663  0.3483 -0.2865  0.0051
 1789SOL     OW17002   0.681   3.393   4.366 -0.9263  0.2612  0.9618
 1789SOL    HW117003   0.636   3.324   4.415 -0.3607 -0.9808 -0.2626
 1789SOL    HW217004   0.616   3.463   4.371 -2.9169 -1.4191 -2.0342
 1790SOL     OW17005   0.314   2.818   6.155  0.1624 -0.3272 -0.0466
 1790SOL    HW117006   0.223   2.821   6.185  0.2014  3.1878 -0.2961
 1790SOL    HW217007   0.349   2.884   6.214  0.3132 -0.4590  0.0100
 1791SOL     OW17008   2.173   0.511   8.619  0.2885 -0.0752  0.0402
 1791SOL    HW117009   2.203   0.425   8.646 -1.1004 -0.9277 -1.1220
 1791SOL    HW217010   2.260   0.549   8.606 -0.2369  1.0766 -0.1070
 1792SOL     OW17011   0.192   3.727   2.133  0.6000  0.2599 -0.0539
 1792SOL    HW117012   0.197   3.633   2.116 -0.6141  0.3260 -0.7960
 1792SOL    HW217013   0.155   3.759   2.050 -1.4289 -0.0149  0.7476
 1793SOL     OW17014   0.608   1.427   3.426 -0.2864  0.7391 -0.1865
 1793SOL    HW117015   0.556   1.473   3.361  0.1057 -0.0855 -1.0773
 1793SOL    HW217016   0.658   1.372   3.367 -1.6437 -1.1528  0.4272
 1794SOL     OW17017   4.365   2.650   8.577  0.5412  0.0340  0.3485
 1794SOL    HW117018   4.363   2.671   8.484  2.2575 -0.5612  0.1767
 1794SOL    HW217019   4.458   2.635   8.594 -0.1641 -0.7701  3.5030
 1795SOL     OW17020   1.386   3.194  10.055  0.6199  0.8654  0.1548
 1795SOL    HW117021   1.470   3.150  10.066  1.2085  1.9717  0.1365
 1795SOL    HW217022   1.388   3.260  10.125 -0.3326  0.3069  0.7062
 1796SOL     OW17023   0.907   0.804   7.955  0.2825  0.1727  0.4246
 1796SOL    HW117024   0.814   0.809   7.976  0.1003  1.0894 -0.6272
 1796SOL    HW217025   0.934   0.719   7.989 -1.2188 -0.7717 -0.7866
 1797SOL     OW17026   4.284   4.606   8.428 -0.3400 -0.0370 -0.9055
 1797SOL    HW117027   4.218   4.666   8.395 -1.7619 -0.5506  1.0523
 1797SOL    HW217028   4.227   4.529   8.431 -2.1566  1.3958  1.1581
 1798SOL     OW17029   3.680   1.568   3.753  0.3804  0.2450 -0.0778
 1798SOL    HW117030   3.662   1.576   3.659 -0.7916 -1.9526 -0.0339
 1798SOL    HW217031   3.597   1.600   3.786  0.6329  0.4576  0.3515
 1799SOL     OW17032   2.581   1.489   9.234  0.0700 -0.5719  0.4182
 1799SOL    HW117033   2.578   1.580   9.205  3.2055 -1.3628 -2.3611
 1799SOL    HW217034   2.505   1.500   9.291  0.7037  2.2249  0.6942
 1800SOL     OW17035   4.070   2.174   4.116 -0.5584  0.4213  0.4053
 1800SOL    HW117036   3.998   2.169   4.053 -1.4969 -1.8132  1.6371
 1800SOL    HW217037   4.079   2.269   4.125 -0.6036  0.4377  0.2761
 1801SOL     OW17038   0.567   2.556   5.176 -0.6040 -0.9576 -0.2386
 1801SOL    HW117039   0.522   2.530   5.096 -0.2032 -0.0242 -0.7623
 1801SOL    HW217040   0.542   2.490   5.241  0.6481  1.2284  2.4844
 1802SOL     OW17041   0.802   3.249   3.403 -0.0712  0.2933  0.3089
 1802SOL    HW117042   0.753   3.234   3.322  0.3799 -0.2845  0.1455
 1802SOL    HW217043   0.886   3.207   3.390  1.1740  1.8428  3.4074
 1803SOL     OW17044   2.423   0.574   8.632  0.3742 -0.6754 -0.3275
 1803SOL    HW117045   2.429   0.645   8.568 -3.1312 -0.5240 -0.5103
 1803SOL    HW217046   2.498   0.521   8.606  1.3886  0.3142  0.6334
 1804SOL     OW17047   0.564   3.246   8.986  0.1532 -0.5078 -0.1514
 1804SOL    HW117048   0.647   3.285   9.011  0.4604 -0.3620 -1.3880
 1804SOL    HW217049   0.584   3.161   8.946  0.2431 -1.1473  1.2358
 1805SOL     OW17050   2.764   2.526   5.939  0.2036 -0.0608 -0.3988
 1805SOL    HW117051   2.685   2.471   5.939 -0.8701  1.4730  2.9734
 1805SOL    HW217052   2.735   2.600   5.993  1.0998 -0.3231  0.4519
 1806SOL     OW17053   1.103   2.257   2.713  0.2252  0.3520  0.0067
 1806SOL    HW117054   1.070   2.175   2.752  0.5101  0.8332  1.2629
 1806SOL    HW217055   1.198   2.251   2.720  0.1419 -1.3041 -0.1741
 1807SOL     OW17056   4.408   4.690  10.420 -0.1881 -0.2822 -0.0036
 1807SOL    HW117057   4.479   4.708  10.359 -0.2402 -1.5482 -0.4353
 1807SOL    HW217058   4.452   4.713  10.501 -0.2301  1.1986 -0.4035
 1808SOL     OW17059   3.095   3.450   9.929  0.4043 -1.1271  0.3343
 1808SOL    HW117060   3.107   3.498  10.011  2.9634  0.0127 -0.7064
 1808SOL    HW217061   3.182   3.419   9.905  0.3613 -0.8638 -0.1526
 1809SOL     OW17062   3.490   3.186   2.320  0.1484  0.5610  0.5255
 1809SOL    HW117063   3.547   3.261   2.336  0.3922  0.5292 -0.1767
 1809SOL    HW217064   3.402   3.222   2.327 -0.3385  0.1402 -3.2624
 1810SOL     OW17065   3.764   1.759   2.583 -0.0550  0.1329  0.2407
 1810SOL    HW117066   3.833   1.694   2.600 -0.8367 -1.0333 -1.0715
 1810SOL    HW217067   3.691   1.699   2.572  0.2177 -0.0308 -0.7166
 1811SOL     OW17068   2.720   1.153   3.781  0.6020  0.3990 -0.4918
 1811SOL    HW117069   2.793   1.093   3.768  2.2325  2.3348 -0.2780
 1811SOL    HW217070   2.741   1.176   3.872 -1.5849 -1.6217  0.5254
 1812SOL     OW17071   0.101   4.030  12.082  0.1701  1.2376 -0.2068
 1812SOL    HW117072   0.045   3.965  12.039 -2.6120  3.1722  0.5016
 1812SOL    HW217073   0.133   3.985  12.160 -0.4738 -2.3142 -1.9665
 1813SOL     OW17074   3.992   1.746   2.988 -0.1290  0.5629 -0.4460
 1813SOL    HW117075   4.075   1.789   2.966  2.7179 -3.4630  2.4395
 1813SOL    HW217076   3.989   1.684   2.915  1.3017 -2.1932  1.8377
 1814SOL     OW17077   0.308   2.319   5.660  0.1737 -0.2774 -0.5401
 1814SOL    HW117078   0.313   2.229   5.628 -3.7990 -1.3167  1.8745
 1814SOL    HW217079   0.282   2.356   5.576 -3.1214 -2.4101 -0.4275
 1815SOL     OW17080   4.287   2.848  12.335  0.2273  0.3031 -0.6787
 1815SOL    HW117081   4.197   2.820  12.350  0.5063 -0.8940 -1.2848
 1815SOL    HW217082   4.316   2.852  12.426 -0.6161  1.5665 -0.4637
 1816SOL     OW17083   3.826   3.496   1.714 -0.0131  0.7037  0.0528
 1816SOL    HW117084   3.816   3.418   1.660  0.5816  0.2471  0.5985
 1816SOL    HW217085   3.780   3.478   1.796 -1.7627  0.4413 -0.9820
 1817SOL     OW17086   0.455   0.476   1.087  0.0362 -0.1711 -0.1104
 1817SOL    HW117087   0.480   0.523   1.167 -0.4519 -0.2261  0.0737
 1817SOL    HW217088   0.459   0.384   1.114  1.5730 -0.6701 -1.9779
 1818SOL     OW17089   3.529   1.810  13.035  0.4814 -0.0372 -0.6147
 1818SOL    HW117090   3.450   1.831  12.985 -0.1776  2.6058  1.5239
 1818SOL    HW217091   3.490   1.748  13.096  2.0610 -0.2084  0.2293
 1819SOL     OW17092   3.687   2.159   7.396 -0.0087 -0.2732  0.0938
 1819SOL    HW117093   3.694   2.252   7.373 -0.0858 -0.0941  0.7919
 1819SOL    HW217094   3.779   2.139   7.416 -0.3949 -1.3784  0.7670
 1820SOL     OW17095   3.875   1.159   2.485  0.1243 -0.2852 -0.3300
 1820SOL    HW117096   3.780   1.174   2.488  0.1936 -0.2265  1.1261
 1820SOL    HW217097   3.893   1.163   2.391 -0.8603  0.4697 -0.4858
 1821SOL     OW17098   0.496   2.096   8.671  0.1291  0.0413 -0.4824
 1821SOL    HW117099   0.486   2.068   8.580  1.0925  2.3133 -1.3080
 1821SOL    HW217100   0.588   2.072   8.684 -0.2954 -0.7907  0.8854
 1822SOL     OW17101   0.131   2.115   9.768 -0.1707  0.0259 -0.1759
 1822SOL    HW117102   0.087   2.056   9.707  0.4631 -1.9443  1.2965
 1822SOL    HW217103   0.221   2.088   9.750  0.2969  0.5305  1.4272
 1823SOL     OW17104   2.786   4.267   1.081 -0.3678 -0.3589  0.0091
 1823SOL    HW117105   2.745   4.180   1.083 -1.2941  0.0528 -1.2513
 1823SOL    HW217106   2.823   4.270   0.993  3.6812 -0.8084  1.7132
 1824SOL     OW17107   1.479   4.245   7.518 -0.2763  0.3501 -0.6646
 1824SOL    HW117108   1.393   4.262   7.555 -0.7985 -2.3550 -0.6302
 1824SOL    HW217109   1.532   4.316   7.554  0.4188 -2.4720  3.7874
 1825SOL     OW17110   1.281   2.677   4.351  0.1355 -0.4427 -0.0031
 1825SOL    HW117111   1.206   2.677   4.290  0.6322 -0.1964 -0.6141
 1825SOL    HW217112   1.233   2.722   4.420  2.0919  0.5008  0.7170
 1826SOL     OW17113   4.068   3.069   9.108  0.6258 -0.2812 -0.4954
 1826SOL    HW117114   4.130   3.125   9.062 -0.1474  1.8233  0.9960
 1826SOL    HW217115   3.992   3.069   9.049 -1.2330 -1.1279  1.8774
 1827SOL     OW17116   0.532   0.470   0.808 -0.3114  0.3578  0.1663
 1827SOL    HW117117   0.500   0.508   0.890  1.0608 -0.0838  0.9147
 1827SOL    HW217118   0.481   0.389   0.807 -0.8016  0.6509  1.7867
 1828SOL     OW17119   1.621   4.382  13.765 -0.4354 -0.0550 -0.2045
 1828SOL    HW117120   1.534   4.341  13.765  0.1615 -1.3309  0.2740
 1828SOL    HW217121   1.592   4.446  13.700  0.1037  1.3703  0.9752
 1829SOL     OW17122   3.160   4.508  12.739 -0.3707 -0.7482 -0.3910
 1829SOL    HW117123   3.198   4.453  12.807  1.6225 -0.5230 -1.3056
 1829SOL    HW217124   3.217   4.490  12.664 -0.4627  0.9976 -0.8896
 1830SOL     OW17125   3.283   2.367   5.459 -0.0257  0.0608 -0.0817
 1830SOL    HW117126   3.253   2.396   5.373  1.2422  1.2402 -0.1203
 1830SOL    HW217127   3.195   2.338   5.483  0.7915 -1.6525  0.9126
 1831SOL     OW17128   0.193   1.022  14.890 -0.0709 -0.0506 -0.5154
 1831SOL    HW117129   0.231   0.953  14.943  1.9144  1.5732  0.1794
 1831SOL    HW217130   0.105   0.992  14.867 -0.2483  0.5491 -0.6416
 1832SOL     OW17131   3.243   3.027   2.007 -0.3240  0.2518  0.9484
 1832SOL    HW117132   3.304   2.971   1.959 -2.2303 -0.3377 -0.7644
 1832SOL    HW217133   3.230   2.975   2.086 -0.2708 -0.4937  0.4690
 1833SOL     OW17134   3.622   4.445  10.705  0.0836  0.0953  0.4079
 1833SOL    HW117135   3.623   4.357  10.742 -1.5420 -0.4554 -0.8785
 1833SOL    HW217136   3.528   4.464  10.712  0.6543  2.9034  0.7874
 1834SOL     OW17137   1.313   1.865   7.729 -0.1852 -0.2189 -0.2306
 1834SOL    HW117138   1.262   1.946   7.736 -3.7712 -2.5577  0.8764
 1834SOL    HW217139   1.334   1.840   7.819  0.0650  1.1732  0.0973
 1835SOL     OW17140   0.468   0.430   3.155  0.5460 -0.0286 -0.6714
 1835SOL    HW117141   0.412   0.427   3.078  1.1753  0.9493 -1.1735
 1835SOL    HW217142   0.542   0.459   3.101  0.8246 -0.9766 -0.7939
 1836SOL     OW17143   2.201   4.285   3.296  0.5270  0.0735  0.5323
 1836SOL    HW117144   2.212   4.380   3.296  0.7688  0.0408  1.1992
 1836SOL    HW217145   2.195   4.260   3.203  0.7881 -2.7328  1.2708
 1837SOL     OW17146   3.316   1.562   4.119  0.3789 -0.0262  0.0939
 1837SOL    HW117147   3.238   1.564   4.173 -0.1048  0.9145 -0.6352
 1837SOL    HW217148   3.353   1.475   4.136 -1.4710 -0.6584  0.8080
 1838SOL     OW17149   4.488   2.861   6.504 -0.1484 -0.4450 -0.2303
 1838SOL    HW117150   4.535   2.782   6.529  2.2190  1.0902  0.1308
 1838SOL    HW217151   4.434   2.869   6.583 -1.2624 -2.0451 -0.8456
 1839SOL     OW17152   1.737   3.528  11.910 -0.1472  0.1094 -0.5968
 1839SOL    HW117153   1.830   3.545  11.926  0.2406 -0.3140 -2.3626
 1839SOL    HW217154   1.696   3.603  11.952 -0.5827  1.2356 -3.0698
 1840SOL     OW17155   1.955   1.065  12.622 -0.3142  0.2892 -0.0123
 1840SOL    HW117156   1.929   1.014  12.546 -0.0472 -1.8691  1.3489
 1840SOL    HW217157   1.926   1.008  12.693 -0.3856 -0.5335 -0.7050
 1841SOL     OW17158   0.008   1.615   6.376 -0.0616 -0.4037 -0.4271
 1841SOL    HW117159   4.697   1.611   6.292 -0.4371 -0.0489 -0.2395
 1841SOL    HW217160   4.713   1.700   6.407  2.0651  0.2860 -0.2554
 1842SOL     OW17161   0.304   1.902  17.103 -0.2949  0.4821  0.2942
 1842SOL    HW117162   0.298   1.954  17.023 -0.2822 -0.8153 -0.5431
 1842SOL    HW217163   0.381   1.928  17.153  1.1684  1.3417 -2.4135
 1843SOL     OW17164   3.174   4.152  13.077 -0.0022 -0.1715  0.1411
 1843SOL    HW117165   3.252   4.103  13.053 -0.0673  0.2214 -0.8326
 1843SOL    HW217166   3.206   4.237  13.049  0.9433 -1.1782 -1.8289
 1844SOL     OW17167   2.575   1.174   5.322  0.7244 -0.7038  0.0213
 1844SOL    HW117168   2.575   1.088   5.281 -0.8180 -0.8003  0.2081
 1844SOL    HW217169   2.619   1.228   5.257  0.4242 -1.1491 -0.5448
 1845SOL     OW17170   4.720   3.126   4.434  0.1193  0.7547  0.6492
 1845SOL    HW117171   0.066   3.090   4.470  0.9340  2.5765  0.5852
 1845SOL    HW217172   4.692   3.195   4.494 -0.3898  1.3637 -0.2976
 1846SOL     OW17173   1.079   4.312   0.451 -0.2992 -0.7886 -0.6332
 1846SOL    HW117174   1.109   4.225   0.477  0.9219 -0.2011 -0.0798
 1846SOL    HW217175   0.986   4.299   0.468 -0.5348  1.9097  0.0846
 1847SOL     OW17176   3.849   0.031  17.636  0.3548  0.0394 -0.5306
 1847SOL    HW117177   3.895   4.683  17.646  2.0020  1.3432  2.8657
 1847SOL    HW217178   3.784   0.002  17.573 -1.1858  0.2025  0.9959
 1848SOL     OW17179   2.739   4.195   7.120 -0.1098  0.3582  0.0480
 1848SOL    HW117180   2.795   4.212   7.196  0.9116  0.9045 -0.8353
 1848SOL    HW217181   2.658   4.159   7.158  0.5070 -0.5891  0.4611
 1849SOL     OW17182   2.644   1.419   4.143  0.4114  0.2322  0.6549
 1849SOL    HW117183   2.708   1.352   4.123 -0.0727 -0.3632  1.1042
 1849SOL    HW217184   2.627   1.444   4.052 -0.5898 -2.4912  0.1186
 1850SOL     OW17185   3.874   3.169   6.791  0.3575  0.1340  1.1024
 1850SOL    HW117186   3.941   3.145   6.855 -0.0773  0.5566  1.7059
 1850SOL    HW217187   3.935   3.207   6.727 -1.1624  3.2342  1.4766
 1851SOL     OW17188   2.753   1.314   8.262 -0.2755  0.7808  0.1343
 1851SOL    HW117189   2.683   1.252   8.242  0.8335 -0.2732 -0.4571
 1851SOL    HW217190   2.756   1.377   8.190 -2.1692  0.0509 -0.5778
 1852SOL     OW17191   0.919   3.415   7.393  0.0630  0.3816 -0.2062
 1852SOL    HW117192   1.009   3.423   7.360  0.2122 -0.2627  0.0493
 1852SOL    HW217193   0.903   3.467   7.472 -0.4310  0.3533 -0.2877
 1853SOL     OW17194   1.064   3.386  13.574 -0.0071 -0.3095  0.6695
 1853SOL    HW117195   1.131   3.450  13.553 -0.3551  0.4735  1.9357
 1853SOL    HW217196   1.004   3.398  13.501  0.4607 -2.4849 -0.0653
 1854SOL     OW17197   0.846   3.948   3.750 -0.4941  0.2384 -0.1461
 1854SOL    HW117198   0.886   4.033   3.730  1.8581 -0.9256 -0.4485
 1854SOL    HW217199   0.919   3.893   3.780 -2.0355 -0.4180  2.4049
 1855SOL     OW17200   2.194   2.558   7.968 -0.2732 -0.1242 -0.4735
 1855SOL    HW117201   2.130   2.523   7.906  0.4196  1.2631 -1.9570
 1855SOL    HW217202   2.267   2.559   7.906 -1.0808  0.6418 -1.4090
 1856SOL     OW17203   4.374   4.047   5.820  0.1240  0.6996 -0.2502
 1856SOL    HW117204   4.308   4.016   5.882 -0.4014 -0.5338 -1.4250
 1856SOL    HW217205   4.333   4.134   5.817 -1.3164  0.0620  0.8819
 1857SOL     OW17206   2.196   2.733   1.427  0.2503 -0.0081 -0.0268
 1857SOL    HW117207   2.169   2.693   1.509  1.3272  0.6196  0.6349
 1857SOL    HW217208   2.254   2.804   1.456 -0.5323  0.3440  0.6613
 1858SOL     OW17209   4.733   1.025   0.869  0.0206  0.5137 -0.0046
 1858SOL    HW117210   4.672   1.005   0.798 -0.5230  2.3284 -0.0580
 1858SOL    HW217211   4.717   1.120   0.867 -0.2248  0.4560 -0.5900
 1859SOL     OW17212   3.270   0.995   9.371 -0.6060  0.0515  0.1092
 1859SOL    HW117213   3.231   1.051   9.439  0.5414 -0.9139  1.5523
 1859SOL    HW217214   3.338   1.051   9.335 -1.4571  0.4248 -0.9122
 1860SOL     OW17215   2.205   1.092  12.427 -0.0547  0.3452  0.3789
 1860SOL    HW117216   2.180   1.010  12.469  1.5848 -1.1774 -1.6267
 1860SOL    HW217217   2.215   1.145  12.506  2.1174 -0.8100  0.8903
 1861SOL     OW17218   2.038   0.187   5.014  0.2627 -0.1902 -0.1763
 1861SOL    HW117219   2.088   0.201   4.933 -0.5064  1.6128 -0.3340
 1861SOL    HW217220   1.983   0.265   5.013  0.6490  0.0828  0.5398
 1862SOL     OW17221   1.748   1.352   5.981  0.3583  0.6308 -0.0224
 1862SOL    HW117222   1.728   1.366   5.889  0.7074 -1.1192 -0.3593
 1862SOL    HW217223   1.811   1.423   5.997  2.3282 -0.7438 -1.6884
 1863SOL     OW17224   3.072   4.210   3.340 -0.0634 -0.4659 -0.2685
 1863SOL    HW117225   3.095   4.123   3.308  2.3886  0.1248 -0.1172
 1863SOL    HW217226   2.978   4.200   3.356 -0.3757  3.1243  0.3071
 1864SOL     OW17227   2.960   1.082  11.266 -0.4012 -0.5350  0.5614
 1864SOL    HW117228   2.976   1.047  11.354 -4.2985 -2.0381  0.6415
 1864SOL    HW217229   3.014   1.161  11.270  0.7527 -1.2808 -0.2546
 1865SOL     OW17230   2.980   2.125  16.865  0.3546 -0.3136  0.0546
 1865SOL    HW117231   3.030   2.202  16.837 -1.5382  1.5152  1.6995
 1865SOL    HW217232   2.894   2.154  16.835  1.7962  0.7798 -3.0736
 1866SOL     OW17233   0.611   2.847   3.823  0.4622 -0.6011 -0.0972
 1866SOL    HW117234   0.602   2.929   3.872  2.2881  0.6829 -1.9014
 1866SOL    HW217235   0.704   2.849   3.802  0.2769 -2.3476 -0.9931
 1867SOL     OW17236   4.204   2.009  17.307  0.5101 -0.0830 -0.1197
 1867SOL    HW117237   4.295   2.001  17.279  0.3733  2.0876 -1.1965
 1867SOL    HW217238   4.169   1.986  17.220  1.9416 -2.1369 -0.1551
 1868SOL     OW17239   1.665   4.150   1.885  0.1261  0.1853  0.4763
 1868SOL    HW117240   1.594   4.210   1.861  0.2729 -0.1029 -0.6684
 1868SOL    HW217241   1.617   4.077   1.923  0.4223  0.7134  1.8719
 1869SOL     OW17242   1.754   0.913   2.591  0.1693  0.0708 -0.2825
 1869SOL    HW117243   1.673   0.962   2.575 -1.1998 -2.2146 -0.5024
 1869SOL    HW217244   1.805   0.962   2.527  0.3020 -0.0097 -0.2370
 1870SOL     OW17245   0.513   0.824  14.069  0.8020  0.9765 -0.4059
 1870SOL    HW117246   0.492   0.874  14.149 -0.3217  1.1670 -0.8268
 1870SOL    HW217247   0.429   0.779  14.058  1.2206  0.0456  0.1561
 1871SOL     OW17248   2.376   1.688   7.246 -0.6333 -0.5524  0.1398
 1871SOL    HW117249   2.415   1.766   7.206 -0.9687 -0.5676 -0.2214
 1871SOL    HW217250   2.284   1.701   7.223 -0.3880  1.2204  0.1517
 1872SOL     OW17251   2.858   0.890  16.201 -0.0862  0.2823 -0.4870
 1872SOL    HW117252   2.828   0.949  16.270 -1.0870 -0.1578 -0.5452
 1872SOL    HW217253   2.777   0.868  16.155 -1.0015 -0.1369  1.3315
 1873SOL     OW17254   2.848   2.867   3.529  0.4941  0.3349  0.3738
 1873SOL    HW117255   2.918   2.878   3.465 -0.2754 -1.1048 -0.7289
 1873SOL    HW217256   2.845   2.954   3.567 -0.5149  0.9270 -1.0519
 1874SOL     OW17257   2.003   3.793  15.584  0.1079 -0.2893  0.0008
 1874SOL    HW117258   2.030   3.877  15.620  2.0403  0.1990 -2.5586
 1874SOL    HW217259   2.069   3.794  15.514 -1.1724 -1.7559 -1.2347
 1875SOL     OW17260   3.599   2.140  15.698  0.3808  0.3918 -0.7375
 1875SOL    HW117261   3.525   2.161  15.755  1.0284  0.4233  0.0883
 1875SOL    HW217262   3.576   2.047  15.690 -1.6214  0.9802 -1.9199
 1876SOL     OW17263   0.238   3.133   2.210  0.3093 -0.5071 -0.2689
 1876SOL    HW117264   0.257   3.040   2.194  1.3738 -0.2093 -0.6933
 1876SOL    HW217265   0.309   3.166   2.263 -2.4071  2.5682  1.4345
 1877SOL     OW17266   2.656   1.627   6.654 -0.3249 -0.1105 -0.2126
 1877SOL    HW117267   2.567   1.661   6.656 -0.3241 -0.3335  3.4488
 1877SOL    HW217268   2.699   1.712   6.663  0.2247 -0.1580 -2.2797
 1878SOL     OW17269   0.384   3.436   6.487  0.4173 -0.4309 -0.1399
 1878SOL    HW117270   0.423   3.513   6.528  0.7620 -0.0827 -1.1071
 1878SOL    HW217271   0.431   3.436   6.403  1.3293 -1.9717  0.3733
 1879SOL     OW17272   2.174   3.437   4.157 -0.0432 -0.2859  0.0761
 1879SOL    HW117273   2.247   3.393   4.201  0.5365  0.9737  0.4028
 1879SOL    HW217274   2.173   3.524   4.198 -1.3467  0.0086 -0.5774
 1880SOL     OW17275   4.352   3.163  13.362 -0.1791 -1.0653 -0.3868
 1880SOL    HW117276   4.332   3.256  13.372  0.6223 -0.6720 -2.6273
 1880SOL    HW217277   4.437   3.154  13.404 -0.6386 -1.9011  0.3709
 1881SOL     OW17278   4.241   1.320   7.741  0.5685  0.3485 -0.3593
 1881SOL    HW117279   4.254   1.406   7.781  1.2957  0.5034 -0.9448
 1881SOL    HW217280   4.332   1.292   7.734  0.3980 -0.7458  1.8038
 1882SOL     OW17281   0.277   1.685   1.938  0.7239  0.5873  0.2877
 1882SOL    HW117282   0.277   1.666   1.845 -1.8745  2.7819 -0.1810
 1882SOL    HW217283   0.281   1.599   1.980  2.1825  0.9629  0.9286
 1883SOL     OW17284   0.522   2.464   1.879 -0.5679 -0.3623  0.2693
 1883SOL    HW117285   0.589   2.521   1.841 -2.8458 -0.2504 -3.5742
 1883SOL    HW217286   0.512   2.398   1.811 -2.1033 -0.2409  0.3801
 1884SOL     OW17287   1.990   3.054   6.298  0.1261  0.1339 -0.1784
 1884SOL    HW117288   2.074   3.021   6.330  0.1224 -0.0091 -0.3156
 1884SOL    HW217289   1.924   3.013   6.354 -0.1493  2.6206  1.2954
 1885SOL     OW17290   0.493   2.262   1.697  0.4716 -0.1421 -0.0351
 1885SOL    HW117291   0.541   2.181   1.716 -0.1608 -0.5480 -0.1769
 1885SOL    HW217292   0.412   2.226   1.662 -0.0319 -0.2258  1.1897
 1886SOL     OW17293   2.158   4.201  10.319 -0.2619 -0.2730 -0.1788
 1886SOL    HW117294   2.223   4.220  10.387  0.5902  1.2044 -1.4027
 1886SOL    HW217295   2.123   4.119  10.353 -0.8350  0.0662  0.0643
 1887SOL     OW17296   4.562   1.631  16.182  0.1787  0.6349 -0.1632
 1887SOL    HW117297   4.536   1.684  16.257  0.4784  1.6183 -0.7490
 1887SOL    HW217298   4.644   1.668  16.150 -0.3429  3.8765  2.3836
 1888SOL     OW17299   2.629   0.482  11.082 -0.2234 -0.8012  0.0661
 1888SOL    HW117300   2.567   0.542  11.043 -0.8181 -1.2042  0.3910
 1888SOL    HW217301   2.656   0.434  11.004 -0.1744 -1.2082  0.3330
 1889SOL     OW17302   1.687   4.360   3.412 -0.6984  0.6010  1.2311
 1889SOL    HW117303   1.743   4.431   3.443  0.5813 -0.7188  1.9309
 1889SOL    HW217304   1.755   4.326   3.353 -1.4699  0.1309  0.6149
 1890SOL     OW17305   0.663   3.255   9.283  0.7023  0.3235  0.1627
 1890SOL    HW117306   0.689   3.164   9.296 -1.7809 -0.5414 -1.0031
 1890SOL    HW217307   0.604   3.266   9.358  0.0238  0.0691 -0.3423
 1891SOL     OW17308   3.730   3.862   9.904  0.0246 -0.3940 -0.5503
 1891SOL    HW117309   3.722   3.849   9.998  0.6669 -1.3965 -0.6269
 1891SOL    HW217310   3.794   3.797   9.873 -0.9327 -1.1609 -0.9281
 1892SOL     OW17311   2.329   3.705   5.248 -0.0700 -0.2713  0.4973
 1892SOL    HW117312   2.237   3.703   5.273 -0.0981 -0.7352  0.3492
 1892SOL    HW217313   2.343   3.611   5.253  0.8860 -0.2942 -2.2294
 1893SOL     OW17314   2.355   0.199   2.100 -0.4344 -0.5320  0.4355
 1893SOL    HW117315   2.401   0.254   2.037  0.3654 -0.0737  1.4221
 1893SOL    HW217316   2.426   0.186   2.163  0.0886  1.7786  0.3068
 1894SOL     OW17317   4.380   3.457   9.170 -0.3306  0.2337 -0.3202
 1894SOL    HW117318   4.397   3.410   9.252 -1.0676 -0.2118 -0.4299
 1894SOL    HW217319   4.435   3.534   9.187  0.7165 -1.2317  3.0752
 1895SOL     OW17320   1.948   0.042   2.960  0.1321  0.1731  0.2769
 1895SOL    HW117321   1.863   0.079   2.984  1.1187  1.7905  1.3362
 1895SOL    HW217322   1.970   0.110   2.897  0.5755  0.6179  0.9024
 1896SOL     OW17323   3.673   0.062  14.696  0.0291  0.3015  0.0569
 1896SOL    HW117324   3.732   0.125  14.655 -1.3130  0.9135 -0.9381
 1896SOL    HW217325   3.602   0.062  14.632 -2.0242  0.3306  2.3550
 1897SOL     OW17326   4.444   0.278   7.734 -0.6664 -0.3556  0.0881
 1897SOL    HW117327   4.392   0.347   7.776  2.9891  2.3261  0.2097
 1897SOL    HW217328   4.402   0.204   7.778  0.9778 -1.5483 -0.3363
 1898SOL     OW17329   1.556   1.426   3.249 -0.1875 -0.6403 -0.0143
 1898SOL    HW117330   1.547   1.482   3.325 -0.8427  1.8271 -1.9109
 1898SOL    HW217331   1.476   1.375   3.262 -0.7303 -0.0437 -1.0417
 1899SOL     OW17332   0.452   2.350   2.900 -0.3422 -0.1590 -0.3406
 1899SOL    HW117333   0.425   2.363   2.810  0.9685 -0.7243 -0.8120
 1899SOL    HW217334   0.465   2.440   2.929  1.0820 -0.5037  0.1318
 1900SOL     OW17335   2.440   4.665   4.167 -0.4423 -0.8780  0.0381
 1900SOL    HW117336   2.515   4.668   4.108  0.6354 -0.6756  1.4423
 1900SOL    HW217337   2.386   4.732   4.123  0.7110  0.1423  0.1846
 1901SOL     OW17338   1.815   0.120   6.773 -0.1214 -0.5285 -0.6926
 1901SOL    HW117339   1.741   0.128   6.714 -1.5935  1.4785  1.4358
 1901SOL    HW217340   1.890   0.148   6.720 -0.7171  0.5440 -0.9552
 1902SOL     OW17341   2.621   1.547   1.590  0.1070  0.0472 -0.3146
 1902SOL    HW117342   2.539   1.582   1.625  0.2447  1.2585 -1.2137
 1902SOL    HW217343   2.607   1.454   1.608 -0.1972  0.3634  1.0484
 1903SOL     OW17344   2.639   4.102   5.748  0.8261  0.0098  0.5075
 1903SOL    HW117345   2.665   4.025   5.800  0.1931 -0.0182  0.7842
 1903SOL    HW217346   2.606   4.061   5.668 -2.1022  1.1485  1.1266
 1904SOL     OW17347   1.797   1.394   9.034 -0.0520 -0.1694 -0.8235
 1904SOL    HW117348   1.827   1.320   8.981  0.9179 -1.5660  1.7222
 1904SOL    HW217349   1.777   1.352   9.117 -1.1113 -0.6496 -1.3255
 1905SOL     OW17350   0.248   2.290   8.728  0.3683 -0.2609 -0.0468
 1905SOL    HW117351   0.325   2.273   8.673 -1.7331  0.4808 -3.2167
 1905SOL    HW217352   0.206   2.364   8.685  0.3715 -0.6579 -0.7464
 1906SOL     OW17353   4.701   1.067   6.330 -0.1362  0.6933 -0.4820
 1906SOL    HW117354   4.608   1.045   6.330 -0.2472  1.1276  1.1924
 1906SOL    HW217355   4.722   1.078   6.423 -0.9935 -0.4949 -0.1392
 1907SOL     OW17356   3.204   2.565   1.530  0.2531 -0.1132  0.2822
 1907SOL    HW117357   3.189   2.495   1.466 -0.5698  0.2563  0.0771
 1907SOL    HW217358   3.148   2.639   1.507  0.1834  0.0879  1.1249
 1908SOL     OW17359   4.298   2.641   1.981  0.0759  0.4509 -0.1675
 1908SOL    HW117360   4.237   2.712   1.963 -0.0770  0.0365 -1.2660
 1908SOL    HW217361   4.276   2.581   1.910  0.0644 -1.5799  1.5480
 1909SOL     OW17362   4.397   3.048  12.214  0.2553 -0.0643  0.7319
 1909SOL    HW117363   4.380   2.960  12.249  0.6400  0.2270  1.6439
 1909SOL    HW217364   4.484   3.067  12.249  0.7099 -1.8215  0.5863
 1910SOL     OW17365   0.190   4.712   8.554  0.1663  0.0753  0.2105
 1910SOL    HW117366   0.128   4.642   8.534  0.6587 -0.1721 -0.4689
 1910SOL    HW217367   0.217   4.682   8.640 -2.2514 -0.1380  0.8986
 1911SOL     OW17368   4.724   1.155  14.578  0.2162 -0.2603  0.2970
 1911SOL    HW117369   0.036   1.223  14.626  1.6016 -2.2037  1.6894
 1911SOL    HW217370   4.636   1.161  14.613 -0.6887 -0.9449 -1.8486
 1912SOL     OW17371   4.428   1.697   1.748 -0.3457  0.4082  0.0642
 1912SOL    HW117372   4.438   1.740   1.833  0.2201 -0.3067  0.3601
 1912SOL    HW217373   4.333   1.685   1.737  0.0012 -1.1322 -1.2779
 1913SOL     OW17374   1.329   2.571  10.317 -0.3870 -0.5173  0.1869
 1913SOL    HW117375   1.301   2.518  10.392  0.3852 -0.6263  0.4032
 1913SOL    HW217376   1.316   2.655  10.360  0.7089 -0.0886 -0.3192
 1914SOL     OW17377   0.860   0.317   6.108 -0.4851  0.1949 -0.5766
 1914SOL    HW117378   0.765   0.307   6.115 -0.6729  1.8507 -0.5528
 1914SOL    HW217379   0.870   0.413   6.102  2.7987 -0.0965 -0.1268
 1915SOL     OW17380   2.596   0.119   2.281 -0.3152 -0.0386  0.0371
 1915SOL    HW117381   2.576   0.026   2.285  0.4672 -0.3159 -2.4962
 1915SOL    HW217382   2.691   0.118   2.290 -0.3264  1.0575  0.3105
 1916SOL     OW17383   2.526   2.741   1.714 -0.2593  0.3526  0.4881
 1916SOL    HW117384   2.484   2.655   1.710 -1.7202  1.1729 -1.7036
 1916SOL    HW217385   2.559   2.747   1.803 -0.3765 -0.0732  0.5626
 1917SOL     OW17386   2.744   3.944  13.280 -0.1661 -0.5209 -0.0200
 1917SOL    HW117387   2.771   4.033  13.299 -2.3429  0.2549 -0.5627
 1917SOL    HW217388   2.719   3.954  13.188  1.4912  1.6439 -0.2102
 1918SOL     OW17389   3.219   0.429   3.060  0.0067  0.2449 -0.0869
 1918SOL    HW117390   3.125   0.425   3.043  0.1684  2.6600 -1.6140
 1918SOL    HW217391   3.255   0.497   3.003 -1.0426  0.2602 -0.7369
 1919SOL     OW17392   0.351   0.322   3.710  0.2966 -0.1779 -0.3655
 1919SOL    HW117393   0.384   0.282   3.791 -1.3598 -0.6672  0.0601
 1919SOL    HW217394   0.269   0.273   3.708  0.1168  0.1315 -0.6629
 1920SOL     OW17395   3.694   3.838   3.453 -0.1734  0.2906 -0.0345
 1920SOL    HW117396   3.724   3.928   3.467 -1.3200  0.8869 -1.4691
 1920SOL    HW217397   3.676   3.847   3.360 -1.0789 -1.0818  0.0051
 1921SOL     OW17398   1.868   0.315   1.780 -0.1524  0.0996  0.2175
 1921SOL    HW117399   1.921   0.250   1.827 -0.7375  0.4865  1.4199
 1921SOL    HW217400   1.925   0.313   1.703 -0.2626 -2.8889  0.1778
 1922SOL     OW17401   1.479   2.970   3.690  0.6225 -0.2415  0.1645
 1922SOL    HW117402   1.420   3.045   3.692 -0.0236 -0.7340 -0.2538
 1922SOL    HW217403   1.545   2.995   3.754  1.9938 -0.8070 -1.0185
 1923SOL     OW17404   2.438   0.616   9.342  0.8548 -0.0750  0.0473
 1923SOL    HW117405   2.379   0.692   9.349  0.1728 -0.6132  0.1495
 1923SOL    HW217406   2.395   0.552   9.398  1.1450 -1.8116 -1.7359
 1924SOL     OW17407   0.854   0.643   3.967  0.3208 -0.0150 -0.2180
 1924SOL    HW117408   0.897   0.721   4.002 -1.6771  0.3008  1.5031
 1924SOL    HW217409   0.925   0.582   3.948 -0.4455 -0.8066 -0.5436
 1925SOL     OW17410   1.068   2.035   3.935  0.1099  0.1346  0.4690
 1925SOL    HW117411   1.105   1.968   3.879  1.2202  0.8756  0.3128
 1925SOL    HW217412   0.984   2.004   3.969  0.2170  0.2304  0.8258
 1926SOL     OW17413   2.934   2.405  14.841 -0.1066  0.1689  0.0002
 1926SOL    HW117414   2.976   2.487  14.865  0.4445  0.1919 -1.0293
 1926SOL    HW217415   2.847   2.423  14.877 -0.2057  0.4445 -0.3714
 1927SOL     OW17416   2.897   2.968  17.669  0.1261 -0.0985  0.2737
 1927SOL    HW117417   2.960   2.992  17.601  0.4680 -2.7570 -0.3587
 1927SOL    HW217418   2.951   2.999   0.003  0.3552 -0.3607  0.2185
 1928SOL     OW17419   2.449   2.810   3.259  0.0523 -0.1365  0.2169
 1928SOL    HW117420   2.509   2.790   3.331 -0.9097  0.7110  1.2652
 1928SOL    HW217421   2.444   2.905   3.272 -0.7557  0.1768 -2.4885
 1929SOL     OW17422   0.661   0.416  16.360  0.6224  0.2016  0.2575
 1929SOL    HW117423   0.731   0.390  16.419  1.0319  1.7100  0.4378
 1929SOL    HW217424   0.662   0.511  16.374 -1.2221  0.3394 -0.4505
 1930SOL     OW17425   0.275   4.242  12.000  0.2710 -1.0243 -0.3644
 1930SOL    HW117426   0.218   4.267  11.928  0.4291  0.8806  0.1691
 1930SOL    HW217427   0.238   4.159  12.032 -1.8756 -0.0368 -0.2860
 1931SOL     OW17428   1.741   4.406   4.784 -0.4201  0.0000  0.3117
 1931SOL    HW117429   1.651   4.389   4.754 -0.2011 -0.2198 -0.2268
 1931SOL    HW217430   1.739   4.349   4.861 -1.0170 -0.2120  0.1422
 1932SOL     OW17431   3.041   2.748   6.598 -0.4304 -0.0673 -0.0240
 1932SOL    HW117432   3.025   2.727   6.690 -1.3060 -1.1921 -0.4432
 1932SOL    HW217433   2.968   2.708   6.551  0.1996  0.7732 -1.7064
 1933SOL     OW17434   2.058   4.203   1.107 -0.4988 -0.1909 -0.2489
 1933SOL    HW117435   2.041   4.151   1.185  1.4602 -3.1865 -1.8117
 1933SOL    HW217436   1.985   4.190   1.047  0.5489 -1.0992 -1.3452
 1934SOL     OW17437   1.035   2.014  14.930 -0.6708 -0.2774  0.2692
 1934SOL    HW117438   1.016   2.028  15.023  1.3201 -0.8776  0.7785
 1934SOL    HW217439   1.091   2.091  14.918  2.1277 -2.0843  1.7219
 1935SOL     OW17440   1.035   3.014   2.623 -0.0965 -0.2008 -0.1092
 1935SOL    HW117441   1.088   2.992   2.700  0.7280 -2.3680 -1.3086
 1935SOL    HW217442   0.972   2.943   2.631 -0.9109  0.6811  1.3360
 1936SOL     OW17443   4.213   3.724   1.813 -0.4962 -0.3202  0.3498
 1936SOL    HW117444   4.223   3.629   1.823 -2.0938 -0.3890  1.3639
 1936SOL    HW217445   4.121   3.721   1.842 -0.4410 -0.6271  0.4950
 1937SOL     OW17446   3.544   0.533   3.185  0.3826 -0.0034 -0.0605
 1937SOL    HW117447   3.500   0.448   3.179  1.6752 -0.9502  3.8027
 1937SOL    HW217448   3.624   0.494   3.149  1.3910  0.1339  2.0288
 1938SOL     OW17449   4.088   4.711   7.037  0.1828  0.1905  0.0346
 1938SOL    HW117450   4.043   4.726   7.121 -0.1455 -1.7174  0.2233
 1938SOL    HW217451   4.036   0.026   6.974  1.0202 -0.2028 -0.9537
 1939SOL     OW17452   2.523   1.619  11.803  0.0823  0.1697  0.8249
 1939SOL    HW117453   2.538   1.529  11.832  1.3340 -0.0512 -0.5628
 1939SOL    HW217454   2.601   1.671  11.823  0.3464 -0.7607  2.2268
 1940SOL     OW17455   3.079   3.178  13.091 -0.2682 -0.3261  0.1020
 1940SOL    HW117456   3.129   3.144  13.017  0.5892 -0.1614  0.6055
 1940SOL    HW217457   3.054   3.267  13.065 -0.0979  0.0704  1.3278
 1941SOL     OW17458   4.209   2.755  15.145 -0.1163 -0.0821 -0.0572
 1941SOL    HW117459   4.262   2.777  15.222  0.8131 -1.5626 -0.2776
 1941SOL    HW217460   4.163   2.839  15.138  0.7921  0.5942  2.0961
 1942SOL     OW17461   1.898   0.387   0.678  0.6051 -0.5430 -0.2644
 1942SOL    HW117462   1.887   0.294   0.698  0.2626 -0.6009 -0.7520
 1942SOL    HW217463   1.805   0.408   0.675  0.3472 -1.7035 -0.4809
 1943SOL     OW17464   3.732   2.196   5.497 -0.4091 -0.1364  0.1041
 1943SOL    HW117465   3.823   2.180   5.471 -0.0939 -0.7357  1.5233
 1943SOL    HW217466   3.744   2.263   5.564  0.2368 -1.1407  1.0076
 1944SOL     OW17467   3.848   1.912   6.584 -0.0742 -0.2860  0.3470
 1944SOL    HW117468   3.795   1.847   6.538  0.6692  0.5265 -1.6245
 1944SOL    HW217469   3.854   1.973   6.511 -0.7822 -0.3023  0.2724
 1945SOL     OW17470   4.579   3.788   7.686 -0.5310 -0.1632 -0.4777
 1945SOL    HW117471   4.520   3.824   7.752  0.1207  0.5464 -0.2818
 1945SOL    HW217472   4.525   3.717   7.651  0.3153 -1.4612  0.8766
 1946SOL     OW17473   1.579   2.045   2.588 -0.4018  0.4116  0.0809
 1946SOL    HW117474   1.523   2.093   2.649 -1.4797  1.3160 -1.6256
 1946SOL    HW217475   1.581   1.959   2.630 -0.5481  0.2777 -0.1872
 1947SOL     OW17476   1.352   0.990   3.839  0.8649 -0.1083  0.2084
 1947SOL    HW117477   1.340   0.971   3.932 -1.6152 -1.5633 -0.4080
 1947SOL    HW217478   1.293   0.924   3.802  3.5749 -1.3044 -1.9485
 1948SOL     OW17479   1.534   3.097  15.503 -0.2125  0.4526  0.2963
 1948SOL    HW117480   1.440   3.111  15.496 -0.4086 -0.9930  0.0881
 1948SOL    HW217481   1.553   3.131  15.590  1.2698  0.5726 -0.0729
 1949SOL     OW17482   1.306   3.600   1.062  0.2234  0.4543 -0.0841
 1949SOL    HW117483   1.301   3.567   0.973 -0.3593 -1.0393  0.5079
 1949SOL    HW217484   1.401   3.605   1.069  0.0456  0.5456  2.4407
 1950SOL     OW17485   0.677   3.052  16.345 -0.4601 -0.4102 -0.0179
 1950SOL    HW117486   0.757   3.038  16.294  0.3286  3.6571  0.0490
 1950SOL    HW217487   0.702   3.139  16.377 -0.7662 -0.3503  0.0634
 1951SOL     OW17488   3.220   3.139   3.269  0.4300 -0.7968 -0.6159
 1951SOL    HW117489   3.280   3.204   3.305  0.0466 -0.9745  0.3504
 1951SOL    HW217490   3.188   3.182   3.190 -1.9873  2.1701  1.9731
 1952SOL     OW17491   3.129   1.695  15.066 -0.4010 -0.0773  0.1219
 1952SOL    HW117492   3.172   1.612  15.045 -0.0363 -0.3473  1.9663
 1952SOL    HW217493   3.050   1.686  15.012  0.2800  0.3814 -0.9586
 1953SOL     OW17494   2.820   4.293   3.943 -0.5126 -0.0594 -0.0665
 1953SOL    HW117495   2.820   4.209   3.990 -0.8309 -0.0715 -0.0929
 1953SOL    HW217496   2.790   4.268   3.855  1.9591 -1.2054 -0.6171
 1954SOL     OW17497   4.167   3.902   3.664  0.3438 -0.7091  0.0732
 1954SOL    HW117498   4.244   3.951   3.635 -1.6364  2.2536 -0.0967
 1954SOL    HW217499   4.158   3.846   3.586 -1.4677 -0.3574  0.0456
 1955SOL     OW17500   1.211   0.268   3.881  0.2457 -0.2409  0.5050
 1955SOL    HW117501   1.121   0.242   3.864  0.7254 -1.2809 -0.4399
 1955SOL    HW217502   1.221   0.204   3.951 -3.8105 -2.2907 -0.8112
 1956SOL     OW17503   1.627   0.599   7.552 -0.1660 -0.2280 -0.1930
 1956SOL    HW117504   1.708   0.582   7.600 -0.8608 -1.4103  0.5571
 1956SOL    HW217505   1.592   0.676   7.598  1.2354 -0.8292  1.8781
 1957SOL     OW17506   0.555   2.771  10.699 -0.0540  0.5946  0.4026
 1957SOL    HW117507   0.627   2.826  10.730  1.1543 -0.4921 -0.5408
 1957SOL    HW217508   0.484   2.828  10.730 -1.2327 -0.5101 -0.2587
 1958SOL     OW17509   1.576   2.438   9.882 -0.1319 -0.1523  0.2410
 1958SOL    HW117510   1.571   2.342   9.889  2.5681 -0.1712  1.9467
 1958SOL    HW217511   1.669   2.455   9.865  0.1726  0.3277  2.4162
 1959SOL     OW17512   4.158   1.296  16.474 -0.2570  0.1485  0.2650
 1959SOL    HW117513   4.218   1.227  16.446 -1.8282 -0.4393 -1.5940
 1959SOL    HW217514   4.160   1.356  16.400  0.1703  0.7181  0.7356
 1960SOL     OW17515   0.496   4.615   0.859 -0.1390  0.2744  0.2095
 1960SOL    HW117516   0.418   4.566   0.832 -0.4524 -0.4722  2.4386
 1960SOL    HW217517   0.525   4.646   0.773  0.4095 -1.4679 -0.2318
 1961SOL     OW17518   0.099   0.099   0.454 -0.3150  0.4058 -0.0499
 1961SOL    HW117519   0.085   0.056   0.369 -1.6911 -0.3537  0.5587
 1961SOL    HW217520   0.045   0.048   0.514  0.9505  0.2259  0.9334
 1962SOL     OW17521   3.904   1.682   5.877 -0.2412 -0.1178  0.3414
 1962SOL    HW117522   3.995   1.688   5.906  0.2464  1.0805 -1.4553
 1962SOL    HW217523   3.854   1.696   5.957 -0.3958  1.8956 -0.1006
 1963SOL     OW17524   0.269   4.401   1.105 -0.2921 -0.0266  0.1726
 1963SOL    HW117525   0.327   4.465   1.147  0.1117 -0.1085 -0.2598
 1963SOL    HW217526   0.235   4.350   1.179  0.3889  1.1042  1.2757
 1964SOL     OW17527   4.421   2.297  16.080  0.3583 -0.5986  0.1232
 1964SOL    HW117528   4.331   2.284  16.110 -0.3197  0.0252 -1.6584
 1964SOL    HW217529   4.417   2.242  16.002 -1.4705 -0.1345 -0.0990
 1965SOL     OW17530   1.833   2.276   1.769 -0.4786  0.2991 -0.6022
 1965SOL    HW117531   1.845   2.184   1.744  1.3213  0.7173 -1.2369
 1965SOL    HW217532   1.801   2.259   1.858  0.2410  0.0887 -0.3819
 1966SOL     OW17533   2.894   0.653   7.615 -0.2644  0.1833 -0.0259
 1966SOL    HW117534   2.808   0.695   7.611 -0.9065 -0.9243  1.8159
 1966SOL    HW217535   2.892   0.604   7.697  0.2152  0.9898  0.4784
 1967SOL     OW17536   1.346   0.701  11.194 -0.2493  0.4993 -0.2795
 1967SOL    HW117537   1.401   0.747  11.257 -2.0739 -0.5760  2.1046
 1967SOL    HW217538   1.313   0.776  11.145  1.5222  1.2274 -0.3869
 1968SOL     OW17539   1.682   1.814  13.778 -0.0229 -0.0861  0.3969
 1968SOL    HW117540   1.766   1.789  13.741  0.2278  0.8823  0.2999
 1968SOL    HW217541   1.674   1.909  13.764 -3.1510 -0.6584 -1.8220
 1969SOL     OW17542   3.758   0.666   9.004 -0.1205 -0.2447  0.2342
 1969SOL    HW117543   3.697   0.604   9.043 -1.1782  1.0030  0.5322
 1969SOL    HW217544   3.692   0.724   8.967 -1.0208 -1.1228  0.4540
 1970SOL     OW17545   0.576   0.157   9.379  0.0683  0.0110  0.1276
 1970SOL    HW117546   0.656   0.168   9.328  0.1124  1.3091  0.4615
 1970SOL    HW217547   0.589   0.085   9.440 -0.0926 -2.6395 -2.9953
 1971SOL     OW17548   4.625   3.648   5.614 -0.1755  1.0151  0.4032
 1971SOL    HW117549   4.565   3.723   5.614  0.6827  1.7184 -0.4358
 1971SOL    HW217550   4.588   3.599   5.540 -2.2945  0.5033  1.8141
 1972SOL     OW17551   3.163   1.083   8.093 -0.3410 -0.5760 -0.7976
 1972SOL    HW117552   3.090   1.094   8.154  0.6191  1.1597  0.0434
 1972SOL    HW217553   3.239   1.107   8.146 -1.5151  1.3113  0.0364
 1973SOL     OW17554   3.872   3.666   8.092  0.0096 -0.5779 -0.2287
 1973SOL    HW117555   3.918   3.732   8.041  1.2278 -1.6500 -0.5190
 1973SOL    HW217556   3.805   3.632   8.032 -1.3983 -0.1791  1.0981
 1974SOL     OW17557   2.228   3.680  12.352 -0.1326  0.5092  0.4884
 1974SOL    HW117558   2.279   3.633  12.418  1.7721  1.5718 -0.2104
 1974SOL    HW217559   2.186   3.609  12.303  0.0315  2.2249 -2.1474
 1975SOL     OW17560   2.667   3.579  14.670  0.1321 -0.1051 -0.0550
 1975SOL    HW117561   2.605   3.651  14.661  1.2346  0.7690 -0.7833
 1975SOL    HW217562   2.690   3.581  14.762 -1.8369  1.0990  0.4111
 1976SOL     OW17563   1.555   4.625   8.664 -0.3062 -0.4148 -0.3708
 1976SOL    HW117564   1.496   4.550   8.653 -1.3960  0.0798  2.0706
 1976SOL    HW217565   1.493   4.697   8.672  0.0890 -0.0497 -0.5965
 1977SOL     OW17566   3.152   2.309  14.701 -0.1204  0.1391  0.6449
 1977SOL    HW117567   3.227   2.334  14.755  1.7926  0.2948 -2.0786
 1977SOL    HW217568   3.081   2.364  14.733  0.4941  0.5275  1.3384
 1978SOL     OW17569   0.673   4.224  13.366  0.3653  0.2030  0.1724
 1978SOL    HW117570   0.636   4.297  13.414  1.4791  0.0803  1.2241
 1978SOL    HW217571   0.622   4.208  13.287  2.0879 -2.7105 -0.3914
 1979SOL     OW17572   2.709   3.173  12.289  0.4309  0.2242  0.0566
 1979SOL    HW117573   2.689   3.140  12.202 -1.0070  1.4730 -0.0917
 1979SOL    HW217574   2.639   3.134  12.341  1.5558 -1.9111 -0.0269
 1980SOL     OW17575   1.607   3.724   7.362 -0.3800  0.5112 -0.2900
 1980SOL    HW117576   1.533   3.783   7.342  1.1267  2.0407 -1.4124
 1980SOL    HW217577   1.630   3.754   7.450 -0.8314  0.8332 -0.2774
 1981SOL     OW17578   2.524   0.379   6.412 -0.1069  0.2366 -0.3105
 1981SOL    HW117579   2.598   0.439   6.423  0.4762 -0.9998  2.5836
 1981SOL    HW217580   2.552   0.305   6.465  1.0681 -0.0978 -1.4166
 1982SOL     OW17581   4.692   1.311   1.077 -0.3532  0.0192 -0.2349
 1982SOL    HW117582   4.657   1.400   1.079  3.0557  1.3810 -0.1081
 1982SOL    HW217583   4.731   1.315   0.990 -1.2169  0.4881 -0.6021
 1983SOL     OW17584   1.019   3.721   4.373  0.2698  0.0319  0.5389
 1983SOL    HW117585   0.959   3.765   4.433  1.1395  0.8398  0.8123
 1983SOL    HW217586   1.018   3.788   4.305  0.7715  0.8447  1.3374
 1984SOL     OW17587   0.452   2.979   7.538 -0.0752 -0.0826  0.0308
 1984SOL    HW117588   0.454   3.074   7.528 -1.8883 -0.2594 -1.9596
 1984SOL    HW217589   0.534   2.970   7.587 -0.6199 -2.4403  0.5271
 1985SOL     OW17590   1.793   1.218   1.247 -0.0829 -0.2015  0.4054
 1985SOL    HW117591   1.806   1.133   1.289  0.1845 -1.0170 -1.3281
 1985SOL    HW217592   1.857   1.215   1.175 -1.2791 -2.8862 -0.5487
 1986SOL     OW17593   0.052   0.508   1.527 -0.3848 -0.0724 -0.6104
 1986SOL    HW117594   0.039   0.578   1.592  0.8467 -0.1319 -0.2843
 1986SOL    HW217595   4.696   0.485   1.511 -0.3740  0.0168 -0.8096
 1987SOL     OW17596   3.548   0.869   6.441 -0.3820  0.4102 -0.0690
 1987SOL    HW117597   3.521   0.959   6.459  0.2471  0.2853  1.5743
 1987SOL    HW217598   3.489   0.816   6.495 -0.1996 -0.0116 -0.2798
 1988SOL     OW17599   4.037   0.325  13.216  0.4529  0.1707  0.7980
 1988SOL    HW117600   4.069   0.296  13.131 -1.0259  0.1303  0.2597
 1988SOL    HW217601   3.944   0.339  13.199  0.7222  1.3715  0.3115
 1989SOL     OW17602   1.064   3.085   1.227  0.4557  0.5024 -0.2015
 1989SOL    HW117603   1.047   3.000   1.185 -0.5859  1.2052 -1.1860
 1989SOL    HW217604   1.159   3.079   1.231  0.4690  2.4414  1.8581
 1990SOL     OW17605   2.332   2.513   6.034  0.4496  0.0758  0.2211
 1990SOL    HW117606   2.394   2.440   6.029 -0.6803 -0.8619  0.1639
 1990SOL    HW217607   2.367   2.558   6.111  2.2878  0.4866 -0.8453
 1991SOL     OW17608   1.507   1.795   7.384  0.5730 -0.1740 -0.8515
 1991SOL    HW117609   1.462   1.739   7.448 -1.2887  1.6122 -0.5890
 1991SOL    HW217610   1.567   1.841   7.443 -2.0715  1.5316  0.5274
 1992SOL     OW17611   0.239   1.096   4.513 -0.5924  0.9136 -0.1385
 1992SOL    HW117612   0.274   1.154   4.445  0.0157  1.2357  0.4481
 1992SOL    HW217613   0.320   1.049   4.535  0.0240  2.5479  1.0766
 1993SOL     OW17614   3.457   0.361   5.387 -0.2481  0.6633  0.0816
 1993SOL    HW117615   3.472   0.448   5.349 -0.6974  0.2174 -1.1252
 1993SOL    HW217616   3.441   0.305   5.311 -3.0391  0.7416  0.5904
 1994SOL     OW17617   0.823   4.715  17.670  0.2268  0.1461 -0.3552
 1994SOL    HW117618   0.898   0.021  17.711 -0.3708  0.7522  0.1271
 1994SOL    HW217619   0.850   4.708  17.578 -2.1424 -1.6540 -0.9377
 1995SOL     OW17620   0.737   3.025   0.809  0.0657 -0.3943  0.1490
 1995SOL    HW117621   0.724   3.099   0.867 -0.2143 -0.7435  0.5342
 1995SOL    HW217622   0.785   2.958   0.860  0.7570  0.8359  1.1131
 1996SOL     OW17623   1.101   2.319   4.639 -0.5047  0.5940 -0.3850
 1996SOL    HW117624   1.025   2.376   4.641 -1.4131 -0.6636  0.6177
 1996SOL    HW217625   1.141   2.335   4.724  0.0531  0.4924 -0.6242
 1997SOL     OW17626   1.391   1.159   6.839 -0.3618  0.1173  0.8712
 1997SOL    HW117627   1.399   1.253   6.825  0.2066  0.0506  0.7415
 1997SOL    HW217628   1.480   1.123   6.841 -1.0720 -1.8865 -2.8397
 1998SOL     OW17629   2.543   2.336   6.050  0.2406 -0.3067 -0.3188
 1998SOL    HW117630   2.485   2.261   6.040  1.1915 -0.6919 -3.0240
 1998SOL    HW217631   2.622   2.299   6.088  0.4110  1.7303  1.2750
 1999SOL     OW17632   2.139   3.853   3.565 -0.7704 -0.4075 -0.3253
 1999SOL    HW117633   2.137   3.948   3.569  0.1177 -0.4600  1.3748
 1999SOL    HW217634   2.127   3.844   3.470  2.8617  0.2941 -0.8619
 2000SOL     OW17635   4.214   4.325   2.245  1.0645  0.2799 -0.0144
 2000SOL    HW117636   4.170   4.298   2.165  0.6671  1.6614 -0.2725
 2000SOL    HW217637   4.242   4.243   2.286  0.0168  0.1948  0.5334
 2001SOL     OW17638   4.659   1.115   3.734  0.0640  0.0918  0.4263
 2001SOL    HW117639   4.641   1.148   3.823  0.5628  3.0268 -0.5394
 2001SOL    HW217640   0.017   1.112   3.715  0.5453  2.0842  2.3618
 2002SOL     OW17641   1.586   3.004  10.038 -0.7116 -0.3218 -0.4821
 2002SOL    HW117642   1.569   2.915  10.006 -0.4421 -1.3188  2.2014
 2002SOL    HW217643   1.645   2.984  10.111  0.4662  1.3833 -0.9779
 2003SOL     OW17644   4.414   4.694   5.933 -0.5698  0.1353 -0.2897
 2003SOL    HW117645   4.384   4.677   5.844  1.1043  0.1659 -0.8447
 2003SOL    HW217646   4.460   4.611   5.946  0.2827  0.3939 -1.7520
 2004SOL     OW17647   3.917   1.288  12.620  0.7477  0.2126  0.1595
 2004SOL    HW117648   4.005   1.258  12.646  1.5422  0.4506 -2.2884
 2004SOL    HW217649   3.898   1.224  12.552  2.6707  0.9552 -1.0834
 2005SOL     OW17650   0.785   2.468   3.672  0.3648  0.5256 -0.1535
 2005SOL    HW117651   0.720   2.475   3.742  0.7052  0.2291  0.1950
 2005SOL    HW217652   0.784   2.374   3.653 -2.1213  0.3927  0.7282
 2006SOL     OW17653   4.294   3.977   4.096  0.2824 -0.0677  0.3557
 2006SOL    HW117654   4.325   3.908   4.037  2.6414 -0.1008  1.6465
 2006SOL    HW217655   4.347   4.053   4.071  1.0092 -0.2677  1.3053
 2007SOL     OW17656   4.024   1.693  10.778  0.2233  0.0264 -0.3756
 2007SOL    HW117657   4.106   1.707  10.730  0.1809  0.6889 -0.2543
 2007SOL    HW217658   4.011   1.782  10.810  2.2197 -0.7853  2.6611
 2008SOL     OW17659   1.510   1.107   3.515 -0.1841  0.0716 -0.1348
 2008SOL    HW117660   1.496   1.051   3.438 -1.5762  0.8190 -0.4293
 2008SOL    HW217661   1.596   1.148   3.506  1.0800 -2.1412  2.1095
 2009SOL     OW17662   1.147   2.508   3.239  0.1259  0.0049 -0.5843
 2009SOL    HW117663   1.111   2.495   3.152  2.0335 -0.5499 -1.2910
 2009SOL    HW217664   1.098   2.445   3.292  1.2927  0.2118  0.7421
 2010SOL     OW17665   3.359   4.391   3.869  0.3081  0.3860  0.9610
 2010SOL    HW117666   3.331   4.471   3.824 -3.7788 -0.8895  1.2013
 2010SOL    HW217667   3.454   4.398   3.864  0.2445 -0.7398 -1.7470
 2011SOL     OW17668   2.188   3.941  12.455  0.3077  0.3663  0.1614
 2011SOL    HW117669   2.198   3.856  12.412  1.1596  0.5943 -0.0859
 2011SOL    HW217670   2.093   3.950  12.454  0.1496 -0.8651  3.4437
 2012SOL     OW17671   2.784   1.903   6.639 -0.1326  0.0165 -0.0002
 2012SOL    HW117672   2.871   1.897   6.679  1.4098  0.9280 -3.1695
 2012SOL    HW217673   2.798   1.979   6.582  2.6161  0.2353  0.9407
 2013SOL     OW17674   3.529   0.507  16.996 -0.1733  0.3970  0.0189
 2013SOL    HW117675   3.578   0.435  17.035 -1.2658 -0.4015 -0.0595
 2013SOL    HW217676   3.583   0.584  17.011  0.9177 -0.6156  1.2434
 2014SOL     OW17677   3.026   2.913   4.532 -0.1687 -0.0807  0.5507
 2014SOL    HW117678   3.089   2.860   4.483  0.6988 -0.5185  2.1431
 2014SOL    HW217679   2.963   2.932   4.462 -2.6919  1.4317  3.2202
 2015SOL     OW17680   3.117   1.541   9.670 -0.0363  0.2758  0.1449
 2015SOL    HW117681   3.045   1.481   9.651  0.1685  0.7190 -2.0699
 2015SOL    HW217682   3.067   1.622   9.681  0.0645  0.4266 -0.4718
 2016SOL     OW17683   4.264   4.556  10.607 -0.4208  0.3667 -0.1858
 2016SOL    HW117684   4.346   4.602  10.624  0.0566  0.3326 -2.3986
 2016SOL    HW217685   4.273   4.577  10.514  1.8054  1.5149  0.2997
 2017SOL     OW17686   2.394   2.412   7.408 -0.4438  0.3642 -0.0123
 2017SOL    HW117687   2.429   2.380   7.325  4.0045  0.7739  1.6772
 2017SOL    HW217688   2.462   2.475   7.432 -0.7993 -0.9271  4.3413
 2018SOL     OW17689   1.876   2.992   5.553 -0.6017 -0.2896  0.3087
 2018SOL    HW117690   1.912   3.045   5.624 -1.1619  0.5973 -0.0717
 2018SOL    HW217691   1.873   2.906   5.594  2.3515  0.7515  2.6874
 2019SOL     OW17692   0.643   1.488  12.361  0.4214  0.8170 -0.3724
 2019SOL    HW117693   0.623   1.460  12.450  3.0116 -2.2888 -0.7597
 2019SOL    HW217694   0.727   1.525  12.389 -0.5784  0.3986  3.1816
 2020SOL     OW17695   3.238   4.309   5.941 -0.4553  0.6096  0.1304
 2020SOL    HW117696   3.260   4.216   5.935  0.3855  0.8625 -0.7035
 2020SOL    HW217697   3.317   4.356   5.968 -0.4806  0.9943 -0.4754
 2021SOL     OW17698   3.406   4.278   4.240 -0.0768 -0.4433  0.0878
 2021SOL    HW117699   3.360   4.274   4.324  0.3473 -2.5921  0.2054
 2021SOL    HW217700   3.344   4.327   4.186  0.4772  2.6544  2.2452
 2022SOL     OW17701   2.164   3.481   6.934  0.0163 -0.5712 -0.3802
 2022SOL    HW117702   2.175   3.535   6.855 -0.1180 -2.5681 -1.7693
 2022SOL    HW217703   2.251   3.493   6.970 -0.0573 -1.3362  0.0434
 2023SOL     OW17704   0.754   4.532   3.692  1.1411  0.4904 -0.0056
 2023SOL    HW117705   0.789   4.584   3.620  0.8314  1.5149  0.5768
 2023SOL    HW217706   0.821   4.557   3.756  0.7112 -1.3549  1.1609
 2024SOL     OW17707   2.743   0.040  13.565  0.4065 -0.3524  0.0223
 2024SOL    HW117708   2.779   0.107  13.507 -1.9699 -0.6456 -1.8116
 2024SOL    HW217709   2.715   4.718  13.493  0.9484  0.5069 -0.8661
 2025SOL     OW17710   3.651   0.245   6.650  0.2992  0.1949 -0.3361
 2025SOL    HW117711   3.629   0.282   6.735  4.1579  1.9699 -0.1305
 2025SOL    HW217712   3.565   0.252   6.609 -0.3991  1.2142  1.3437
 2026SOL     OW17713   3.327   3.176  12.040 -0.5647  0.2810  0.6096
 2026SOL    HW117714   3.241   3.138  12.020 -0.1018  0.9732 -2.7101
 2026SOL    HW217715   3.374   3.101  12.077  0.3664  0.6932  0.2469
 2027SOL     OW17716   0.870   2.490   2.179  0.1401 -0.4761 -0.4178
 2027SOL    HW117717   0.952   2.490   2.130 -0.5788  0.1284 -1.6283
 2027SOL    HW217718   0.819   2.421   2.136  2.4229 -1.8021 -0.9865
 2028SOL     OW17719   0.436   1.810   8.795 -0.2799  0.1168  0.0914
 2028SOL    HW117720   0.446   1.855   8.879 -0.0957 -0.0569  0.1632
 2028SOL    HW217721   0.447   1.888   8.741  0.0138 -1.1185 -1.6103
 2029SOL     OW17722   3.061   0.233   2.848  0.4291  0.5632  1.2187
 2029SOL    HW117723   3.100   0.167   2.905 -1.7727 -1.5621  0.2773
 2029SOL    HW217724   2.983   0.191   2.811  2.3579 -0.3692 -1.7653
 2030SOL     OW17725   2.937   1.185   5.377  0.0840  0.4452 -0.1470
 2030SOL    HW117726   3.033   1.194   5.380  0.0973  0.2070  0.1173
 2030SOL    HW217727   2.927   1.106   5.430  0.8576 -0.3375 -1.1561
 2031SOL     OW17728   1.023   1.520  15.630  0.3034 -0.1483  0.8054
 2031SOL    HW117729   1.073   1.599  15.649 -1.0009  1.1526 -1.0998
 2031SOL    HW217730   1.091   1.472  15.584  2.1089  3.6523 -0.4702
 2032SOL     OW17731   0.444   0.941   7.647 -0.0569  0.1972 -0.5450
 2032SOL    HW117732   0.500   1.006   7.604 -0.4569  0.2632 -0.9740
 2032SOL    HW217733   0.495   0.904   7.719  0.6748 -1.5267 -1.9486
 2033SOL     OW17734   0.419   1.934  16.817  0.1131 -0.3087  0.3270
 2033SOL    HW117735   0.471   1.867  16.862 -0.0391 -0.6806 -0.0538
 2033SOL    HW217736   0.394   1.896  16.733 -0.9827  0.6404  0.2252
 2034SOL     OW17737   3.090   3.589   8.761  0.0453  0.6243  0.1294
 2034SOL    HW117738   3.168   3.547   8.727 -0.6580 -1.0312  0.5359
 2034SOL    HW217739   3.050   3.519   8.813  0.5414  0.5449  0.3984
 2035SOL     OW17740   1.832   0.841   2.209  0.4845 -0.3470  0.2872
 2035SOL    HW117741   1.898   0.897   2.251  0.0913  0.8185 -0.6308
 2035SOL    HW217742   1.842   0.762   2.262 -0.4717 -1.0285 -0.5571
 2036SOL     OW17743   1.543   4.288   2.450 -0.1367 -0.7285 -0.2862
 2036SOL    HW117744   1.449   4.297   2.466 -0.2332 -3.2487  0.5514
 2036SOL    HW217745   1.569   4.283   2.542 -0.9226  1.9582  0.0747
 2037SOL     OW17746   3.809   1.347   6.700  0.2569 -0.0563 -0.4526
 2037SOL    HW117747   3.904   1.348   6.688  0.2724  0.9218 -0.2376
 2037SOL    HW217748   3.799   1.392   6.784  0.3601  0.1974 -0.5757
 2038SOL     OW17749   1.313   1.350  10.669 -0.1596 -0.5840 -0.1932
 2038SOL    HW117750   1.362   1.269  10.672  1.7263  0.5042 -1.2886
 2038SOL    HW217751   1.356   1.403  10.601  0.2907 -0.2542  0.3510
 2039SOL     OW17752   0.382   0.597   3.685 -0.1568 -0.6716 -0.2818
 2039SOL    HW117753   0.347   0.508   3.694 -1.5876 -0.0477  0.2310
 2039SOL    HW217754   0.474   0.578   3.704  0.0779  2.7769  1.9815
 2040SOL     OW17755   1.927   1.314   8.156  0.0054  0.2708  0.8896
 2040SOL    HW117756   1.950   1.224   8.181  0.9944  0.0355 -0.8423
 2040SOL    HW217757   1.900   1.304   8.064 -0.9402 -0.5451  1.2548
 2041SOL     OW17758   4.037   0.219   2.145 -0.0328 -0.3789 -0.3425
 2041SOL    HW117759   4.085   0.243   2.066  0.4644  0.0748  0.0961
 2041SOL    HW217760   4.057   0.126   2.153  2.1637 -0.0485 -2.0115
 2042SOL     OW17761   1.435   2.862   0.345  0.0413  0.3543  0.0135
 2042SOL    HW117762   1.514   2.880   0.396 -0.0542  0.5502  0.0914
 2042SOL    HW217763   1.458   2.775   0.312  2.7156  1.4387 -0.9902
 2043SOL     OW17764   3.304   4.641   5.206  0.6336 -0.2617 -0.1944
 2043SOL    HW117765   3.380   4.617   5.153  0.5910 -2.2432  0.6176
 2043SOL    HW217766   3.351   4.660   5.286  0.8123  1.1583 -0.6496
 2044SOL     OW17767   4.590   4.183   7.577  0.7839  0.1930  0.0976
 2044SOL    HW117768   4.534   4.126   7.524  0.6459  0.5055 -0.0971
 2044SOL    HW217769   4.635   4.246   7.521  1.9905 -0.4202  0.3857
 2045SOL     OW17770   3.203   0.289  14.327  0.2608 -0.3369 -0.1499
 2045SOL    HW117771   3.187   0.373  14.282  1.3218 -0.2355 -0.3455
 2045SOL    HW217772   3.133   0.285  14.392  0.1003 -1.8241 -0.4286
 2046SOL     OW17773   0.481   2.304  14.878 -0.0714  0.2938  0.3901
 2046SOL    HW117774   0.458   2.397  14.879  0.3724  0.4176 -0.5214
 2046SOL    HW217775   0.574   2.317  14.894  0.0124  0.3241 -0.1179
 2047SOL     OW17776   3.118   2.652  15.408  0.7681  0.2727 -0.6540
 2047SOL    HW117777   3.107   2.558  15.396 -2.9904  0.6149 -0.0990
 2047SOL    HW217778   3.170   2.662  15.487  2.6932 -0.2182 -1.8668
 2048SOL     OW17779   2.315   2.855   8.403  0.1967  0.5290 -0.2674
 2048SOL    HW117780   2.243   2.917   8.394 -0.7402 -0.3366  1.1414
 2048SOL    HW217781   2.273   2.770   8.420  0.8632  0.1305 -0.6245
 2049SOL     OW17782   0.260   2.500   9.837 -0.2365 -0.0766 -0.1175
 2049SOL    HW117783   0.291   2.577   9.789  0.2255  0.3979  0.9281
 2049SOL    HW217784   0.324   2.436   9.807 -0.3555 -0.0070 -0.5206
 2050SOL     OW17785   0.530   1.002   4.235  0.3683  0.1801  0.0300
 2050SOL    HW117786   0.546   0.938   4.166  2.0038  0.4307  0.1715
 2050SOL    HW217787   0.475   0.948   4.293 -1.0437  0.5548 -0.9630
 2051SOL     OW17788   4.487   2.989   7.535 -0.0690  0.0995 -0.0920
 2051SOL    HW117789   4.497   3.083   7.521  3.1672 -0.6399 -2.8238
 2051SOL    HW217790   4.393   2.996   7.520  0.0120  0.5834 -0.3946
 2052SOL     OW17791   3.836   1.232   8.292  0.2797 -0.2926 -0.3224
 2052SOL    HW117792   3.882   1.244   8.375  1.1705  1.2463 -1.0424
 2052SOL    HW217793   3.755   1.278   8.311  0.3158 -0.8060  1.0802
 2053SOL     OW17794   0.859   4.422   0.089  0.6690 -0.0988 -0.0962
 2053SOL    HW117795   0.830   4.467   0.009 -0.8627 -1.0648 -0.0701
 2053SOL    HW217796   0.952   4.426   0.066  0.6395 -0.8037 -0.3324
 2054SOL     OW17797   0.617   4.488   1.075 -0.3137 -0.1955 -0.7680
 2054SOL    HW117798   0.592   4.511   0.986  0.0772  1.1608 -0.5203
 2054SOL    HW217799   0.712   4.496   1.069 -0.3507  3.0819  3.1187
 2055SOL     OW17800   2.647   2.331  14.817  0.0675 -0.0249 -0.0651
 2055SOL    HW117801   2.678   2.333  14.726 -0.5285 -0.7507 -0.2801
 2055SOL    HW217802   2.678   2.243  14.839  1.0511 -0.1584 -2.0379
 2056SOL     OW17803   1.303   4.370   5.798  0.0287 -0.1362  0.0229
 2056SOL    HW117804   1.217   4.412   5.783 -0.3344 -1.6700 -2.1958
 2056SOL    HW217805   1.343   4.365   5.711 -0.7323 -0.3165 -0.3159
 2057SOL     OW17806   0.613   4.415   3.946  0.7052 -0.4658  0.2224
 2057SOL    HW117807   0.628   4.424   3.852 -0.0393  1.4496  0.2873
 2057SOL    HW217808   0.565   4.498   3.955  0.5444 -0.0912 -4.1667
 2058SOL     OW17809   3.043   2.211  15.008  0.0318 -0.5181 -0.1379
 2058SOL    HW117810   2.966   2.199  15.063  1.7737 -0.3276  2.3137
 2058SOL    HW217811   3.007   2.257  14.932  2.1095  0.9991 -0.2024
 2059SOL     OW17812   2.715   2.071   2.233  0.5632  0.4902 -0.0696
 2059SOL    HW117813   2.691   1.988   2.276 -1.6522  2.4411  2.5158
 2059SOL    HW217814   2.631   2.109   2.206  1.0750 -1.5069 -4.4154
 2060SOL     OW17815   2.753   3.487   6.054 -0.5180  0.1518 -0.2294
 2060SOL    HW117816   2.749   3.397   6.086  1.3519  0.8043  1.9279
 2060SOL    HW217817   2.791   3.469   5.968  0.5042 -2.0870  0.6734
 2061SOL     OW17818   1.465   1.170   8.110  0.3777  0.0207  0.5225
 2061SOL    HW117819   1.391   1.178   8.170  0.1822 -2.6644  0.6463
 2061SOL    HW217820   1.428   1.199   8.027  0.4376  0.9656  0.8276
 2062SOL     OW17821   3.076   1.414   3.112 -0.0011 -0.9156 -0.0804
 2062SOL    HW117822   3.132   1.387   3.039  0.0206  1.6006 -0.9827
 2062SOL    HW217823   3.003   1.451   3.063  0.3439  2.8917  2.2435
 2063SOL     OW17824   2.860   2.683   9.356  0.3050  0.2392 -0.2521
 2063SOL    HW117825   2.819   2.630   9.288  1.0255 -0.2928 -0.2639
 2063SOL    HW217826   2.809   2.668   9.436 -0.9860  0.4854 -1.0297
 2064SOL     OW17827   3.498   2.967   7.925  0.0530 -0.0165 -0.3744
 2064SOL    HW117828   3.545   3.014   7.856 -2.7320  4.5380  0.8073
 2064SOL    HW217829   3.561   2.899   7.950  0.5708  0.6633  0.1660
 2065SOL     OW17830   4.131   0.481   9.805  0.1568 -0.2939 -0.5363
 2065SOL    HW117831   4.097   0.395   9.831 -1.6725  1.2205  2.1225
 2065SOL    HW217832   4.091   0.543   9.866 -1.0634 -1.5133 -0.1060
 2066SOL     OW17833   2.216   0.938   6.969 -0.2492  0.2646 -0.0582
 2066SOL    HW117834   2.186   1.010   6.913 -0.2304  0.4513  0.1724
 2066SOL    HW217835   2.129   0.898   6.972 -0.6213  0.7596 -3.8857
 2067SOL     OW17836   2.299   2.363   4.961 -0.1827  0.2386  0.3342
 2067SOL    HW117837   2.253   2.431   4.911  0.1117 -1.5251 -2.3533
 2067SOL    HW217838   2.315   2.298   4.892  0.9557  0.2222  0.6219
 2068SOL     OW17839   3.613   0.463  13.684  0.3948  0.1204  0.1807
 2068SOL    HW117840   3.560   0.507  13.617  0.9524  0.8194  0.2010
 2068SOL    HW217841   3.580   0.375  13.667  0.9326  0.1547 -1.0286
 2069SOL     OW17842   4.229   1.012  17.438  0.2495 -0.0506 -0.3633
 2069SOL    HW117843   4.178   1.009  17.519  2.2921  3.5701  1.0423
 2069SOL    HW217844   4.239   1.106  17.423  0.3247  0.0999  0.6387
 2070SOL     OW17845   3.535   0.375  11.853 -0.0298 -0.0917 -0.5096
 2070SOL    HW117846   3.471   0.391  11.923  0.7103 -0.2865  0.2070
 2070SOL    HW217847   3.490   0.417  11.779  0.0557  0.2939 -0.3396
 2071SOL     OW17848   3.812   3.741  16.538 -0.0310  0.0032  0.1803
 2071SOL    HW117849   3.791   3.649  16.554  1.0926 -0.4303 -0.8769
 2071SOL    HW217850   3.907   3.739  16.553 -0.0925 -1.5033  0.3823
 2072SOL     OW17851   1.229   1.186   0.738  0.6247 -0.2586  0.3312
 2072SOL    HW117852   1.187   1.264   0.774  0.8117  0.0640 -0.1503
 2072SOL    HW217853   1.150   1.152   0.696  1.7299 -0.1137 -1.8618
 2073SOL     OW17854   2.033   2.280  14.151 -0.2900  1.1580 -0.0140
 2073SOL    HW117855   2.104   2.253  14.092 -1.3397 -0.1790 -0.6739
 2073SOL    HW217856   2.076   2.346  14.205 -0.3628 -0.6925  2.2631
 2074SOL     OW17857   2.367   4.595  17.190 -0.3535 -0.7479 -0.5507
 2074SOL    HW117858   2.274   4.612  17.203 -0.1765  1.8474 -2.6447
 2074SOL    HW217859   2.373   4.504  17.161  0.3686 -1.3832  1.6150
 2075SOL     OW17860   2.040   1.897   1.333 -0.1021  0.5601 -0.1400
 2075SOL    HW117861   2.023   1.986   1.365 -3.7390  0.1810 -0.9588
 2075SOL    HW217862   1.955   1.857   1.350  0.3361 -0.8477 -1.2706
 2076SOL     OW17863   3.980   1.113   3.618 -0.5228  0.4066  0.1633
 2076SOL    HW117864   3.986   1.141   3.527 -0.3015 -0.4012 -0.0692
 2076SOL    HW217865   3.925   1.181   3.656  3.4057  3.5073  0.2784
 2077SOL     OW17866   4.431   0.458  10.348  0.9077  0.1600  0.0654
 2077SOL    HW117867   4.519   0.420  10.343  1.1426  0.7696 -0.5143
 2077SOL    HW217868   4.378   0.379  10.352  1.2559 -0.0817 -0.0501
 2078SOL     OW17869   1.110   1.348   1.071 -0.3075  0.0583 -0.2590
 2078SOL    HW117870   1.167   1.277   1.101  0.1107  0.2481 -0.6099
 2078SOL    HW217871   1.033   1.329   1.125 -0.2319  0.1410 -0.1197
 2079SOL     OW17872   1.973   3.147   2.106  0.3243 -0.1399  0.9081
 2079SOL    HW117873   1.914   3.078   2.135 -0.1962  0.2396  0.7548
 2079SOL    HW217874   1.923   3.180   2.032  0.8463  0.8408  0.9920
 2080SOL     OW17875   0.068   3.077   2.546  0.1891 -0.1541 -0.1636
 2080SOL    HW117876   4.717   3.117   2.560  0.6955  1.6233 -2.0772
 2080SOL    HW217877   0.048   3.031   2.465  0.9215  0.6317 -0.7846
 2081SOL     OW17878   2.677   2.179  17.065  0.3959 -0.1243 -0.2849
 2081SOL    HW117879   2.605   2.159  17.005 -1.0182  2.0024  0.6866
 2081SOL    HW217880   2.658   2.137  17.148 -4.1066 -0.2984 -1.4098
 2082SOL     OW17881   3.024   2.041   0.229 -0.8569 -0.0506 -0.2951
 2082SOL    HW117882   3.008   2.089   0.148  0.6182  0.5815 -0.1979
 2082SOL    HW217883   2.936   2.009   0.250 -0.3556 -2.0701 -1.2478
 2083SOL     OW17884   1.620   2.503   1.870  0.1646 -0.1386 -0.0953
 2083SOL    HW117885   1.622   2.415   1.832  0.4445  0.3865 -1.2950
 2083SOL    HW217886   1.655   2.505   1.959  1.1907  1.3427 -0.5407
 2084SOL     OW17887   2.068   2.896  16.845 -1.1036 -0.7856 -0.0284
 2084SOL    HW117888   2.047   2.977  16.798 -0.2804  0.3189  1.4910
 2084SOL    HW217889   1.996   2.896  16.908 -0.7057  0.7658  0.4268
 2085SOL     OW17890   3.457   1.701   8.121 -0.3132  0.3833 -0.0610
 2085SOL    HW117891   3.519   1.719   8.051 -1.0932 -1.8294 -1.3354
 2085SOL    HW217892   3.513   1.706   8.197 -0.0613 -1.4405 -0.1229
 2086SOL     OW17893   1.648   3.645  17.034 -0.7096  0.4653  0.2241
 2086SOL    HW117894   1.712   3.583  17.000 -1.4964 -1.1505  1.7388
 2086SOL    HW217895   1.711   3.701  17.081  0.6896 -1.1217  0.2159
 2087SOL     OW17896   1.830   3.148   1.110  0.0942  0.1418 -0.2427
 2087SOL    HW117897   1.839   3.087   1.183 -0.3548 -0.4558 -0.6834
 2087SOL    HW217898   1.908   3.199   1.130  1.2725 -1.8459  0.1898
 2088SOL     OW17899   3.699   2.690   3.378  0.7505 -0.6347 -0.3966
 2088SOL    HW117900   3.648   2.754   3.428 -0.7753 -0.8243 -1.7360
 2088SOL    HW217901   3.634   2.626   3.347  1.2406 -1.6394  0.6171
 2089SOL     OW17902   4.464   0.110   6.282  0.1785  0.1286  0.3530
 2089SOL    HW117903   4.456   0.107   6.377 -1.0812 -1.1143  0.2196
 2089SOL    HW217904   4.488   0.019   6.264 -2.4093 -0.6457  0.7726
 2090SOL     OW17905   3.275   3.353   5.591  0.6104  0.1459 -0.0956
 2090SOL    HW117906   3.267   3.445   5.615 -2.2074  0.0356 -0.6312
 2090SOL    HW217907   3.273   3.361   5.495  1.6217  0.0663 -0.1252
 2091SOL     OW17908   2.991   4.417   4.775  0.4808 -0.5844  0.0984
 2091SOL    HW117909   3.074   4.445   4.812  0.2296  1.3147 -0.7875
 2091SOL    HW217910   2.928   4.480   4.810  0.5358 -0.7474  0.4959
 2092SOL     OW17911   4.133   1.690   9.867 -0.3051 -1.0395  0.0406
 2092SOL    HW117912   4.175   1.746   9.932 -0.3686 -1.2718  0.2832
 2092SOL    HW217913   4.043   1.708   9.895 -0.7978 -0.7951 -1.6959
 2093SOL     OW17914   1.719   4.129   1.189  0.2927 -0.1403 -0.1332
 2093SOL    HW117915   1.765   4.177   1.120 -1.6542  2.5487  0.4026
 2093SOL    HW217916   1.753   4.041   1.201  0.4481 -0.0375  0.1782
 2094SOL     OW17917   0.215   3.376   4.715  0.9473  0.1149 -0.1163
 2094SOL    HW117918   0.258   3.405   4.796 -1.1783  1.6174  0.4858
 2094SOL    HW217919   0.272   3.301   4.699  1.0739  0.6420 -2.0703
 2095SOL     OW17920   1.849   2.456   8.192 -0.3611  0.3138 -0.0765
 2095SOL    HW117921   1.852   2.463   8.097 -0.1692  2.6824  0.1113
 2095SOL    HW217922   1.896   2.533   8.225 -0.1217  0.2417 -0.2514
 2096SOL     OW17923   3.007   3.801   5.748  0.0262  0.3344  0.5326
 2096SOL    HW117924   3.097   3.794   5.778 -0.8273  1.3601  3.3267
 2096SOL    HW217925   3.024   3.869   5.682  2.9030 -0.9679 -0.0632
 2097SOL     OW17926   0.744   4.063   6.682 -0.1820  0.2870 -0.2977
 2097SOL    HW117927   0.748   4.103   6.768  2.5661 -0.8913  0.1399
 2097SOL    HW217928   0.650   4.046   6.677 -0.3438  0.4120  2.3724
 2098SOL     OW17929   2.192   2.158  11.234  0.0883 -0.5752  0.0299
 2098SOL    HW117930   2.186   2.229  11.298 -0.3026  0.2154 -0.8733
 2098SOL    HW217931   2.284   2.134  11.227 -0.1436 -1.2012 -0.7531
 2099SOL     OW17932   2.750   0.534   5.199  0.2841 -0.2362 -0.1079
 2099SOL    HW117933   2.785   0.446   5.218  0.8399  0.0369  0.1364
 2099SOL    HW217934   2.770   0.541   5.105 -1.8908  0.9885 -0.4709
 2100SOL     OW17935   0.516   2.218   1.138 -0.4944  0.0519 -0.4093
 2100SOL    HW117936   0.533   2.193   1.228  0.0650  0.7149 -0.3328
 2100SOL    HW217937   0.451   2.152   1.112 -1.8015  1.1996 -0.1051
 2101SOL     OW17938   0.977   3.007  14.242  0.0506  0.1617 -0.3191
 2101SOL    HW117939   0.939   3.060  14.172 -1.4139 -0.8351 -0.2753
 2101SOL    HW217940   0.908   3.025  14.306 -2.7514 -1.9295 -2.7557
 2102SOL     OW17941   0.708   4.572   0.640 -0.2047 -0.1732  0.1819
 2102SOL    HW117942   0.734   4.664   0.644  1.3780 -0.5035 -2.2421
 2102SOL    HW217943   0.637   4.591   0.579  0.1852 -0.2872 -0.3081
 2103SOL     OW17944   3.351   1.075  17.285 -0.1619  0.0253  0.5042
 2103SOL    HW117945   3.296   1.094  17.361  0.3650  0.4785  0.7650
 2103SOL    HW217946   3.294   1.106  17.215  0.4881  0.9513  0.3828
 2104SOL     OW17947   2.280   3.561   6.005  0.2474 -0.3755  0.2586
 2104SOL    HW117948   2.290   3.607   5.922  1.0958 -1.5956 -0.3206
 2104SOL    HW217949   2.281   3.633   6.068  0.1640 -0.9201  0.8820
 2105SOL     OW17950   2.898   0.830   1.461  0.2886  0.2861  0.1159
 2105SOL    HW117951   2.949   0.908   1.484  0.0932  0.3123  0.4634
 2105SOL    HW217952   2.810   0.866   1.451 -0.2162 -0.9454  0.0941
 2106SOL     OW17953   1.356   4.025   5.956 -0.3035  0.2613  0.2649
 2106SOL    HW117954   1.313   3.975   6.026  0.4165  0.5158  0.8850
 2106SOL    HW217955   1.401   3.954   5.910  2.0110  1.2784  0.9762
 2107SOL     OW17956   1.959   2.613  12.591 -0.0857 -0.1386  0.5223
 2107SOL    HW117957   2.019   2.673  12.635 -1.2111  0.5300  1.1686
 2107SOL    HW217958   1.903   2.604  12.669  0.1555 -0.5654  0.6492
 2108SOL     OW17959   1.926   4.036   6.739  0.4854 -0.1665  0.5329
 2108SOL    HW117960   1.951   3.993   6.657 -2.5980 -0.4948 -0.2160
 2108SOL    HW217961   1.886   4.114   6.700 -2.1309 -0.7433  2.0297
 2109SOL     OW17962   4.520   1.191  14.952 -0.1888  0.1282 -0.2103
 2109SOL    HW117963   4.427   1.213  14.957 -0.2402  0.1758 -1.5078
 2109SOL    HW217964   4.518   1.098  14.973 -1.5328  1.1342  4.3559
 2110SOL     OW17965   4.584   4.350   5.201 -0.0200  0.0626  0.3014
 2110SOL    HW117966   4.577   4.389   5.288 -3.5441 -0.3704  0.2080
 2110SOL    HW217967   4.491   4.340   5.179  0.0490 -1.0609  0.5430
 2111SOL     OW17968   0.919   2.479   5.259  0.2196  0.7500  0.0944
 2111SOL    HW117969   0.863   2.547   5.297  0.1702 -0.1964  1.6799
 2111SOL    HW217970   0.995   2.535   5.244  1.2216 -0.6016  0.2463
 2112SOL     OW17971   3.592   3.031  17.631  0.0471 -0.1690  0.2785
 2112SOL    HW117972   3.522   3.094  17.647 -0.7324 -1.4300  1.8292
 2112SOL    HW217973   3.676   3.078  17.627 -0.1592  0.1322 -0.4464
 2113SOL     OW17974   3.742   3.448  16.571 -0.3700  0.5835  0.1896
 2113SOL    HW117975   3.773   3.391  16.642 -1.4516 -0.7071 -0.3770
 2113SOL    HW217976   3.655   3.472  16.602 -1.6521 -0.1051 -2.9026
 2114SOL     OW17977   2.915   0.746  10.606 -0.0449  0.4251 -0.0410
 2114SOL    HW117978   3.009   0.731  10.622 -0.4036  1.2073  2.7507
 2114SOL    HW217979   2.884   0.673  10.659  1.2181  2.0196  2.9054
 2115SOL     OW17980   2.877   3.237   8.223 -0.0448 -0.1199  0.5083
 2115SOL    HW117981   2.939   3.290   8.275 -1.7172  0.4996  1.8784
 2115SOL    HW217982   2.941   3.167   8.209  0.0184  0.0011  0.2008
 2116SOL     OW17983   1.510   0.124  15.749 -0.0890 -0.4267 -0.7758
 2116SOL    HW117984   1.543   0.111  15.660 -1.6182  0.5349 -1.4773
 2116SOL    HW217985   1.570   0.188  15.786 -2.6228  0.6316  1.4568
 2117SOL     OW17986   1.315   4.257   5.349  0.6536  0.3338  0.2727
 2117SOL    HW117987   1.352   4.175   5.383 -0.1954  0.0189  0.4529
 2117SOL    HW217988   1.234   4.232   5.305  1.1463 -2.2956  0.8520
 2118SOL     OW17989   3.303   4.666   3.860  0.3572  1.1362  0.1471
 2118SOL    HW117990   3.366   0.004   3.861  0.3077  1.1855 -0.4364
 2118SOL    HW217991   3.307   4.647   3.767 -0.4568 -0.9653  0.5457
 2119SOL     OW17992   1.717   0.273   3.496  0.2808  0.0907 -0.3196
 2119SOL    HW117993   1.798   0.292   3.448  0.3277 -1.8790 -1.0084
 2119SOL    HW217994   1.659   0.343   3.465 -1.4001 -0.5387  1.4357
 2120SOL     OW17995   4.226   1.844  10.099  0.3533  0.0265  0.2459
 2120SOL    HW117996   4.275   1.899  10.159 -0.4169  0.2726  0.6370
 2120SOL    HW217997   4.279   1.766  10.116  0.9974  0.4218  0.0623
 2121SOL     OW17998   2.995   0.021   5.277 -0.9290 -0.1828 -0.3216
 2121SOL    HW117999   3.026   0.033   5.367 -1.0344  0.2478 -0.3395
 2121SOL    HW218000   3.079   0.031   5.233 -1.1441  0.0484 -0.6765
 2122SOL     OW18001   0.632   0.422   1.898 -0.2390  0.2839 -0.3737
 2122SOL    HW118002   0.607   0.376   1.818 -1.1700 -1.5641  0.9742
 2122SOL    HW218003   0.641   0.351   1.962 -0.2989  0.1974 -0.4624
 2123SOL     OW18004   2.690   0.641  12.689 -0.0747 -0.2380  0.7364
 2123SOL    HW118005   2.779   0.667  12.713  0.3982 -0.7775 -0.4345
 2123SOL    HW218006   2.713   0.562  12.639 -1.2175 -0.2468  0.2208
 2124SOL     OW18007   2.324   1.717   1.411 -0.1985 -0.0008 -0.1218
 2124SOL    HW118008   2.280   1.662   1.476  1.3436 -0.5106  0.4783
 2124SOL    HW218009   2.313   1.657   1.337  2.7638 -0.1129 -0.4660
 2125SOL     OW18010   4.095   0.604   7.330  0.2417  0.3701 -0.0610
 2125SOL    HW118011   4.142   0.585   7.248  2.0045 -0.8701  1.2224
 2125SOL    HW218012   4.034   0.673   7.303 -0.0251 -0.4452 -1.5515
 2126SOL     OW18013   3.154   1.376  16.314 -0.3967  0.5967 -0.2102
 2126SOL    HW118014   3.131   1.468  16.303 -0.0947  0.7760  0.6131
 2126SOL    HW218015   3.208   1.361  16.237 -0.5386  2.4529 -0.6589
 2127SOL     OW18016   0.595   0.252   1.693  0.1293 -0.4794 -0.0169
 2127SOL    HW118017   0.614   0.170   1.739 -0.3311 -0.7427 -0.3038
 2127SOL    HW218018   0.615   0.234   1.601 -1.7498 -0.7276 -0.3827
 2128SOL     OW18019   0.547   1.644   2.172  0.0781 -0.0244 -0.1453
 2128SOL    HW118020   0.469   1.588   2.174  1.2646 -1.7046 -0.6386
 2128SOL    HW218021   0.528   1.700   2.247  0.0663  0.4128 -0.4775
 2129SOL     OW18022   2.107   2.147   2.309 -0.7046  0.0131  0.0858
 2129SOL    HW118023   2.046   2.217   2.335 -1.9491 -1.2312  0.4927
 2129SOL    HW218024   2.195   2.184   2.300 -0.5602  0.1324  1.8538
 2130SOL     OW18025   4.656   2.846   7.126 -0.0899 -0.0526 -0.2999
 2130SOL    HW118026   4.571   2.804   7.118 -1.0845  2.1367 -1.0333
 2130SOL    HW218027   4.643   2.921   7.069 -1.8699  0.7947  1.2222
 2131SOL     OW18028   0.436   3.042   3.110  0.1326  0.2413 -0.0570
 2131SOL    HW118029   0.417   3.064   3.018 -0.5455 -0.8204 -0.1808
 2131SOL    HW218030   0.350   3.067   3.143 -0.5843  0.9028 -2.4130
 2132SOL     OW18031   4.048   1.542   5.171  0.0812  0.3713 -0.0256
 2132SOL    HW118032   3.978   1.485   5.140  0.6104 -0.7296  0.8229
 2132SOL    HW218033   4.063   1.495   5.253 -1.8773 -1.4113 -0.6835
 2133SOL     OW18034   2.348   0.438   0.469 -0.1997  0.3001  0.0022
 2133SOL    HW118035   2.434   0.458   0.506  0.4618 -0.3031 -1.1830
 2133SOL    HW218036   2.299   0.435   0.551 -0.5660  1.2196 -0.1879
 2134SOL     OW18037   0.923   3.691   7.587  0.1772 -0.3394  0.5460
 2134SOL    HW118038   0.852   3.752   7.568  0.8441  0.5566  0.9400
 2134SOL    HW218039   0.959   3.686   7.499 -0.8703  3.1680 -0.0907
 2135SOL     OW18040   0.373   3.187  10.557 -0.1463 -0.3400 -0.9978
 2135SOL    HW118041   0.420   3.236  10.625  2.4817 -2.9722 -0.9199
 2135SOL    HW218042   0.292   3.177  10.607  0.7843  2.1236  1.0100
 2136SOL     OW18043   3.930   0.106   7.235  0.2217  0.6664 -0.2887
 2136SOL    HW118044   3.997   0.111   7.303  0.0542  0.8803 -0.1407
 2136SOL    HW218045   3.901   0.197   7.233 -1.1923  0.2741  2.3568
 2137SOL     OW18046   3.013   1.727   8.021  0.6364  0.5951  0.2385
 2137SOL    HW118047   3.097   1.758   7.988 -0.3135  0.5256 -2.2161
 2137SOL    HW218048   2.969   1.806   7.989  0.5943  0.6266  0.3737
 2138SOL     OW18049   2.275   2.912  15.213  0.2898 -0.1839  0.4333
 2138SOL    HW118050   2.290   2.824  15.248  4.4798  0.3499 -0.0614
 2138SOL    HW218051   2.182   2.932  15.223  0.3022  0.2219 -0.2573
 2139SOL     OW18052   2.368   0.628   4.147 -0.6690 -0.4529 -0.5768
 2139SOL    HW118053   2.334   0.577   4.073 -0.8470 -0.5609 -0.4201
 2139SOL    HW218054   2.341   0.718   4.127  1.0171  0.2514  0.3595
 2140SOL     OW18055   1.547   0.367   4.404 -0.3059 -0.4729 -0.3281
 2140SOL    HW118056   1.626   0.413   4.376 -0.2109  1.1920  2.6340
 2140SOL    HW218057   1.565   0.331   4.491  0.5335 -1.4844 -0.9173
 2141SOL     OW18058   4.508   2.872   5.458 -0.4661 -0.2953  0.3476
 2141SOL    HW118059   4.536   2.945   5.403  0.4684 -1.6228 -0.8993
 2141SOL    HW218060   4.520   2.910   5.545  0.3792 -0.4695  0.3061
 2142SOL     OW18061   1.253   0.037   7.642 -0.5652  0.1478  0.1335
 2142SOL    HW118062   1.295   0.065   7.560 -3.6641  0.3793 -1.3641
 2142SOL    HW218063   1.189   4.713   7.602  0.9675 -2.2325  1.1854
 2143SOL     OW18064   4.566   4.664   1.825  0.2322 -0.5291  0.0424
 2143SOL    HW118065   4.577   4.578   1.783 -0.6190 -0.3848 -0.4732
 2143SOL    HW218066   4.607   4.720   1.759 -1.5191  0.1066 -0.5094
 2144SOL     OW18067   2.824   4.035   4.096  0.0872 -0.3428  0.2696
 2144SOL    HW118068   2.792   4.033   4.186  1.3956  0.9856  0.7580
 2144SOL    HW218069   2.787   3.955   4.059  1.1023 -0.3007 -0.8087
 2145SOL     OW18070   3.852   0.331  16.015  0.1590 -0.1279 -0.4267
 2145SOL    HW118071   3.936   0.293  15.989 -0.2494 -1.5809  0.3656
 2145SOL    HW218072   3.844   0.402  15.951 -0.9825 -0.1947 -0.3591
 2146SOL     OW18073   3.064   4.416   1.264 -0.0345  0.1311 -0.0487
 2146SOL    HW118074   3.086   4.509   1.261 -2.7934  0.7657 -0.5967
 2146SOL    HW218075   3.118   4.386   1.336 -1.0066  0.7638  0.9424
 2147SOL     OW18076   1.698   3.530   1.833  0.5085 -0.7559  0.0777
 2147SOL    HW118077   1.677   3.469   1.903  0.0078 -0.8746 -0.1737
 2147SOL    HW218078   1.722   3.471   1.761 -0.8167 -3.1132  1.5591
 2148SOL     OW18079   1.650   4.471   8.310 -0.1098  0.6621 -0.7241
 2148SOL    HW118080   1.743   4.450   8.301 -0.1482 -0.2018  0.8640
 2148SOL    HW218081   1.623   4.388   8.348  0.2151  0.0128 -1.9234
 2149SOL     OW18082   0.628   3.451   3.069  0.0155  0.0290  0.2430
 2149SOL    HW118083   0.658   3.368   3.106  0.5823  0.9655  1.8996
 2149SOL    HW218084   0.540   3.426   3.041 -0.5149  1.8884  0.2419
 2150SOL     OW18085   1.731   2.360   5.812  0.2739 -0.4456  0.8891
 2150SOL    HW118086   1.778   2.437   5.843 -0.3377  0.6780 -1.0152
 2150SOL    HW218087   1.770   2.288   5.863  1.8432 -0.4987 -0.3640
 2151SOL     OW18088   4.712   1.281   3.460 -0.1149  0.2026 -0.2828
 2151SOL    HW118089   4.631   1.329   3.476  0.7189  1.5160  0.0573
 2151SOL    HW218090   4.674   1.204   3.502 -1.7529 -0.4282 -2.9280
 2152SOL     OW18091   2.859   1.410   8.510 -0.0919  0.3818 -0.2379
 2152SOL    HW118092   2.792   1.383   8.446 -2.1067  1.6545  1.3216
 2152SOL    HW218093   2.843   1.504   8.516  1.9168  0.6999  0.1221
 2153SOL     OW18094   4.661   1.424   2.744  0.1551 -0.2823 -0.1130
 2153SOL    HW118095   4.727   1.459   2.804 -0.5255  0.0836  0.4238
 2153SOL    HW218096   4.620   1.502   2.708  1.4521  0.4540 -0.0152
 2154SOL     OW18097   2.603   0.728  17.241 -0.2325  0.6471 -0.3320
 2154SOL    HW118098   2.545   0.665  17.284 -0.8336  2.2869  1.2670
 2154SOL    HW218099   2.670   0.674  17.199  1.1079  1.7941  0.3473
 2155SOL     OW18100   1.697   2.074  14.356 -0.1080 -0.2258  0.4482
 2155SOL    HW118101   1.646   2.111  14.284  0.1193 -0.8592 -0.0441
 2155SOL    HW218102   1.644   1.995  14.366  2.4594 -1.9002  0.9424
 2156SOL     OW18103   4.160   0.784   6.551 -0.3904 -0.3995  0.5417
 2156SOL    HW118104   4.231   0.719   6.548 -0.0428  0.0217 -0.3458
 2156SOL    HW218105   4.133   0.790   6.642  0.9447  1.4355  0.8185
 2157SOL     OW18106   0.190   4.238   3.636 -0.1021 -0.5138  0.0208
 2157SOL    HW118107   0.279   4.204   3.622  0.4868  1.4844 -1.1995
 2157SOL    HW218108   0.183   4.265   3.544 -1.0977 -3.3582 -0.7495
 2158SOL     OW18109   2.215   4.314  11.920 -0.4627 -0.1128  0.0738
 2158SOL    HW118110   2.268   4.243  11.884 -2.2452 -0.9542 -0.8795
 2158SOL    HW218111   2.278   4.340  11.987 -0.7223  1.5807 -0.3301
 2159SOL     OW18112   1.842   1.715   5.058  0.3714  0.1730  0.1399
 2159SOL    HW118113   1.840   1.648   5.126  0.8490 -0.1463 -0.1552
 2159SOL    HW218114   1.856   1.660   4.981  0.5002  0.8749 -0.3365
 2160SOL     OW18115   2.804   2.884   4.991  0.0872  0.0933  0.3304
 2160SOL    HW118116   2.797   2.891   4.896  2.2479 -0.1300  0.1683
 2160SOL    HW218117   2.828   2.973   5.016  2.6482 -0.9385  1.4899
 2161SOL     OW18118   0.054   0.020   4.306  0.4804  0.0235 -0.1877
 2161SOL    HW118119   0.008   4.718   4.380 -0.6445  0.9592 -0.4102
 2161SOL    HW218120   4.716   0.063   4.260  0.8276  0.1431 -0.6375
 2162SOL     OW18121   2.230   0.450   2.707 -0.3081 -0.8914 -0.2660
 2162SOL    HW118122   2.203   0.387   2.775 -0.7510 -0.4337 -0.0152
 2162SOL    HW218123   2.280   0.516   2.755 -2.9717 -0.8690  2.5255
 2163SOL     OW18124   4.109   2.626   8.198  0.1772  0.4672  0.2166
 2163SOL    HW118125   4.095   2.532   8.210 -2.2524  1.0972  2.2484
 2163SOL    HW218126   4.172   2.646   8.267  0.8749  0.3593 -0.3875
 2164SOL     OW18127   2.008   3.988  17.038 -0.0884  0.1015 -0.4861
 2164SOL    HW118128   2.080   4.005  16.978  0.3372 -1.0440 -0.2924
 2164SOL    HW218129   1.941   4.047  17.002 -1.0621 -0.5214  0.2825
 2165SOL     OW18130   2.946   2.511   3.363  0.6016  0.0446 -0.1715
 2165SOL    HW118131   2.943   2.515   3.459 -0.0899 -1.0360 -0.1418
 2165SOL    HW218132   3.038   2.502   3.338  0.6582  0.7102 -0.1947
 2166SOL     OW18133   2.923   1.600   6.908  0.1269 -0.5691 -0.4503
 2166SOL    HW118134   2.940   1.694   6.905 -4.1614  0.2596  0.2679
 2166SOL    HW218135   2.841   1.620   6.953 -0.7745  0.4623 -2.5924
 2167SOL     OW18136   2.185   0.299  10.495  0.3054 -0.5494 -0.5165
 2167SOL    HW118137   2.130   0.228  10.461 -0.6835  0.6089 -1.3682
 2167SOL    HW218138   2.124   0.345  10.554 -0.4905 -1.5779 -0.5256
 2168SOL     OW18139   4.285   4.070   3.382  0.0863 -0.3115 -0.1382
 2168SOL    HW118140   4.344   4.061   3.307 -1.2498  0.8188 -1.3245
 2168SOL    HW218141   4.323   4.136   3.439  0.8493 -2.1851  1.5397
 2169SOL     OW18142   0.184   4.362   3.399 -0.0539  0.1817  0.1240
 2169SOL    HW118143   0.233   4.308   3.337 -0.1525 -0.7063  0.8206
 2169SOL    HW218144   0.138   4.423   3.342  1.9864  0.7442 -0.9244
 2170SOL     OW18145   3.098   4.236  14.645  0.3140 -0.1917  0.1963
 2170SOL    HW118146   3.144   4.270  14.569 -1.3487 -0.1963 -0.8272
 2170SOL    HW218147   3.017   4.283  14.626 -0.3787 -1.3357  0.3034
 2171SOL     OW18148   4.606   3.396   8.358  0.2154 -0.0464  0.2334
 2171SOL    HW118149   4.697   3.426   8.363 -0.2811  1.7842 -2.0520
 2171SOL    HW218150   4.596   3.364   8.269 -0.2045 -0.6018  0.4820
 2172SOL     OW18151   2.253   0.365   6.375 -0.2751 -0.5747 -0.4575
 2172SOL    HW118152   2.249   0.454   6.339  0.6714 -0.1525  0.4913
 2172SOL    HW218153   2.344   0.372   6.404 -0.1440 -0.1834 -0.9452
 2173SOL     OW18154   3.946   4.056   2.850  0.0379 -0.3999  0.4529
 2173SOL    HW118155   3.988   4.129   2.804  0.5439 -0.9199  0.1014
 2173SOL    HW218156   3.861   4.063   2.807 -0.1851  0.3706  1.0076
 2174SOL     OW18157   1.871   3.791   0.414 -0.6191  0.6918  0.7483
 2174SOL    HW118158   1.965   3.787   0.430 -0.2596 -1.5982 -1.8347
 2174SOL    HW218159   1.841   3.702   0.393  1.5992  0.3271 -0.8557
 2175SOL     OW18160   1.425   0.993   5.072  0.3066 -0.6248 -0.0584
 2175SOL    HW118161   1.492   1.054   5.041  0.6523 -0.9999 -0.0539
 2175SOL    HW218162   1.364   0.990   4.998  0.5149 -3.0359 -0.1501
 2176SOL     OW18163   4.052   3.167   8.429  0.3015 -0.4835 -0.8850
 2176SOL    HW118164   4.013   3.246   8.392  0.1777  0.1939  0.7073
 2176SOL    HW218165   4.123   3.151   8.367 -0.1337 -1.2862 -1.1838
 2177SOL     OW18166   0.571   0.241  11.949 -0.5242  0.0429 -0.0663
 2177SOL    HW118167   0.655   0.225  11.991  0.0185  0.7506 -0.8949
 2177SOL    HW218168   0.578   0.336  11.937  0.5419 -0.5067 -3.7903
 2178SOL     OW18169   3.782   4.118  12.112 -0.0666  0.8526 -0.1670
 2178SOL    HW118170   3.766   4.023  12.107  0.1809  0.7586  0.8086
 2178SOL    HW218171   3.865   4.130  12.158  0.2101 -0.8323 -0.1954
 2179SOL     OW18172   4.587   0.962   0.632  0.0642 -0.3326  0.2677
 2179SOL    HW118173   4.521   0.902   0.668  0.2433 -1.0027 -0.5204
 2179SOL    HW218174   4.624   0.902   0.567  1.6079 -0.5521  1.3562
 2180SOL     OW18175   0.181   0.508   1.827 -0.0968 -0.0527  0.5534
 2180SOL    HW118176   0.117   0.570   1.790 -1.4226 -1.8991 -0.2272
 2180SOL    HW218177   0.257   0.566   1.815 -0.7862  0.5826 -0.7613
 2181SOL     OW18178   1.862   2.926  16.529 -0.2645 -0.2857  0.3697
 2181SOL    HW118179   1.920   2.951  16.601  1.2766 -1.3288 -0.5172
 2181SOL    HW218180   1.789   2.986  16.542 -1.4386 -1.5414 -0.3519
 2182SOL     OW18181   4.722   0.232   7.374  0.0057  0.3209  0.0141
 2182SOL    HW118182   4.642   0.235   7.425  0.8048 -0.5133  1.3315
 2182SOL    HW218183   4.688   0.230   7.285 -0.2492  0.9394  0.1033
 2183SOL     OW18184   0.366   3.181  13.960 -0.3446  0.1248 -0.0442
 2183SOL    HW118185   0.387   3.167  13.868  1.2650  0.7150  0.2328
 2183SOL    HW218186   0.449   3.167  14.005  0.2547  0.6045 -1.0123
 2184SOL     OW18187   1.996   4.687  16.494 -0.1415  0.3162 -0.4876
 2184SOL    HW118188   2.077   4.679  16.545  1.4569  0.3163 -3.0032
 2184SOL    HW218189   2.012   0.034  16.446  0.9639 -0.5756 -1.6308
 2185SOL     OW18190   3.335   3.734   2.102 -0.1548 -0.6279 -0.0751
 2185SOL    HW118191   3.387   3.814   2.090 -1.6641  0.2093 -1.1929
 2185SOL    HW218192   3.295   3.764   2.183  0.2711  2.2093 -0.8814
 2186SOL     OW18193   4.592   2.625   8.792  0.2756 -0.3947  0.0763
 2186SOL    HW118194   4.565   2.560   8.857 -0.0371  0.1846  0.5312
 2186SOL    HW218195   4.660   2.582   8.741  0.8526 -0.2399  0.7154
 2187SOL     OW18196   2.528   1.462   7.182  0.0406 -1.0789 -0.6267
 2187SOL    HW118197   2.459   1.522   7.209  0.8997  0.4339 -1.8139
 2187SOL    HW218198   2.566   1.441   7.267  0.3726  1.5267 -0.1417
 2188SOL     OW18199   2.436   3.501   6.933  0.3110  0.0549  0.4905
 2188SOL    HW118200   2.515   3.462   6.894  1.1658  1.2213  1.0627
 2188SOL    HW218201   2.461   3.586   6.969 -0.5742  0.5441 -0.0276
 2189SOL     OW18202   2.080   4.728   9.085 -0.5313  0.0638  0.4364
 2189SOL    HW118203   1.987   4.704   9.085 -0.1474 -1.4462 -2.5562
 2189SOL    HW218204   2.112   4.650   9.130 -1.8830  0.6793  2.4373
 2190SOL     OW18205   0.738   4.446  15.793 -0.0320 -0.0188  0.4510
 2190SOL    HW118206   0.755   4.506  15.721 -0.1569 -0.2945  0.1943
 2190SOL    HW218207   0.819   4.443  15.844  1.2615 -0.1560 -1.6364
 2191SOL     OW18208   2.521   3.171   5.469  0.1176 -0.4700  0.2549
 2191SOL    HW118209   2.486   3.180   5.380  1.6914  3.8155  0.0650
 2191SOL    HW218210   2.440   3.155   5.519 -0.8333 -0.6088 -1.3338
 2192SOL     OW18211   3.258   0.191   2.166 -0.5582  0.1776  0.2449
 2192SOL    HW118212   3.344   0.149   2.169  0.0380  1.4575  0.8833
 2192SOL    HW218213   3.204   0.127   2.212 -0.3734  0.2081  0.5103
 2193SOL     OW18214   0.006   2.948   8.116 -0.0457 -0.4547 -0.0422
 2193SOL    HW118215   0.019   2.918   8.206 -0.8280  1.0517  0.5673
 2193SOL    HW218216   0.091   2.958   8.074 -0.4432 -1.6071 -1.1348
 2194SOL     OW18217   1.199   0.858  15.785 -0.2787 -0.0837 -0.9333
 2194SOL    HW118218   1.213   0.952  15.795  0.9997 -0.3724  0.0210
 2194SOL    HW218219   1.156   0.844  15.869  2.4377  0.8035  0.6259
 2195SOL     OW18220   2.128   2.265   5.186  0.3435  0.0702  0.9070
 2195SOL    HW118221   2.104   2.306   5.269 -1.1632  0.8116  0.0840
 2195SOL    HW218222   2.224   2.262   5.188  0.3485  1.8679  3.4464
 2196SOL     OW18223   1.309   1.564   2.394 -0.2595  0.0771  0.4939
 2196SOL    HW118224   1.372   1.573   2.323  0.3891 -0.3745  1.0254
 2196SOL    HW218225   1.257   1.491   2.360 -0.2263  0.6140 -0.7007
 2197SOL     OW18226   0.126   4.041   7.454  0.0944 -0.0256  0.2816
 2197SOL    HW118227   0.167   3.973   7.507 -2.6422 -1.5734  0.4179
 2197SOL    HW218228   0.034   4.047   7.479 -0.1763  0.3243 -0.7892
 2198SOL     OW18229   1.759   2.734   3.541  0.1688  0.0846 -0.2562
 2198SOL    HW118230   1.737   2.709   3.630 -0.5720  1.1901 -0.1284
 2198SOL    HW218231   1.838   2.681   3.532 -1.5857 -2.0755 -2.8597
 2199SOL     OW18232   0.919   4.643   8.663 -0.1112  0.2616 -0.2202
 2199SOL    HW118233   0.936   4.683   8.748  1.1577  2.0013 -1.3060
 2199SOL    HW218234   0.856   4.702   8.623  0.9256  0.9467 -0.8250
 2200SOL     OW18235   4.046   1.272  14.356  0.3078  0.2420  0.2463
 2200SOL    HW118236   3.986   1.344  14.336  0.2069 -0.4786 -2.0635
 2200SOL    HW218237   4.066   1.246  14.266  0.6841  1.3463  0.0050
 2201SOL     OW18238   4.085   4.138   4.232  0.0490 -0.0661 -0.2987
 2201SOL    HW118239   4.036   4.061   4.258 -1.2261  0.9714  0.3902
 2201SOL    HW218240   4.164   4.100   4.195  1.1461  1.8351  0.0647
 2202SOL     OW18241   2.993   3.701   8.089  0.1753  0.0817 -0.7611
 2202SOL    HW118242   2.909   3.698   8.136  0.5842 -0.2837 -0.0521
 2202SOL    HW218243   2.971   3.770   8.026  0.7388 -0.2359 -1.2898
 2203SOL     OW18244   1.041   0.400   7.471 -0.0626  0.1410  0.1206
 2203SOL    HW118245   1.058   0.319   7.423  4.9380 -0.0123  2.1213
 2203SOL    HW218246   1.090   0.455   7.410 -1.0140  0.9369  0.0658
 2204SOL     OW18247   0.057   3.431  12.058  0.3979 -0.6055 -1.3726
 2204SOL    HW118248   4.727   3.395  11.999  1.0501 -2.7937 -0.7637
 2204SOL    HW218249   0.061   3.363  12.126  1.6001 -0.1366 -0.9588
 2205SOL     OW18250   1.327   0.512   4.476  0.5819  0.9104 -0.1897
 2205SOL    HW118251   1.257   0.447   4.465  0.2588  1.6670 -2.5805
 2205SOL    HW218252   1.395   0.456   4.438  0.2285  0.2407  0.1671
 2206SOL     OW18253   4.412   2.139   7.447  0.0099 -0.3236 -0.0185
 2206SOL    HW118254   4.366   2.198   7.506  1.9106 -0.8037  1.9317
 2206SOL    HW218255   4.495   2.181   7.425  0.2084 -0.0476  1.3039
 2207SOL     OW18256   3.173   3.657  10.474 -0.0319 -0.0284 -0.1276
 2207SOL    HW118257   3.262   3.674  10.443 -0.3192 -0.7800 -1.3482
 2207SOL    HW218258   3.177   3.622  10.563 -1.7398  0.3873  0.1045
 2208SOL     OW18259   1.801   4.367  17.719  0.2460  0.2900 -0.0795
 2208SOL    HW118260   1.774   4.388   0.070  1.5983  1.3252  0.0741
 2208SOL    HW218261   1.833   4.277  17.725 -0.4099 -0.0941 -2.3175
 2209SOL     OW18262   2.752   3.144   8.510 -0.5335 -0.0203 -0.2796
 2209SOL    HW118263   2.763   3.150   8.415 -0.4101 -1.0125 -0.3316
 2209SOL    HW218264   2.827   3.087   8.526  0.7594  1.6884 -0.2508
 2210SOL     OW18265   3.288   2.436   4.699 -0.2602 -0.0525  0.4931
 2210SOL    HW118266   3.320   2.425   4.788 -3.5363  0.4248  1.7362
 2210SOL    HW218267   3.294   2.344   4.673  1.7771  0.4573 -0.8436
 2211SOL     OW18268   1.699   0.982  14.314 -0.7414  0.2117  0.2909
 2211SOL    HW118269   1.785   1.023  14.324 -1.3478  1.7778 -0.7934
 2211SOL    HW218270   1.649   1.043  14.259  0.5875  1.4146  0.4136
 2212SOL     OW18271   2.688   0.792   7.533 -0.0397 -0.1337  0.5245
 2212SOL    HW118272   2.646   0.789   7.447 -0.3942 -1.5004  0.7450
 2212SOL    HW218273   2.624   0.851   7.572 -0.0508  1.4989 -1.9130
 2213SOL     OW18274   2.509   2.816   3.785 -0.4043 -0.2659  0.2925
 2213SOL    HW118275   2.500   2.738   3.730  2.6530  0.0275 -0.6518
 2213SOL    HW218276   2.597   2.846   3.763 -0.0935 -0.4686  1.2410
 2214SOL     OW18277   1.693   3.365   8.998 -0.1900 -0.1261  0.4668
 2214SOL    HW118278   1.685   3.458   9.020  1.4999  0.1411 -0.0524
 2214SOL    HW218279   1.739   3.374   8.914 -0.5966 -0.0646  0.2474
 2215SOL     OW18280   1.704   4.379  14.004  0.5353 -0.1492 -0.3692
 2215SOL    HW118281   1.666   4.368  13.917 -1.3900 -1.7301  0.6749
 2215SOL    HW218282   1.737   4.469  13.994 -1.4642  0.5287 -0.9378
 2216SOL     OW18283   4.148   2.653   2.214 -0.7709 -0.5489  0.3863
 2216SOL    HW118284   4.209   2.638   2.142  1.3952  1.5361  1.7855
 2216SOL    HW218285   4.119   2.744   2.210 -1.2534 -0.7763 -1.0747
 2217SOL     OW18286   1.942   3.641  12.027  0.1804  0.3820 -0.2392
 2217SOL    HW118287   1.925   3.673  12.116 -1.9483 -2.5114  0.4144
 2217SOL    HW218288   1.962   3.724  11.984 -1.8148  1.1069  0.2222
 2218SOL     OW18289   3.421   4.152   9.068  0.2565 -0.0033 -0.1137
 2218SOL    HW118290   3.489   4.211   9.035  0.0761 -0.0166 -0.5069
 2218SOL    HW218291   3.448   4.078   9.014 -0.6665 -2.1497  2.3740
 2219SOL     OW18292   3.099   0.249  12.429 -0.5267  0.0504  0.1775
 2219SOL    HW118293   3.015   0.207  12.447  0.3904 -2.4330 -1.2822
 2219SOL    HW218294   3.086   0.332  12.384 -0.2784 -1.3354 -2.4447
 2220SOL     OW18295   4.001   2.522   6.509 -0.0681 -0.2073 -0.0917
 2220SOL    HW118296   3.911   2.545   6.534 -0.3378  0.8418 -1.9667
 2220SOL    HW218297   4.033   2.554   6.593  1.8682 -0.9754 -0.5377
 2221SOL     OW18298   4.393   2.539   6.621 -0.2390 -0.6077  0.4016
 2221SOL    HW118299   4.373   2.523   6.529  1.5800  2.6553 -0.5445
 2221SOL    HW218300   4.304   2.568   6.642 -0.2175 -0.2031 -0.0817
 2222SOL     OW18301   3.132   1.156  14.980  0.0668  0.1930  0.3808
 2222SOL    HW118302   3.065   1.097  15.015  0.7244 -0.3571  0.7193
 2222SOL    HW218303   3.082   1.185  14.904 -0.4338 -1.5183  0.0670
 2223SOL     OW18304   0.179   3.334  14.715 -0.0972 -0.2892 -0.5897
 2223SOL    HW118305   0.162   3.265  14.779  1.1344 -0.4669 -0.4632
 2223SOL    HW218306   0.203   3.284  14.637 -0.5125 -0.4411 -0.6219
 2224SOL     OW18307   1.925   3.628   2.923 -0.0080  0.3403  0.1555
 2224SOL    HW118308   1.934   3.613   3.017 -2.2043 -2.4598 -0.0490
 2224SOL    HW218309   2.016   3.613   2.898 -0.3359 -2.2762  0.4804
 2225SOL     OW18310   2.009   2.435  13.839 -0.0001 -0.0576  1.0019
 2225SOL    HW118311   2.064   2.475  13.907 -1.2035  2.3675  0.5617
 2225SOL    HW218312   2.034   2.343  13.851 -0.8568 -0.4364 -0.2071
 2226SOL     OW18313   0.016   2.498   5.436 -0.2971  0.0002 -0.5389
 2226SOL    HW118314   0.039   2.527   5.524 -0.7524 -0.5288 -0.2474
 2226SOL    HW218315   0.100   2.459   5.412 -0.2303 -1.1347  1.5758
 2227SOL     OW18316   0.986   3.725   3.442 -0.5370 -0.2180  0.6664
 2227SOL    HW118317   0.967   3.693   3.530 -0.1246 -1.2761  0.3726
 2227SOL    HW218318   0.928   3.667   3.393 -0.1376  0.8051 -1.0383
 2228SOL     OW18319   1.374   2.971   5.239  0.0522 -0.0112 -0.4723
 2228SOL    HW118320   1.368   2.993   5.332 -2.1096  1.2041 -0.9041
 2228SOL    HW218321   1.281   2.964   5.217 -0.1238  0.0566  0.2665
 2229SOL     OW18322   3.711   4.522   0.130 -0.0798  0.9061 -0.1546
 2229SOL    HW118323   3.680   4.609   0.105 -0.1605  0.1566 -2.6437
 2229SOL    HW218324   3.795   4.543   0.172  0.6788  0.2316 -1.3265
 2230SOL     OW18325   1.950   2.315   0.975 -0.6010 -0.3473 -0.4504
 2230SOL    HW118326   1.963   2.315   1.070  0.0621 -0.9501 -0.5432
 2230SOL    HW218327   2.003   2.389   0.945 -0.3967  0.4800  1.8818
 2231SOL     OW18328   3.021   2.179   7.398  0.2243  0.0734  0.0926
 2231SOL    HW118329   3.011   2.083   7.398  0.9979  0.0067 -1.2536
 2231SOL    HW218330   2.968   2.211   7.471  2.2366 -0.2948  1.7251
 2232SOL     OW18331   2.758   3.076   0.220 -0.0365  0.4543  0.0031
 2232SOL    HW118332   2.765   2.980   0.222  0.3464  0.4497 -2.1657
 2232SOL    HW218333   2.844   3.100   0.252  0.0507  1.2258 -0.8123
 2233SOL     OW18334   0.772   0.862   7.196  0.1030  0.1986 -1.2959
 2233SOL    HW118335   0.816   0.792   7.244  2.7915  2.7515  0.0031
 2233SOL    HW218336   0.738   0.915   7.268  1.5189 -0.8892  0.1693
 2234SOL     OW18337   4.633   3.583   6.623  0.4221  0.5814  0.2023
 2234SOL    HW118338   4.688   3.557   6.549  0.6821  0.4633  0.4376
 2234SOL    HW218339   4.650   3.677   6.614 -2.1534  1.0936  0.6275
 2235SOL     OW18340   3.007   2.056   2.062  0.5639  0.0889 -0.2643
 2235SOL    HW118341   3.079   2.022   2.115 -0.6642  0.1753  1.4362
 2235SOL    HW218342   2.941   2.085   2.124  0.3895 -1.7151  0.3888
 2236SOL     OW18343   2.839   3.576  11.933 -0.0992 -0.4688  0.1261
 2236SOL    HW118344   2.915   3.633  11.925 -0.0481 -0.7055 -1.1863
 2236SOL    HW218345   2.881   3.497  11.968  2.8111  1.0213 -0.0221
 2237SOL     OW18346   0.215   4.701   6.769  0.0476 -0.2261  0.2150
 2237SOL    HW118347   0.298   0.010   6.753 -1.2110  1.5460 -1.3603
 2237SOL    HW218348   0.228   4.675   6.860  2.2307 -0.4548 -0.1772
 2238SOL     OW18349   1.735   1.849   7.111 -0.1840 -0.0123  0.1046
 2238SOL    HW118350   1.776   1.765   7.088 -0.3891 -0.5320  1.6166
 2238SOL    HW218351   1.653   1.817   7.150 -1.4741  1.3811 -1.4951
 2239SOL     OW18352   3.432   3.785   4.939  0.5499  0.1169 -0.2681
 2239SOL    HW118353   3.375   3.729   4.991  1.6618 -0.9766 -0.2392
 2239SOL    HW218354   3.374   3.861   4.941  2.2297  1.3917  0.0058
 2240SOL     OW18355   3.826   0.701  16.143  0.8514 -0.4307  0.4174
 2240SOL    HW118356   3.780   0.622  16.174  0.1351  0.4401  1.5597
 2240SOL    HW218357   3.852   0.740  16.226 -0.3256 -2.7613  1.9025
 2241SOL     OW18358   1.170   1.280  12.425 -0.6045  0.7177  0.0936
 2241SOL    HW118359   1.222   1.268  12.345 -2.9454  1.4031 -1.5235
 2241SOL    HW218360   1.238   1.270  12.492  0.0026  0.8334 -0.4959
 2242SOL     OW18361   0.244   4.336   6.720 -0.5823 -0.3845 -0.0098
 2242SOL    HW118362   0.197   4.400   6.667  1.3362  0.3339 -0.8442
 2242SOL    HW218363   0.171   4.274   6.719  0.1560 -1.3311  3.9279
 2243SOL     OW18364   1.305   2.371   3.483  0.3009 -0.3008 -0.3891
 2243SOL    HW118365   1.222   2.338   3.516 -0.3681 -0.4000 -2.2034
 2243SOL    HW218366   1.276   2.444   3.429 -0.7744  0.3183  1.0292
 2244SOL     OW18367   0.387   1.149   4.880  0.2939 -0.1336 -0.4699
 2244SOL    HW118368   0.353   1.131   4.967  1.3780  1.7111  0.3335
 2244SOL    HW218369   0.392   1.065   4.835  2.2570  0.7385 -1.9091
 2245SOL     OW18370   0.546   1.848   9.513  0.0185  0.1274  0.4062
 2245SOL    HW118371   0.583   1.785   9.574  3.8667  2.4904  0.5131
 2245SOL    HW218372   0.452   1.832   9.522  0.4441 -1.8868  1.2184
 2246SOL     OW18373   0.376   2.700   1.873  0.0893  0.0025 -0.6672
 2246SOL    HW118374   0.438   2.770   1.895 -0.0107 -0.3553  0.7231
 2246SOL    HW218375   0.423   2.618   1.885 -0.5461 -0.5111 -1.6971
 2247SOL     OW18376   1.864   2.542   9.499  0.7019 -0.2345 -0.2802
 2247SOL    HW118377   1.886   2.471   9.438 -0.4369  1.4326 -2.6274
 2247SOL    HW218378   1.933   2.525   9.562 -0.9823 -2.4915  0.9390
 2248SOL     OW18379   3.369   1.614  10.120  0.0556 -0.5902  0.0277
 2248SOL    HW118380   3.349   1.637  10.029 -2.0958  1.4563  1.0206
 2248SOL    HW218381   3.418   1.532  10.114  0.4450 -0.0986 -3.6648
 2249SOL     OW18382   0.125   1.392   1.643 -0.8195 -0.3473  0.2711
 2249SOL    HW118383   0.176   1.341   1.707  2.1062  1.3697 -0.6877
 2249SOL    HW218384   0.194   1.414   1.580  0.0958 -1.6983  0.7916
 2250SOL     OW18385   1.308   3.734   7.086  0.2799 -0.1592 -0.0553
 2250SOL    HW118386   1.230   3.732   7.030  0.9903 -2.3898 -0.9755
 2250SOL    HW218387   1.350   3.651   7.065  0.0521 -0.4324  0.5835
 2251SOL     OW18388   2.181   2.399  12.459  0.0511 -0.8768 -0.3066
 2251SOL    HW118389   2.097   2.405  12.415  0.0260 -1.6440 -0.3679
 2251SOL    HW218390   2.231   2.471  12.422  0.3713  0.6012  2.9812
 2252SOL     OW18391   2.257   0.341   6.731  0.5716 -0.1656  0.4119
 2252SOL    HW118392   2.302   0.423   6.715 -2.6463  1.6638  0.7842
 2252SOL    HW218393   2.261   0.341   6.827 -0.2854 -2.3874  0.4531
 2253SOL     OW18394   2.591   1.476  10.232 -0.4600  0.1315 -0.1133
 2253SOL    HW118395   2.586   1.468  10.137 -1.6683  0.0408 -0.0401
 2253SOL    HW218396   2.572   1.569  10.247  1.5847  0.8007 -1.5720
 2254SOL     OW18397   1.199   4.143   1.262 -0.0253 -0.2850  0.2927
 2254SOL    HW118398   1.154   4.102   1.188  1.1505 -0.9149 -0.0630
 2254SOL    HW218399   1.282   4.096   1.262 -0.5239 -1.1653 -1.2594
 2255SOL     OW18400   2.899   0.786  14.182  0.1158 -0.3585 -0.0808
 2255SOL    HW118401   2.887   0.762  14.274 -0.4310 -2.7422 -0.7762
 2255SOL    HW218402   2.942   0.704  14.156  0.0952 -0.2230 -0.5355
 2256SOL     OW18403   1.690   3.722  10.219 -0.1893  0.0682  0.8678
 2256SOL    HW118404   1.743   3.645  10.237 -0.3275 -0.5269 -1.2243
 2256SOL    HW218405   1.665   3.695  10.130 -1.2699  1.4220  0.7555
 2257SOL     OW18406   3.890   3.145   6.304  0.4664  0.4197  0.6309
 2257SOL    HW118407   3.798   3.125   6.293  0.5702 -0.4436  1.3809
 2257SOL    HW218408   3.893   3.214   6.371 -1.1099 -0.7313  1.8815
 2258SOL     OW18409   2.190   4.155   3.542 -0.7425  0.0442 -0.3221
 2258SOL    HW118410   2.098   4.163   3.565 -0.6324 -0.5607  0.3319
 2258SOL    HW218411   2.184   4.197   3.457 -1.5914 -0.7170 -0.6280
 2259SOL     OW18412   0.813   3.284   1.982 -0.3770 -0.0847 -0.3636
 2259SOL    HW118413   0.724   3.248   1.982 -0.5876  0.4678  2.8257
 2259SOL    HW218414   0.837   3.286   2.074  1.7380  1.3317 -0.9373
 2260SOL     OW18415   0.106   0.903  14.578  0.1124 -0.4177  0.2302
 2260SOL    HW118416   0.195   0.921  14.607  0.0023 -1.4084  1.2080
 2260SOL    HW218417   0.094   0.987  14.535 -0.6404 -0.7871 -0.2810
 2261SOL     OW18418   4.151   2.546   5.430  0.1445 -0.0522 -0.3056
 2261SOL    HW118419   4.192   2.475   5.380 -2.6928  0.0773 -2.7905
 2261SOL    HW218420   4.179   2.512   5.516 -2.5656 -1.0356  0.1764
 2262SOL     OW18421   1.379   4.563  15.445 -0.0096  0.4380 -0.5499
 2262SOL    HW118422   1.328   4.543  15.524 -0.3119  0.7264 -0.6712
 2262SOL    HW218423   1.443   4.629  15.472  0.4155 -0.0777 -0.2919
 2263SOL     OW18424   1.923   2.084   7.085 -0.2566  0.0209  0.2196
 2263SOL    HW118425   1.892   2.148   7.148  3.7729  1.2048  1.0300
 2263SOL    HW218426   1.845   2.029   7.084 -0.8145  0.8248 -0.4030
 2264SOL     OW18427   2.372   3.571  15.630 -0.5311 -0.5495  0.5988
 2264SOL    HW118428   2.352   3.491  15.581  1.7265  0.0603 -1.2985
 2264SOL    HW218429   2.321   3.552  15.709 -1.8348 -2.0318 -0.5943
 2265SOL     OW18430   3.391   3.370   6.340 -0.1002 -0.3742 -0.2466
 2265SOL    HW118431   3.318   3.309   6.329 -0.6596  0.0453  1.0861
 2265SOL    HW218432   3.448   3.359   6.265 -2.4858  1.0336 -2.2788
 2266SOL     OW18433   3.240   0.259  12.747  0.4856 -0.4841  0.6022
 2266SOL    HW118434   3.207   0.330  12.692 -0.5334 -0.8078  0.8003
 2266SOL    HW218435   3.332   0.281  12.759 -0.2468  3.6882 -1.6311
 2267SOL     OW18436   0.158   1.772   8.659  0.3838  0.1112 -0.0964
 2267SOL    HW118437   0.152   1.689   8.706  0.1497 -0.5084 -1.2391
 2267SOL    HW218438   0.247   1.798   8.683  0.1586 -0.5728  1.4797
 2268SOL     OW18439   0.811   2.244   9.795 -0.1286 -0.0748 -0.1091
 2268SOL    HW118440   0.802   2.339   9.799 -0.3308 -0.1047  0.1168
 2268SOL    HW218441   0.883   2.240   9.732 -1.5672 -0.7118 -1.7304
 2269SOL     OW18442   4.601   1.854  15.417  0.1841 -0.1021 -0.4355
 2269SOL    HW118443   4.605   1.901  15.333 -1.9954  1.3168  0.2559
 2269SOL    HW218444   4.691   1.830  15.440 -0.4533  0.4969  2.5899
 2270SOL     OW18445   1.896   2.244  14.455 -0.2221  0.2509  0.8319
 2270SOL    HW118446   1.824   2.202  14.408 -1.4240  0.4333  2.4782
 2270SOL    HW218447   1.926   2.311  14.395  1.1516  0.2960  1.5732
 2271SOL     OW18448   1.953   2.273   4.299 -0.1065 -0.2799  0.5898
 2271SOL    HW118449   2.009   2.342   4.263 -1.9877  2.0397  2.1267
 2271SOL    HW218450   1.904   2.324   4.363 -0.5076 -0.0990  0.1379
 2272SOL     OW18451   4.643   2.003   7.131 -0.1528 -0.3741 -0.7980
 2272SOL    HW118452   4.727   2.006   7.178  0.3372  1.4658 -1.8227
 2272SOL    HW218453   4.636   1.916   7.091  1.6811 -1.0069  0.2433
 2273SOL     OW18454   3.532   2.656   5.394 -0.2491 -0.3122  0.1438
 2273SOL    HW118455   3.585   2.734   5.376 -3.8517  2.1110  0.1711
 2273SOL    HW218456   3.507   2.674   5.485 -1.6199  0.5355 -0.4033
 2274SOL     OW18457   3.506   2.297   7.059 -0.0253  0.1824  0.2833
 2274SOL    HW118458   3.596   2.325   7.042 -0.1437  0.5231  0.2161
 2274SOL    HW218459   3.462   2.322   6.977 -0.8263 -0.0989  0.6311
 2275SOL     OW18460   1.577   1.603   9.886  0.5237  0.2878 -0.3394
 2275SOL    HW118461   1.643   1.671   9.897  0.1822  0.3276  1.4789
 2275SOL    HW218462   1.633   1.540   9.841  0.6374  0.2509 -0.1455
 2276SOL     OW18463   1.705   3.998   7.670  0.3541  0.1971 -0.1394
 2276SOL    HW118464   1.637   4.037   7.725 -0.2802 -1.2179  0.0706
 2276SOL    HW218465   1.768   3.989   7.742 -0.6856  1.1626  0.8883
 2277SOL     OW18466   2.548   3.970   2.103  0.6701 -0.2003 -0.6448
 2277SOL    HW118467   2.638   3.968   2.071  0.4563 -1.5454 -1.1711
 2277SOL    HW218468   2.552   4.063   2.124 -0.4928  0.0652 -1.5850
 2278SOL     OW18469   2.673   3.022   7.818  0.4081  0.1311 -0.7675
 2278SOL    HW118470   2.613   3.092   7.846 -1.0860 -2.0263  1.4097
 2278SOL    HW218471   2.753   3.052   7.862 -0.9356  0.1193  1.7367
 2279SOL     OW18472   1.498   3.490   7.229  0.0968  0.1540  0.2609
 2279SOL    HW118473   1.435   3.457   7.294 -0.2023  0.6284  0.2153
 2279SOL    HW218474   1.533   3.565   7.278 -1.1532  1.3902 -0.7514
 2280SOL     OW18475   0.189   2.648   8.822 -0.3261  0.2764  0.0738
 2280SOL    HW118476   0.116   2.608   8.870  1.0791 -0.8962  1.2417
 2280SOL    HW218477   0.150   2.714   8.765 -0.1050  0.1365 -0.2429
 2281SOL     OW18478   0.029   2.524   7.362  0.4868  0.3050  0.3856
 2281SOL    HW118479   4.726   2.610   7.379 -0.5599 -0.7599  3.2890
 2281SOL    HW218480   0.054   2.535   7.270  0.6309  0.8311  0.4856
 2282SOL     OW18481   3.980   1.831  11.515  0.2300  0.8037 -0.1233
 2282SOL    HW118482   3.974   1.798  11.605 -1.7934  2.0799  0.1961
 2282SOL    HW218483   3.901   1.884  11.518 -0.2543  0.2233 -3.8020
 2283SOL     OW18484   1.393   4.368   3.398  0.0358 -0.3685  0.2785
 2283SOL    HW118485   1.429   4.326   3.320 -0.9898 -0.3733 -0.1841
 2283SOL    HW218486   1.480   4.398   3.425  1.4325 -3.9459 -0.2225
 2284SOL     OW18487   0.714   2.164   7.930  0.5335  0.0220  0.1288
 2284SOL    HW118488   0.621   2.141   7.933  0.6650 -0.3176  1.7934
 2284SOL    HW218489   0.738   2.118   7.850 -0.2057  0.1190 -0.1454
 2285SOL     OW18490   0.495   2.775   3.195 -0.0511  0.2481 -0.1478
 2285SOL    HW118491   0.527   2.812   3.277  0.5369  1.0577 -0.7448
 2285SOL    HW218492   0.468   2.856   3.151 -0.7027  0.4477  0.6127
 2286SOL     OW18493   3.590   2.091   6.367 -0.3999 -0.2755 -0.3111
 2286SOL    HW118494   3.675   2.052   6.347 -0.1850 -0.8629  1.8590
 2286SOL    HW218495   3.601   2.114   6.459  0.3642 -1.6206 -0.0688
 2287SOL     OW18496   3.674   3.134   3.653 -0.5120  0.3047 -0.3809
 2287SOL    HW118497   3.626   3.104   3.576 -2.1816 -1.8308  1.4671
 2287SOL    HW218498   3.604   3.108   3.714  0.8873  0.8711  1.4847
 2288SOL     OW18499   0.337   3.856   8.136 -0.4311 -0.1082  0.0903
 2288SOL    HW118500   0.338   3.770   8.179 -1.1490  0.3322  0.9716
 2288SOL    HW218501   0.423   3.838   8.097 -0.4349  0.2535 -0.0848
 2289SOL     OW18502   3.201   3.830  17.011 -0.2592 -0.2524  0.4555
 2289SOL    HW118503   3.241   3.817  16.925  0.2530  3.7538  0.0909
 2289SOL    HW218504   3.213   3.740  17.041  0.8539 -0.8557 -1.8171
 2290SOL     OW18505   2.547   1.032   7.601 -0.1963  0.3006  0.3568
 2290SOL    HW118506   2.465   1.081   7.598  0.2550  0.9973 -0.5849
 2290SOL    HW218507   2.613   1.089   7.561 -0.3011  1.5956  2.0067
 2291SOL     OW18508   0.191   1.857  14.204 -0.2850  0.3778  0.3019
 2291SOL    HW118509   0.103   1.842  14.168  0.2505 -1.2494 -0.2979
 2291SOL    HW218510   0.247   1.827  14.134  1.4502 -0.2191  1.9447
 2292SOL     OW18511   3.436   1.628  10.825 -0.0041  0.1169 -0.3275
 2292SOL    HW118512   3.468   1.544  10.860  0.5134  0.5351  0.1966
 2292SOL    HW218513   3.479   1.636  10.740  0.0931 -0.8375 -0.3736
 2293SOL     OW18514   3.917   0.740   5.500  0.1216  0.2616  0.7271
 2293SOL    HW118515   3.849   0.673   5.491  0.3875  0.0679  0.1489
 2293SOL    HW218516   3.995   0.693   5.469 -1.0907 -1.5176  0.3745
 2294SOL     OW18517   3.199   4.346   4.529 -0.6376  0.2072 -0.4503
 2294SOL    HW118518   3.197   4.441   4.522  0.2807  0.1957 -0.9064
 2294SOL    HW218519   3.113   4.330   4.568 -0.6391 -0.8686 -0.9020
 2295SOL     OW18520   2.410   2.902   1.544 -0.0367 -0.2816 -0.3156
 2295SOL    HW118521   2.462   2.854   1.609  1.3556  0.2180 -1.0567
 2295SOL    HW218522   2.468   2.891   1.469  0.1201 -0.5066 -0.1614
 2296SOL     OW18523   0.309   2.894   1.673 -0.2807  0.2094  0.1380
 2296SOL    HW118524   0.314   2.834   1.748 -2.4157 -1.2347 -0.8832
 2296SOL    HW218525   0.400   2.902   1.643  0.0646 -2.1370  0.5348
 2297SOL     OW18526   1.666   1.933  16.782  0.2765  0.0789 -0.4257
 2297SOL    HW118527   1.750   1.972  16.808 -1.0046  2.7094 -0.1528
 2297SOL    HW218528   1.692   1.842  16.773  0.9783  0.2608 -0.2980
 2298SOL     OW18529   0.315   1.386   2.915 -0.5932  0.6364 -0.0601
 2298SOL    HW118530   0.228   1.412   2.948 -1.7368 -0.3186 -2.3675
 2298SOL    HW218531   0.374   1.413   2.986  2.0711  1.4564 -2.5762
 2299SOL     OW18532   2.221   2.444   2.698 -1.2131  0.5149 -0.2021
 2299SOL    HW118533   2.163   2.431   2.773  1.2202 -0.4790  1.5293
 2299SOL    HW218534   2.183   2.380   2.638 -1.2432 -1.2229  1.6410
 2300SOL     OW18535   1.896   2.289  10.568 -0.0826 -0.2727 -0.1741
 2300SOL    HW118536   1.900   2.219  10.503  2.6855  1.3363 -1.7298
 2300SOL    HW218537   1.868   2.254  10.652 -1.9996 -0.0182 -0.6979
 2301SOL     OW18538   1.346   4.505   7.814  0.1819 -0.6837 -0.3912
 2301SOL    HW118539   1.335   4.590   7.770 -0.0794 -0.2625  0.4816
 2301SOL    HW218540   1.268   4.459   7.786  0.7762 -2.7005  1.3636
 2302SOL     OW18541   0.650   0.460  12.482  0.2196 -0.4895 -0.1824
 2302SOL    HW118542   0.635   0.553  12.465  1.1990 -0.4233 -0.6836
 2302SOL    HW218543   0.622   0.454  12.573 -1.1178  0.1783 -0.5611
 2303SOL     OW18544   0.945   4.671  13.399 -0.3492  0.1456 -0.3599
 2303SOL    HW118545   0.959   0.010  13.341  2.1146 -0.9755 -1.1898
 2303SOL    HW218546   0.953   4.597  13.338  0.3097  1.0165 -1.3135
 2304SOL     OW18547   0.841   2.040   9.488  0.0696 -0.5169 -0.0222
 2304SOL    HW118548   0.880   2.000   9.410  2.9633 -2.1438  2.2068
 2304SOL    HW218549   0.864   1.969   9.548 -0.4082  0.5036  1.3525
 2305SOL     OW18550   4.217   2.388   5.637  0.1396 -0.2434 -0.3505
 2305SOL    HW118551   4.192   2.303   5.674  0.8705  0.3205  1.4224
 2305SOL    HW218552   4.312   2.378   5.631  0.1313  0.7209 -2.0895
 2306SOL     OW18553   0.363   4.627   3.994  0.0794 -0.1030  0.2326
 2306SOL    HW118554   0.315   4.609   4.074 -0.0260  1.6850  0.5520
 2306SOL    HW218555   0.328   4.558   3.937  1.7402 -0.3997 -0.4402
 2307SOL     OW18556   4.507   1.058  11.076  0.0640  0.1739 -0.6856
 2307SOL    HW118557   4.542   1.003  11.006 -0.2456 -1.7444  0.6692
 2307SOL    HW218558   4.449   0.990  11.110 -0.2447  0.2993 -0.9663
 2308SOL     OW18559   4.539   0.792   7.390  0.4732 -0.1460  0.7601
 2308SOL    HW118560   4.481   0.718   7.403  2.9550 -2.4139 -1.1675
 2308SOL    HW218561   4.625   0.751   7.383  0.2894 -0.7007  1.7558
 2309SOL     OW18562   1.219   3.107   4.691  0.5565 -0.7764 -0.1285
 2309SOL    HW118563   1.310   3.078   4.698  0.1463 -2.3475 -1.4413
 2309SOL    HW218564   1.225   3.157   4.610  1.0985  1.2741  1.1579
 2310SOL     OW18565   2.770   3.701   6.432  0.2237 -0.3951 -0.4490
 2310SOL    HW118566   2.836   3.750   6.481 -0.3680  1.6201 -1.6947
 2310SOL    HW218567   2.700   3.767   6.428  0.4894 -0.0366  0.7800
 2311SOL     OW18568   2.294   3.527  17.240 -0.4361 -0.2808  0.2547
 2311SOL    HW118569   2.247   3.606  17.211  1.1714  0.2790 -0.8045
 2311SOL    HW218570   2.334   3.497  17.158  1.1311  1.9588  0.2008
 2312SOL     OW18571   3.356   3.342  13.477 -0.2335 -0.2529  0.4559
 2312SOL    HW118572   3.323   3.263  13.433  0.9599 -0.5688  0.1393
 2312SOL    HW218573   3.449   3.324  13.488 -0.2181 -1.6338 -1.8415
 2313SOL     OW18574   2.245   1.505   2.012  0.2689 -0.0487 -0.1050
 2313SOL    HW118575   2.155   1.518   2.041 -0.4375 -0.5891 -2.0786
 2313SOL    HW218576   2.233   1.490   1.918 -0.6295  0.4308 -0.0599
 2314SOL     OW18577   0.897   0.499   6.815  0.2649 -0.3878  0.1854
 2314SOL    HW118578   0.968   0.504   6.880 -1.2983 -1.8270  2.0252
 2314SOL    HW218579   0.928   0.416   6.779 -1.4675 -0.3268 -1.4302
 2315SOL     OW18580   3.109   0.056   5.556  0.6441 -0.4552  0.1607
 2315SOL    HW118581   3.138   4.710   5.596  0.0915 -0.4132  0.6456
 2315SOL    HW218582   3.183   0.115   5.570 -0.4634  1.1750 -0.8107
 2316SOL     OW18583   4.103   0.265   4.248  0.3692  0.3942 -0.3228
 2316SOL    HW118584   4.114   0.229   4.160 -0.4978 -1.3833  0.2895
 2316SOL    HW218585   4.026   0.223   4.285 -0.4756  1.9063 -0.3842
 2317SOL     OW18586   1.438   4.531   0.776 -0.2887 -0.5851 -0.0451
 2317SOL    HW118587   1.349   4.516   0.744 -0.7131  1.6757  0.1091
 2317SOL    HW218588   1.414   4.552   0.866  0.8970  0.5788  0.0055
 2318SOL     OW18589   0.692   3.709   2.517  0.0858 -0.0766 -0.1719
 2318SOL    HW118590   0.717   3.800   2.504  0.9164 -0.5116 -1.5946
 2318SOL    HW218591   0.599   3.710   2.496 -0.7174 -1.0707  3.3595
 2319SOL     OW18592   2.478   2.642   4.951  0.5467  0.3038  0.0284
 2319SOL    HW118593   2.509   2.606   5.034  0.3085  3.9803  1.7636
 2319SOL    HW218594   2.439   2.565   4.911  0.5801  1.4090 -2.1585
 2320SOL     OW18595   1.885   3.605   3.433  0.7802 -0.0678  0.0634
 2320SOL    HW118596   1.844   3.633   3.515 -1.4962  0.5107 -1.2559
 2320SOL    HW218597   1.932   3.539   3.483  0.0367  0.3171  1.2665
 2321SOL     OW18598   3.977   1.983   8.762 -0.3951  0.5775  0.4859
 2321SOL    HW118599   3.937   2.015   8.842 -1.6894  1.3558 -0.4607
 2321SOL    HW218600   4.066   2.014   8.778 -0.5315  0.3535  1.6546
 2322SOL     OW18601   4.142   2.719   5.007 -0.4052 -0.6344  0.5244
 2322SOL    HW118602   4.054   2.682   5.006  0.8745 -3.6583 -1.0659
 2322SOL    HW218603   4.193   2.666   5.068  2.7627 -0.4167 -1.9116
 2323SOL     OW18604   2.697   1.230   6.444  1.1933  0.7496  0.0800
 2323SOL    HW118605   2.674   1.308   6.392 -0.0303 -0.1531 -0.7527
 2323SOL    HW218606   2.652   1.267   6.520 -0.7530 -1.1332 -0.1571
 2324SOL     OW18607   1.545   0.107  15.483  0.4813 -0.0787  0.0572
 2324SOL    HW118608   1.587   0.192  15.494  0.7155 -0.1852 -0.0151
 2324SOL    HW218609   1.613   0.052  15.444  1.2134  0.1977  0.9442
 2325SOL     OW18610   4.730   2.777  14.532 -0.3961  0.1686  0.5633
 2325SOL    HW118611   0.008   2.872  14.537  1.1850  0.0429 -1.5076
 2325SOL    HW218612   4.708   2.755  14.623  0.6665 -0.7076  0.5940
 2326SOL     OW18613   0.081   1.477   3.014  0.2789  0.1082  0.7375
 2326SOL    HW118614   0.051   1.528   3.090 -1.2566 -0.1124  0.2625
 2326SOL    HW218615   0.031   1.397   3.027 -0.7625  0.4221 -1.4446
 2327SOL     OW18616   4.474   1.424  16.398  0.6110 -0.1162 -0.2233
 2327SOL    HW118617   4.384   1.436  16.369 -0.2991 -1.6338  1.9777
 2327SOL    HW218618   4.512   1.512  16.401 -0.0495  0.1525  0.1201
 2328SOL     OW18619   2.975   3.052   9.174  0.1770 -0.2830  0.2987
 2328SOL    HW118620   3.011   3.139   9.158  0.4638  0.0624  2.8132
 2328SOL    HW218621   2.922   3.045   9.094  0.5028  0.0039  0.0584
 2329SOL     OW18622   1.384   1.181  15.473  0.3031 -0.3794 -0.7302
 2329SOL    HW118623   1.308   1.123  15.476 -0.6937  1.0434  1.2635
 2329SOL    HW218624   1.331   1.260  15.483 -1.3959 -1.3924 -1.6256
 2330SOL     OW18625   4.309   3.651   7.074 -0.0728 -0.2970  0.1670
 2330SOL    HW118626   4.316   3.746   7.062  1.1373 -0.3268  0.5900
 2330SOL    HW218627   4.390   3.621   7.034 -0.8840 -2.3833  0.0729
 2331SOL     OW18628   2.650   2.757  10.681 -0.6511 -0.3258  0.5127
 2331SOL    HW118629   2.646   2.814  10.604 -0.7986 -1.0943 -0.0478
 2331SOL    HW218630   2.580   2.694  10.663  0.2926 -1.5738  1.1902
 2332SOL     OW18631   4.332   0.320  12.112 -0.1242 -0.7320  0.2344
 2332SOL    HW118632   4.335   0.349  12.203 -0.9045 -3.1742  1.0464
 2332SOL    HW218633   4.300   0.230  12.116  2.1205 -1.5600 -0.3375
 2333SOL     OW18634   2.010   3.147  13.695 -0.6585  0.1612  0.1385
 2333SOL    HW118635   2.089   3.142  13.749 -1.7791  0.6452  1.7894
 2333SOL    HW218636   1.939   3.164  13.756  0.3850  2.3193  0.7691
 2334SOL     OW18637   1.549   2.163   9.858  0.3854  0.2933  0.3904
 2334SOL    HW118638   1.564   2.080   9.812 -1.0712  0.7488 -0.8686
 2334SOL    HW218639   1.455   2.152   9.870  0.3752 -0.1052 -0.0649
 2335SOL     OW18640   1.393   3.722   3.745 -0.1907  0.0105 -0.6712
 2335SOL    HW118641   1.351   3.647   3.703 -0.9122  1.2577 -2.1711
 2335SOL    HW218642   1.406   3.689   3.834 -0.7995 -2.5737 -1.5353
 2336SOL     OW18643   1.986   1.571   2.053  0.3064  0.2586 -0.4861
 2336SOL    HW118644   1.941   1.603   2.131  0.5750 -1.4619  0.3762
 2336SOL    HW218645   1.926   1.615   1.992  1.3271  1.5675 -0.5552
 2337SOL     OW18646   1.674   4.516   6.468 -0.0842 -0.8497  0.5344
 2337SOL    HW118647   1.581   4.530   6.448 -0.2439  0.4827  2.1864
 2337SOL    HW218648   1.689   4.434   6.421 -0.7249 -0.8319  0.2912
 2338SOL     OW18649   0.969   0.096  14.855  0.2813 -0.3739 -0.2034
 2338SOL    HW118650   0.937   0.120  14.942 -0.1429  0.0826 -0.4822
 2338SOL    HW218651   1.008   0.179  14.829  0.3397  0.6517  3.1250
 2339SOL     OW18652   4.337   1.181   5.498 -0.0126 -0.1267 -1.0393
 2339SOL    HW118653   4.325   1.091   5.526 -0.3198 -0.3115 -1.7660
 2339SOL    HW218654   4.281   1.225   5.563  0.4526 -1.4949  0.2898
 2340SOL     OW18655   0.765   3.160   3.849  0.4986  0.6643  0.7501
 2340SOL    HW118656   0.685   3.151   3.901  0.4752 -1.3224  0.3618
 2340SOL    HW218657   0.834   3.122   3.904  2.2521 -0.2518 -2.0569
 2341SOL     OW18658   2.522   0.460   2.268  0.2005 -0.6812 -0.0659
 2341SOL    HW118659   2.528   0.531   2.333  1.3378 -1.4818  0.6921
 2341SOL    HW218660   2.496   0.513   2.192 -0.6175 -1.5028 -0.3551
 2342SOL     OW18661   0.392   1.312   3.597 -0.1159  0.4446  0.6499
 2342SOL    HW118662   0.352   1.315   3.510 -2.9452 -0.3459  1.9242
 2342SOL    HW218663   0.431   1.225   3.601 -0.4609  0.2054 -1.6470
 2343SOL     OW18664   3.522   1.441   2.830  0.1568  0.2987 -0.3223
 2343SOL    HW118665   3.429   1.443   2.808  0.3579  1.7930 -1.0490
 2343SOL    HW218666   3.550   1.493   2.755  1.5461 -0.0169 -0.0235
 2344SOL     OW18667   3.339   3.625   8.904 -0.7235 -0.3683 -0.6734
 2344SOL    HW118668   3.323   3.691   8.836  0.6062 -1.0000 -1.5818
 2344SOL    HW218669   3.249   3.621   8.939 -0.5508 -1.2595 -0.3178
 2345SOL     OW18670   0.041   4.659   6.061 -0.0491 -0.3250  0.3323
 2345SOL    HW118671   4.698   4.615   6.028  0.7589 -0.5409 -1.3072
 2345SOL    HW218672   0.065   4.692   5.974 -0.8984  1.3768  0.7460
 2346SOL     OW18673   0.905   3.798   6.130 -0.2483 -0.1949  0.6811
 2346SOL    HW118674   0.834   3.831   6.185 -0.1030  0.2702  0.5922
 2346SOL    HW218675   0.926   3.884   6.094  2.6343 -1.1046  0.1505
 2347SOL     OW18676   0.259   3.995   8.916  0.5961  0.3287 -0.4249
 2347SOL    HW118677   0.212   3.943   8.851 -0.1233 -0.0165  0.3655
 2347SOL    HW218678   0.343   3.948   8.912 -0.2407 -1.1279 -0.7543
 2348SOL     OW18679   3.455   0.159   1.097  0.0600  0.1086  0.6299
 2348SOL    HW118680   3.416   0.137   1.013  0.6936 -1.5041  0.7694
 2348SOL    HW218681   3.373   0.165   1.147 -1.8740 -2.4725 -2.2196
 2349SOL     OW18682   3.704   2.982   4.617  0.7233  0.0513 -0.1205
 2349SOL    HW118683   3.704   2.944   4.529  0.0692  1.9552 -0.9478
 2349SOL    HW218684   3.704   3.076   4.598 -1.7584 -0.1093 -0.8308
 2350SOL     OW18685   2.021   3.777   5.319  0.3449 -0.2732 -0.2888
 2350SOL    HW118686   1.989   3.847   5.263  0.1949  0.3025  0.5113
 2350SOL    HW218687   1.945   3.726   5.347  2.1304 -2.2032  1.0456
 2351SOL     OW18688   0.854   2.811   2.124  0.0571  0.9700  0.2175
 2351SOL    HW118689   0.878   2.730   2.168  2.1947  1.1651 -0.5897
 2351SOL    HW218690   0.931   2.835   2.074  0.5710  0.6721  0.8690
 2352SOL     OW18691   3.688   1.457  15.072  0.1117  0.3501 -0.1721
 2352SOL    HW118692   3.731   1.516  15.134 -3.0287  1.3143  1.1015
 2352SOL    HW218693   3.688   1.370  15.111  1.2345  0.2133 -0.4962
 2353SOL     OW18694   4.338   4.131  13.013  0.6455 -0.7126 -0.3878
 2353SOL    HW118695   4.366   4.171  12.931 -4.2618  0.3443 -1.5360
 2353SOL    HW218696   4.244   4.122  12.997  0.4868 -0.0694  0.1874
 2354SOL     OW18697   4.279   0.577   2.265 -0.0098  0.2016  0.0780
 2354SOL    HW118698   4.267   0.505   2.202  0.7505 -0.4182  0.6449
 2354SOL    HW218699   4.260   0.532   2.347 -2.8596  0.9183 -0.1854
 2355SOL     OW18700   2.599   0.907   1.075 -0.3021 -0.4917 -0.1471
 2355SOL    HW118701   2.676   0.889   1.020 -0.4552  2.0776 -1.2081
 2355SOL    HW218702   2.589   0.815   1.099 -2.9459  0.2584  1.6002
 2356SOL     OW18703   0.780   2.149   4.170  0.4394  0.4913  0.0311
 2356SOL    HW118704   0.703   2.095   4.151 -0.8175  2.6387 -1.0065
 2356SOL    HW218705   0.809   2.092   4.241  1.6179  2.0868  0.8327
 2357SOL     OW18706   4.708   2.647   9.952  0.2403 -0.4449 -0.4760
 2357SOL    HW118707   4.631   2.699   9.930  1.0733  1.4530  1.1369
 2357SOL    HW218708   0.049   2.705   9.956  0.4479 -0.8259  1.2813
 2358SOL     OW18709   3.655   3.240   4.175 -0.4279 -0.0770  0.0482
 2358SOL    HW118710   3.620   3.256   4.087 -0.5683  2.0896  0.4936
 2358SOL    HW218711   3.588   3.181   4.208  0.6739 -1.9514 -1.0183
 2359SOL     OW18712   1.534   2.680   4.232 -0.2137  0.4584 -0.4151
 2359SOL    HW118713   1.572   2.767   4.244  1.4027  0.0151 -2.3829
 2359SOL    HW218714   1.444   2.680   4.267  0.3415  1.0722  1.0065
 2360SOL     OW18715   0.770   2.662   4.999 -0.2729  0.0036  0.3550
 2360SOL    HW118716   0.723   2.661   4.915 -0.1127 -1.6495  0.2917
 2360SOL    HW218717   0.707   2.633   5.065 -1.9233  4.1902  0.6436
 2361SOL     OW18718   2.185   0.951  13.524  0.1646 -0.4979  0.5709
 2361SOL    HW118719   2.105   1.000  13.505  0.6687  1.1899  2.7650
 2361SOL    HW218720   2.238   0.991  13.454  1.0922 -2.3674  0.2109
 2362SOL     OW18721   2.277   0.383  15.367  0.0100  0.3759  0.2452
 2362SOL    HW118722   2.324   0.383  15.284 -0.4341 -0.1300 -0.0050
 2362SOL    HW218723   2.344   0.369  15.435  1.4272  1.5884 -0.9145
 2363SOL     OW18724   0.509   1.664  16.870 -0.3655  0.0969  0.3508
 2363SOL    HW118725   0.591   1.628  16.835  0.1486  1.5069  0.1298
 2363SOL    HW218726   0.536   1.677  16.961 -1.1165  0.3860  0.5281
 2364SOL     OW18727   3.444   0.540   8.042 -0.0521 -0.6747 -0.2567
 2364SOL    HW118728   3.531   0.577   8.024 -0.2444  1.0290  2.2690
 2364SOL    HW218729   3.377   0.603   8.019  0.9508 -0.7571 -3.4380
 2365SOL     OW18730   0.497   3.766   1.821  0.2911  0.2352 -0.3690
 2365SOL    HW118731   0.547   3.730   1.894 -0.0237  1.9159  0.6756
 2365SOL    HW218732   0.535   3.711   1.753  1.3046 -0.6780  0.9338
 2366SOL     OW18733   2.618   0.628   2.979  0.1533  0.1911  0.1890
 2366SOL    HW118734   2.665   0.638   2.896 -1.5604 -0.3504 -0.8439
 2366SOL    HW218735   2.666   0.686   3.037  1.1379  0.1259 -0.5569
 2367SOL     OW18736   3.229   3.211  16.024 -0.4934 -0.4987 -0.2160
 2367SOL    HW118737   3.312   3.255  16.010  0.3691 -2.0894 -0.1031
 2367SOL    HW218738   3.188   3.265  16.092 -2.2088 -0.7370 -1.0485
 2368SOL     OW18739   0.993   3.171   7.570 -0.3201 -0.4169 -0.6965
 2368SOL    HW118740   1.070   3.193   7.518 -0.2939  0.7074 -0.1745
 2368SOL    HW218741   0.953   3.258   7.576 -3.6795 -2.1814  2.8430
 2369SOL     OW18742   2.972   3.251   4.225 -0.4694  0.4429  0.4691
 2369SOL    HW118743   2.933   3.202   4.298  3.0545 -1.6006  1.0137
 2369SOL    HW218744   2.902   3.311   4.201 -0.7426  0.6887  1.8558
 2370SOL     OW18745   1.606   4.732   6.954 -0.3020  0.4120 -0.0680
 2370SOL    HW118746   1.581   0.048   6.877 -0.0329 -1.4586 -1.3934
 2370SOL    HW218747   1.649   4.660   6.907 -0.5169 -2.1290  3.6193
 2371SOL     OW18748   3.585   0.151  12.042 -0.1079  0.3139  0.4641
 2371SOL    HW118749   3.563   0.206  11.966 -0.6507 -0.3069  0.1678
 2371SOL    HW218750   3.663   0.110  12.005 -0.9261  0.3175 -1.3114
 2372SOL     OW18751   1.024   1.698   4.220 -0.0408 -0.4265  0.2743
 2372SOL    HW118752   0.931   1.711   4.237  0.0642 -0.7975  1.1254
 2372SOL    HW218753   1.050   1.790   4.209 -1.9070 -0.0652 -1.1076
 2373SOL     OW18754   2.679   2.496   8.958  0.2615  0.0012  0.3809
 2373SOL    HW118755   2.590   2.468   8.939  1.1513 -2.2389 -0.4211
 2373SOL    HW218756   2.668   2.511   9.052  1.0223  1.4440  0.2357
 2374SOL     OW18757   1.681   2.676   1.400  0.4109 -0.0711  0.1622
 2374SOL    HW118758   1.592   2.690   1.433  0.1487 -0.3354 -0.4307
 2374SOL    HW218759   1.716   2.674   1.489 -0.4017  2.4237  0.5464
 2375SOL     OW18760   3.675   1.476   5.623 -0.1171 -0.0573 -0.3995
 2375SOL    HW118761   3.655   1.382   5.617  1.5377 -0.3931 -0.8264
 2375SOL    HW218762   3.630   1.501   5.703  0.9975 -0.3371  0.3230
 2376SOL     OW18763   0.696   3.264   2.707 -0.2393  0.5686  0.2928
 2376SOL    HW118764   0.648   3.219   2.638  1.1228  1.9898 -1.5968
 2376SOL    HW218765   0.684   3.356   2.683  0.2719  0.5869  0.1048
 2377SOL     OW18766   2.329   0.153  13.072 -0.1988  0.7558 -0.0976
 2377SOL    HW118767   2.286   0.151  13.157 -0.3520 -2.5544 -0.2769
 2377SOL    HW218768   2.413   0.113  13.093 -0.0160  1.1991  0.0176
 2378SOL     OW18769   0.457   0.030   8.441 -0.0912 -0.5106 -0.0808
 2378SOL    HW118770   0.378   0.009   8.492  0.0261 -0.1074  0.2646
 2378SOL    HW218771   0.500   0.094   8.497 -0.6297  0.3467 -0.6615
 2379SOL     OW18772   4.208   2.858  15.429 -0.1231 -0.4478  0.1535
 2379SOL    HW118773   4.303   2.864  15.422 -0.6065  2.3486 -3.5735
 2379SOL    HW218774   4.184   2.947  15.454 -1.2184 -0.0993 -2.1835
 2380SOL     OW18775   1.188   4.067   7.038 -0.4985  0.2886 -0.0537
 2380SOL    HW118776   1.243   4.145   7.029 -0.4145  0.3003  0.5440
 2380SOL    HW218777   1.190   4.042   6.946 -3.5924  1.3509 -0.4180
 2381SOL     OW18778   1.780   3.772   0.072 -0.3465 -0.3374  0.4506
 2381SOL    HW118779   1.805   3.830  17.739 -0.9326  0.3331  0.7899
 2381SOL    HW218780   1.864   3.730   0.091 -0.1631 -1.8936 -3.6017
 2382SOL     OW18781   3.161   3.338   8.140  0.2345  0.4071  0.4142
 2382SOL    HW118782   3.201   3.313   8.223  2.3097 -1.1620 -1.0699
 2382SOL    HW218783   3.184   3.261   8.088 -0.8029 -0.1903  0.8535
 2383SOL     OW18784   3.433   2.194   4.656  0.2035 -0.2871  0.3648
 2383SOL    HW118785   3.464   2.128   4.718  1.1712  1.2492  1.5186
 2383SOL    HW218786   3.514   2.245   4.658 -0.3354  0.5694  0.4324
 2384SOL     OW18787   4.672   2.400   6.050  0.2929 -0.4046 -0.6589
 2384SOL    HW118788   0.015   2.389   5.995  1.3146 -1.8582  1.0937
 2384SOL    HW218789   4.604   2.361   5.996  0.5831 -0.7234 -0.7921
 2385SOL     OW18790   1.019   1.010   7.331 -0.2439 -0.2072 -0.3205
 2385SOL    HW118791   0.976   0.964   7.259 -0.8587  0.3451 -0.3117
 2385SOL    HW218792   0.992   1.099   7.310 -1.6767 -0.8644 -1.2628
 2386SOL     OW18793   1.057   2.241   0.314 -0.6982  0.3156 -0.2526
 2386SOL    HW118794   1.106   2.286   0.246 -0.2973 -1.2771 -1.0199
 2386SOL    HW218795   0.972   2.272   0.284 -0.7766 -0.0323 -0.3871
 2387SOL     OW18796   2.887   1.659   1.621  0.2290 -0.7202 -0.2011
 2387SOL    HW118797   2.801   1.618   1.629  0.2896 -0.6949  0.6322
 2387SOL    HW218798   2.905   1.623   1.535  1.5266  1.4065 -0.8165
 2388SOL     OW18799   3.220   4.162  16.137 -0.3707 -0.0705 -0.0155
 2388SOL    HW118800   3.219   4.159  16.041  1.6647  0.3064 -0.0363
 2388SOL    HW218801   3.309   4.133  16.156 -0.1227  0.0513 -0.9760
 2389SOL     OW18802   0.507   1.569  15.920 -0.6264  0.1353 -0.4107
 2389SOL    HW118803   0.476   1.613  15.841  1.4609  1.8069 -0.3234
 2389SOL    HW218804   0.434   1.581  15.980 -0.5371  1.5002 -0.5682
 2390SOL     OW18805   4.274   1.397   5.048  0.3389  0.8805 -0.6619
 2390SOL    HW118806   4.222   1.331   5.002 -1.1866  0.7955  1.1823
 2390SOL    HW218807   4.206   1.447   5.093  0.4369  1.3857 -1.0842
 2391SOL     OW18808   4.523   3.113   1.520  0.4004 -1.2056  0.3517
 2391SOL    HW118809   4.526   3.193   1.571 -1.4378 -0.9459  0.0469
 2391SOL    HW218810   4.534   3.045   1.586 -0.0900  0.1505  1.8153
 2392SOL     OW18811   2.628   2.862  12.154  0.5108  0.0413 -0.3649
 2392SOL    HW118812   2.647   2.947  12.113 -0.0004 -0.3133 -1.3479
 2392SOL    HW218813   2.549   2.846  12.103  1.8722 -0.6186 -2.2814
 2393SOL     OW18814   2.093   1.825   9.654  0.1025  0.4245  0.4181
 2393SOL    HW118815   2.041   1.757   9.696 -0.3068  0.5708  0.1543
 2393SOL    HW218816   2.045   1.818   9.571  2.2732 -1.8132 -0.6315
 2394SOL     OW18817   2.653   2.193   1.713 -0.5047 -0.2588  0.1256
 2394SOL    HW118818   2.565   2.200   1.677 -0.1490 -1.7035 -1.0355
 2394SOL    HW218819   2.646   2.119   1.773  0.4853 -0.7850 -0.3995
 2395SOL     OW18820   3.602   4.240   5.138 -0.0815  0.2878  0.0041
 2395SOL    HW118821   3.570   4.229   5.048 -1.2750  1.6331  0.2483
 2395SOL    HW218822   3.537   4.192   5.190 -0.0434  0.6692  0.4092
 2396SOL     OW18823   0.457   4.625   5.679  0.3882  0.3196  0.0133
 2396SOL    HW118824   0.459   4.649   5.586 -3.5854 -0.9727 -0.4077
 2396SOL    HW218825   0.464   4.713   5.717  1.9534  0.1405  0.1479
 2397SOL     OW18826   1.326   0.316   1.155 -0.1284  0.3244  0.0919
 2397SOL    HW118827   1.233   0.310   1.134 -0.5354  3.6582  0.8692
 2397SOL    HW218828   1.367   0.294   1.072 -0.8375 -2.7640  0.5739
 2398SOL     OW18829   0.484   3.327   8.345 -0.0962 -0.5970  0.9368
 2398SOL    HW118830   0.528   3.393   8.292  1.5287 -0.7327  2.1273
 2398SOL    HW218831   0.561   3.271   8.358  1.1016  1.1570  1.3749
 2399SOL     OW18832   4.694   0.896  14.958 -0.5369 -0.3767 -0.3065
 2399SOL    HW118833   4.683   0.951  15.036 -2.5987  1.2083 -1.6937
 2399SOL    HW218834   4.710   0.807  14.989  1.1428  0.0436  0.0005
 2400SOL     OW18835   3.249   1.694   5.943 -0.0109  0.0290 -0.4358
 2400SOL    HW118836   3.236   1.607   5.906 -0.4252  0.1469 -0.5641
 2400SOL    HW218837   3.327   1.722   5.895  1.6297 -1.5835  1.2684
 2401SOL     OW18838   0.740   2.845  17.096  0.0005  0.2661  0.0902
 2401SOL    HW118839   0.710   2.828  17.006  2.3248 -2.4480 -0.1909
 2401SOL    HW218840   0.813   2.785  17.109  1.4976  1.0354 -4.6090
 2402SOL     OW18841   1.943   1.430  14.633  0.0551 -0.1090 -0.1336
 2402SOL    HW118842   2.026   1.443  14.588  0.0836 -1.6965 -0.5364
 2402SOL    HW218843   1.883   1.458  14.564  1.2394  1.3357 -0.5873
 2403SOL     OW18844   3.712   1.866   5.760 -0.2053 -0.5460 -0.3301
 2403SOL    HW118845   3.769   1.789   5.758  0.4674 -0.0560 -0.4002
 2403SOL    HW218846   3.733   1.897   5.672 -0.2200  0.4711  0.0288
 2404SOL     OW18847   4.584   3.041  17.723  0.5382  0.0260 -0.2963
 2404SOL    HW118848   4.627   2.958  17.701  2.0155  0.0942  2.2066
 2404SOL    HW218849   4.623   3.090  17.651 -1.5719 -0.3274 -1.6701
 2405SOL     OW18850   2.392   2.808  10.460 -0.0854 -0.1575 -0.2053
 2405SOL    HW118851   2.330   2.874  10.491 -2.1609 -1.5259 -1.4231
 2405SOL    HW218852   2.474   2.857  10.457 -1.0364  1.3604 -1.8369
 2406SOL     OW18853   3.941   2.718   0.567  0.1375  0.2793  0.0484
 2406SOL    HW118854   3.917   2.725   0.659 -3.2744 -1.4655 -0.7415
 2406SOL    HW218855   3.978   2.806   0.557 -0.0130  0.0492 -2.5082
 2407SOL     OW18856   1.477   3.794   5.814  0.3699 -0.1008  0.4776
 2407SOL    HW118857   1.425   3.714   5.804 -0.3535  0.4484 -0.1032
 2407SOL    HW218858   1.570   3.783   5.836  0.3483  0.4436  0.8362
 2408SOL     OW18859   0.584   4.292   5.443 -0.5366  0.4452 -0.2133
 2408SOL    HW118860   0.663   4.341   5.465 -0.6797  1.1714 -1.2883
 2408SOL    HW218861   0.616   4.204   5.463 -0.2859  0.6979  0.4877
 2409SOL     OW18862   4.358   0.250   3.015  0.0485  0.3364  0.2686
 2409SOL    HW118863   4.295   0.274   3.084  1.9055 -1.0696  2.4274
 2409SOL    HW218864   4.398   0.334   2.992 -0.6084  0.3681 -0.7628
 2410SOL     OW18865   2.879   2.554   2.244  0.1988  0.0074 -0.2537
 2410SOL    HW118866   2.792   2.525   2.273 -1.3694  0.4122 -4.5340
 2410SOL    HW218867   2.884   2.521   2.154 -1.5870 -0.7820 -0.0680
 2411SOL     OW18868   1.889   0.647   7.347 -0.0357 -0.1590  0.2758
 2411SOL    HW118869   1.859   0.680   7.432  0.3483 -0.6576  0.6122
 2411SOL    HW218870   1.931   0.568   7.381  2.5489  1.0844 -0.0429
 2412SOL     OW18871   0.939   0.739   6.240 -0.6992  0.0215  0.0326
 2412SOL    HW118872   1.028   0.774   6.241 -0.3473 -0.8713 -0.9006
 2412SOL    HW218873   0.945   0.689   6.322 -3.0782  1.4145  1.0618
 2413SOL     OW18874   2.999   2.203  13.893  0.0066  0.0963 -0.0866
 2413SOL    HW118875   2.929   2.175  13.835  0.9540 -0.0375 -1.1585
 2413SOL    HW218876   2.956   2.271  13.945  0.0647  0.3255 -0.3378
 2414SOL     OW18877   2.364   2.399   1.363  0.4586 -0.1324  0.2882
 2414SOL    HW118878   2.380   2.312   1.398  1.4659  2.0923  5.3472
 2414SOL    HW218879   2.456   2.412   1.340  0.2181 -1.2189 -1.2936
 2415SOL     OW18880   4.016   2.878   0.242  0.1236 -0.5025 -0.1974
 2415SOL    HW118881   4.069   2.812   0.286  0.0487 -0.6899 -0.3914
 2415SOL    HW218882   3.985   2.836   0.162 -1.1831 -0.2191  0.1606
 2416SOL     OW18883   0.476   3.456  11.459  0.1300  0.5671  0.1090
 2416SOL    HW118884   0.537   3.386  11.483 -0.5442 -0.2624 -0.6201
 2416SOL    HW218885   0.464   3.494  11.546  2.0717  0.6806  0.3277
 2417SOL     OW18886   1.293   1.713   5.331  0.5811 -0.1820 -0.4224
 2417SOL    HW118887   1.385   1.700   5.355  0.5555 -0.3996 -0.4390
 2417SOL    HW218888   1.301   1.753   5.245 -0.1219 -2.8857 -1.7589
 2418SOL     OW18889   2.579   0.778   1.437 -0.0993 -0.5442  0.5327
 2418SOL    HW118890   2.513   0.750   1.373  1.4141  1.0007 -1.7235
 2418SOL    HW218891   2.630   0.834   1.378  0.6183  0.6981  2.3169
 2419SOL     OW18892   1.962   1.778   7.310  0.0920 -0.3203  0.7760
 2419SOL    HW118893   1.907   1.838   7.257  0.4006 -0.4013  0.3640
 2419SOL    HW218894   2.041   1.762   7.258  0.8295  2.3210  1.0548
 2420SOL     OW18895   2.711   2.416   3.246  0.1436 -0.4043  0.0950
 2420SOL    HW118896   2.783   2.465   3.286  0.3364 -1.2425  0.7642
 2420SOL    HW218897   2.715   2.449   3.156  1.8193  2.5335  1.2425
 2421SOL     OW18898   3.072   0.855   6.545  0.2262 -0.3160  0.1553
 2421SOL    HW118899   3.025   0.806   6.612  0.3243 -0.3064  0.2320
 2421SOL    HW218900   3.003   0.916   6.520 -0.4620 -1.2842 -0.2899
 2422SOL     OW18901   0.839   1.321   2.668 -0.0028  0.3522 -0.0184
 2422SOL    HW118902   0.922   1.366   2.686 -0.1389  0.6577 -0.1638
 2422SOL    HW218903   0.807   1.381   2.601  1.7890  1.1116 -0.1860
 2423SOL     OW18904   0.455   3.808   2.222 -0.2699 -0.4777  0.1114
 2423SOL    HW118905   0.375   3.757   2.208 -0.8247  0.7077 -1.0028
 2423SOL    HW218906   0.457   3.819   2.317 -0.4894  0.5709 -0.0083
 2424SOL     OW18907   3.630   4.378   3.865 -0.5702  0.6688 -0.7268
 2424SOL    HW118908   3.698   4.323   3.905  1.3371  2.1377 -1.9457
 2424SOL    HW218909   3.650   4.462   3.907 -0.8168 -0.4639  1.6728
 2425SOL     OW18910   2.110   1.229   6.436  0.8538  0.1565  0.0432
 2425SOL    HW118911   2.173   1.186   6.378 -1.1852  0.2678 -2.2398
 2425SOL    HW218912   2.168   1.286   6.487 -0.4499  1.0155  0.5572
 2426SOL     OW18913   3.188   0.569   2.028  0.5646  0.2334  0.1604
 2426SOL    HW118914   3.253   0.556   2.098  2.4373  0.7649 -1.4801
 2426SOL    HW218915   3.127   0.497   2.038  0.5425  0.4074  1.3673
 2427SOL     OW18916   4.606   0.448   9.099  0.2323  0.4002 -0.3983
 2427SOL    HW118917   4.689   0.454   9.052  0.3658  0.2225 -0.1881
 2427SOL    HW218918   4.551   0.498   9.039  2.2654  2.7663 -0.2922
 2428SOL     OW18919   3.400   0.021  14.585  0.2230  0.3352 -0.5030
 2428SOL    HW118920   3.398   0.042  14.492 -0.8501 -0.2723 -0.6167
 2428SOL    HW218921   3.452   4.676  14.593  1.6428  1.4010  1.1879
 2429SOL     OW18922   1.825   1.137   6.827  0.0255 -0.3151 -0.2628
 2429SOL    HW118923   1.844   1.225   6.794 -1.3029  0.0204 -0.1240
 2429SOL    HW218924   1.782   1.149   6.912 -3.2465 -0.5525 -1.8950
 2430SOL     OW18925   1.195   4.355  14.335 -0.4923 -0.2787  0.0468
 2430SOL    HW118926   1.115   4.394  14.370  0.5689  2.1486 -0.2834
 2430SOL    HW218927   1.206   4.393  14.248  1.8223  0.7758  0.8190
 2431SOL     OW18928   4.537   1.164  10.423  0.0088  0.1494 -0.0462
 2431SOL    HW118929   4.600   1.106  10.382 -1.2089 -0.4377 -1.0576
 2431SOL    HW218930   4.588   1.194  10.499 -0.8320  0.3080  0.4649
 2432SOL     OW18931   0.157   1.952   3.797  0.7832 -0.1681 -0.1582
 2432SOL    HW118932   0.224   1.893   3.831 -0.7949 -1.8376  0.0419
 2432SOL    HW218933   0.214   1.998   3.735 -0.3474 -2.0321 -2.5478
 2433SOL     OW18934   4.362   1.084   3.168  0.2182 -0.1986  0.3791
 2433SOL    HW118935   4.342   1.013   3.106  2.2738  0.1124 -0.6460
 2433SOL    HW218936   4.394   1.144   3.101 -3.2613 -0.4824 -1.5215
 2434SOL     OW18937   2.278   3.201   0.209 -0.3316  0.4413 -0.1288
 2434SOL    HW118938   2.287   3.228   0.118 -1.0057 -0.5410 -0.4878
 2434SOL    HW218939   2.368   3.212   0.240  0.4799  1.7453 -3.0249
 2435SOL     OW18940   3.804   1.253   7.215 -0.1906  0.0027  0.1484
 2435SOL    HW118941   3.825   1.301   7.135 -0.8737 -1.9292 -1.2040
 2435SOL    HW218942   3.770   1.321   7.273  3.7425 -0.0035  2.4473
 2436SOL     OW18943   1.057   0.673   8.592 -0.3423  0.1570  0.4790
 2436SOL    HW118944   1.123   0.608   8.616  1.1239  1.2293 -0.5806
 2436SOL    HW218945   0.991   0.651   8.657 -1.7310  2.4848 -0.1627
 2437SOL     OW18946   0.289   0.649   7.194 -0.3902  0.1127 -0.1137
 2437SOL    HW118947   0.321   0.597   7.268 -0.4547 -0.4331 -0.4654
 2437SOL    HW218948   0.336   0.732   7.196  0.5957 -0.4900  1.3189
 2438SOL     OW18949   0.172   2.101   5.474 -0.1147  0.0681  0.6946
 2438SOL    HW118950   0.225   2.097   5.394 -1.6808  2.4061 -0.4492
 2438SOL    HW218951   0.088   2.068   5.442  1.5149 -2.3912 -1.0670
 2439SOL     OW18952   1.874   0.294   8.390  0.0226  0.4549 -0.5338
 2439SOL    HW118953   1.824   0.233   8.443  1.3231  0.0899  0.2569
 2439SOL    HW218954   1.964   0.270   8.410 -0.1329  1.6962  1.7117
 2440SOL     OW18955   0.139   2.830   0.522 -0.1608 -0.3581 -0.0183
 2440SOL    HW118956   0.109   2.748   0.560 -0.0536  0.0472  0.9486
 2440SOL    HW218957   0.063   2.887   0.510  0.3479  0.7308  1.9040
 2441SOL     OW18958   3.501   1.711   9.358 -0.2733  0.2237 -0.0445
 2441SOL    HW118959   3.593   1.695   9.335 -0.5600  1.7166 -2.1934
 2441SOL    HW218960   3.504   1.743   9.449  0.2591 -1.3177  0.4853
 2442SOL     OW18961   4.642   1.750   9.064  0.1585  0.6885 -0.1187
 2442SOL    HW118962   4.716   1.811   9.068 -1.1511  2.2162  0.4350
 2442SOL    HW218963   4.637   1.721   9.155 -1.2046  0.7036 -0.1909
 2443SOL     OW18964   0.408   0.880   9.906  0.2858 -0.7143 -0.0834
 2443SOL    HW118965   0.458   0.903   9.985  0.1138  1.8294 -0.7311
 2443SOL    HW218966   0.443   0.942   9.842  1.3356 -0.5624  0.6305
 2444SOL     OW18967   1.674   1.695   7.815 -0.2703  0.7277  0.0799
 2444SOL    HW118968   1.631   1.744   7.885  1.0323  1.1735  0.5779
 2444SOL    HW218969   1.603   1.631   7.808  1.6574 -1.5952  1.7300
 2445SOL     OW18970   1.740   1.805   5.536  0.4542  0.0978 -0.1691
 2445SOL    HW118971   1.827   1.836   5.560  1.6867 -1.7727 -2.1921
 2445SOL    HW218972   1.695   1.886   5.515  1.3749  1.2991  2.5618
 2446SOL     OW18973   0.875   0.031   4.400  0.6030  0.1688  0.1596
 2446SOL    HW118974   0.957   4.733   4.437 -0.3922 -1.7078  0.6879
 2446SOL    HW218975   0.864   0.121   4.431 -0.7655  0.0684 -0.0662
 2447SOL     OW18976   2.244   3.589   2.536 -0.4683  0.0842 -0.5632
 2447SOL    HW118977   2.268   3.603   2.444 -2.1975 -1.5498 -1.2457
 2447SOL    HW218978   2.322   3.612   2.586  0.8983  0.1550 -2.6843
 2448SOL     OW18979   0.403   3.611   2.839 -0.5212  0.2214  0.5081
 2448SOL    HW118980   0.497   3.594   2.836 -0.5232  0.5677 -1.3243
 2448SOL    HW218981   0.366   3.541   2.893 -1.9867  0.2443 -0.4577
 2449SOL     OW18982   2.430   1.212   3.030  0.0999  0.0022  0.3297
 2449SOL    HW118983   2.365   1.256   3.086  1.0040  0.1958  1.2144
 2449SOL    HW218984   2.464   1.142   3.085 -0.8622  2.3151  3.8631
 2450SOL     OW18985   1.932   4.018  12.494  0.2283  0.3291  0.4160
 2450SOL    HW118986   1.899   4.019  12.584 -0.2611  0.3443  0.2354
 2450SOL    HW218987   1.964   4.108  12.492 -0.5948  0.5541 -2.4649
 2451SOL     OW18988   1.911   2.909   2.474  0.2595  0.1732 -0.2351
 2451SOL    HW118989   1.998   2.919   2.511  0.3298 -1.5823  0.0599
 2451SOL    HW218990   1.845   2.906   2.543  1.0346  2.5298  0.5968
 2452SOL     OW18991   4.389   0.059   7.307 -0.0281 -0.0845 -0.0116
 2452SOL    HW118992   4.385   0.132   7.370  0.5743 -1.7130  1.9239
 2452SOL    HW218993   4.319   0.004   7.343  1.3405 -1.8128 -0.0464
 2453SOL     OW18994   0.241   0.926  16.935 -0.1125 -0.1895  0.4309
 2453SOL    HW118995   0.205   0.978  16.864 -0.4394  0.3743  1.0108
 2453SOL    HW218996   0.233   0.842  16.889  0.2590  0.4832 -0.8359
 2454SOL     OW18997   0.123   4.221   7.995 -0.5799 -0.4191  0.1663
 2454SOL    HW118998   0.140   4.127   8.003 -0.1212 -0.5767 -2.4229
 2454SOL    HW218999   0.056   4.221   7.926 -0.3542  0.1087 -0.0526
 2455SOL     OW19000   0.487   0.586   0.238  0.0417  0.2404 -0.6419
 2455SOL    HW119001   0.457   0.609   0.151 -1.8770  0.7821  0.1567
 2455SOL    HW219002   0.565   0.533   0.222 -0.7580 -0.8078 -1.0828
 2456SOL     OW19003   1.956   0.237   3.378 -1.0289 -0.1343 -0.6213
 2456SOL    HW119004   1.978   0.152   3.340  0.5988  0.6482 -1.4904
 2456SOL    HW219005   2.029   0.252   3.438 -1.0226 -0.7868 -0.4677
 2457SOL     OW19006   0.867   4.270  15.506 -0.5562  0.7294  0.1167
 2457SOL    HW119007   0.897   4.357  15.532  0.3973  0.6138 -0.5854
 2457SOL    HW219008   0.945   4.220  15.526 -0.0255  1.5704  0.1449
 2458SOL     OW19009   0.247   1.289   1.874 -0.7715 -0.6841 -0.2594
 2458SOL    HW119010   0.173   1.261   1.928 -0.6488 -1.5911 -0.5581
 2458SOL    HW219011   0.316   1.306   1.937  0.5385 -0.5350 -1.7216
 2459SOL     OW19012   3.331   4.587   3.607  0.5163  0.0428  0.0342
 2459SOL    HW119013   3.361   4.645   3.537  0.5228 -2.0924 -1.7413
 2459SOL    HW219014   3.273   4.526   3.561 -1.7217  0.8955  1.7210
 2460SOL     OW19015   1.632   1.101   7.530 -0.0656  0.2156  0.3441
 2460SOL    HW119016   1.712   1.060   7.497  1.5950  2.0515  2.0957
 2460SOL    HW219017   1.603   1.049   7.605 -3.0119  0.7728 -0.4442
 2461SOL     OW19018   3.903   2.338   3.899 -0.2932  0.4005  0.0573
 2461SOL    HW119019   3.917   2.245   3.879  0.7604  0.2021  1.7648
 2461SOL    HW219020   3.815   2.345   3.863  0.6058 -0.0499 -2.2469
 2462SOL     OW19021   1.526   2.635   6.889  0.0348 -0.3000 -0.0976
 2462SOL    HW119022   1.533   2.558   6.833 -0.6387 -1.3321  1.2255
 2462SOL    HW219023   1.618   2.651   6.908  0.1320 -1.5980  0.5436
 2463SOL     OW19024   0.114   2.596  11.578 -0.0305 -0.0725 -0.3458
 2463SOL    HW119025   0.101   2.512  11.535  0.7825  1.3927 -3.4650
 2463SOL    HW219026   0.025   2.629  11.587 -1.0328 -2.9517  0.0834
 2464SOL     OW19027   0.565   4.592   7.476 -0.1022  0.3137 -0.1397
 2464SOL    HW119028   0.510   4.620   7.549 -2.3136  0.5770 -1.9077
 2464SOL    HW219029   0.535   4.649   7.405 -0.4228 -0.5846 -0.7202
 2465SOL     OW19030   2.393   3.446   5.326  0.6960  0.5754  0.7154
 2465SOL    HW119031   2.359   3.457   5.414 -1.1189  0.1889  0.0673
 2465SOL    HW219032   2.377   3.352   5.312  0.0095  0.8895 -0.7077
 2466SOL     OW19033   1.628   3.584   6.058  0.5887 -0.1349  0.1080
 2466SOL    HW119034   1.625   3.540   6.143  0.0359  0.6400  0.4848
 2466SOL    HW219035   1.547   3.634   6.058  1.6715  1.6447  0.2537
 2467SOL     OW19036   2.106   0.285   0.919 -0.0212  1.3519 -0.2533
 2467SOL    HW119037   2.056   0.358   0.880 -0.6064  1.8702  1.4848
 2467SOL    HW219038   2.147   0.243   0.843 -0.8851  0.8576 -0.4533
 2468SOL     OW19039   2.810   1.332   7.588 -0.0560 -0.3413  0.1415
 2468SOL    HW119040   2.849   1.399   7.532 -0.3652  0.6886  1.1599
 2468SOL    HW219041   2.755   1.280   7.530  0.8399  0.1181 -1.1269
 2469SOL     OW19042   3.965   1.620   0.120  0.0460 -0.1499 -0.4051
 2469SOL    HW119043   4.049   1.577   0.105 -2.1088 -4.9264  1.2781
 2469SOL    HW219044   3.924   1.627   0.033  0.3408  0.0700 -0.5282
 2470SOL     OW19045   0.695   2.299   6.181  0.1679 -0.0052 -0.1966
 2470SOL    HW119046   0.767   2.345   6.224 -1.7284  1.6400  1.2571
 2470SOL    HW219047   0.745   2.255   6.112 -0.0353  1.0589 -1.0237
 2471SOL     OW19048   0.815   1.931   3.939  0.4867 -0.2710  0.2267
 2471SOL    HW119049   0.848   1.901   3.854  1.6241 -0.1331  0.6219
 2471SOL    HW219050   0.723   1.939   3.914  0.2813  0.3614  1.2009
 2472SOL     OW19051   0.413   1.567   7.244  0.4126  0.6458  0.2370
 2472SOL    HW119052   0.490   1.534   7.199  1.1566  0.5733  1.5585
 2472SOL    HW219053   0.370   1.619   7.176  0.2815  0.5627  0.2570
 2473SOL     OW19054   3.156   4.607   4.554 -0.2604  0.5195 -0.3203
 2473SOL    HW119055   3.088   4.629   4.491 -2.0932  0.0083  1.4969
 2473SOL    HW219056   3.125   4.660   4.627 -2.4058  2.3537 -2.5537
 2474SOL     OW19057   4.204   0.838  16.976 -0.2697 -0.0554  0.1758
 2474SOL    HW119058   4.260   0.916  16.969 -1.6260  0.9201  0.3377
 2474SOL    HW219059   4.215   0.811  17.067  0.6457 -1.2590 -0.2867
 2475SOL     OW19060   4.043   4.221   3.367  0.2296  0.1657 -0.0614
 2475SOL    HW119061   4.022   4.190   3.278  2.3261 -0.8855 -0.1948
 2475SOL    HW219062   4.087   4.142   3.398  1.1541  1.1753  1.1855
 2476SOL     OW19063   3.457   4.178   5.689 -0.3335  0.2389  0.3263
 2476SOL    HW119064   3.493   4.101   5.646 -0.4714  1.1905 -1.4988
 2476SOL    HW219065   3.437   4.139   5.774 -0.0094  1.6081  1.0389
 2477SOL     OW19066   4.535   3.643   9.417 -0.1264  0.1363 -0.1382
 2477SOL    HW119067   4.521   3.734   9.390  0.3323  0.7226  1.6295
 2477SOL    HW219068   4.630   3.650   9.419  0.0815 -2.4715 -0.6023
 2478SOL     OW19069   3.153   1.961   4.444  0.1631 -0.2315 -0.4406
 2478SOL    HW119070   3.075   1.942   4.393 -0.6583 -0.6241  0.9726
 2478SOL    HW219071   3.195   2.043   4.418 -0.7599  0.1771 -0.6202
 2479SOL     OW19072   3.275   3.821   7.163  0.4553 -0.1550 -0.4473
 2479SOL    HW119073   3.339   3.893   7.165 -1.7404  1.7953 -0.3917
 2479SOL    HW219074   3.297   3.772   7.243 -2.9827 -0.1825  0.4743
 2480SOL     OW19075   0.201   0.255   8.629  0.0051 -0.1650  0.2465
 2480SOL    HW119076   0.239   0.232   8.714  0.1752  1.2167  0.5488
 2480SOL    HW219077   0.215   0.174   8.581  1.2013  1.4267 -2.0658
 2481SOL     OW19078   3.018   3.868  10.679  0.3323  0.5026 -0.1455
 2481SOL    HW119079   3.039   3.783  10.639  0.4904 -1.0383  3.1700
 2481SOL    HW219080   3.091   3.917  10.642  0.6791 -0.2524 -0.4641
 2482SOL     OW19081   1.514   0.377   7.880  0.1666 -0.0334 -0.9260
 2482SOL    HW119082   1.506   0.285   7.854  0.5474 -0.7807  1.6146
 2482SOL    HW219083   1.496   0.375   7.973  1.5107  3.4978 -0.5769
 2483SOL     OW19084   1.198   0.803   6.194  0.2314  0.0032 -0.0644
 2483SOL    HW119085   1.215   0.858   6.118 -1.6022  0.7132  0.0501
 2483SOL    HW219086   1.253   0.852   6.255 -1.5301  0.1054  1.4634
 2484SOL     OW19087   2.207   4.554   3.295 -0.0718 -0.1424  0.2460
 2484SOL    HW119088   2.117   4.577   3.319  0.4918  2.3743  0.0273
 2484SOL    HW219089   2.211   4.616   3.221 -1.1390 -0.8309 -0.3893
 2485SOL     OW19090   1.175   1.470   3.584 -0.7568 -0.3368 -0.0600
 2485SOL    HW119091   1.253   1.519   3.561 -0.6455 -0.6858 -0.4278
 2485SOL    HW219092   1.145   1.512   3.664  1.8243 -0.1536  0.7882
 2486SOL     OW19093   1.465   4.377   3.829  0.0483 -0.0221 -0.0131
 2486SOL    HW119094   1.510   4.309   3.778  0.1403  0.9653 -1.2390
 2486SOL    HW219095   1.503   4.460   3.799  0.2893 -0.5649 -1.1926
 2487SOL     OW19096   2.498   0.111   7.021  0.0940  0.1774 -0.1372
 2487SOL    HW119097   2.491   0.042   6.955 -1.9048  0.7435 -0.5209
 2487SOL    HW219098   2.407   0.139   7.032  0.3910  0.6213  1.2575
 2488SOL     OW19099   2.715   4.449   8.589  0.8109 -0.6320  0.3704
 2488SOL    HW119100   2.782   4.489   8.534  1.0055 -1.0325  0.3200
 2488SOL    HW219101   2.771   4.390   8.638 -0.2296 -1.9378 -0.0252
 2489SOL     OW19102   3.277   0.615   4.696 -0.0317  0.7877 -0.4464
 2489SOL    HW119103   3.291   0.709   4.707 -1.3234  0.8559  0.7162
 2489SOL    HW219104   3.365   0.582   4.713 -1.3615 -2.2563  0.4958
 2490SOL     OW19105   3.768   3.004  14.173 -0.6525  0.3642  0.0609
 2490SOL    HW119106   3.817   3.010  14.255  0.5904  2.8338 -0.8607
 2490SOL    HW219107   3.828   3.025  14.101 -0.8819 -1.1961 -0.5815
 2491SOL     OW19108   1.750   3.014  14.298 -0.3232  0.1993 -0.2303
 2491SOL    HW119109   1.765   2.931  14.255  3.4477  1.1222 -0.6776
 2491SOL    HW219110   1.812   3.066  14.247 -0.7285 -1.5622 -2.5186
 2492SOL     OW19111   3.683   1.941   3.953  0.7459  0.3410 -0.1410
 2492SOL    HW119112   3.656   2.023   3.911  0.4004 -0.3517 -1.2408
 2492SOL    HW219113   3.607   1.924   4.010  1.3009  0.7533  0.7355
 2493SOL     OW19114   4.026   1.487   2.299 -0.4182  0.2563  0.7617
 2493SOL    HW119115   4.072   1.471   2.381 -0.7990 -0.8691  0.7677
 2493SOL    HW219116   4.015   1.581   2.287  0.6186  0.5490  2.1687
 2494SOL     OW19117   3.715   1.622   5.389  0.2660  0.4182  0.1044
 2494SOL    HW119118   3.710   1.584   5.477 -1.7163  3.0096  1.1277
 2494SOL    HW219119   3.783   1.689   5.399 -0.3086  0.7710  1.7031
 2495SOL     OW19120   3.007   2.186   3.219 -0.0092 -0.0212 -0.0030
 2495SOL    HW119121   3.013   2.214   3.310 -0.2736 -0.2271  0.0773
 2495SOL    HW219122   2.923   2.142   3.211  0.9774 -1.4852 -2.4187
 2496SOL     OW19123   3.274   2.328   6.543 -0.2935  0.0011 -0.1875
 2496SOL    HW119124   3.265   2.411   6.495 -1.5674 -0.6004 -0.9944
 2496SOL    HW219125   3.218   2.267   6.495 -0.1849  0.5529 -1.0282
 2497SOL     OW19126   4.352   4.182   8.459  0.8584 -0.5107 -0.1106
 2497SOL    HW119127   4.287   4.194   8.529 -0.1786 -4.5636 -0.3845
 2497SOL    HW219128   4.434   4.185   8.508  0.5623 -1.2321  0.4430
 2498SOL     OW19129   2.618   0.448   6.813  0.3395  0.2744  0.0745
 2498SOL    HW119130   2.643   0.355   6.815  1.6304  0.5786 -1.9244
 2498SOL    HW219131   2.652   0.492   6.735  2.7468 -3.0078 -0.7401
 2499SOL     OW19132   1.573   2.582   7.465 -0.0805  0.2075  0.5441
 2499SOL    HW119133   1.643   2.546   7.409 -1.7552  0.6014 -1.8086
 2499SOL    HW219134   1.549   2.513   7.527  0.3585  0.8788  1.4522
 2500SOL     OW19135   4.203   4.566  13.312  0.4808 -0.3535 -0.2900
 2500SOL    HW119136   4.236   4.501  13.251 -1.8120  0.3333 -2.2606
 2500SOL    HW219137   4.278   4.593  13.366 -0.9591 -0.0237  1.5321
 2501SOL     OW19138   3.078   3.875   2.031 -0.7235 -0.4034  0.4301
 2501SOL    HW119139   3.172   3.887   2.025 -0.9255  0.9817  0.1098
 2501SOL    HW219140   3.049   3.964   2.011  2.8737  0.4218 -0.9448
 2502SOL     OW19141   0.429   1.950   1.622  0.0308  0.1130 -0.5265
 2502SOL    HW119142   0.511   1.905   1.602  0.2591  1.6730 -3.0986
 2502SOL    HW219143   0.356   1.892   1.600  0.0775 -0.0303 -0.3036
 2503SOL     OW19144   4.551   3.755   2.113 -0.2038  0.3902  0.2039
 2503SOL    HW119145   4.627   3.805   2.082  0.6168 -1.0093 -0.0531
 2503SOL    HW219146   4.527   3.711   2.031 -2.1966 -0.2085  1.1077
 2504SOL     OW19147   2.461   0.165   8.220 -0.1510 -0.4343  0.0946
 2504SOL    HW119148   2.452   0.097   8.287 -1.0656  0.2590  0.6776
 2504SOL    HW219149   2.374   0.149   8.183  0.0194 -0.5356 -0.2625
 2505SOL     OW19150   1.077   2.016  16.684 -0.3287  0.0265 -0.2269
 2505SOL    HW119151   1.161   1.975  16.705  0.9502  1.9885 -1.5354
 2505SOL    HW219152   1.054   2.055  16.768 -1.6467 -0.3183 -0.4255
 2506SOL     OW19153   3.329   1.270   6.073  0.3255 -0.1220 -0.0196
 2506SOL    HW119154   3.365   1.280   5.985 -3.1726  0.5026 -1.4073
 2506SOL    HW219155   3.400   1.301   6.129 -0.4156 -1.2513  1.5412
 2507SOL     OW19156   1.028   0.324  10.829 -0.8076  0.3016  0.4421
 2507SOL    HW119157   1.003   0.371  10.909 -1.1783 -3.0231  2.2549
 2507SOL    HW219158   1.085   0.389  10.787 -2.6800  2.0884  0.6405
 2508SOL     OW19159   1.850   0.514   2.822  0.2532 -0.6421  0.1114
 2508SOL    HW119160   1.782   0.568   2.783 -2.2652 -3.3958  0.6101
 2508SOL    HW219161   1.821   0.511   2.913 -0.4196  0.8526 -0.0573
 2509SOL     OW19162   2.491   2.760  14.452 -0.0251 -0.3507 -0.6315
 2509SOL    HW119163   2.520   2.832  14.508  0.8263 -1.4580  0.3209
 2509SOL    HW219164   2.442   2.808  14.384 -1.7712  2.4301  2.5859
 2510SOL     OW19165   0.626   4.147  15.524  0.4210 -0.3920  0.0514
 2510SOL    HW119166   0.627   4.111  15.613 -0.3595  0.5396  0.4349
 2510SOL    HW219167   0.697   4.212  15.519  1.1665 -1.0457  2.0273
 2511SOL     OW19168   3.104   0.927   8.624 -0.5312  0.2582  0.8420
 2511SOL    HW119169   3.070   0.853   8.674 -2.0883 -0.0961 -0.7469
 2511SOL    HW219170   3.175   0.951   8.684  1.3934  0.5937 -1.5905
 2512SOL     OW19171   0.328   0.306  14.830  0.0724  1.2638  0.5443
 2512SOL    HW119172   0.237   0.327  14.807 -0.7246 -0.8323  1.7466
 2512SOL    HW219173   0.350   0.213  14.833 -0.9512  0.9891 -0.5985
 2513SOL     OW19174   3.149   1.687   3.925  0.4943 -0.4973 -0.3344
 2513SOL    HW119175   3.203   1.635   3.984 -0.4081 -0.6393  0.3597
 2513SOL    HW219176   3.084   1.620   3.902 -0.4599  0.0739  0.7332
 2514SOL     OW19177   4.339   0.776   8.540 -0.2592 -0.0649  0.2406
 2514SOL    HW119178   4.270   0.840   8.521  0.6859  1.1602  0.9167
 2514SOL    HW219179   4.356   0.791   8.633  0.2627  1.0081 -0.0290
 2515SOL     OW19180   2.427   1.101   5.019 -0.0293  0.3201 -0.0022
 2515SOL    HW119181   2.423   1.112   4.924  0.9491 -2.6310 -0.4071
 2515SOL    HW219182   2.367   1.026   5.022 -0.2839  0.5197 -0.1312
 2516SOL     OW19183   0.678   3.136  10.061  0.3531 -0.3057  0.2882
 2516SOL    HW119184   0.687   3.214  10.116 -0.5315 -1.7440  2.4880
 2516SOL    HW219185   0.760   3.097  10.092 -0.8523 -2.8479  0.3190
 2517SOL     OW19186   2.037   0.573   7.801  0.4719  0.3314  0.0271
 2517SOL    HW119187   2.111   0.589   7.859 -0.0273 -1.6286  1.2012
 2517SOL    HW219188   1.967   0.625   7.840  0.4089  1.6736 -1.8584
 2518SOL     OW19189   2.577   2.955  14.744  0.0854  0.3516  0.1607
 2518SOL    HW119190   2.536   2.958  14.831 -1.1594 -2.1278 -0.3417
 2518SOL    HW219191   2.656   2.902  14.756  0.2389  1.4633  4.0037
 2519SOL     OW19192   1.934   2.661   0.627  0.3641 -0.6666 -0.6523
 2519SOL    HW119193   1.982   2.578   0.625  1.1407 -0.2326 -0.1252
 2519SOL    HW219194   1.851   2.630   0.590  0.5772 -1.0336 -0.8321
 2520SOL     OW19195   4.047   4.180   7.718  0.3734  0.6462 -0.2367
 2520SOL    HW119196   4.004   4.246   7.771  1.9647  0.0025  1.8572
 2520SOL    HW219197   4.129   4.177   7.767 -0.6923 -4.5224  1.2473
 2521SOL     OW19198   1.470   1.957  15.336 -0.0011 -1.0095 -0.1773
 2521SOL    HW119199   1.476   1.986  15.427 -0.7772 -0.8291 -0.1836
 2521SOL    HW219200   1.563   1.965  15.314 -0.0094  0.2744  0.2599
 2522SOL     OW19201   0.026   0.353   6.210  0.0217 -0.4417  0.3105
 2522SOL    HW119202   0.028   0.315   6.122 -1.6206  0.9222 -0.3331
 2522SOL    HW219203   4.665   0.354   6.214  0.0163 -0.0569  0.1011
 2523SOL     OW19204   1.013   0.062   8.126 -0.3244  0.4606 -0.5610
 2523SOL    HW119205   0.929   0.080   8.083 -1.1624 -1.9263  0.0389
 2523SOL    HW219206   1.068   0.040   8.051 -0.8433 -1.5731 -0.3524
 2524SOL     OW19207   3.662   1.083   6.859 -0.3896  0.4487 -0.4224
 2524SOL    HW119208   3.669   1.148   6.789 -3.0635  2.2743  0.9612
 2524SOL    HW219209   3.569   1.071   6.880 -0.2724  1.9457  1.0339
 2525SOL     OW19210   3.147   3.513   4.637  0.2292 -0.2784 -0.1514
 2525SOL    HW119211   3.197   3.456   4.696  0.5173 -1.9513 -1.9833
 2525SOL    HW219212   3.164   3.597   4.679  0.2930  0.3884 -1.5373
 2526SOL     OW19213   2.335   4.430   7.061 -0.0299  0.1798 -0.0522
 2526SOL    HW119214   2.270   4.450   6.994 -1.1422 -1.4494  0.5417
 2526SOL    HW219215   2.279   4.423   7.139 -0.3097 -0.0646 -0.2748
 2527SOL     OW19216   0.954   2.138   1.497 -0.0073  0.4596  0.0004
 2527SOL    HW119217   1.027   2.077   1.507  1.5236  2.1968 -0.5146
 2527SOL    HW219218   0.921   2.123   1.409 -0.3376  1.2271 -0.0063
 2528SOL     OW19219   0.226   0.436   3.434 -0.2124 -0.1260 -0.4603
 2528SOL    HW119220   0.220   0.493   3.356  1.5093  1.4113  0.5290
 2528SOL    HW219221   0.319   0.432   3.455 -0.5301  1.1895  1.1356
 2529SOL     OW19222   1.043   2.673  17.629  0.5370 -0.2976 -0.4916
 2529SOL    HW119223   0.971   2.667  17.566  1.2257 -0.5414 -1.2474
 2529SOL    HW219224   0.983   2.681  17.704  2.6599  0.8694  1.0746
 2530SOL     OW19225   4.656   0.904   4.112 -0.6227 -0.1490  0.0901
 2530SOL    HW119226   4.567   0.938   4.127 -0.3448  1.3108 -1.4280
 2530SOL    HW219227   4.676   0.869   4.199 -0.8471  0.8403  0.5406
 2531SOL     OW19228   3.032   3.940  15.597  0.3990 -0.5445 -0.0131
 2531SOL    HW119229   3.050   4.031  15.576 -0.4334 -0.3623  0.0453
 2531SOL    HW219230   2.937   3.925  15.593  0.1375  0.8895  0.7622
 2532SOL     OW19231   3.743   0.467   7.844  0.2409  0.4537  0.2292
 2532SOL    HW119232   3.768   0.499   7.931 -0.8352 -2.1989  1.4991
 2532SOL    HW219233   3.791   0.384   7.840 -1.1895 -0.4433  1.8208
 2533SOL     OW19234   2.027   4.044   5.844 -0.1899  0.2412 -0.0319
 2533SOL    HW119235   2.120   4.043   5.864 -0.4369  0.0095  1.1055
 2533SOL    HW219236   1.997   4.115   5.901  2.0756  3.6598 -3.1558
 2534SOL     OW19237   0.430   0.343   9.526 -0.0266 -0.0653  0.8258
 2534SOL    HW119238   0.348   0.301   9.552 -0.5970  1.4176  1.4207
 2534SOL    HW219239   0.471   0.276   9.472 -2.4540 -1.1100  0.2628
 2535SOL     OW19240   2.969   3.016   3.906  0.0026  0.2558 -0.0926
 2535SOL    HW119241   2.997   3.107   3.903 -2.2560  0.8788 -1.8304
 2535SOL    HW219242   2.889   3.016   3.958  0.1626  3.8419  0.1221
 2536SOL     OW19243   1.760   1.640   5.870  0.0072  0.3531 -0.8730
 2536SOL    HW119244   1.828   1.581   5.836  0.5181 -0.0108  0.8245
 2536SOL    HW219245   1.812   1.721   5.878 -0.0413  0.1976  0.9277
 2537SOL     OW19246   4.482   0.603   8.896 -0.0936  0.2665 -0.2878
 2537SOL    HW119247   4.460   0.689   8.860  0.0532  0.2862 -0.3335
 2537SOL    HW219248   4.508   0.555   8.817  0.4724  0.0083  0.0577
 2538SOL     OW19249   2.963   0.365   6.643 -0.1415 -0.2659 -0.1062
 2538SOL    HW119250   2.963   0.269   6.641  0.2525 -0.2906  1.0113
 2538SOL    HW219251   2.951   0.372   6.548 -3.2563  1.1743  0.4131
 2539SOL     OW19252   1.764   2.555   7.278  0.3631 -0.7286 -0.2263
 2539SOL    HW119253   1.844   2.502   7.280 -0.9799 -2.6760  1.6420
 2539SOL    HW219254   1.811   2.637   7.289 -2.4976  0.8704  0.1096
 2540SOL     OW19255   4.651   1.192   6.856 -0.8349 -0.3187  0.6833
 2540SOL    HW119256   4.725   1.240   6.894 -0.8717  0.4076 -0.1668
 2540SOL    HW219257   4.676   1.104   6.884  0.0376  0.5641  2.6582
 2541SOL     OW19258   3.369   4.231   2.455  0.5809  0.4155  0.4074
 2541SOL    HW119259   3.309   4.233   2.530 -1.9202  1.6505 -1.5983
 2541SOL    HW219260   3.321   4.274   2.383  1.4975 -0.4838 -0.7416
 2542SOL     OW19261   2.412   4.361  17.028  0.2933 -0.1242  0.7082
 2542SOL    HW119262   2.453   4.274  17.027  0.8379  0.1496 -0.2532
 2542SOL    HW219263   2.372   4.360  16.942  0.7233  2.6374  0.4989
 2543SOL     OW19264   3.007   4.347   6.559 -0.3367  0.2586 -0.2411
 2543SOL    HW119265   2.964   4.431   6.541  2.0185  1.5206  0.0335
 2543SOL    HW219266   2.981   4.297   6.482 -2.7624 -0.2488  0.8804
 2544SOL     OW19267   3.752   1.905   8.550 -0.0517 -0.0082 -0.1514
 2544SOL    HW119268   3.832   1.911   8.602 -1.2838  0.5938  1.7091
 2544SOL    HW219269   3.778   1.951   8.471  3.3786  0.4235  1.2311
 2545SOL     OW19270   4.731   2.397   4.453  0.3645 -0.2839  0.3663
 2545SOL    HW119271   4.686   2.329   4.503  0.2044  0.9860  1.9348
 2545SOL    HW219272   4.679   2.397   4.372 -0.1611  0.9847  0.7081
 2546SOL     OW19273   2.257   3.029   6.240 -0.0636 -0.2685  0.0773
 2546SOL    HW119274   2.213   2.962   6.188 -0.6575 -0.3627  0.6919
 2546SOL    HW219275   2.326   2.982   6.286 -2.4228 -3.3997  0.4279
 2547SOL     OW19276   2.168   3.712   4.251 -0.0415  0.0324  0.5458
 2547SOL    HW119277   2.218   3.774   4.198 -1.2723 -0.5467 -1.2619
 2547SOL    HW219278   2.224   3.699   4.328  1.1514  0.5286 -0.2447
 2548SOL     OW19279   0.357   1.764   3.845  0.2625  0.4134 -0.1074
 2548SOL    HW119280   0.403   1.688   3.881 -1.8857  0.0666  1.8945
 2548SOL    HW219281   0.439   1.814   3.845 -0.2874  1.3028  0.2231
 2549SOL     OW19282   3.985   4.395   4.180  0.1127  0.0927  0.2112
 2549SOL    HW119283   3.907   4.352   4.145  1.5162  0.7120 -3.6106
 2549SOL    HW219284   4.023   4.317   4.222 -1.9880 -0.8538  0.3650
 2550SOL     OW19285   0.034   2.357   9.654 -0.2940 -0.1120 -0.1198
 2550SOL    HW119286   0.057   2.428   9.714  1.1138  1.5010 -2.5761
 2550SOL    HW219287   0.058   2.277   9.702  1.0389  0.5433  0.3202
 2551SOL     OW19288   0.458   0.153   5.778  0.5219  0.4092 -0.3169
 2551SOL    HW119289   0.463   0.173   5.872  1.2238  0.3532 -0.3395
 2551SOL    HW219290   0.375   0.195   5.755  0.9147  1.5872  0.4432
 2552SOL     OW19291   0.244   3.668   7.382  0.2359 -0.4523 -0.3074
 2552SOL    HW119292   0.164   3.715   7.405  0.1931 -1.2981  1.3093
 2552SOL    HW219293   0.207   3.608   7.317 -0.4149  0.2732 -0.6044
 2553SOL     OW19294   0.405   2.438  11.542 -0.1279 -0.9712  0.4038
 2553SOL    HW119295   0.400   2.523  11.586  0.5744 -0.5667 -0.2839
 2553SOL    HW219296   0.497   2.423  11.519 -0.3935  0.4546 -1.6905
 2554SOL     OW19297   1.451   4.096   7.782  0.1202 -0.4517 -0.2915
 2554SOL    HW119298   1.359   4.081   7.803 -0.1283  0.8315 -0.4789
 2554SOL    HW219299   1.446   4.179   7.736  0.4674  0.3862  1.1927
 2555SOL     OW19300   2.479   0.333   1.648 -0.3605 -0.3133  0.8916
 2555SOL    HW119301   2.396   0.373   1.623 -0.7999 -1.9376 -0.2400
 2555SOL    HW219302   2.528   0.318   1.566  1.3165 -1.2314  2.0500
 2556SOL     OW19303   4.100   1.789   8.482 -0.0467  0.2613  0.2965
 2556SOL    HW119304   4.187   1.751   8.496 -0.4518 -0.8994 -0.2941
 2556SOL    HW219305   4.109   1.835   8.399 -0.2793  0.2738  0.2795
 2557SOL     OW19306   4.187   0.364  17.084  0.5898  0.1576 -0.2050
 2557SOL    HW119307   4.243   0.399  17.015 -2.5254 -1.3243 -3.4746
 2557SOL    HW219308   4.133   0.439  17.112 -1.2593 -1.4160  0.5006
 2558SOL     OW19309   1.835   0.393   2.363  0.3116 -0.8794 -0.7846
 2558SOL    HW119310   1.784   0.318   2.334  0.0468 -0.4669 -1.3796
 2558SOL    HW219311   1.887   0.363   2.438  0.0469  1.8165  0.4977
 2559SOL     OW19312   0.483   1.075   9.241  0.2257 -0.0696 -0.4306
 2559SOL    HW119313   0.532   1.046   9.163  0.9975  1.6378 -0.5778
 2559SOL    HW219314   0.537   1.050   9.316  0.0234  0.3275 -0.1541
 2560SOL     OW19315   4.054   4.431  14.972 -0.2942 -0.2189  0.1177
 2560SOL    HW119316   4.093   4.510  15.008  1.7894 -1.1526 -0.1110
 2560SOL    HW219317   4.126   4.372  14.995 -0.0565 -0.0080 -0.0775
 2561SOL     OW19318   2.936   4.230   0.831 -0.1334  0.2590  0.0420
 2561SOL    HW119319   2.905   4.259   0.745  1.8762 -1.1791 -1.1547
 2561SOL    HW219320   2.978   4.149   0.806  1.4186  0.2715  2.6180
 2562SOL     OW19321   2.821   1.665   3.697 -0.1562 -0.1880  0.2931
 2562SOL    HW119322   2.900   1.713   3.673  0.1208 -0.2313  1.1332
 2562SOL    HW219323   2.765   1.730   3.656  2.1937  2.2055  0.8680
 2563SOL     OW19324   4.097   2.466   8.552  0.1145 -0.0285 -0.1331
 2563SOL    HW119325   4.168   2.531   8.552 -1.8875  2.1890  2.6909
 2563SOL    HW219326   4.145   2.393   8.591 -0.5397 -0.2003  0.3372
 2564SOL     OW19327   0.563   2.266  14.450  0.3588  0.1225 -0.3280
 2564SOL    HW119328   0.471   2.250  14.430  0.4580 -1.6856  0.6841
 2564SOL    HW219329   0.592   2.181  14.482 -5.0792 -1.6495 -0.2450
 2565SOL     OW19330   3.961   4.162   3.814 -0.4157  0.1778  0.5365
 2565SOL    HW119331   3.932   4.238   3.763  0.8573 -0.5955 -1.3671
 2565SOL    HW219332   3.983   4.190   3.903 -0.3305  0.2476  0.4943
 2566SOL     OW19333   2.551   3.279  13.976 -0.3448 -0.3924 -0.2826
 2566SOL    HW119334   2.508   3.332  13.909 -0.3673 -0.4638 -0.3251
 2566SOL    HW219335   2.617   3.342  14.005 -1.2810 -0.2934  1.6099
 2567SOL     OW19336   1.651   1.526   2.773 -0.5097 -0.3072 -0.6089
 2567SOL    HW119337   1.678   1.456   2.714 -3.1074 -2.0742  0.2929
 2567SOL    HW219338   1.667   1.478   2.854  1.1231 -1.3634 -1.5625
 2568SOL     OW19339   3.414   2.909   9.123 -0.3450 -0.0748 -0.3578
 2568SOL    HW119340   3.477   2.981   9.125  0.4711 -0.7775 -0.7619
 2568SOL    HW219341   3.397   2.907   9.029  2.4263 -0.4652 -0.8609
 2569SOL     OW19342   3.691   3.397   6.498  0.0820 -0.7257  0.2838
 2569SOL    HW119343   3.768   3.407   6.443 -0.4326  0.8372 -0.1646
 2569SOL    HW219344   3.682   3.489   6.520 -2.4126 -1.0116  0.4710
 2570SOL     OW19345   0.304   1.801  13.256 -0.0802 -0.2615 -0.0435
 2570SOL    HW119346   0.212   1.776  13.269 -0.2713  0.7788  0.5582
 2570SOL    HW219347   0.342   1.770  13.339  1.5837  3.4545  0.5966
 2571SOL     OW19348   1.202   0.707   3.532 -0.4120 -0.1153 -0.4209
 2571SOL    HW119349   1.195   0.800   3.557  0.0727 -0.2594  0.2528
 2571SOL    HW219350   1.223   0.720   3.440 -0.6918  2.0446 -0.1753
 2572SOL     OW19351   1.384   0.940   6.357  0.3831  0.1167  0.1825
 2572SOL    HW119352   1.456   0.942   6.420 -0.1373 -0.8234  0.8053
 2572SOL    HW219353   1.423   0.878   6.295  2.9109  1.6348  0.2636
 2573SOL     OW19354   3.650   0.369   1.165  0.0343  0.0735  0.6452
 2573SOL    HW119355   3.587   0.299   1.147 -0.1304  0.2019  0.7253
 2573SOL    HW219356   3.615   0.441   1.111  0.4905  1.8279  2.7037
 2574SOL     OW19357   1.795   2.830   5.065  0.7101 -0.2156 -0.2891
 2574SOL    HW119358   1.864   2.857   5.125 -1.3151  1.1844  1.4096
 2574SOL    HW219359   1.746   2.911   5.051  0.3078 -0.6650 -1.5097
 2575SOL     OW19360   1.498   1.904   9.716  0.3825 -0.3123  0.0417
 2575SOL    HW119361   1.575   1.867   9.759  0.1001  1.9162  2.4953
 2575SOL    HW219362   1.432   1.880   9.782  1.6601  0.8754  1.7590
 2576SOL     OW19363   0.398   1.759   0.837 -0.0650 -0.4886  0.2273
 2576SOL    HW119364   0.493   1.769   0.834 -0.3862  2.2922 -0.2621
 2576SOL    HW219365   0.378   1.782   0.747  3.0098  2.2276  0.2467
 2577SOL     OW19366   1.463   1.972  11.113  0.0009  0.1865 -0.0482
 2577SOL    HW119367   1.537   1.911  11.103 -1.7208 -1.9926  0.4816
 2577SOL    HW219368   1.491   2.037  11.049 -1.6466 -1.7304 -2.7280
 2578SOL     OW19369   1.084   4.221   1.462  0.3949 -0.3376 -0.5828
 2578SOL    HW119370   1.003   4.173   1.446  1.1291 -0.8620 -2.8203
 2578SOL    HW219371   1.125   4.195   1.379  3.6736 -0.0755  0.9644
 2579SOL     OW19372   1.877   4.210   3.585 -0.4274  0.0166  0.8826
 2579SOL    HW119373   1.793   4.193   3.542 -1.6860  0.9947  2.9323
 2579SOL    HW219374   1.856   4.208   3.679  0.7530  1.3406  1.1625
 2580SOL     OW19375   0.586   0.539   2.629  0.5037  0.3670 -0.4875
 2580SOL    HW119376   0.667   0.581   2.600  1.0830 -0.2713  0.2304
 2580SOL    HW219377   0.541   0.538   2.545 -0.3895  0.1137  0.0000
 2581SOL     OW19378   3.210   0.103   5.030 -0.1309 -0.0527 -0.0402
 2581SOL    HW119379   3.259   0.159   5.091 -0.0163  0.0652 -0.2413
 2581SOL    HW219380   3.244   0.019   5.061 -0.8886 -0.0146  0.8950
 2582SOL     OW19381   3.250   0.602   1.762 -0.3525 -0.5521 -0.3207
 2582SOL    HW119382   3.226   0.578   1.852 -1.3951 -0.9385 -0.7055
 2582SOL    HW219383   3.186   0.666   1.732 -1.8975 -1.9179  0.0617
 2583SOL     OW19384   3.606   0.800  12.878  0.3353  0.3646  0.1451
 2583SOL    HW119385   3.667   0.810  12.805  1.8275 -0.7745  1.2255
 2583SOL    HW219386   3.546   0.868  12.849 -0.8759  0.8345  3.7261
 2584SOL     OW19387   3.571   4.316   9.959  0.4963 -0.4920  0.0542
 2584SOL    HW119388   3.528   4.237   9.991 -1.5124  0.4011 -0.4620
 2584SOL    HW219389   3.531   4.316   9.872  2.2283 -1.6593 -0.7557
 2585SOL     OW19390   1.536   1.848  14.407  0.3409 -0.4197  0.1892
 2585SOL    HW119391   1.468   1.785  14.382  0.1205 -0.5657  1.1571
 2585SOL    HW219392   1.508   1.863  14.497  1.1746  0.4993  0.2957
 2586SOL     OW19393   3.130   0.466   4.871  0.0391 -0.2065  0.2810
 2586SOL    HW119394   3.169   0.541   4.917 -1.4796  0.8204 -0.0799
 2586SOL    HW219395   3.163   0.473   4.782 -1.6141  0.8749 -0.2469
 2587SOL     OW19396   0.045   3.909   9.686 -0.1079 -0.2559 -0.6430
 2587SOL    HW119397   0.042   3.843   9.616  2.2768  1.3132 -2.2202
 2587SOL    HW219398   0.020   3.866   9.768  2.7035 -1.5720 -0.4684
 2588SOL     OW19399   1.054   3.457   2.857 -0.1989  0.3158 -0.1387
 2588SOL    HW119400   1.147   3.448   2.876 -0.1859 -1.4122 -1.0338
 2588SOL    HW219401   1.018   3.489   2.940 -0.3961  3.9559 -1.6143
 2589SOL     OW19402   2.956   2.878  15.814  0.4783 -0.1813  0.1717
 2589SOL    HW119403   2.984   2.964  15.845  1.0261 -0.6057  0.8707
 2589SOL    HW219404   3.020   2.824  15.860 -1.4334 -0.6597  2.2504
 2590SOL     OW19405   4.474   2.899   8.219 -0.0770 -0.2494 -0.5372
 2590SOL    HW119406   4.526   2.879   8.297  1.0394 -0.9378 -1.4676
 2590SOL    HW219407   4.538   2.937   8.160 -0.4892 -0.0104 -0.8317
 2591SOL     OW19408   4.344   3.718   4.239 -0.7361 -0.4723 -0.2398
 2591SOL    HW119409   4.277   3.730   4.172 -0.1668  0.5040 -0.6366
 2591SOL    HW219410   4.298   3.675   4.311 -1.7847 -0.4170 -0.8878
 2592SOL     OW19411   4.128   0.582  15.728  0.8574  0.1547 -0.4244
 2592SOL    HW119412   4.170   0.523  15.790  2.3888  2.5876  0.8343
 2592SOL    HW219413   4.192   0.650  15.706  1.2561 -0.2568 -0.5308
 2593SOL     OW19414   1.850   0.459  14.615 -0.3875 -0.0601 -0.3510
 2593SOL    HW119415   1.756   0.449  14.597 -0.9034  3.0323  0.6062
 2593SOL    HW219416   1.840   0.497  14.702 -0.2354 -0.5925 -0.0973
 2594SOL     OW19417   3.017   2.623   4.988  0.6342 -0.7961 -0.5830
 2594SOL    HW119418   2.967   2.615   4.907  2.3449 -1.2199 -1.6119
 2594SOL    HW219419   3.046   2.714   4.993 -0.2796 -0.4956 -0.8012
 2595SOL     OW19420   3.035   1.902   7.319  0.5339  0.4491  0.0323
 2595SOL    HW119421   3.010   1.845   7.247  0.0044 -2.0655  2.1900
 2595SOL    HW219422   3.117   1.855   7.338 -0.5794 -0.4710  2.6804
 2596SOL     OW19423   1.855   4.216  10.860  0.8872  0.1781 -0.6187
 2596SOL    HW119424   1.817   4.155  10.924 -1.7464  1.5146 -0.9133
 2596SOL    HW219425   1.775   4.261  10.834  1.2866  1.1315 -0.1999
 2597SOL     OW19426   1.082   4.410  15.268  0.4897  0.3347  0.1752
 2597SOL    HW119427   1.082   4.502  15.294 -1.3371 -0.0665  1.6175
 2597SOL    HW219428   1.076   4.375  15.357 -0.3832  0.1330  0.0450
 2598SOL     OW19429   2.701   0.729   8.694 -0.2392  0.0879  0.5584
 2598SOL    HW119430   2.686   0.823   8.702 -2.1507 -0.2487  1.0690
 2598SOL    HW219431   2.675   0.693   8.609 -1.6788 -0.2039  1.1108
 2599SOL     OW19432   4.669   3.180  15.439  0.6300 -0.0875  0.1399
 2599SOL    HW119433   4.678   3.085  15.451 -0.8756 -0.3847 -0.9397
 2599SOL    HW219434   4.614   3.204  15.513  0.7299  0.2808  0.0942
 2600SOL     OW19435   3.836   1.114  12.433 -0.1213  0.2042 -0.3032
 2600SOL    HW119436   3.759   1.119  12.377 -0.5072  1.1371  0.3044
 2600SOL    HW219437   3.906   1.102  12.369  0.0087  0.3120 -0.1815
 2601SOL     OW19438   3.534   0.382  16.722  0.5858 -0.0278 -0.8492
 2601SOL    HW119439   3.492   0.429  16.795 -0.6687 -1.0023 -0.9365
 2601SOL    HW219440   3.593   0.454  16.700 -0.2888  1.3654  1.3177
 2602SOL     OW19441   4.520   0.819  10.370 -0.2233 -0.1703 -0.5815
 2602SOL    HW119442   4.449   0.784  10.424 -0.4839 -1.5671 -1.8476
 2602SOL    HW219443   4.574   0.741  10.356 -0.7496 -0.9263  1.5288
 2603SOL     OW19444   4.456   1.006   5.228  0.4411 -0.3480  0.0829
 2603SOL    HW119445   4.530   1.028   5.171  0.1145 -0.7451 -0.4939
 2603SOL    HW219446   4.503   1.002   5.311 -0.0378  1.0338  0.4013
 2604SOL     OW19447   1.168   2.494  15.907 -0.0875  0.3679  0.3577
 2604SOL    HW119448   1.088   2.445  15.885  1.3041 -1.1971 -1.2724
 2604SOL    HW219449   1.152   2.584  15.880 -1.0378 -0.3330 -1.4374
 2605SOL     OW19450   3.237   3.155  11.105 -0.0376  0.3099 -0.6022
 2605SOL    HW119451   3.254   3.170  11.011  0.1057 -0.3448 -0.6766
 2605SOL    HW219452   3.179   3.079  11.102 -0.0173  0.2030  2.3278
 2606SOL     OW19453   0.042   0.388  15.536  0.2903 -0.0781 -0.3329
 2606SOL    HW119454   0.065   0.480  15.551 -1.6459 -0.0412  2.2969
 2606SOL    HW219455   0.081   0.339  15.608 -1.3655  0.9895  1.2575
 2607SOL     OW19456   1.850   2.041   2.596 -0.3533 -0.0742 -0.4811
 2607SOL    HW119457   1.855   1.960   2.647 -0.9072 -0.5150 -1.1329
 2607SOL    HW219458   1.758   2.056   2.578  0.0533 -1.2041 -3.4931
 2608SOL     OW19459   3.737   3.235   8.605  0.5025 -0.6716 -0.3708
 2608SOL    HW119460   3.712   3.277   8.687  2.6481 -1.7342  0.8538
 2608SOL    HW219461   3.832   3.247   8.601  0.7410 -2.7584 -1.0451
 2609SOL     OW19462   1.329   1.235   3.291  0.5123 -0.0737  0.7108
 2609SOL    HW119463   1.333   1.222   3.386  4.2988 -4.2222 -0.0160
 2609SOL    HW219464   1.382   1.162   3.258 -1.0977 -0.9966  0.1542
 2610SOL     OW19465   4.629   0.823   3.613 -0.1328  0.0631 -0.2273
 2610SOL    HW119466   4.716   0.792   3.589  0.0984  0.0346  0.6238
 2610SOL    HW219467   4.623   0.779   3.698 -0.0598 -0.8912 -0.7125
 2611SOL     OW19468   1.477   4.629  16.660  0.3905  0.3121 -0.0246
 2611SOL    HW119469   1.516   4.567  16.723 -2.3976 -0.3503  1.0283
 2611SOL    HW219470   1.559   4.671  16.632  1.8463 -3.4634 -1.4761
 2612SOL     OW19471   2.391   2.285   5.216  0.2282  0.3442 -0.0283
 2612SOL    HW119472   2.476   2.323   5.239 -0.6566  0.7728  2.4500
 2612SOL    HW219473   2.391   2.309   5.123 -0.2701 -1.8667 -0.6063
 2613SOL     OW19474   0.367   2.228   3.251 -0.6536 -0.1824  0.5914
 2613SOL    HW119475   0.324   2.313   3.251 -0.5904 -0.1576 -3.1589
 2613SOL    HW219476   0.372   2.224   3.346 -0.6462  2.8250  0.7235
 2614SOL     OW19477   3.214   1.930   8.610 -0.2492  0.0630 -0.5320
 2614SOL    HW119478   3.265   1.984   8.670  0.8058 -1.1824 -0.3210
 2614SOL    HW219479   3.220   1.844   8.652  1.1261  0.8074  0.7712
 2615SOL     OW19480   2.931   3.727   6.115  0.3375  1.2080 -0.3769
 2615SOL    HW119481   2.886   3.644   6.127  0.4802  1.4785  2.2355
 2615SOL    HW219482   2.994   3.718   6.188 -0.8327 -2.8104  0.1068
 2616SOL     OW19483   2.652   1.215   7.845  0.3571  0.2734  0.4106
 2616SOL    HW119484   2.722   1.251   7.899  1.4200  0.0071 -0.8136
 2616SOL    HW219485   2.648   1.273   7.769 -0.9553 -0.4162 -0.0602
 2617SOL     OW19486   2.300   3.151   6.628  0.0581  0.0062 -0.1049
 2617SOL    HW119487   2.273   3.162   6.719  1.6395  2.9628  0.0311
 2617SOL    HW219488   2.273   3.235   6.591 -2.3968 -0.6280  0.2933
 2618SOL     OW19489   0.509   1.305   4.221 -0.1290  0.2634  0.1591
 2618SOL    HW119490   0.501   1.210   4.208  0.2794  0.1045  1.0655
 2618SOL    HW219491   0.437   1.341   4.169 -0.5090 -0.3243  0.2726
 2619SOL     OW19492   2.812   3.973   0.740  0.2971  0.1595  0.1662
 2619SOL    HW119493   2.802   3.883   0.708 -0.1830 -0.7485  2.8801
 2619SOL    HW219494   2.906   3.983   0.753  0.0874 -1.4893  3.0828
 2620SOL     OW19495   4.430   4.637  11.303 -0.4323 -0.0449 -1.0844
 2620SOL    HW119496   4.478   4.696  11.361 -0.0435  0.0376 -1.4902
 2620SOL    HW219497   4.497   4.574  11.277  2.3158  1.9281  1.2499
 2621SOL     OW19498   1.877   3.951   4.158 -0.1187  0.1530 -0.2340
 2621SOL    HW119499   1.904   4.043   4.153 -0.1512  0.2326  0.9987
 2621SOL    HW219500   1.902   3.916   4.243  1.0442  1.7161  0.0658
 2622SOL     OW19501   3.411   4.352   9.724  0.2734 -0.7251 -0.2273
 2622SOL    HW119502   3.393   4.285   9.658 -0.7240  1.3571 -2.0576
 2622SOL    HW219503   3.469   4.417   9.685  0.7155  0.1923  1.9651
 2623SOL     OW19504   3.778   4.273   5.548  0.7743  0.1003  0.1578
 2623SOL    HW119505   3.794   4.190   5.502 -0.2636 -1.0261  1.8538
 2623SOL    HW219506   3.827   4.247   5.626  1.8820  1.0704 -0.2038
 2624SOL     OW19507   0.206   0.456   2.237 -0.0523  0.1167 -0.2420
 2624SOL    HW119508   0.237   0.521   2.300  0.6506  0.0646 -0.5373
 2624SOL    HW219509   0.119   0.495   2.228  1.1062  2.1445 -2.4773
 2625SOL     OW19510   4.498   0.757  17.129  0.2409  0.1636  0.3882
 2625SOL    HW119511   4.502   0.706  17.048  1.2193 -2.8317  2.3142
 2625SOL    HW219512   4.407   0.755  17.160  0.1942  0.4064  0.2618
 2626SOL     OW19513   3.564   0.874  10.972 -0.3312  0.1637 -0.4143
 2626SOL    HW119514   3.523   0.936  10.912 -0.2585  1.3189  0.7290
 2626SOL    HW219515   3.488   0.838  11.018 -0.2581  0.5243 -0.0144
 2627SOL     OW19516   1.205   1.256  17.700 -0.1450  0.2460  0.2878
 2627SOL    HW119517   1.125   1.208  17.722 -0.8117  0.7400 -1.0888
 2627SOL    HW219518   1.259   1.245   0.040  1.4555  1.3845 -0.6457
 2628SOL     OW19519   4.280   1.433  16.675  0.4740 -0.0166  0.2164
 2628SOL    HW119520   4.354   1.374  16.660  2.5446  2.7507 -0.5222
 2628SOL    HW219521   4.216   1.403  16.610  1.0141 -0.2068 -0.2293
 2629SOL     OW19522   1.531   0.941  11.100  0.1015  0.4971 -0.0459
 2629SOL    HW119523   1.455   0.924  11.044 -0.3815 -0.5141  0.8949
 2629SOL    HW219524   1.491   0.990  11.172 -2.4224 -0.4975 -0.7788
 2630SOL     OW19525   3.910   2.942  16.945  0.3262 -0.4686  0.2366
 2630SOL    HW119526   3.991   2.989  16.930 -1.0029  1.2424 -1.5706
 2630SOL    HW219527   3.907   2.882  16.870  0.5066  0.3155 -0.3917
 2631SOL     OW19528   0.956   0.363   8.519 -0.3230 -0.2383 -0.5922
 2631SOL    HW119529   1.011   0.441   8.526 -0.9848  0.3562 -2.1316
 2631SOL    HW219530   0.885   0.387   8.460 -0.9183 -1.6231 -0.4394
 2632SOL     OW19531   4.158   3.108  15.899  0.0533  0.1426  0.3760
 2632SOL    HW119532   4.157   3.024  15.946  0.3146  0.7816  1.5338
 2632SOL    HW219533   4.224   3.095  15.831  0.6117  0.5925  0.8373
 2633SOL     OW19534   2.940   3.465   4.471 -0.5959  0.2988 -0.2633
 2633SOL    HW119535   2.931   3.561   4.468 -1.7143  0.2328  1.1025
 2633SOL    HW219536   3.028   3.466   4.509 -1.2642 -0.4865  1.3291
 2634SOL     OW19537   0.514   1.404   5.893 -0.2393  0.2493 -0.2324
 2634SOL    HW119538   0.447   1.472   5.882 -1.0981 -0.3734  1.1465
 2634SOL    HW219539   0.588   1.443   5.846  0.2811  0.1382  0.5067
 2635SOL     OW19540   2.807   3.126  15.681  0.2763  0.2803 -0.0412
 2635SOL    HW119541   2.802   3.053  15.742  0.5257 -0.2542 -0.6646
 2635SOL    HW219542   2.899   3.151  15.691  0.5481 -0.4965 -0.6456
 2636SOL     OW19543   3.440   2.705   5.657 -0.5654 -0.1434 -1.1004
 2636SOL    HW119544   3.401   2.628   5.698  0.6433 -0.4913 -0.6085
 2636SOL    HW219545   3.377   2.774   5.673  0.5552  0.0909  2.2973
 2637SOL     OW19546   2.649   2.426   7.746  0.1417  0.1220  0.0181
 2637SOL    HW119547   2.554   2.433   7.750  0.3576  2.9961 -0.3801
 2637SOL    HW219548   2.659   2.336   7.714  0.2116 -0.7294  2.4116
 2638SOL     OW19549   2.404   2.681   2.654  0.0255 -0.4784 -0.0435
 2638SOL    HW119550   2.322   2.633   2.667 -1.0766  1.1540 -1.0871
 2638SOL    HW219551   2.422   2.675   2.560  1.5914 -1.8189  0.3496
 2639SOL     OW19552   3.111   3.510   7.908  0.0943 -0.2938 -0.5341
 2639SOL    HW119553   3.152   3.472   7.986 -0.2873  3.0865  1.3140
 2639SOL    HW219554   3.055   3.580   7.942  1.6850  1.6246 -1.8739
 2640SOL     OW19555   2.087   2.043  14.567  0.4630  0.1206  0.2828
 2640SOL    HW119556   2.167   2.067  14.613 -0.9817  0.0854  2.8463
 2640SOL    HW219557   2.035   2.122  14.581 -1.5881 -0.9202 -1.4322
 2641SOL     OW19558   0.510   0.594   2.364 -0.3424 -0.2950  0.4027
 2641SOL    HW119559   0.483   0.558   2.280  0.0835 -0.3860  0.3006
 2641SOL    HW219560   0.430   0.646   2.372  0.9646  1.1123  4.4352
 2642SOL     OW19561   2.161   2.856   5.095 -0.6010 -0.3200 -0.5866
 2642SOL    HW119562   2.107   2.894   5.164  0.9499 -0.9504  0.9863
 2642SOL    HW219563   2.152   2.764   5.122  3.5879 -1.1693 -2.1217
 2643SOL     OW19564   3.672   4.524  16.945 -0.0208 -0.4554 -0.3062
 2643SOL    HW119565   3.729   4.448  16.934  0.5974  0.1547 -1.2930
 2643SOL    HW219566   3.716   4.581  16.882 -1.4538 -0.4695 -1.3349
 2644SOL     OW19567   4.734   1.860  16.977  0.1325  0.1558 -0.2034
 2644SOL    HW119568   0.054   1.933  17.008  2.6349 -3.0064  2.7696
 2644SOL    HW219569   0.048   1.793  17.025  0.8240 -1.0454 -2.5932
 2645SOL     OW19570   1.715   1.081   8.540 -0.7636 -0.0349 -0.1216
 2645SOL    HW119571   1.654   1.129   8.596 -0.8692 -0.0551 -0.2194
 2645SOL    HW219572   1.711   1.136   8.462  0.1098 -0.0367 -0.1723
 2646SOL     OW19573   4.472   2.530   4.498 -0.6061  0.2734 -0.0551
 2646SOL    HW119574   4.554   2.482   4.503 -0.2090  1.1034  1.2372
 2646SOL    HW219575   4.465   2.558   4.407  3.5603 -0.0082 -0.4536
 2647SOL     OW19576   3.071   3.132   7.816 -0.4582  0.5260 -0.3416
 2647SOL    HW119577   3.006   3.201   7.803  1.3875  2.5017  0.8235
 2647SOL    HW219578   3.015   3.058   7.839 -1.0224  1.6423  1.8876
 2648SOL     OW19579   2.414   2.494   1.651 -0.0713  0.3968 -0.0691
 2648SOL    HW119580   2.327   2.504   1.614 -0.5822  0.5377  1.1538
 2648SOL    HW219581   2.476   2.498   1.578 -0.3171  0.7772 -0.2532
 2649SOL     OW19582   0.144   3.235   5.052  0.2088 -0.3986  0.3817
 2649SOL    HW119583   0.234   3.265   5.040 -0.3554  0.8685 -0.6211
 2649SOL    HW219584   0.098   3.318   5.044 -0.1620 -0.5988  0.4413
 2650SOL     OW19585   4.461   1.378   6.913 -0.1199 -0.4232  0.3154
 2650SOL    HW119586   4.509   1.459   6.892 -1.8543  0.3945 -0.5156
 2650SOL    HW219587   4.520   1.310   6.880  1.2346 -0.0181  1.8740
 2651SOL     OW19588   3.329   0.836   4.407 -0.5339  0.7569  0.5646
 2651SOL    HW119589   3.342   0.929   4.427  2.3052  0.3231  0.7534
 2651SOL    HW219590   3.375   0.819   4.324 -2.2858 -0.3108 -0.1801
 2652SOL     OW19591   1.995   0.379   6.281  0.1250 -0.5034  0.0449
 2652SOL    HW119592   1.942   0.366   6.360  1.1801  0.3938  0.8962
 2652SOL    HW219593   2.081   0.353   6.313 -0.3707 -0.7189  1.1994
 2653SOL     OW19594   2.432   1.181   3.751 -0.0789 -0.0004  0.5284
 2653SOL    HW119595   2.523   1.184   3.721 -1.0399 -1.1837 -2.5051
 2653SOL    HW219596   2.440   1.136   3.835  2.0295 -2.4229 -0.9742
 2654SOL     OW19597   2.894   0.963   5.539  0.1710  0.0024  0.1043
 2654SOL    HW119598   2.966   0.960   5.602  0.3454 -0.3896 -0.1105
 2654SOL    HW219599   2.858   0.875   5.554 -0.0018  0.1851  0.7552
 2655SOL     OW19600   0.441   0.966   5.322 -0.3151 -0.4153 -0.3403
 2655SOL    HW119601   0.530   0.974   5.355 -0.9831  1.5345  0.9788
 2655SOL    HW219602   0.394   0.962   5.405  1.4407 -0.2782  0.6453
 2656SOL     OW19603   1.314   2.815   4.968  0.3019 -0.0581  0.3200
 2656SOL    HW119604   1.326   2.868   5.047  0.2494  1.0038 -0.3784
 2656SOL    HW219605   1.231   2.775   4.993 -0.3999  0.2040 -1.6166
 2657SOL     OW19606   4.005   2.232  13.024  0.0271  0.1692  0.1225
 2657SOL    HW119607   4.047   2.305  13.070  0.3143  0.3305 -0.3814
 2657SOL    HW219608   3.954   2.283  12.960  1.2524  0.5376 -0.5754
 2658SOL     OW19609   0.254   0.332  16.054  0.4314  0.1837  0.0876
 2658SOL    HW119610   0.172   0.374  16.080  0.7560  1.4815 -0.9945
 2658SOL    HW219611   0.310   0.371  16.121 -2.6959  0.1421  2.7426
 2659SOL     OW19612   3.508   2.174  16.721 -1.0666  0.3308  0.4380
 2659SOL    HW119613   3.554   2.139  16.797 -0.1332 -0.7827 -0.6455
 2659SOL    HW219614   3.435   2.220  16.763  0.1978  1.8201  1.0260
 2660SOL     OW19615   3.261   1.783   7.396  0.2908  0.3934  0.2988
 2660SOL    HW119616   3.295   1.854   7.450 -0.5686  0.6742  0.4680
 2660SOL    HW219617   3.264   1.711   7.459  1.9688 -0.0370 -0.2708
 2661SOL     OW19618   1.803   4.666   1.754  0.6234  0.0062  0.6519
 2661SOL    HW119619   1.868   4.722   1.712  0.0643  1.7003  2.0295
 2661SOL    HW219620   1.720   4.710   1.738  0.2237 -0.0419  2.6010
 2662SOL     OW19621   1.193   4.160   0.169  0.9330 -0.3615  0.2257
 2662SOL    HW119622   1.207   4.150   0.263  0.2354 -0.0068  0.3728
 2662SOL    HW219623   1.139   4.084   0.147  1.1443 -0.9831  1.8147
 2663SOL     OW19624   0.674   1.291   6.793 -0.3072  0.5596  0.1672
 2663SOL    HW119625   0.740   1.324   6.732  0.2002 -0.9530 -0.1073
 2663SOL    HW219626   0.598   1.289   6.735 -0.2536 -0.4110  0.1348
 2664SOL     OW19627   0.311   3.729  10.837 -0.0230  0.0308  0.0365
 2664SOL    HW119628   0.326   3.821  10.859 -1.5013  0.4604 -0.7310
 2664SOL    HW219629   0.391   3.704  10.790  0.1038 -0.7785  0.6891
 2665SOL     OW19630   0.044   2.443   9.029  0.4608 -0.1188  0.6324
 2665SOL    HW119631   0.044   2.348   9.018  0.6464 -0.3364  2.4904
 2665SOL    HW219632   0.140   2.445   9.031  0.4149 -0.4255  2.5768
 2666SOL     OW19633   1.305   1.144  17.453 -0.1256  0.1514 -0.2768
 2666SOL    HW119634   1.254   1.064  17.463  0.5724 -0.6574 -3.1757
 2666SOL    HW219635   1.275   1.190  17.531 -2.5011 -0.7282 -0.6798
 2667SOL     OW19636   3.323   4.517   1.029  0.6825 -0.2414  0.4073
 2667SOL    HW119637   3.299   4.524   0.937 -1.6886  1.1187  1.1241
 2667SOL    HW219638   3.250   4.460   1.051  0.7564 -0.3858  0.2755
 2668SOL     OW19639   3.923   1.556  14.307  0.3957  0.0206 -0.5092
 2668SOL    HW119640   4.015   1.580  14.295  0.8065 -1.3558 -0.1414
 2668SOL    HW219641   3.922   1.550  14.403 -0.8494  0.9608 -0.4735
 2669SOL     OW19642   4.335   0.740   3.536 -0.7242  0.3478  0.4688
 2669SOL    HW119643   4.279   0.778   3.604 -1.7479 -1.3658  0.5987
 2669SOL    HW219644   4.423   0.769   3.560 -1.7701  1.7951  2.5613
 2670SOL     OW19645   3.596   3.116   0.424  0.0249  0.5061  0.1123
 2670SOL    HW119646   3.647   3.190   0.456  0.9211 -0.7728  1.6014
 2670SOL    HW219647   3.639   3.087   0.343 -1.3913  0.2369 -0.5476
 2671SOL     OW19648   1.734   4.158  17.210  0.5946 -0.3107  0.2996
 2671SOL    HW119649   1.756   4.241  17.168  0.2932  0.0156  0.7696
 2671SOL    HW219650   1.708   4.107  17.134 -0.1776 -1.9844  1.6812
 2672SOL     OW19651   0.119   1.012   0.110 -0.3126 -0.0866 -0.0740
 2672SOL    HW119652   0.128   0.931   0.061 -0.7529 -1.4707  2.1523
 2672SOL    HW219653   0.048   1.060   0.067 -0.9444  0.5147  1.6392
 2673SOL     OW19654   0.844   4.400   4.870 -0.1345 -0.2085  0.4984
 2673SOL    HW119655   0.771   4.400   4.808 -1.9041 -0.0537  2.6084
 2673SOL    HW219656   0.865   4.486   4.905 -1.3046  0.8359 -1.3461
 2674SOL     OW19657   1.423   1.451   8.158 -0.2016  0.0978  0.0682
 2674SOL    HW119658   1.436   1.370   8.207 -0.7661 -0.1544 -0.2043
 2674SOL    HW219659   1.361   1.497   8.214  0.3949 -1.7134  2.2300
 2675SOL     OW19660   2.921   2.649  10.613 -0.4151  0.5102  0.1835
 2675SOL    HW119661   2.829   2.632  10.633 -0.6841  0.3419 -1.2212
 2675SOL    HW219662   2.923   2.713  10.542 -2.2697 -0.5150 -0.7818
 2676SOL     OW19663   4.080   2.777   7.449 -0.1294 -0.1229 -0.0116
 2676SOL    HW119664   4.160   2.817   7.484 -0.7468  0.6464  0.5124
 2676SOL    HW219665   4.060   2.848   7.389  3.8730 -1.6382 -3.1397
 2677SOL     OW19666   2.452   3.662  16.822 -0.6961  0.0462  0.5874
 2677SOL    HW119667   2.461   3.568  16.810  1.8744  0.3740 -0.2069
 2677SOL    HW219668   2.537   3.701  16.800 -1.6192  0.4156 -2.3768
 2678SOL     OW19669   1.858   1.500   3.296  0.0534  0.2559 -0.0524
 2678SOL    HW119670   1.769   1.505   3.262  0.2450  2.1971 -0.2239
 2678SOL    HW219671   1.862   1.410   3.329  0.8994  0.4797  0.4586
 2679SOL     OW19672   3.703   0.513   4.119 -0.2910  0.4944  0.0997
 2679SOL    HW119673   3.787   0.532   4.077  0.3839 -0.7256  0.8817
 2679SOL    HW219674   3.717   0.570   4.194  1.5128 -1.0053  0.9230
 2680SOL     OW19675   1.559   2.209  14.175 -0.1746  0.3132  1.1407
 2680SOL    HW119676   1.612   2.282  14.144  1.2974 -1.6161 -0.9576
 2680SOL    HW219677   1.471   2.247  14.184 -0.2018  0.2222  1.2513
 2681SOL     OW19678   2.631   1.455  12.723 -0.2795  0.2493  0.5395
 2681SOL    HW119679   2.673   1.538  12.744 -1.7933  1.2930 -0.5474
 2681SOL    HW219680   2.676   1.397  12.785 -0.1938  1.3405  1.4865
 2682SOL     OW19681   0.721   2.362   8.233  0.3476 -0.2693  0.2806
 2682SOL    HW119682   0.641   2.333   8.276  1.0944 -0.3695  1.6328
 2682SOL    HW219683   0.790   2.325   8.289  1.9635  0.1983 -1.3824
 2683SOL     OW19684   3.108   3.305   9.136 -0.1380  0.1012  0.5000
 2683SOL    HW119685   3.125   3.364   9.063 -0.2774  1.3950  1.5188
 2683SOL    HW219686   3.191   3.313   9.183  2.0038 -0.9666 -3.0243
 2684SOL     OW19687   3.613   1.101   3.064 -0.2379 -0.0340 -0.8590
 2684SOL    HW119688   3.602   1.081   3.157 -0.7016  0.0919 -0.8888
 2684SOL    HW219689   3.689   1.160   3.064  1.6743 -2.4940  0.7171
 2685SOL     OW19690   2.050   0.189   6.643 -0.3786 -0.2981 -0.2021
 2685SOL    HW119691   2.081   0.124   6.580 -0.8522 -1.8573  1.1383
 2685SOL    HW219692   2.118   0.254   6.660  0.4267 -1.8063  2.4238
 2686SOL     OW19693   4.614   2.332   6.591 -0.0479 -0.1979  0.4653
 2686SOL    HW119694   4.551   2.390   6.633 -1.2141 -1.4055  0.3778
 2686SOL    HW219695   4.687   2.393   6.580  0.4347 -0.8747 -0.0784
 2687SOL     OW19696   1.230   4.016   6.782  0.7150  0.5524  0.1596
 2687SOL    HW119697   1.201   3.953   6.716 -2.4678  1.5452  0.6272
 2687SOL    HW219698   1.290   4.071   6.732  1.2324  1.4778  1.7753
 2688SOL     OW19699   2.728   3.086   2.194  0.1309  0.0292  0.1917
 2688SOL    HW119700   2.810   3.132   2.179 -0.8498  1.4135 -0.9379
 2688SOL    HW219701   2.667   3.153   2.163 -0.0408  0.3298  1.1669
 2689SOL     OW19702   2.167   2.196   8.832 -0.6741  0.4974  0.3450
 2689SOL    HW119703   2.077   2.177   8.859 -0.8192  0.8925  0.1547
 2689SOL    HW219704   2.154   2.246   8.751  1.8298 -0.3559 -0.5690
 2690SOL     OW19705   3.099   3.163   7.271  0.6056  0.0684 -0.1075
 2690SOL    HW119706   3.008   3.176   7.245  0.8548  0.8610 -0.6210
 2690SOL    HW219707   3.119   3.247   7.314 -1.2464  0.9046 -0.8760
 2691SOL     OW19708   1.563   0.230   7.096  0.1772 -0.1673 -0.3004
 2691SOL    HW119709   1.569   0.141   7.061  0.6195 -0.4465  0.4843
 2691SOL    HW219710   1.488   0.232   7.157  1.4544  1.8257  1.1758
 2692SOL     OW19711   2.436   0.346   0.882 -0.0467  0.4396 -0.5172
 2692SOL    HW119712   2.509   0.292   0.910  0.1886  0.5856 -0.8526
 2692SOL    HW219713   2.400   0.287   0.816 -0.9626 -0.2199  0.5623
 2693SOL     OW19714   0.636   2.855   0.185 -0.1903 -0.4123 -0.2436
 2693SOL    HW119715   0.616   2.928   0.126  0.7099 -0.0065 -0.0340
 2693SOL    HW219716   0.574   2.791   0.149 -0.7529 -0.0368  0.0589
 2694SOL     OW19717   1.055   4.601  12.143 -0.4562  0.2230 -0.1012
 2694SOL    HW119718   1.012   4.609  12.057  1.5799  1.1940 -1.0185
 2694SOL    HW219719   1.022   4.679  12.188  1.5504  0.8244  0.3018
 2695SOL     OW19720   0.201   2.771   4.584 -0.8848 -0.1174  0.0268
 2695SOL    HW119721   0.106   2.768   4.592 -0.7841 -2.0106  0.4721
 2695SOL    HW219722   0.227   2.740   4.670 -1.2703  1.8875  0.8570
 2696SOL     OW19723   2.607   3.585   4.994  0.7489  0.0802 -0.4751
 2696SOL    HW119724   2.637   3.659   4.942  0.4244 -0.2445 -1.1226
 2696SOL    HW219725   2.633   3.607   5.084 -2.2251 -0.0272  0.4220
 2697SOL     OW19726   3.539   3.671   1.457 -0.2056 -0.3823 -0.0588
 2697SOL    HW119727   3.627   3.675   1.420 -0.7388  2.5071 -1.0421
 2697SOL    HW219728   3.524   3.577   1.451 -0.7199 -0.3346  0.4923
 2698SOL     OW19729   0.267   0.192   6.225 -0.5711 -0.5648 -0.5828
 2698SOL    HW119730   0.192   0.249   6.237  0.9230  1.5748 -1.2837
 2698SOL    HW219731   0.253   0.114   6.277 -1.6697  0.7177  1.0325
 2699SOL     OW19732   2.699   4.384   9.440  0.2740  0.2716 -0.5385
 2699SOL    HW119733   2.731   4.428   9.361  0.1377 -0.6086 -1.0802
 2699SOL    HW219734   2.720   4.451   9.506 -0.2055  1.0252 -1.1514
 2700SOL     OW19735   0.049   0.300   5.886 -0.1623  0.2494 -0.2680
 2700SOL    HW119736   0.072   0.231   5.822  0.9692  1.3708 -1.0671
 2700SOL    HW219737   4.710   0.254   5.926 -0.1751  0.8663  0.4183
 2701SOL     OW19738   1.952   4.627   5.765  0.6160 -0.0663  0.2144
 2701SOL    HW119739   1.878   4.687   5.768  1.6042  1.1201  0.9118
 2701SOL    HW219740   1.944   4.592   5.853  1.3535  2.3539  1.2371
 2702SOL     OW19741   0.890   4.106   8.112  0.0914  0.1379  0.1979
 2702SOL    HW119742   0.920   4.187   8.153 -0.4525  0.5288 -0.1760
 2702SOL    HW219743   0.795   4.119   8.108 -0.0496 -1.1136 -0.5129
 2703SOL     OW19744   2.525   2.875  15.748  0.1177  0.0967  0.5444
 2703SOL    HW119745   2.595   2.811  15.738  0.8305  0.7836  1.1939
 2703SOL    HW219746   2.540   2.898  15.840  0.7462  0.7469  0.2723
 2704SOL     OW19747   4.614   1.201  13.399 -0.0652  0.7127 -0.5998
 2704SOL    HW119748   4.581   1.111  13.393  1.2093  0.2558 -0.8445
 2704SOL    HW219749   4.697   1.196  13.352 -0.5117 -0.7541 -1.2607
 2705SOL     OW19750   0.738   1.209   7.057  0.3024 -0.0812  0.0570
 2705SOL    HW119751   0.673   1.139   7.065 -0.3226  0.5357  0.3958
 2705SOL    HW219752   0.735   1.222   6.962  0.1036 -2.0338 -0.1965
 2706SOL     OW19753   2.481   2.351   2.754  0.1082 -0.1546 -0.3933
 2706SOL    HW119754   2.406   2.405   2.729 -1.0272 -0.2488  2.7944
 2706SOL    HW219755   2.460   2.265   2.717 -0.5432  1.2704 -3.3228
 2707SOL     OW19756   2.737   0.670  11.796 -0.2099  0.3347  0.4900
 2707SOL    HW119757   2.722   0.673  11.702  1.4373  0.4908  0.2315
 2707SOL    HW219758   2.680   0.739  11.831 -0.8332 -0.7345  1.6040
 2708SOL     OW19759   0.660   1.260   2.865 -0.0563  0.4703 -0.6302
 2708SOL    HW119760   0.577   1.217   2.844 -0.1160 -0.8360  2.3041
 2708SOL    HW219761   0.694   1.307   2.789  1.1058  1.1836  0.3219
 2709SOL     OW19762   0.620   3.576   5.224 -0.4051 -0.2728 -0.4150
 2709SOL    HW119763   0.588   3.658   5.186  0.8645 -0.3941 -1.7478
 2709SOL    HW219764   0.650   3.608   5.310 -0.5513  1.1832 -0.9051
 2710SOL     OW19765   2.924   1.496   1.402  0.2638  0.2257  0.5450
 2710SOL    HW119766   2.895   1.429   1.341  0.6009 -0.9331  1.6523
 2710SOL    HW219767   3.017   1.479   1.416  0.2763 -0.0875  0.0532
 2711SOL     OW19768   2.118   1.732   3.817  0.1168  0.5439 -0.2770
 2711SOL    HW119769   2.032   1.710   3.780 -0.8833  1.6897  1.3910
 2711SOL    HW219770   2.095   1.732   3.910 -1.3832  1.1505 -0.6343
 2712SOL     OW19771   2.043   3.703   0.101  0.1886 -0.0246 -0.5301
 2712SOL    HW119772   2.052   3.609   0.116  0.3042 -0.1731 -1.5845
 2712SOL    HW219773   2.073   3.725   0.190  1.6779 -3.2491 -0.2679
 2713SOL     OW19774   1.873   1.614   2.976  0.9596  0.1665  0.1306
 2713SOL    HW119775   1.899   1.550   2.909 -0.2437  1.9355 -2.0240
 2713SOL    HW219776   1.869   1.569   3.060 -1.5251  1.5076  0.7062
 2714SOL     OW19777   2.574   1.873   9.765 -0.0634 -0.3284  0.8853
 2714SOL    HW119778   2.629   1.888   9.689 -2.5886  0.5239 -0.7812
 2714SOL    HW219779   2.610   1.932   9.831  0.4415 -0.5870  0.8387
 2715SOL     OW19780   0.417   0.639  17.713  0.4488 -0.2632 -0.0700
 2715SOL    HW119781   0.372   0.716  17.677  1.1458  0.7823  1.2983
 2715SOL    HW219782   0.345   0.582  17.687 -0.1080  0.2709  0.2782
 2716SOL     OW19783   0.108   4.143   4.815  0.1403  0.1786  0.1348
 2716SOL    HW119784   0.070   4.230   4.829 -0.6412 -0.2648  0.8622
 2716SOL    HW219785   0.144   4.120   4.901 -1.0387 -0.5862  0.4317
 2717SOL     OW19786   2.034   3.933  10.078  0.0211 -0.1033  0.8756
 2717SOL    HW119787   2.008   3.841  10.075  2.6539 -0.8209  0.0777
 2717SOL    HW219788   2.000   3.953  10.166  1.8764  0.4543  1.4586
 2718SOL     OW19789   1.850   4.571  13.401  0.2910  0.4913  0.3548
 2718SOL    HW119790   1.834   4.634  13.330 -1.8543  0.6502  0.9751
 2718SOL    HW219791   1.910   4.620  13.457  1.5001 -0.9409  0.3174
 2719SOL     OW19792   4.295   2.469   1.289 -0.1352  0.5150 -0.2066
 2719SOL    HW119793   4.370   2.459   1.347 -0.3364 -1.8971 -0.3228
 2719SOL    HW219794   4.345   2.502   1.215 -0.7247 -2.1514 -1.8301
 2720SOL     OW19795   2.045   1.097  14.097 -0.0311 -0.3400  0.3134
 2720SOL    HW119796   2.123   1.042  14.098 -0.0324 -0.3376  0.4709
 2720SOL    HW219797   2.002   1.056  14.022 -1.9855  4.0268 -0.9414
 2721SOL     OW19798   4.450   1.873   7.565  0.4023  0.0882 -0.3777
 2721SOL    HW119799   4.438   1.961   7.530  1.8043  0.5402  0.2598
 2721SOL    HW219800   4.541   1.872   7.597 -0.3989 -0.3725  1.9125
 2722SOL     OW19801   2.759   3.304  13.133  0.1626  0.2109  0.0769
 2722SOL    HW119802   2.693   3.336  13.195 -0.5272 -0.0893 -0.4945
 2722SOL    HW219803   2.842   3.343  13.159  0.3751 -0.4460  0.3796
 2723SOL     OW19804   1.935   4.166  16.797 -0.2930 -0.4562 -0.3141
 2723SOL    HW119805   1.840   4.179  16.799 -0.1248  0.9781 -2.3571
 2723SOL    HW219806   1.944   4.121  16.713  0.1749  0.6899 -0.8757
 2724SOL     OW19807   3.706   0.276   8.406  0.5808  0.0743 -0.1346
 2724SOL    HW119808   3.796   0.251   8.426 -0.3318 -2.2868  1.0095
 2724SOL    HW219809   3.670   0.286   8.494  1.5058 -1.7579  0.4442
 2725SOL     OW19810   2.247   2.612  15.126 -0.7158 -0.7817 -0.1950
 2725SOL    HW119811   2.194   2.668  15.069 -0.9157 -0.5635  0.2100
 2725SOL    HW219812   2.323   2.592  15.070 -0.5276 -2.4446  0.6914
 2726SOL     OW19813   2.585   0.632   8.208  0.2821  0.1528 -0.3462
 2726SOL    HW119814   2.515   0.667   8.154 -1.5491 -1.9390  0.6737
 2726SOL    HW219815   2.537   0.564   8.256 -3.0513  2.9911  0.3639
 2727SOL     OW19816   4.469   1.077   0.261 -0.0768 -0.3442  0.3235
 2727SOL    HW119817   4.525   0.999   0.268 -0.9296 -0.8238  1.9723
 2727SOL    HW219818   4.384   1.038   0.240  0.9736 -1.5422 -1.7121
 2728SOL     OW19819   1.503   3.507  16.609  0.2216  0.0291  0.6101
 2728SOL    HW119820   1.484   3.600  16.597  1.6978  0.5650  2.4075
 2728SOL    HW219821   1.557   3.496  16.530  0.5092 -1.7502  1.0680
 2729SOL     OW19822   0.755   3.032   3.573  0.0013  0.3901  0.3102
 2729SOL    HW119823   0.785   3.111   3.528  0.0957  0.8634  1.2209
 2729SOL    HW219824   0.835   3.001   3.615 -0.1981  2.2216  2.0085
 2730SOL     OW19825   0.393   4.607   1.201 -0.3673  0.3059  0.2173
 2730SOL    HW119826   0.440   4.656   1.268 -1.3839 -0.1742  1.2781
 2730SOL    HW219827   0.464   4.547   1.178  1.1206  2.0627  0.2277
 2731SOL     OW19828   1.266   4.590   5.242  0.5987  0.1378  0.6515
 2731SOL    HW119829   1.183   4.611   5.284 -1.0617 -2.8180 -1.1484
 2731SOL    HW219830   1.255   4.502   5.206  1.5620 -0.0490  0.7941
 2732SOL     OW19831   0.410   0.563  14.918  0.2680 -0.1131  0.3905
 2732SOL    HW119832   0.390   0.471  14.901  0.1530 -0.0766  0.3241
 2732SOL    HW219833   0.415   0.589  14.826 -1.6734 -0.2960  0.2358
 2733SOL     OW19834   0.237   4.587  15.666 -0.1511  0.0452 -0.0514
 2733SOL    HW119835   0.232   4.683  15.659 -0.1623  0.3217  3.4906
 2733SOL    HW219836   0.310   4.590  15.728 -1.0922 -2.8774  1.1650
 2734SOL     OW19837   4.308   1.752   6.710 -0.2872  0.4222 -0.0995
 2734SOL    HW119838   4.291   1.702   6.630 -0.2709 -1.0104  0.7830
 2734SOL    HW219839   4.237   1.728   6.770  0.2388 -0.1461  0.2906
 2735SOL     OW19840   2.820   2.437   1.988 -0.6022 -0.8921 -0.0257
 2735SOL    HW119841   2.785   2.459   1.901 -0.7093  0.0207  0.2552
 2735SOL    HW219842   2.820   2.342   1.973  1.9687 -0.8527 -0.3539
 2736SOL     OW19843   2.816   1.715   4.742 -0.0616 -0.4004  0.3816
 2736SOL    HW119844   2.899   1.752   4.773 -0.3810  0.9983 -0.4533
 2736SOL    HW219845   2.785   1.699   4.832 -0.5053  2.7776  0.7854
 2737SOL     OW19846   4.289   3.418   4.902  0.3234 -0.4120  0.4291
 2737SOL    HW119847   4.274   3.435   4.995 -1.3254  1.3980 -0.1688
 2737SOL    HW219848   4.298   3.323   4.898  4.1285  0.0385 -1.6939
 2738SOL     OW19849   2.282   3.479   0.020 -0.1778  0.0186 -0.2147
 2738SOL    HW119850   2.369   3.485   0.060 -0.3930 -0.9992  0.4050
 2738SOL    HW219851   2.283   3.392  17.719  0.8161 -0.3607  0.6266
 2739SOL     OW19852   3.132   0.998   5.121 -0.1182  0.3255  0.0789
 2739SOL    HW119853   3.117   1.089   5.146 -0.5076  0.3743 -0.3285
 2739SOL    HW219854   3.043   0.966   5.103  0.2857 -1.5639  1.4505
 2740SOL     OW19855   4.634   1.911   3.870 -0.1892 -0.0208 -0.2403
 2740SOL    HW119856   4.723   1.923   3.836 -0.8975  0.5539 -1.8593
 2740SOL    HW219857   4.594   1.997   3.856 -1.5605 -0.7904 -1.0327
 2741SOL     OW19858   0.193   0.297  10.525  0.2297 -0.2460 -0.0405
 2741SOL    HW119859   0.198   0.333  10.436  2.3039  1.5473  0.8044
 2741SOL    HW219860   0.279   0.316  10.560  0.3423 -2.0332  0.6483
 2742SOL     OW19861   3.000   2.993   5.435 -0.1775  0.6238  0.2037
 2742SOL    HW119862   2.944   2.995   5.513 -0.2309 -0.7325  0.1846
 2742SOL    HW219863   2.958   3.068   5.392  1.2829 -0.5079 -3.1742
 2743SOL     OW19864   0.973   1.517   4.500  0.1745 -0.1961 -0.4233
 2743SOL    HW119865   1.061   1.482   4.487  0.1103  0.2559 -2.0726
 2743SOL    HW219866   0.965   1.484   4.589  0.0322  1.2130  0.0842
 2744SOL     OW19867   2.399   2.297   1.851 -0.0426 -0.1420 -0.3139
 2744SOL    HW119868   2.373   2.228   1.790  0.8872  0.0584 -0.9390
 2744SOL    HW219869   2.411   2.376   1.798 -1.6521  0.3505  0.0757
 2745SOL     OW19870   0.567   4.633  11.454  0.1870 -0.2703  0.1070
 2745SOL    HW119871   0.500   4.661  11.517 -0.4237 -1.1854 -0.1322
 2745SOL    HW219872   0.509   4.619  11.380 -1.4899 -0.8144  1.5180
 2746SOL     OW19873   2.305   3.873   9.441  0.4765 -0.8268  0.1021
 2746SOL    HW119874   2.382   3.908   9.397 -0.6286  1.9614  0.3370
 2746SOL    HW219875   2.330   3.781   9.444  0.1489 -0.9586 -1.6126
 2747SOL     OW19876   2.596   0.846  11.940  0.3055 -0.0942  0.3855
 2747SOL    HW119877   2.627   0.890  12.019 -0.1938  0.4616  0.2624
 2747SOL    HW219878   2.504   0.862  11.959  0.0358 -1.5599  0.3513
 2748SOL     OW19879   2.838   3.793   4.789  0.4605 -0.1022  0.1585
 2748SOL    HW119880   2.785   3.836   4.856  0.8748  1.1798 -0.3371
 2748SOL    HW219881   2.878   3.867   4.742 -0.5655  0.9047  0.8721
 2749SOL     OW19882   1.720   4.613   9.877 -0.3557 -0.1680 -0.4172
 2749SOL    HW119883   1.776   4.644   9.806  1.1204  1.8193  1.6149
 2749SOL    HW219884   1.670   4.560   9.815  1.2725  0.1153 -1.9845
 2750SOL     OW19885   2.312   2.738  14.828 -0.2420 -0.5133  0.4655
 2750SOL    HW119886   2.315   2.811  14.889  1.1267 -2.9166  3.3101
 2750SOL    HW219887   2.401   2.717  14.797  0.8920 -0.6109  3.7833
 2751SOL     OW19888   0.938   4.428  13.244  0.0206  0.2156  0.3300
 2751SOL    HW119889   0.994   4.384  13.180 -0.5512  0.8384 -0.6029
 2751SOL    HW219890   0.924   4.353  13.301 -0.9266 -0.6863 -1.0766
 2752SOL     OW19891   3.759   2.756   7.775 -0.0522 -1.1045 -0.6969
 2752SOL    HW119892   3.821   2.731   7.845  0.0907  2.0891  0.3210
 2752SOL    HW219893   3.690   2.701   7.810  0.1731 -0.0796  1.3896
 2753SOL     OW19894   4.530   0.511   8.596 -0.2959 -0.0212 -0.2645
 2753SOL    HW119895   4.584   0.441   8.558 -0.2027  0.8208 -1.6826
 2753SOL    HW219896   4.450   0.468   8.627 -0.6123 -0.0078 -1.0565
 2754SOL     OW19897   3.962   0.392   0.797 -0.4960 -0.2564  0.3567
 2754SOL    HW119898   4.005   0.438   0.869 -0.1580 -0.1092  0.0634
 2754SOL    HW219899   4.037   0.351   0.753  0.7305  1.6351  0.6658
 2755SOL     OW19900   4.058   3.141   5.320 -0.0527  0.3722  0.1627
 2755SOL    HW119901   3.973   3.099   5.317  0.4437 -0.6818  0.9718
 2755SOL    HW219902   4.113   3.064   5.335 -0.2624  0.0104 -0.9058
 2756SOL     OW19903   2.061   0.354   4.642 -0.3916 -0.3034 -0.1952
 2756SOL    HW119904   2.051   0.421   4.710 -0.4565  0.7662 -1.2652
 2756SOL    HW219905   2.151   0.365   4.612 -0.7642 -1.8146 -1.8863
 2757SOL     OW19906   0.652   0.338   6.874 -0.4318  0.8677  0.5396
 2757SOL    HW119907   0.607   0.355   6.791  0.8100  0.1709 -0.2641
 2757SOL    HW219908   0.727   0.393   6.851 -0.4550  1.1823  1.2116
 2758SOL     OW19909   4.726   1.686   3.574 -0.0807 -0.6301  0.3526
 2758SOL    HW119910   4.662   1.615   3.569 -0.4015 -0.0918 -3.1262
 2758SOL    HW219911   0.055   1.651   3.637 -0.1799  1.0120  1.3730
 2759SOL     OW19912   3.845   4.532  15.896  0.4748  0.1731  0.5695
 2759SOL    HW119913   3.750   4.524  15.908  0.9418 -0.0305  4.2459
 2759SOL    HW219914   3.879   4.499  15.979 -4.9097 -1.7270  2.0417
 2760SOL     OW19915   4.552   0.119   4.191 -0.2287  0.0051  0.9673
 2760SOL    HW119916   4.500   0.052   4.237 -0.0048 -1.1016 -0.3927
 2760SOL    HW219917   4.499   0.198   4.196  3.0725  2.2218  0.4785
 2761SOL     OW19918   3.342   4.568   2.997 -0.2565  0.2437 -0.2086
 2761SOL    HW119919   3.351   4.541   3.089 -3.4431 -4.0055 -1.1337
 2761SOL    HW219920   3.426   4.610   2.980  1.0955 -1.4713  2.1627
 2762SOL     OW19921   3.290   0.975   1.736 -0.0440  0.5098  0.1279
 2762SOL    HW119922   3.317   0.971   1.828  1.7989 -0.6413 -0.4537
 2762SOL    HW219923   3.215   0.915   1.737  0.2112  0.1771 -0.4391
 2763SOL     OW19924   3.717   1.555   4.764 -0.7243 -0.2714  0.3288
 2763SOL    HW119925   3.635   1.598   4.740 -1.3683 -0.5575  2.0332
 2763SOL    HW219926   3.778   1.624   4.789 -2.5692  1.2803  0.5115
 2764SOL     OW19927   0.561   4.253   4.188 -0.1905  0.3733 -0.2573
 2764SOL    HW119928   0.573   4.168   4.147 -0.9971  0.1537 -0.0391
 2764SOL    HW219929   0.595   4.314   4.123  0.4409  0.6162  0.2968
 2765SOL     OW19930   1.765   1.986   6.184  0.1188  0.4012  0.2952
 2765SOL    HW119931   1.670   1.996   6.177  0.3742  2.0449 -0.8937
 2765SOL    HW219932   1.780   1.892   6.194  0.8453  0.2757 -1.9254
 2766SOL     OW19933   1.434   1.799   4.769 -0.0689 -0.4203 -0.1769
 2766SOL    HW119934   1.447   1.853   4.692  1.6575 -0.4067  0.1190
 2766SOL    HW219935   1.505   1.734   4.767  1.5724  1.3172  0.8602
 2767SOL     OW19936   1.305   4.293  10.264 -0.1517 -0.3755  0.0292
 2767SOL    HW119937   1.386   4.344  10.258 -0.7421  0.6678  0.9519
 2767SOL    HW219938   1.324   4.220  10.204  0.1211 -1.0275  0.9131
 2768SOL     OW19939   1.663   0.170   2.194 -0.4178  0.5103 -0.0252
 2768SOL    HW119940   1.706   0.085   2.196  0.6947  1.0839  0.8080
 2768SOL    HW219941   1.614   0.166   2.277 -1.2515  0.9297 -0.4987
 2769SOL     OW19942   3.192   1.967   2.968 -0.4600  0.1222  0.4489
 2769SOL    HW119943   3.225   1.918   2.893  1.8550  1.3382  0.6742
 2769SOL    HW219944   3.108   1.927   2.991 -0.2846 -1.6863 -2.0051
 2770SOL     OW19945   1.287   0.761   7.973 -0.0978 -0.2088  0.0841
 2770SOL    HW119946   1.283   0.675   7.930  0.3961  0.0375 -0.4492
 2770SOL    HW219947   1.366   0.746   8.025  0.4410  2.0578 -0.0674
 2771SOL     OW19948   0.786   0.014   6.017 -0.1194  0.1473 -0.2782
 2771SOL    HW119949   0.878   0.034   6.032 -0.2743 -1.1631  2.5429
 2771SOL    HW219950   0.763   0.002   6.109  1.9746 -1.3531  0.0537
 2772SOL     OW19951   1.171   3.492   7.610  0.1514 -0.0188 -0.0759
 2772SOL    HW119952   1.211   3.448   7.535 -0.2436 -0.6492  0.0840
 2772SOL    HW219953   1.207   3.441   7.683 -0.5599 -1.4835 -0.7462
 2773SOL     OW19954   0.092   3.603   2.650 -0.3093 -0.4716 -0.1583
 2773SOL    HW119955   0.156   3.663   2.688  1.5761 -1.8890 -1.0553
 2773SOL    HW219956   0.070   3.657   2.574  1.9448 -0.9070 -1.1436
 2774SOL     OW19957   4.537   3.092   4.231 -0.0364 -0.3966 -0.0154
 2774SOL    HW119958   4.611   3.109   4.290 -1.7932  1.1753  1.7446
 2774SOL    HW219959   4.480   3.167   4.248  0.1587 -0.4682  0.9817
 2775SOL     OW19960   2.200   3.194   6.890  0.2910  0.0149  0.0356
 2775SOL    HW119961   2.244   3.196   6.974 -0.6437  1.0082  0.5035
 2775SOL    HW219962   2.184   3.288   6.879  0.5006  0.0541  0.0715
 2776SOL     OW19963   2.287   3.315  11.426  0.5069 -0.4755  0.3917
 2776SOL    HW119964   2.294   3.228  11.388  0.4057 -1.9267  3.6979
 2776SOL    HW219965   2.292   3.374  11.351 -1.7893 -2.9335 -1.7030
 2777SOL     OW19966   0.887   1.526   7.222  0.6700  0.4797 -0.1272
 2777SOL    HW119967   0.966   1.571   7.191  0.3956  0.7815 -0.3916
 2777SOL    HW219968   0.914   1.438   7.249 -0.2439  0.4446  0.6753
 2778SOL     OW19969   3.663   2.635   2.961  0.0760  0.0840 -0.2095
 2778SOL    HW119970   3.570   2.655   2.959 -0.3042 -1.9100 -1.2533
 2778SOL    HW219971   3.705   2.691   3.027  2.5913 -3.2714  1.0187
 2779SOL     OW19972   4.486   4.083   3.209 -0.7157 -0.1462 -0.2879
 2779SOL    HW119973   4.577   4.103   3.231 -1.0084  0.4603  0.3666
 2779SOL    HW219974   4.443   4.166   3.193 -0.7617 -0.1553 -0.2142
 2780SOL     OW19975   3.200   3.381   1.482  0.0845  0.0871 -0.4936
 2780SOL    HW119976   3.153   3.439   1.423  0.6451  2.3710  1.2876
 2780SOL    HW219977   3.181   3.419   1.568 -0.7803  3.0123 -1.9850
 2781SOL     OW19978   1.831   1.493   4.862  0.1271 -0.7054 -0.5139
 2781SOL    HW119979   1.810   1.400   4.867 -4.9359  0.4339  0.2241
 2781SOL    HW219980   1.917   1.496   4.821  1.1913 -0.3713  1.8049
 2782SOL     OW19981   2.388   0.259   5.969  0.2855 -0.2915  0.2743
 2782SOL    HW119982   2.435   0.203   6.031 -1.4505 -0.9024  1.0224
 2782SOL    HW219983   2.371   0.338   6.021  0.9464  0.3794 -0.5314
 2783SOL     OW19984   0.813   0.210  13.774 -0.6756 -0.2548 -0.0094
 2783SOL    HW119985   0.761   0.130  13.773 -0.0448 -0.6719  0.0570
 2783SOL    HW219986   0.793   0.251  13.858  0.3894  3.3701 -1.5305
 2784SOL     OW19987   3.984   4.719   4.583 -0.0918 -0.0082 -0.0139
 2784SOL    HW119988   3.958   4.700   4.493 -0.2123  0.7878 -0.1492
 2784SOL    HW219989   3.925   0.060   4.584 -1.4381 -1.0445 -0.8275
 2785SOL     OW19990   4.201   3.335  10.332 -0.3301  0.5501 -0.2009
 2785SOL    HW119991   4.293   3.342  10.307 -0.7788 -1.2778 -2.3114
 2785SOL    HW219992   4.160   3.354  10.248  1.1549 -0.7468 -1.2257
 2786SOL     OW19993   3.318   2.849   6.945  0.3624  0.0494  0.3175
 2786SOL    HW119994   3.308   2.785   7.015 -0.8183  0.0247  0.1310
 2786SOL    HW219995   3.383   2.916   6.968  0.5962 -0.9640  2.6120
 2787SOL     OW19996   0.399   0.410   6.761 -0.3885 -0.1068 -0.1644
 2787SOL    HW119997   0.432   0.490   6.802 -1.8897  0.3021  0.2751
 2787SOL    HW219998   0.320   0.448   6.723 -0.4124  0.1406  0.1304
 2788SOL     OW19999   1.138   2.043   7.864  0.4289 -0.1094 -0.6597
 2788SOL    HW120000   1.204   2.014   7.927 -0.8958  0.7064  1.0751
 2788SOL    HW220001   1.147   2.138   7.865  0.1799 -0.0916 -0.1981
 2789SOL     OW20002   1.103   2.336  10.130 -0.4538  0.0032  0.3143
 2789SOL    HW120003   1.100   2.430  10.112 -1.2281 -0.3653 -1.5287
 2789SOL    HW220004   1.012   2.309  10.114 -0.0525 -1.0204 -0.2638
 2790SOL     OW20005   3.088   1.757   4.598 -0.0230  0.1505 -0.5229
 2790SOL    HW120006   3.034   1.817   4.650  1.3373 -1.0020  2.2330
 2790SOL    HW220007   3.135   1.815   4.539  0.7214 -0.4682 -0.5407
 2791SOL     OW20008   2.736   0.195   6.903 -0.5791 -0.3223 -0.1459
 2791SOL    HW120009   2.785   0.114   6.885  0.6247 -0.0784  2.0771
 2791SOL    HW220010   2.648   0.172   6.934 -0.7477 -1.4420 -1.4320
 2792SOL     OW20011   0.530   4.386   7.882 -0.0559  0.1431 -0.4430
 2792SOL    HW120012   0.587   4.389   7.806 -0.3644  0.6989 -0.6563
 2792SOL    HW220013   0.590   4.369   7.955 -0.7827  0.3164  0.1986
 2793SOL     OW20014   2.010   0.196  15.727 -0.2682 -0.1337 -0.2915
 2793SOL    HW120015   2.016   0.227  15.636 -1.6640 -2.6158 -1.2260
 2793SOL    HW220016   1.987   0.277  15.773  0.0698 -0.9185  1.2378
 2794SOL     OW20017   3.065   0.428   3.296 -0.0133 -0.1763  0.2283
 2794SOL    HW120018   3.103   0.473   3.220 -0.2665 -1.5422 -0.6972
 2794SOL    HW220019   3.029   0.496   3.353 -1.6094  0.0545 -1.0670
 2795SOL     OW20020   2.363   0.596  11.104 -0.1933  0.7133 -0.1714
 2795SOL    HW120021   2.321   0.682  11.105  1.1269  1.4103 -2.7399
 2795SOL    HW220022   2.284   0.543  11.107 -0.0639  0.4769 -0.8973
 2796SOL     OW20023   3.917   1.039   5.978 -0.2904  0.2478 -0.1762
 2796SOL    HW120024   3.892   1.108   5.916  3.2014  0.7965 -1.0046
 2796SOL    HW220025   3.851   1.051   6.046 -1.2354  1.4159 -1.2830
 2797SOL     OW20026   1.205   4.506   6.225  0.4525  0.0166  0.2741
 2797SOL    HW120027   1.190   4.522   6.319  0.5833 -1.0419  0.4802
 2797SOL    HW220028   1.162   4.421   6.209 -0.9689  0.4593  1.6568
 2798SOL     OW20029   1.600   2.688   4.918 -0.3914  0.0263 -0.4183
 2798SOL    HW120030   1.661   2.725   4.982  0.7915 -2.0477 -0.3319
 2798SOL    HW220031   1.537   2.757   4.898 -1.5652 -1.3803 -1.5652
 2799SOL     OW20032   1.872   2.767   0.290  0.3108 -0.1680  0.2127
 2799SOL    HW120033   1.954   2.727   0.318  0.5706 -0.0408 -0.3658
 2799SOL    HW220034   1.805   2.701   0.310 -0.1432  0.5700  1.1639
 2800SOL     OW20035   0.787   0.917   7.504  0.1878 -0.1899 -0.0890
 2800SOL    HW120036   0.761   0.871   7.584 -1.2427  0.2856 -0.2667
 2800SOL    HW220037   0.865   0.964   7.534  0.0965  0.4550 -0.8896
 2801SOL     OW20038   1.036   4.292   8.240  0.8834  0.3341  0.1710
 2801SOL    HW120039   1.010   4.320   8.328 -1.3219 -1.8572  0.2231
 2801SOL    HW220040   1.131   4.289   8.250  1.2122 -2.2217 -3.5572
 2802SOL     OW20041   0.594   3.390   2.479  0.1253  0.7888  0.4753
 2802SOL    HW120042   0.651   3.449   2.430 -0.5976  1.0327 -0.0735
 2802SOL    HW220043   0.539   3.455   2.524 -2.4446  1.5037 -3.7473
 2803SOL     OW20044   0.549   1.854   7.247 -0.1446  0.3027 -0.0672
 2803SOL    HW120045   0.463   1.884   7.217  0.3818  0.4915 -1.3794
 2803SOL    HW220046   0.608   1.881   7.177  0.4677  0.1251  0.3748
 2804SOL     OW20047   0.101   1.081   9.059 -0.2273  0.9896 -0.4661
 2804SOL    HW120048   0.029   1.020   9.071  0.0930  0.8533  0.7402
 2804SOL    HW220049   0.164   1.031   9.111 -2.3370  0.7571  1.8576
 2805SOL     OW20050   3.480   2.413  10.014 -0.2143  0.0094 -0.8628
 2805SOL    HW120051   3.448   2.485   9.959 -0.8202  0.1544 -0.3260
 2805SOL    HW220052   3.414   2.430  10.081 -0.9673  0.2496 -1.6639
 2806SOL     OW20053   2.428   4.030  15.043 -0.5113 -0.3487 -0.2119
 2806SOL    HW120054   2.446   3.954  15.098 -1.8346 -1.4443 -1.2974
 2806SOL    HW220055   2.517   4.065  15.043 -0.0526 -1.5096  0.7277
 2807SOL     OW20056   3.889   0.245   3.343  0.2633  0.1951  0.1729
 2807SOL    HW120057   3.903   0.151   3.335 -2.6524 -0.2158 -0.0599
 2807SOL    HW220058   3.954   0.273   3.408  0.1869 -1.7259  1.0739
 2808SOL     OW20059   3.750   4.143  11.025  0.0677  0.0832  1.0611
 2808SOL    HW120060   3.839   4.164  10.996  0.2158  1.1140  2.2344
 2808SOL    HW220061   3.716   4.122  10.938 -0.4561  1.2011  1.0004
 2809SOL     OW20062   0.993   1.519   5.638 -0.5157  0.5344 -0.3923
 2809SOL    HW120063   1.042   1.539   5.558 -2.0038 -1.7460 -1.8778
 2809SOL    HW220064   1.059   1.524   5.707  2.5612 -0.3459 -3.2445
 2810SOL     OW20065   0.045   3.580   1.217 -0.4237 -0.5108  0.2666
 2810SOL    HW120066   0.085   3.516   1.159  2.6881  0.1921  1.6564
 2810SOL    HW220067   0.041   3.542   1.305  0.2348 -0.9014  0.1323
 2811SOL     OW20068   2.127   0.998   5.816  0.7681  0.0834 -0.1350
 2811SOL    HW120069   2.217   1.020   5.839  0.2589  2.1567 -0.1392
 2811SOL    HW220070   2.143   0.932   5.748  0.0943  0.4197 -0.6135
 2812SOL     OW20071   2.258   4.501  16.532 -0.1141  0.1375  0.3778
 2812SOL    HW120072   2.189   4.441  16.562 -2.4449  1.6771 -1.9049
 2812SOL    HW220073   2.317   4.435  16.495 -0.1088  0.6659 -0.5466
 2813SOL     OW20074   3.796   3.104  13.536  0.0400 -0.0221  0.0007
 2813SOL    HW120075   3.797   3.021  13.490 -1.3320  0.1733 -0.4007
 2813SOL    HW220076   3.865   3.088  13.600 -0.5884 -1.4947  0.2963
 2814SOL     OW20077   2.234   2.047   5.723  0.7986 -0.0538  0.0563
 2814SOL    HW120078   2.308   2.090   5.681  1.6549 -1.0611  0.5202
 2814SOL    HW220079   2.221   1.972   5.665  0.5698  0.3209 -0.3762
 2815SOL     OW20080   3.488   3.559  17.530  0.3401 -0.2755  0.2104
 2815SOL    HW120081   3.419   3.516  17.479 -0.2779  0.5409  0.3516
 2815SOL    HW220082   3.495   3.648  17.494  1.8258  0.0559  1.3036
 2816SOL     OW20083   4.317   1.502  11.610 -0.6394 -0.1505 -0.0524
 2816SOL    HW120084   4.373   1.532  11.538 -0.3548  1.6020  0.9230
 2816SOL    HW220085   4.342   1.566  11.676 -3.5890  2.3358 -1.3800
 2817SOL     OW20086   2.585   4.603   1.892  0.2925  0.3742 -0.8010
 2817SOL    HW120087   2.565   4.679   1.837  2.7622  0.5516 -1.4999
 2817SOL    HW220088   2.517   4.545   1.859  1.6218 -0.9844 -1.1521
 2818SOL     OW20089   0.921   2.520   4.544  0.1585  0.7571  0.1468
 2818SOL    HW120090   0.978   2.583   4.588 -0.4535  1.7014 -0.4141
 2818SOL    HW220091   0.939   2.547   4.454  0.4308 -1.4339 -0.4493
 2819SOL     OW20092   4.066   3.199  16.883  0.1001 -0.0911  0.0500
 2819SOL    HW120093   4.089   3.256  16.956  0.6812  0.7966 -0.8165
 2819SOL    HW220094   4.067   3.269  16.818  2.9737  0.9302  1.1955
 2820SOL     OW20095   4.265   1.623   5.722 -0.1599  0.3447 -0.8215
 2820SOL    HW120096   4.248   1.529   5.716  0.7705  0.0852  0.5523
 2820SOL    HW220097   4.243   1.634   5.815  0.9278 -1.9326 -0.2908
 2821SOL     OW20098   0.977   0.587   6.453 -0.2547 -0.0098  0.2282
 2821SOL    HW120099   1.051   0.527   6.462 -1.8765 -1.8730  1.2748
 2821SOL    HW220100   0.906   0.525   6.435 -1.2034  1.6471 -1.7339
 2822SOL     OW20101   0.801   3.507   1.262 -0.6472  0.0081  0.2034
 2822SOL    HW120102   0.861   3.443   1.301 -0.6801  0.0634  0.3419
 2822SOL    HW220103   0.726   3.450   1.246  0.1244 -1.3560  1.4221
 2823SOL     OW20104   4.332   1.512   7.909 -0.4889  0.5658  0.1708
 2823SOL    HW120105   4.396   1.562   7.959  0.6288 -2.9392  2.2283
 2823SOL    HW220106   4.251   1.532   7.957 -0.1153  0.0653  1.0077
 2824SOL     OW20107   0.493   3.523   4.672 -0.3760  0.1447  0.1397
 2824SOL    HW120108   0.464   3.433   4.665 -2.8029  1.0225 -1.0290
 2824SOL    HW220109   0.502   3.530   4.767 -0.7575  0.3067  0.1654
 2825SOL     OW20110   4.337   2.465   7.384  0.1371 -0.2249 -0.7846
 2825SOL    HW120111   4.412   2.453   7.326 -0.8702 -0.1409 -2.1029
 2825SOL    HW220112   4.360   2.557   7.397 -2.5547  0.0587  2.0629
 2826SOL     OW20113   3.378   4.517   1.317  0.0222  0.1425 -0.0790
 2826SOL    HW120114   3.471   4.494   1.324 -0.1755  0.0819  2.3342
 2826SOL    HW220115   3.370   4.516   1.222 -0.0121  0.7271 -0.0819
 2827SOL     OW20116   3.388   2.651   6.094 -0.3400  0.3472  0.3362
 2827SOL    HW120117   3.377   2.729   6.149 -1.2656 -0.1309  0.8192
 2827SOL    HW220118   3.304   2.612   6.119  0.1370  0.2435  1.7753
 2828SOL     OW20119   3.670   3.638   7.923  1.2203  0.4238  0.5366
 2828SOL    HW120120   3.592   3.586   7.904  1.0086  0.6765  0.7171
 2828SOL    HW220121   3.672   3.698   7.848  0.5002 -1.7830 -1.2790
 2829SOL     OW20122   1.943   1.707   8.249 -0.8120 -0.2560 -0.2670
 2829SOL    HW120123   1.880   1.646   8.287 -2.5681  2.1414  0.7077
 2829SOL    HW220124   1.907   1.711   8.161  0.6375  2.3316 -0.7474
 2830SOL     OW20125   0.437   0.929   1.380  0.5253  0.0457 -0.7994
 2830SOL    HW120126   0.476   0.877   1.450  1.0805 -0.3928 -1.4350
 2830SOL    HW220127   0.355   0.966   1.412 -0.9040 -1.0516 -3.1647
 2831SOL     OW20128   2.027   1.845   6.629  0.8177 -0.2905  0.2791
 2831SOL    HW120129   2.025   1.890   6.544 -1.4992 -0.5219  0.2048
 2831SOL    HW220130   2.106   1.795   6.610  0.0808 -1.0331 -0.8499
 2832SOL     OW20131   0.910   2.283   7.040 -0.3467 -0.2963  0.0350
 2832SOL    HW120132   0.816   2.280   7.021 -0.5863  0.2264  1.1359
 2832SOL    HW220133   0.927   2.297   7.133  0.1643  1.2539 -0.2799
 2833SOL     OW20134   0.882   3.909   4.538 -0.0045  0.4941 -0.5388
 2833SOL    HW120135   0.841   3.989   4.506  0.8085  0.5390 -1.4863
 2833SOL    HW220136   0.807   3.858   4.570  0.6310  0.0179  0.1877
 2834SOL     OW20137   1.841   0.220  17.284 -0.4319 -0.8151 -0.3344
 2834SOL    HW120138   1.918   0.241  17.231  0.2844 -0.0574  1.0140
 2834SOL    HW220139   1.809   0.303  17.321  0.8853 -0.4256 -0.0821
 2835SOL     OW20140   1.431   0.618   2.581  0.0797  0.9793 -0.5739
 2835SOL    HW120141   1.405   0.606   2.490  1.7402  0.2819 -0.9682
 2835SOL    HW220142   1.348   0.645   2.619 -0.6244  0.6131 -1.8650
 2836SOL     OW20143   4.709   1.457   4.632 -0.3287  0.2020 -0.3442
 2836SOL    HW120144   0.009   1.376   4.669 -2.8109 -1.4579 -1.5729
 2836SOL    HW220145   4.684   1.423   4.545  2.1357  0.0122 -0.9758
 2837SOL     OW20146   1.377   2.652   3.663  0.1170  0.0921  0.1147
 2837SOL    HW120147   1.452   2.616   3.711  0.4259  1.8989  0.9850
 2837SOL    HW220148   1.367   2.592   3.589 -1.4547 -0.2860  0.6359
 2838SOL     OW20149   1.118   0.046   1.082  0.1105  0.1305 -0.6745
 2838SOL    HW120150   1.055   0.021   1.014 -1.7261 -0.7462  1.3729
 2838SOL    HW220151   1.074   0.128   1.102 -1.3549 -0.7998 -0.0971
 2839SOL     OW20152   1.911   2.131   8.931 -0.0926 -0.1094 -0.2826
 2839SOL    HW120153   1.870   2.056   8.974 -0.8165  0.3217 -0.2125
 2839SOL    HW220154   1.842   2.157   8.870 -2.3205 -2.4412  1.2775
 2840SOL     OW20155   1.743   2.562   5.581  0.3648 -0.0536  0.0197
 2840SOL    HW120156   1.740   2.550   5.486 -1.2465 -2.0747  0.3159
 2840SOL    HW220157   1.705   2.483   5.620 -1.1874  0.7325  0.1208
 2841SOL     OW20158   2.195   0.028   4.095 -0.2815  0.5602 -0.1522
 2841SOL    HW120159   2.122   0.089   4.106 -0.6746  0.2977 -1.3817
 2841SOL    HW220160   2.165   4.692   4.151 -1.2891  1.6032  0.6506
 2842SOL     OW20161   1.210   4.035   7.880  0.2287  0.2192 -0.3013
 2842SOL    HW120162   1.142   3.997   7.823 -0.7402 -0.6464  1.4464
 2842SOL    HW220163   1.166   4.083   7.950 -0.2403 -0.3846 -0.1841
 2843SOL     OW20164   0.468   0.205   5.446 -0.0353 -0.3566 -0.6636
 2843SOL    HW120165   0.441   0.247   5.528  0.9188 -0.1439 -0.4537
 2843SOL    HW220166   0.482   0.284   5.393 -0.7176 -0.7545 -1.4230
 2844SOL     OW20167   3.960   0.796  12.416 -0.6821 -0.0754 -0.3047
 2844SOL    HW120168   3.894   0.784  12.348 -0.9749  0.9703 -0.2123
 2844SOL    HW220169   3.990   0.705  12.419 -2.5037 -0.7179 -1.7324
 2845SOL     OW20170   1.423   1.416   6.286 -0.4629 -0.5612  0.2946
 2845SOL    HW120171   1.389   1.447   6.370 -0.3187  2.3640 -0.7231
 2845SOL    HW220172   1.468   1.337   6.314  0.9343  0.5214  1.0867
 2846SOL     OW20173   1.358   2.361  14.229 -0.1185  0.2268  0.1394
 2846SOL    HW120174   1.325   2.352  14.139  1.3721  1.4027 -0.5091
 2846SOL    HW220175   1.349   2.456  14.232 -0.5542  0.2790 -2.7725
 2847SOL     OW20176   2.476   4.209   3.323  0.0938 -0.1126 -0.2506
 2847SOL    HW120177   2.386   4.237   3.340 -0.2212 -2.0775  1.3306
 2847SOL    HW220178   2.465   4.122   3.284  0.6353 -0.2796 -0.0301
 2848SOL     OW20179   2.789   4.184   3.380 -0.0629  0.0844 -0.4959
 2848SOL    HW120180   2.740   4.116   3.335  0.3234 -0.1359 -0.5872
 2848SOL    HW220181   2.826   4.134   3.453 -1.2415  1.3755  0.9770
 2849SOL     OW20182   1.941   1.552   6.425  0.8760 -0.6172  0.3451
 2849SOL    HW120183   1.920   1.500   6.348  1.0260 -1.7162  1.0396
 2849SOL    HW220184   1.857   1.555   6.471  1.4366 -2.2400  1.5018
 2850SOL     OW20185   2.224   1.035  14.355  0.5071 -0.0152  0.0374
 2850SOL    HW120186   2.302   0.997  14.316  2.6356  3.0465  1.3401
 2850SOL    HW220187   2.162   0.962  14.348  0.1558  0.2362  0.5160
 2851SOL     OW20188   1.036   2.379   6.650  0.1423  0.0492  0.2425
 2851SOL    HW120189   0.965   2.434   6.618  1.3170  3.6611  3.8515
 2851SOL    HW220190   1.062   2.411   6.736  0.4071  0.6216 -0.0459
 2852SOL     OW20191   1.952   0.300   5.354  0.0435 -0.1599 -0.1206
 2852SOL    HW120192   1.954   0.262   5.441  1.6105 -0.0077 -0.0895
 2852SOL    HW220193   1.882   0.252   5.311  0.1117  1.2081 -1.7790
 2853SOL     OW20194   2.426   2.190   1.508  0.1361  0.0391 -0.4292
 2853SOL    HW120195   2.347   2.176   1.560 -0.4305  2.6869 -0.5340
 2853SOL    HW220196   2.474   2.109   1.520  2.1205  1.6339  2.3280
 2854SOL     OW20197   4.104   3.404  13.196 -0.1287  0.9497  0.0526
 2854SOL    HW120198   4.038   3.359  13.249 -1.1253  1.0987 -1.0738
 2854SOL    HW220199   4.135   3.338  13.134 -0.8718  1.1431 -0.5211
 2855SOL     OW20200   2.726   4.651   6.253 -0.2726  0.2173 -0.0897
 2855SOL    HW120201   2.688   4.641   6.166 -0.3949  1.9189 -0.2367
 2855SOL    HW220202   2.640   4.663   6.294 -0.5583 -1.7312 -0.1302
 2856SOL     OW20203   0.034   4.359   6.115 -0.2613 -0.1386 -0.4044
 2856SOL    HW120204   0.056   4.324   6.201 -0.5111  0.9564  0.1169
 2856SOL    HW220205   0.108   4.335   6.060  2.4747  0.6968  2.9237
 2857SOL     OW20206   4.284   3.764   3.168  0.0330  0.2801  0.8793
 2857SOL    HW120207   4.356   3.817   3.132  0.5414 -0.2417  1.1273
 2857SOL    HW220208   4.271   3.693   3.105 -1.0004  0.2439  1.1399
 2858SOL     OW20209   0.006   1.687   7.244  0.4707 -0.6938  0.2101
 2858SOL    HW120210   0.009   1.722   7.155  1.2587 -0.6844  0.2418
 2858SOL    HW220211   4.653   1.708   7.276  1.4684  1.9967  1.1869
 2859SOL     OW20212   0.174   1.495   7.702 -0.5963  0.0028  0.4320
 2859SOL    HW120213   0.184   1.415   7.651  1.1604  1.0028 -0.7970
 2859SOL    HW220214   0.084   1.477   7.729 -1.1447  0.3181 -1.1542
 2860SOL     OW20215   4.590   2.808   4.004 -0.1028 -0.1845  0.2291
 2860SOL    HW120216   4.575   2.760   3.922  0.8665 -0.2116  0.0621
 2860SOL    HW220217   4.498   2.820   4.026 -0.8533 -1.9759 -1.9228
 2861SOL     OW20218   3.747   1.233  13.902  0.1047  0.3690  0.5613
 2861SOL    HW120219   3.726   1.252  13.810  0.1090  0.3315  0.5524
 2861SOL    HW220220   3.775   1.318  13.937 -3.2178  0.7195  2.3351
 2862SOL     OW20221   2.037   3.445   5.262  0.4123 -0.1324  0.6105
 2862SOL    HW120222   2.097   3.384   5.218 -0.5591 -0.5928 -0.0831
 2862SOL    HW220223   2.044   3.517   5.199 -2.0864 -0.1260  0.3300
 2863SOL     OW20224   0.086   2.230   6.863 -0.0880  0.2876  0.0980
 2863SOL    HW120225   0.163   2.179   6.837  1.0356  1.3175  1.3875
 2863SOL    HW220226   0.127   2.304   6.908 -1.0812 -0.2718  1.8877
 2864SOL     OW20227   2.647   2.943   7.090  0.6921  0.1413  0.3898
 2864SOL    HW120228   2.609   3.017   7.043  1.3538 -0.4345 -1.0520
 2864SOL    HW220229   2.710   2.910   7.026 -1.0912  1.4702 -2.0450
 2865SOL     OW20230   0.928   0.835   8.411  0.5309  0.3165 -0.1015
 2865SOL    HW120231   0.976   0.807   8.489  0.0407 -1.2899 -0.3831
 2865SOL    HW220232   0.866   0.896   8.450 -1.2159 -0.2455 -2.0193
 2866SOL     OW20233   0.228   1.984  16.322 -0.2461 -0.0242 -0.1129
 2866SOL    HW120234   0.167   1.974  16.249 -0.6695  0.8171  0.1218
 2866SOL    HW220235   0.272   2.067  16.305  2.0866 -1.1659  0.3446
 2867SOL     OW20236   3.488   0.797   9.016  0.0117  0.0191 -0.1107
 2867SOL    HW120237   3.464   0.783   9.107 -2.3981 -0.7419 -0.8676
 2867SOL    HW220238   3.461   0.888   9.001  0.9631 -0.0178 -2.0889
 2868SOL     OW20239   0.570   0.685   2.067  0.0403  0.3538  0.1705
 2868SOL    HW120240   0.607   0.609   2.022 -2.4841  0.5237 -2.2115
 2868SOL    HW220241   0.477   0.662   2.073  0.5252 -2.0320 -1.2732
 2869SOL     OW20242   3.932   2.401   4.736 -0.0250  0.0902 -0.3792
 2869SOL    HW120243   3.939   2.311   4.770  0.3611 -0.1322 -1.0530
 2869SOL    HW220244   3.960   2.384   4.646  0.2611 -1.5732  0.0233
 2870SOL     OW20245   1.453   0.649   5.561 -0.0350 -0.5955  0.4943
 2870SOL    HW120246   1.538   0.613   5.537 -0.2744  0.5441 -1.9940
 2870SOL    HW220247   1.401   0.569   5.551  0.5743 -0.8219 -0.8318
 2871SOL     OW20248   4.721   0.260   7.764  0.3000  0.3842  0.5113
 2871SOL    HW120249   0.046   0.317   7.714  0.2430 -0.1344 -0.1535
 2871SOL    HW220250   4.632   0.284   7.738 -0.4756 -0.4697  2.4042
 2872SOL     OW20251   0.460   3.942   2.496 -0.1932 -0.1604  0.3780
 2872SOL    HW120252   0.448   3.918   2.588 -1.2061  0.0689  0.3037
 2872SOL    HW220253   0.518   4.017   2.495 -1.7709  1.0175 -2.1390
 2873SOL     OW20254   3.089   3.325   0.341  0.6703 -0.5183 -0.3476
 2873SOL    HW120255   3.157   3.303   0.404 -0.1133 -1.1403  0.2881
 2873SOL    HW220256   3.049   3.238   0.328  0.1035 -0.3390  0.1892
 2874SOL     OW20257   0.700   1.025   9.406  0.2299 -0.5904 -0.1320
 2874SOL    HW120258   0.669   0.961   9.470 -0.4838 -1.1623 -1.0503
 2874SOL    HW220259   0.791   1.034   9.432  0.3844  0.4528 -1.0371
 2875SOL     OW20260   1.080   2.698   4.166  0.3335  0.6024 -0.0323
 2875SOL    HW120261   1.113   2.669   4.080 -0.1902 -0.3201  0.0792
 2875SOL    HW220262   0.985   2.704   4.158  0.1475 -1.2232  0.7987
 2876SOL     OW20263   4.528   3.984   8.178 -0.1770 -0.5951 -0.3666
 2876SOL    HW120264   4.603   4.016   8.229  0.9353  0.3906 -2.6166
 2876SOL    HW220265   4.566   3.904   8.143  4.0025  2.1319 -2.1535
 2877SOL     OW20266   3.474   3.902  15.025  0.2951  0.2526 -0.1214
 2877SOL    HW120267   3.480   3.834  15.092 -1.4893  2.0794  1.8913
 2877SOL    HW220268   3.410   3.869  14.961  0.8704 -1.7187  0.3297
 2878SOL     OW20269   1.163   3.077  12.389  0.1006 -0.1329  0.1092
 2878SOL    HW120270   1.251   3.110  12.402  0.1517 -0.5402  0.7957
 2878SOL    HW220271   1.170   2.996  12.439 -1.2189 -1.9590 -2.6213
 2879SOL     OW20272   3.794   1.302   4.007  0.7204 -0.0374 -0.0880
 2879SOL    HW120273   3.879   1.294   4.051  0.7894 -1.4904 -0.4750
 2879SOL    HW220274   3.807   1.243   3.932  0.2537 -0.2336 -0.0107
 2880SOL     OW20275   2.871   2.562   4.141 -0.7385 -0.4987 -0.2289
 2880SOL    HW120276   2.827   2.646   4.132  1.9956  0.7750 -1.6394
 2880SOL    HW220277   2.958   2.600   4.152 -1.1168  0.4260 -0.4628
 2881SOL     OW20278   1.472   2.813  15.168 -0.0286  0.0623  0.0943
 2881SOL    HW120279   1.456   2.795  15.075  0.1682 -1.9717  0.4590
 2881SOL    HW220280   1.388   2.847  15.197  0.1229  0.4492  0.0837
 2882SOL     OW20281   3.984   4.140   3.099 -0.4582  0.6777 -0.0002
 2882SOL    HW120282   3.985   4.104   3.011  3.6569 -0.7387  0.6466
 2882SOL    HW220283   3.903   4.191   3.092 -0.8876  0.0548  0.4125
 2883SOL     OW20284   4.116   4.130   7.456  0.0062  0.1916 -0.4072
 2883SOL    HW120285   4.088   4.118   7.546 -1.7129 -0.0779 -0.9852
 2883SOL    HW220286   4.046   4.085   7.409  0.2866 -1.7678  1.0839
 2884SOL     OW20287   1.996   2.566  14.899  0.1112 -0.4236 -0.0970
 2884SOL    HW120288   2.059   2.603  14.838 -1.9903  1.5870 -1.0547
 2884SOL    HW220289   1.960   2.508  14.833  3.7888 -3.2653  0.3799
 2885SOL     OW20290   3.606   4.109  11.247  0.1268  0.3260 -0.1980
 2885SOL    HW120291   3.539   4.175  11.227 -0.6052 -0.0623  0.9861
 2885SOL    HW220292   3.664   4.123  11.172  0.0878  0.5716 -0.1851
 2886SOL     OW20293   4.145   2.102   2.415  0.0347  0.0195 -0.2997
 2886SOL    HW120294   4.052   2.120   2.431  0.0170  0.1755 -0.5930
 2886SOL    HW220295   4.168   2.035   2.479 -1.1746 -0.1693 -0.0557
 2887SOL     OW20296   0.794   0.571   1.700 -0.0186  0.6459 -0.0599
 2887SOL    HW120297   0.876   0.528   1.726 -0.4203 -1.7763 -2.8205
 2887SOL    HW220298   0.735   0.553   1.774 -0.1374  0.6064 -0.1638
 2888SOL     OW20299   4.648   0.203   6.591 -0.0759  0.1208 -0.2529
 2888SOL    HW120300   4.636   0.200   6.686 -1.7062 -1.6743 -0.5345
 2888SOL    HW220301   4.633   0.296   6.575 -0.1628  0.0348 -0.6488
 2889SOL     OW20302   0.503   2.504   6.920 -0.1466  0.3322 -0.2660
 2889SOL    HW120303   0.456   2.582   6.950 -0.7492  0.9296 -2.6853
 2889SOL    HW220304   0.573   2.537   6.862 -2.7170  1.7967 -2.5155
 2890SOL     OW20305   4.637   3.916  12.876 -0.4592 -0.6012 -0.6165
 2890SOL    HW120306   4.602   3.854  12.812 -1.7937 -2.2831  1.7440
 2890SOL    HW220307   4.732   3.907  12.870 -0.2469 -0.3239  2.3879
 2891SOL     OW20308   1.550   0.025   4.604  0.1755 -0.1185  0.1884
 2891SOL    HW120309   1.620   4.716   4.653  1.8192 -0.4041 -2.4060
 2891SOL    HW220310   1.544   0.114   4.639 -1.4396  0.1503 -0.8115
 2892SOL     OW20311   2.099   4.541  12.006 -0.3537 -0.7164  0.1162
 2892SOL    HW120312   2.128   4.453  11.981 -0.9308 -0.6680 -0.7280
 2892SOL    HW220313   2.004   4.529  12.000 -0.4635 -1.4073  3.4312
 2893SOL     OW20314   4.405   1.183   4.493 -0.0255 -0.0961  0.0755
 2893SOL    HW120315   4.463   1.114   4.460 -1.0858 -0.6157 -0.6966
 2893SOL    HW220316   4.468   1.255   4.486  0.2657 -0.2151  1.3615
 2894SOL     OW20317   3.421   3.924   7.745 -0.2785  0.1269  0.3510
 2894SOL    HW120318   3.500   3.872   7.734 -0.3870 -0.0929  0.6056
 2894SOL    HW220319   3.448   3.984   7.676 -0.5784 -1.0836 -0.8114
 2895SOL     OW20320   1.056   4.158   7.560  0.0261 -0.4468  0.3822
 2895SOL    HW120321   1.110   4.090   7.520 -2.4240 -2.3183  0.2234
 2895SOL    HW220322   1.008   4.100   7.620  2.6378  0.3434  3.2268
 2896SOL     OW20323   1.612   4.664  11.358  0.1585 -0.5291 -0.4742
 2896SOL    HW120324   1.633   4.630  11.271 -0.0607  1.4705 -1.3069
 2896SOL    HW220325   1.542   4.605  11.385  0.3908 -0.0216  1.2316
 2897SOL     OW20326   3.653   3.912   2.150  0.4678  0.0380  0.4865
 2897SOL    HW120327   3.650   3.949   2.062 -0.0815  0.2697  0.5979
 2897SOL    HW220328   3.724   3.850   2.137 -0.3805 -0.4790 -1.6211
 2898SOL     OW20329   1.578   1.891   8.381 -0.4591 -0.0261  0.1183
 2898SOL    HW120330   1.506   1.896   8.444 -1.0557 -1.9967 -0.4158
 2898SOL    HW220331   1.648   1.911   8.442 -1.0547 -0.6804  1.0117
 2899SOL     OW20332   3.696   1.351   8.039 -0.0927 -0.3139 -0.1003
 2899SOL    HW120333   3.657   1.367   7.953 -0.2120 -2.2755 -0.4074
 2899SOL    HW220334   3.770   1.295   8.017  0.7080  1.1363 -1.1085
 2900SOL     OW20335   2.366   1.737   3.727 -0.1161  0.5507 -0.5448
 2900SOL    HW120336   2.325   1.807   3.675 -1.0245  1.1290  0.9609
 2900SOL    HW220337   2.290   1.721   3.783  1.2851 -0.2597  1.0960
 2901SOL     OW20338   3.073   1.193  15.468  0.6854  0.5443  0.2465
 2901SOL    HW120339   3.135   1.172  15.399  0.2791 -1.2321  0.4192
 2901SOL    HW220340   2.986   1.210  15.431  0.7601 -1.5940 -0.8714
 2902SOL     OW20341   0.943   2.910  12.868  0.1991 -0.6981  0.5154
 2902SOL    HW120342   0.990   2.828  12.880 -1.1866 -1.5524  0.1771
 2902SOL    HW220343   0.908   2.893  12.781  0.8620 -1.4400  0.3957
 2903SOL     OW20344   2.616   4.527   3.738  0.1837 -0.5341  0.4811
 2903SOL    HW120345   2.711   4.520   3.734  0.1080  0.0291 -2.3445
 2903SOL    HW220346   2.585   4.516   3.648 -0.3273  2.1502  0.3139
 2904SOL     OW20347   2.752   0.930  11.189 -0.4668 -0.6067  0.4338
 2904SOL    HW120348   2.831   0.983  11.196 -0.0658 -1.2422  0.7893
 2904SOL    HW220349   2.761   0.890  11.103  0.4834  0.5987 -0.0098
 2905SOL     OW20350   0.280   1.041   0.924 -0.6735  0.7397  0.3995
 2905SOL    HW120351   0.304   1.092   0.847 -2.3708 -0.7877 -1.1479
 2905SOL    HW220352   0.193   1.021   0.891  0.0527 -0.0751 -1.0185
 2906SOL     OW20353   0.310   1.826   6.260 -0.4549 -0.0709 -0.3470
 2906SOL    HW120354   0.271   1.911   6.243 -0.9774  0.1094  1.7758
 2906SOL    HW220355   0.307   1.814   6.355 -2.1934  0.9716 -0.2736
 2907SOL     OW20356   0.849   4.004   4.980  0.1782 -0.9935  0.7594
 2907SOL    HW120357   0.917   4.055   4.935 -1.0941 -0.2519 -0.3132
 2907SOL    HW220358   0.776   4.013   4.919  1.9413  3.1526 -0.7075
 2908SOL     OW20359   2.373   2.006   8.353 -0.4948  0.1918  0.1132
 2908SOL    HW120360   2.466   2.023   8.368 -0.1822 -1.6497  0.2093
 2908SOL    HW220361   2.380   1.927   8.300  0.1710  0.3840 -0.0899
 2909SOL     OW20362   3.313   1.313  13.008  0.4848  0.6000 -0.5142
 2909SOL    HW120363   3.282   1.262  12.933 -0.0647 -2.0670  1.5181
 2909SOL    HW220364   3.400   1.342  12.979  0.3421  2.1411  0.6197
 2910SOL     OW20365   3.464   2.916  17.419  0.1562 -0.2840  0.0026
 2910SOL    HW120366   3.528   2.935  17.488  1.2962  0.3793 -1.2186
 2910SOL    HW220367   3.530   2.914  17.349  1.6488  2.8852  1.3040
 2911SOL     OW20368   2.383   3.222   3.757 -0.1399 -0.0252  0.1657
 2911SOL    HW120369   2.394   3.271   3.838  0.0393  0.7454 -0.3194
 2911SOL    HW220370   2.419   3.289   3.699 -2.1443  0.1590 -0.8820
 2912SOL     OW20371   2.180   1.669   5.633 -0.3438 -0.1648  0.3134
 2912SOL    HW120372   2.199   1.576   5.638  1.5530  0.1562 -0.9511
 2912SOL    HW220373   2.271   1.697   5.624  0.5925 -3.4705 -0.4377
 2913SOL     OW20374   0.039   0.039  16.107 -0.8104 -0.1991  0.5021
 2913SOL    HW120375   4.714   0.100  16.064 -0.2705 -0.2729 -0.3652
 2913SOL    HW220376   4.722   4.694  16.097  0.9144 -1.5337  2.4494
 2914SOL     OW20377   2.288   2.855   1.955  0.2369 -0.0396  0.2920
 2914SOL    HW120378   2.261   2.916   2.023 -2.2449 -0.1859 -0.5632
 2914SOL    HW220379   2.384   2.859   1.955  0.2702 -0.8878 -0.6346
 2915SOL     OW20380   1.013   1.781   5.904  0.6297  0.4343  0.4930
 2915SOL    HW120381   1.062   1.778   5.986  0.8699  1.1259  0.3749
 2915SOL    HW220382   1.045   1.707   5.852 -2.2757 -0.9043  0.6362
 2916SOL     OW20383   3.316   4.618   7.324 -0.2158 -0.3697 -0.6446
 2916SOL    HW120384   3.337   4.704   7.360 -0.5881 -1.2570  1.6989
 2916SOL    HW220385   3.341   4.567   7.401 -1.5584  0.7125  0.4812
 2917SOL     OW20386   1.081   4.569  17.615 -0.0327  0.1441  0.0143
 2917SOL    HW120387   1.078   4.489  17.564 -0.1995  1.6118 -2.2754
 2917SOL    HW220388   1.104   4.531  17.700 -1.9019 -0.7850  0.1086
 2918SOL     OW20389   2.259   0.847  11.060 -0.1513  0.1362 -0.4393
 2918SOL    HW120390   2.172   0.886  11.051 -0.9688 -1.7793 -0.7449
 2918SOL    HW220391   2.303   0.927  11.089 -1.0815  1.1074 -1.7184
 2919SOL     OW20392   4.076   2.406   9.379 -0.0716 -0.4354  0.4259
 2919SOL    HW120393   4.105   2.379   9.293 -3.2672  0.3781 -0.9192
 2919SOL    HW220394   4.111   2.494   9.391 -0.0887 -1.0298  5.0710
 2920SOL     OW20395   0.450   3.965   4.943 -0.3009  0.5859 -0.2848
 2920SOL    HW120396   0.360   3.992   4.964  0.3145  3.4118 -1.2251
 2920SOL    HW220397   0.428   3.903   4.873  2.5521  0.1773 -0.7971
 2921SOL     OW20398   0.710   0.556   9.162  0.6063  0.3807 -0.0411
 2921SOL    HW120399   0.687   0.512   9.244 -1.2802  0.5567 -0.4734
 2921SOL    HW220400   0.743   0.643   9.181 -0.8962  1.0818 -0.5957
 2922SOL     OW20401   3.076   0.048   7.246 -0.0729 -0.6937  0.8893
 2922SOL    HW120402   3.157   0.006   7.276 -0.0723 -1.2387  0.1188
 2922SOL    HW220403   3.077   0.074   7.154 -2.3948  0.5680  1.2258
 2923SOL     OW20404   3.297   0.709  14.232 -0.1866  0.5517  0.6580
 2923SOL    HW120405   3.298   0.804  14.227 -1.2610  0.4729 -0.9441
 2923SOL    HW220406   3.240   0.689  14.306  0.3042  2.0237  1.4233
 2924SOL     OW20407   3.315   0.687   6.147 -0.0657 -0.3532  0.3355
 2924SOL    HW120408   3.373   0.619   6.182  2.6160  1.5356 -0.4320
 2924SOL    HW220409   3.372   0.764   6.147  0.8627 -0.9934  3.9746
 2925SOL     OW20410   1.505   0.403   2.102 -0.2633 -0.2651 -0.1208
 2925SOL    HW120411   1.549   0.470   2.050  1.2031  0.2755  1.7951
 2925SOL    HW220412   1.566   0.333   2.122  0.0618 -0.0981 -0.5316
 2926SOL     OW20413   2.933   3.289   3.261  0.2054 -0.2238 -0.2598
 2926SOL    HW120414   2.841   3.295   3.234  0.9277  3.5706 -1.8647
 2926SOL    HW220415   2.936   3.195   3.282  1.7401  0.1259  1.0457
 2927SOL     OW20416   3.874   0.170   8.644 -0.0715 -0.2856 -0.4579
 2927SOL    HW120417   3.857   0.247   8.698 -1.9784 -0.5451 -0.6891
 2927SOL    HW220418   3.788   0.131   8.636 -0.0804 -0.5113  0.6728
 2928SOL     OW20419   3.622   4.457   4.174  0.5173  0.2808 -0.6440
 2928SOL    HW120420   3.535   4.447   4.214  1.5234 -1.7769  0.9862
 2928SOL    HW220421   3.625   4.553   4.172 -0.5093  0.2874 -1.8514
 2929SOL     OW20422   4.327   1.973   7.236  0.0456 -0.7139 -0.0031
 2929SOL    HW120423   4.406   1.921   7.221  0.1103 -0.6684  0.1771
 2929SOL    HW220424   4.369   2.045   7.284  0.3065 -0.6128 -0.3890
 2930SOL     OW20425   2.554   1.478   9.966 -0.1200 -0.0223  0.3994
 2930SOL    HW120426   2.463   1.496   9.941 -0.3921 -1.8604  0.0399
 2930SOL    HW220427   2.593   1.443   9.886 -1.7213  0.1971 -0.4822
 2931SOL     OW20428   2.550   0.032   5.026  0.1863 -0.1395 -0.1930
 2931SOL    HW120429   2.563   0.083   5.106 -0.6806 -1.2410  0.6377
 2931SOL    HW220430   2.635   4.723   5.031  0.0372 -0.4870 -0.6958
 2932SOL     OW20431   1.765   4.470  16.619 -0.1617 -0.4083 -0.1501
 2932SOL    HW120432   1.761   4.382  16.580 -0.5278 -2.1569  3.8745
 2932SOL    HW220433   1.707   4.464  16.694 -1.1768 -0.5408 -0.9513
 2933SOL     OW20434   2.290   4.354   6.169 -0.4753 -0.9791  0.8863
 2933SOL    HW120435   2.254   4.265   6.175 -2.0846 -0.4080 -0.3983
 2933SOL    HW220436   2.285   4.377   6.076  2.5352  0.0724  0.9922
 2934SOL     OW20437   2.662   3.327  14.613  0.1546 -0.0860  0.1571
 2934SOL    HW120438   2.659   3.415  14.651  1.0368 -0.3023  0.7499
 2934SOL    HW220439   2.640   3.363  14.527  0.4069 -0.2717  0.0121
 2935SOL     OW20440   1.176   1.084   1.542 -1.0538 -0.0721 -0.2221
 2935SOL    HW120441   1.141   1.172   1.555  0.0632  0.5223 -1.2383
 2935SOL    HW220442   1.125   1.040   1.474 -1.9604 -0.1170  0.4923
 2936SOL     OW20443   3.161   3.179   6.392  0.1033 -0.1919 -0.4603
 2936SOL    HW120444   3.123   3.093   6.372  0.0068 -0.4380  0.7906
 2936SOL    HW220445   3.165   3.178   6.488  2.5754  0.8224 -0.5677
 2937SOL     OW20446   1.506   2.314   5.669 -0.4361 -0.1798  0.0273
 2937SOL    HW120447   1.436   2.286   5.729  0.7279 -0.7733  1.1141
 2937SOL    HW220448   1.577   2.321   5.733 -0.1609  0.0483 -0.3105
 2938SOL     OW20449   2.788   1.374   3.305 -0.5322 -0.5386  0.1008
 2938SOL    HW120450   2.846   1.435   3.351  0.7174 -0.7998 -1.1055
 2938SOL    HW220451   2.849   1.324   3.250  0.6595  1.0821 -0.0631
 2939SOL     OW20452   4.055   1.818   0.283  0.2369  0.3366 -0.2315
 2939SOL    HW120453   4.030   1.767   0.360  1.6615 -1.8355 -1.1989
 2939SOL    HW220454   4.018   1.764   0.213 -1.9173 -2.2751  2.9145
 2940SOL     OW20455   2.298   3.295  17.396  0.0354 -0.0582  0.0322
 2940SOL    HW120456   2.370   3.248  17.354  1.4812  1.3129  0.9616
 2940SOL    HW220457   2.290   3.361  17.327 -0.3674  1.0441  1.1350
 2941SOL     OW20458   1.425   1.894   6.513  0.0361  0.3809 -0.0238
 2941SOL    HW120459   1.395   1.945   6.438 -2.6521 -0.6870  0.3157
 2941SOL    HW220460   1.488   1.839   6.466  0.9565  0.9069  0.6178
 2942SOL     OW20461   1.935   3.437   7.072 -0.3388 -0.8777  0.1951
 2942SOL    HW120462   1.923   3.529   7.048 -1.5928 -1.0668  0.1113
 2942SOL    HW220463   1.995   3.411   7.003  0.9951  0.9618  0.6527
 2943SOL     OW20464   2.291   1.044  10.149 -0.1309  0.7886 -0.1828
 2943SOL    HW120465   2.360   1.098  10.111  0.1383  1.4094  1.2053
 2943SOL    HW220466   2.300   0.968  10.091 -1.2697 -0.8380  1.7862
 2944SOL     OW20467   3.089   3.652   4.853 -0.0247  0.7887 -0.5886
 2944SOL    HW120468   3.086   3.746   4.871 -0.1904  0.3905  1.5113
 2944SOL    HW220469   3.003   3.647   4.811 -1.8622  1.3073  3.0879
 2945SOL     OW20470   0.148   3.756   8.794  0.6492 -0.6704 -0.4903
 2945SOL    HW120471   0.134   3.783   8.704  1.0236  0.9873 -0.0460
 2945SOL    HW220472   0.166   3.663   8.781 -1.2589 -0.8958 -1.4434
 2946SOL     OW20473   2.777   2.567   5.646 -0.3537  0.6380 -0.3634
 2946SOL    HW120474   2.866   2.568   5.610  0.2954 -0.2407  1.1959
 2946SOL    HW220475   2.796   2.572   5.740 -2.1183 -0.4854  0.0534
 2947SOL     OW20476   4.572   2.447   0.708 -0.2249  0.0914  0.2138
 2947SOL    HW120477   4.542   2.368   0.661  1.5443 -0.1153 -0.5662
 2947SOL    HW220478   4.495   2.497   0.679  0.1596 -0.8406 -2.4155
 2948SOL     OW20479   0.468   0.101   4.138  0.4376 -0.0517  0.5348
 2948SOL    HW120480   0.380   0.126   4.165 -0.2036  0.3246 -1.9274
 2948SOL    HW220481   0.454   0.013   4.102  1.5688  0.1744 -0.4407
 2949SOL     OW20482   2.059   3.377   3.363  0.1431 -0.0104  0.2865
 2949SOL    HW120483   2.117   3.330   3.424  0.2415 -0.4789 -0.1681
 2949SOL    HW220484   2.017   3.303   3.319  0.9226 -0.2029 -0.1395
 2950SOL     OW20485   1.309   1.553   1.647  0.3549  0.0069 -0.2083
 2950SOL    HW120486   1.279   1.638   1.678  2.1176  0.5801 -0.0895
 2950SOL    HW220487   1.242   1.494   1.680 -1.4273  1.7096 -0.8021
 2951SOL     OW20488   0.665   0.708   4.538 -0.1468 -0.2528 -0.1032
 2951SOL    HW120489   0.665   0.624   4.492 -1.1391 -0.2425 -0.1127
 2951SOL    HW220490   0.717   0.771   4.488  0.0794  0.3204  0.8534
 2952SOL     OW20491   2.247   4.373  16.822 -0.9232  0.2095 -0.2851
 2952SOL    HW120492   2.195   4.368  16.742 -2.2869  2.2564  0.4745
 2952SOL    HW220493   2.181   4.340  16.884 -0.8099  0.5512  0.0213
 2953SOL     OW20494   1.970   1.551   6.060  0.0222  0.3407 -0.2488
 2953SOL    HW120495   2.063   1.574   6.065  0.4782 -0.9814 -2.4843
 2953SOL    HW220496   1.961   1.492   6.135  0.0306  0.3539 -0.2373
 2954SOL     OW20497   3.676   2.125  16.527 -0.2854 -0.0225  0.3236
 2954SOL    HW120498   3.613   2.164  16.588 -0.8553 -1.5906  0.7540
 2954SOL    HW220499   3.635   2.041  16.505  1.6874 -0.8268 -0.3219
 2955SOL     OW20500   2.053   4.155   6.257  0.2229  0.2933  0.2297
 2955SOL    HW120501   2.035   4.066   6.286 -2.6198  0.7605 -0.1074
 2955SOL    HW220502   1.992   4.155   6.183  1.9767  2.0222 -1.2453
 2956SOL     OW20503   4.272   0.462   3.426 -0.2020 -0.0520  0.2660
 2956SOL    HW120504   4.259   0.546   3.470  1.3023 -0.4647  1.5135
 2956SOL    HW220505   4.362   0.480   3.398 -0.1996  1.3351  1.1644
 2957SOL     OW20506   1.618   2.862  14.053  0.4705  0.0115  0.2330
 2957SOL    HW120507   1.562   2.933  14.084 -2.5034 -1.5006 -1.6782
 2957SOL    HW220508   1.549   2.803  14.022  0.1713 -0.5007  1.8949
 2958SOL     OW20509   4.007   2.436  14.660 -0.0778  0.7262  0.0516
 2958SOL    HW120510   4.071   2.507  14.665  1.5146 -0.6202 -1.3917
 2958SOL    HW220511   4.045   2.374  14.721 -0.1825 -0.3419 -0.9729
 2959SOL     OW20512   2.677   0.597   7.927 -0.0929  0.1763 -0.1773
 2959SOL    HW120513   2.753   0.543   7.909 -1.1413 -1.9021  1.6339
 2959SOL    HW220514   2.658   0.577   8.019  1.7437 -0.5497  0.0290
 2960SOL     OW20515   2.753   4.432  16.855  0.2388  0.1784 -0.7341
 2960SOL    HW120516   2.764   4.515  16.901 -1.6753  0.6371 -1.1064
 2960SOL    HW220517   2.846   4.415  16.836  0.6132  1.9474 -0.5139
 2961SOL     OW20518   1.425   1.060   1.280 -0.0845  0.0991 -0.0233
 2961SOL    HW120519   1.332   1.062   1.258  0.2430  0.1644 -1.4129
 2961SOL    HW220520   1.450   1.150   1.258  4.2869 -1.2535 -0.5631
 2962SOL     OW20521   3.704   1.861  14.911 -0.1711 -0.1918 -0.2527
 2962SOL    HW120522   3.629   1.921  14.911  0.1027  0.1674  1.7191
 2962SOL    HW220523   3.663   1.786  14.868 -0.6235  0.9155 -1.7319
 2963SOL     OW20524   4.337   1.566  17.339 -0.3679 -0.2382  0.0034
 2963SOL    HW120525   4.432   1.573  17.346 -0.2119 -0.6480 -1.8576
 2963SOL    HW220526   4.320   1.600  17.251  0.2306  2.9584  1.1255
 2964SOL     OW20527   3.464   4.354   1.796 -0.8921 -0.1096 -0.3840
 2964SOL    HW120528   3.384   4.402   1.773 -0.8181  0.3524  0.3245
 2964SOL    HW220529   3.525   4.408   1.745 -1.1091  1.1022  0.6507
 2965SOL     OW20530   2.042   0.623  14.264  0.0304 -0.1629 -0.1588
 2965SOL    HW120531   2.028   0.653  14.175 -0.4894 -0.8898 -0.3246
 2965SOL    HW220532   2.103   0.553  14.240 -1.5506 -0.6320 -2.7311
 2966SOL     OW20533   4.432   3.922   6.988  0.0886 -0.1241  0.2442
 2966SOL    HW120534   4.459   3.951   7.076  1.3350  0.7480 -0.4337
 2966SOL    HW220535   4.509   3.890   6.943  0.9028  0.8631  0.9386
 2967SOL     OW20536   2.201   3.446  14.128 -0.0945  0.2188  0.3679
 2967SOL    HW120537   2.152   3.528  14.121  0.5906  0.6026  0.0681
 2967SOL    HW220538   2.160   3.381  14.071  2.6751  1.4989 -3.0930
 2968SOL     OW20539   2.676   0.380   7.558  0.0749  0.4294  0.6306
 2968SOL    HW120540   2.610   0.437   7.599  0.5278  0.3601  1.4587
 2968SOL    HW220541   2.703   0.420   7.476 -0.6677  0.0307  0.1896
 2969SOL     OW20542   0.070   1.111   1.994  0.2626 -0.3505 -0.4341
 2969SOL    HW120543   4.735   1.095   2.057 -0.0929 -3.4924 -1.6223
 2969SOL    HW220544   0.031   1.089   1.909 -1.7109 -1.2192  0.6875
 2970SOL     OW20545   0.506   0.326  10.614  0.5977  0.8660 -0.2755
 2970SOL    HW120546   0.582   0.300  10.665  0.2641 -1.6810 -1.0530
 2970SOL    HW220547   0.523   0.267  10.540 -1.0963 -0.2614  0.2237
 2971SOL     OW20548   3.516   4.139   0.424  0.0755  0.4608  0.2723
 2971SOL    HW120549   3.572   4.120   0.349  0.6471 -0.4161  0.9230
 2971SOL    HW220550   3.475   4.220   0.394  0.8545  0.8664  0.3068
 2972SOL     OW20551   1.560   3.965   7.141  0.1391 -1.0101  0.2117
 2972SOL    HW120552   1.535   4.038   7.197  1.3029 -1.0544  0.7796
 2972SOL    HW220553   1.541   3.891   7.198 -0.4962 -1.3915 -0.4960
 2973SOL     OW20554   1.759   1.448   9.735  0.4412  0.0444  0.1612
 2973SOL    HW120555   1.824   1.385   9.704  0.1687  0.5718 -1.5030
 2973SOL    HW220556   1.750   1.517   9.669 -2.4820  0.1886  0.7111
 2974SOL     OW20557   1.498   0.113   7.743  0.3257 -0.1431  0.3413
 2974SOL    HW120558   1.407   0.100   7.716  0.5937 -0.0646 -0.6160
 2974SOL    HW220559   1.522   0.162   7.664 -0.4252 -0.9999 -0.4227
 2975SOL     OW20560   2.657   2.561  10.354 -0.2487  0.0580 -0.2769
 2975SOL    HW120561   2.636   2.468  10.339 -1.7579  0.3259  0.1919
 2975SOL    HW220562   2.750   2.582  10.342  0.0456 -0.2044  1.4871
 2976SOL     OW20563   4.411   1.004   5.827 -0.3262  0.1486 -0.6034
 2976SOL    HW120564   4.457   0.974   5.905 -2.0588 -2.8841 -0.7481
 2976SOL    HW220565   4.331   1.042   5.862  0.2117 -0.7768  1.6320
 2977SOL     OW20566   0.285   3.037   8.823 -0.0263 -0.3309 -0.2981
 2977SOL    HW120567   0.352   2.995   8.768 -0.6993 -0.5938 -0.9269
 2977SOL    HW220568   0.338   3.071   8.895 -2.4091 -1.0300  1.7683
 2978SOL     OW20569   0.163   3.423   6.648  0.3394  0.5552  0.3751
 2978SOL    HW120570   0.224   3.364   6.692 -0.7427  0.0702  1.2342
 2978SOL    HW220571   0.214   3.434   6.568 -0.0079 -0.4002  0.0314
 2979SOL     OW20572   3.826   1.716   3.964  0.2659 -0.4564  0.4330
 2979SOL    HW120573   3.773   1.795   3.951 -0.3290 -0.7553  1.0515
 2979SOL    HW220574   3.800   1.646   3.904 -0.2586  0.6397 -0.6274
 2980SOL     OW20575   4.256   3.885   8.429 -0.7108 -0.3603 -0.3248
 2980SOL    HW120576   4.289   3.809   8.476 -1.8313  0.5679  1.9387
 2980SOL    HW220577   4.325   3.949   8.449 -1.5181  0.4028  0.0266
 2981SOL     OW20578   3.437   2.473   8.477  0.3636 -0.0161  0.0975
 2981SOL    HW120579   3.484   2.468   8.393 -0.6859  2.6687 -0.6517
 2981SOL    HW220580   3.500   2.517   8.534  0.7576  0.2869 -0.5611
 2982SOL     OW20581   3.429   1.317   8.585  0.0839 -0.3561  0.0408
 2982SOL    HW120582   3.507   1.308   8.530  0.6418  0.8582  0.6288
 2982SOL    HW220583   3.361   1.281   8.528  1.2961  3.0068 -3.5200
 2983SOL     OW20584   1.827   2.254  12.817 -0.0282 -0.1743  0.7597
 2983SOL    HW120585   1.918   2.239  12.789 -0.8555 -3.6436 -0.1356
 2983SOL    HW220586   1.793   2.298  12.739  0.2397  1.0963  1.3574
 2984SOL     OW20587   3.641   3.203   5.798 -0.8651  0.0897  0.2447
 2984SOL    HW120588   3.700   3.224   5.726  0.2908  1.3518  1.5458
 2984SOL    HW220589   3.697   3.190   5.875 -0.1620  0.1495 -0.2585
 2985SOL     OW20590   2.761   1.576   8.090 -0.0242  0.3516  0.3224
 2985SOL    HW120591   2.844   1.613   8.119  0.2201  0.3474 -0.3812
 2985SOL    HW220592   2.714   1.659   8.100 -1.6562 -0.7493  1.8903
 2986SOL     OW20593   2.612   1.515   3.881  0.0155  0.2765 -0.2991
 2986SOL    HW120594   2.655   1.499   3.797 -0.4986  1.1140 -0.7213
 2986SOL    HW220595   2.555   1.590   3.868 -2.5910 -1.3470  1.8153
 2987SOL     OW20596   3.546   2.406   5.398  0.2601 -0.1695  0.2694
 2987SOL    HW120597   3.555   2.501   5.397  0.6305 -0.2101 -0.1179
 2987SOL    HW220598   3.465   2.389   5.447  1.3699 -0.1081  2.0853
 2988SOL     OW20599   3.894   1.537   8.922  0.3697  0.2312 -0.4532
 2988SOL    HW120600   3.871   1.462   8.867  0.1453  0.5036 -0.7283
 2988SOL    HW220601   3.944   1.587   8.858  0.7465 -0.4515 -0.6964
 2989SOL     OW20602   3.179   3.558  12.119  0.0397  0.5243 -0.2837
 2989SOL    HW120603   3.127   3.628  12.158 -0.1823  0.2371 -0.0621
 2989SOL    HW220604   3.104   3.503  12.096  0.0054  1.3129 -2.0477
 2990SOL     OW20605   0.508   3.645  15.274  0.3741 -0.6079 -0.3705
 2990SOL    HW120606   0.541   3.586  15.207  0.5753 -0.3181 -0.5311
 2990SOL    HW220607   0.496   3.591  15.352 -2.5043  1.3692  0.5397
 2991SOL     OW20608   3.003   2.259   4.746 -0.6778  0.8939 -0.3510
 2991SOL    HW120609   2.937   2.192   4.730 -0.8684 -0.1028  4.6441
 2991SOL    HW220610   2.973   2.298   4.828  1.9103 -1.8957  1.9209
 2992SOL     OW20611   1.620   2.066   5.495 -0.1999  0.3795 -0.1989
 2992SOL    HW120612   1.708   2.092   5.468  0.0716  3.5376  3.6275
 2992SOL    HW220613   1.592   2.141   5.548  0.5199  0.9922 -0.6793
 2993SOL     OW20614   4.268   0.368   2.444  0.1574 -0.4277 -0.2195
 2993SOL    HW120615   4.358   0.336   2.444  0.3061  0.0069  0.8739
 2993SOL    HW220616   4.235   0.279   2.427  0.7850 -0.6872 -0.0543
 2994SOL     OW20617   0.506   1.258   5.607  0.2399  0.1667  0.0946
 2994SOL    HW120618   0.436   1.270   5.543  2.0990 -0.8448 -2.1066
 2994SOL    HW220619   0.511   1.343   5.653 -1.8930  0.4675 -0.2335
 2995SOL     OW20620   2.624   1.920   4.516  0.0565 -0.1856 -0.2286
 2995SOL    HW120621   2.572   1.844   4.543  0.9614 -0.8705 -0.3985
 2995SOL    HW220622   2.620   1.903   4.421  0.5283 -0.1707 -0.2501
 2996SOL     OW20623   0.915   2.895   4.697  0.0493  0.6658 -0.0039
 2996SOL    HW120624   0.850   2.889   4.767  1.2793 -2.0899  0.8844
 2996SOL    HW220625   0.967   2.967   4.733  0.5607  0.0929  0.4050
 2997SOL     OW20626   4.613   3.160  12.346  0.1540  0.4100 -0.0018
 2997SOL    HW120627   4.656   3.101  12.408  0.3674 -0.4732 -0.9898
 2997SOL    HW220628   4.692   3.198  12.308 -1.7348  2.9978 -1.3554
 2998SOL     OW20629   0.735   0.973   3.802  0.0783 -0.6098 -0.5009
 2998SOL    HW120630   0.804   1.032   3.833 -1.7343  1.9183 -1.2026
 2998SOL    HW220631   0.752   0.905   3.866  0.1542 -0.0166  0.1099
 2999SOL     OW20632   4.659   4.628   1.220  0.2826 -0.4019  0.2996
 2999SOL    HW120633   0.005   4.674   1.197  0.4900 -1.0144 -0.1993
 2999SOL    HW220634   4.669   4.611   1.314 -0.3697 -1.5616  0.1543
 3000SOL     OW20635   0.588   1.788   6.111 -0.1210 -0.2504  0.3681
 3000SOL    HW120636   0.562   1.852   6.044  1.5662 -2.4659 -2.4068
 3000SOL    HW220637   0.512   1.808   6.166  0.0574 -1.4863  1.0548
 3001SOL     OW20638   4.726   2.974  13.629 -0.1217  0.6527 -0.8566
 3001SOL    HW120639   0.006   2.970  13.723 -0.8075  0.2662 -0.7551
 3001SOL    HW220640   4.638   2.934  13.631  0.3403 -0.3612 -0.6452
 3002SOL     OW20641   3.719   1.415   2.025 -0.4014 -1.0974 -0.3432
 3002SOL    HW120642   3.723   1.502   1.986  1.9821 -0.9058  0.3533
 3002SOL    HW220643   3.789   1.370   1.978  1.1050  1.8458 -0.8910
 3003SOL     OW20644   4.384   0.629  10.109  0.4556  0.0894  0.3238
 3003SOL    HW120645   4.436   0.602  10.185  1.9076 -1.8997 -1.3699
 3003SOL    HW220646   4.305   0.580  10.132 -1.2285  1.1762 -3.1575
 3004SOL     OW20647   2.155   2.217   6.225 -0.8384 -0.1743 -0.0318
 3004SOL    HW120648   2.064   2.246   6.233 -0.2287  1.3086  1.6258
 3004SOL    HW220649   2.158   2.182   6.136  0.0389 -0.1277 -0.0267
 3005SOL     OW20650   4.179   2.266   1.502  0.4660  0.9285  0.7323
 3005SOL    HW120651   4.228   2.294   1.424  0.2428  3.2600  1.4324
 3005SOL    HW220652   4.243   2.223   1.558  1.3601  2.5978  1.0123
 3006SOL     OW20653   2.998   0.492  14.158 -0.7231 -0.5298  0.2546
 3006SOL    HW120654   3.011   0.447  14.075 -2.2726 -0.0741 -0.2326
 3006SOL    HW220655   2.923   0.444  14.192 -2.7285  2.2882 -0.1773
 3007SOL     OW20656   3.513   2.755   3.579  0.2548  0.2682 -0.4813
 3007SOL    HW120657   3.447   2.691   3.554 -1.3643  2.2278 -1.1929
 3007SOL    HW220658   3.479   2.837   3.542 -0.8262  0.8270  1.8049
 3008SOL     OW20659   4.562   1.217   7.643  0.5227 -0.1434  0.3227
 3008SOL    HW120660   4.649   1.230   7.605  0.1820 -0.5332 -0.5956
 3008SOL    HW220661   4.518   1.168   7.573 -0.0123 -0.1160  0.6420
 3009SOL     OW20662   3.681   2.925  17.243  0.3231  0.1066 -0.1704
 3009SOL    HW120663   3.774   2.900  17.240  0.1274 -0.6111 -0.3830
 3009SOL    HW220664   3.641   2.852  17.196  2.3227 -0.9426 -0.2520
 3010SOL     OW20665   2.365   2.384  17.111  0.5823 -0.1555  0.0435
 3010SOL    HW120666   2.374   2.421  17.199  2.2935  0.1074 -0.2403
 3010SOL    HW220667   2.283   2.334  17.115 -0.7796  2.0099 -1.1325
 3011SOL     OW20668   3.095   4.589   2.891 -0.8400 -0.1603  0.2732
 3011SOL    HW120669   3.075   4.672   2.933 -0.3036 -0.1201  0.4435
 3011SOL    HW220670   3.186   4.577   2.918 -0.1118  0.6268 -1.8431
 3012SOL     OW20671   4.722   3.741   0.771 -0.0669  0.2845  0.0398
 3012SOL    HW120672   0.009   3.791   0.850 -1.2552 -1.0683  1.2334
 3012SOL    HW220673   4.700   3.810   0.709  1.9907  2.2990  1.5716
 3013SOL     OW20674   0.864   0.391   2.457  0.7177 -0.5061 -0.5595
 3013SOL    HW120675   0.956   0.364   2.453  0.0039 -3.2095  2.0946
 3013SOL    HW220676   0.831   0.348   2.378  1.4430  0.5716 -1.4628
 3014SOL     OW20677   1.061   2.815   1.959 -0.8887 -0.7804  0.5303
 3014SOL    HW120678   1.081   2.722   1.973 -0.6564 -1.0736 -1.6696
 3014SOL    HW220679   1.139   2.848   2.003  0.4720 -2.2224 -0.7976
 3015SOL     OW20680   1.953   1.635  14.831 -0.3258 -0.2136  0.5051
 3015SOL    HW120681   1.979   1.548  14.800 -2.1888 -0.1050 -1.3714
 3015SOL    HW220682   1.998   1.691  14.768  0.1361  0.2692  1.2740
 3016SOL     OW20683   1.188   1.382   4.351  0.3887 -0.3936  0.1878
 3016SOL    HW120684   1.266   1.438   4.348  0.7366 -0.8676  0.4510
 3016SOL    HW220685   1.222   1.295   4.368  0.8121 -0.1700  0.4734
 3017SOL     OW20686   4.045   1.204   3.342 -0.5835  0.3359  0.0861
 3017SOL    HW120687   4.130   1.166   3.363 -0.3916 -0.3163 -1.8799
 3017SOL    HW220688   4.074   1.288   3.306 -2.0633  1.9411  2.5733
 3018SOL     OW20689   0.923   1.915   6.233 -0.2802 -0.2474 -0.7650
 3018SOL    HW120690   0.844   1.861   6.222 -0.1199 -0.9703  1.8734
 3018SOL    HW220691   0.994   1.854   6.217  0.7480 -0.1957  3.8490
 3019SOL     OW20692   3.977   3.757   9.840 -0.1175 -0.7379 -0.3529
 3019SOL    HW120693   3.986   3.696   9.913  0.7557  0.2530  0.3746
 3019SOL    HW220694   4.019   3.836   9.876  1.6265 -1.5865 -0.5080
 3020SOL     OW20695   0.648   1.757  11.360 -0.3101  0.3599  0.2362
 3020SOL    HW120696   0.603   1.840  11.372 -0.8600  0.4036 -2.1753
 3020SOL    HW220697   0.728   1.776  11.410 -0.0878  0.8471 -0.3129
 3021SOL     OW20698   2.853   2.269  15.216  0.0804  0.1878  0.1399
 3021SOL    HW120699   2.793   2.215  15.164 -1.6081  3.1981 -1.0763
 3021SOL    HW220700   2.828   2.352  15.174  1.8524 -0.0622 -1.4323
 3022SOL     OW20701   4.185   1.333   5.720  0.2277 -0.0138 -0.3698
 3022SOL    HW120702   4.096   1.366   5.725 -0.3240 -1.8481  1.9816
 3022SOL    HW220703   4.184   1.263   5.786 -1.4908 -0.3256 -0.7269
 3023SOL     OW20704   4.135   0.412   8.972  0.2430  0.3944 -0.7022
 3023SOL    HW120705   4.213   0.357   8.963  0.6939  0.5091  2.5726
 3023SOL    HW220706   4.101   0.427   8.884  1.4422  0.7253 -1.0986
 3024SOL     OW20707   0.510   0.509   5.927  0.6476 -0.0568  0.1557
 3024SOL    HW120708   0.555   0.491   6.010  0.5641 -1.0002  0.0015
 3024SOL    HW220709   0.513   0.604   5.915  1.9415 -0.4945 -2.8713
 3025SOL     OW20710   2.791   1.525  14.642  0.3339  0.1073  0.1548
 3025SOL    HW120711   2.752   1.448  14.684 -4.5051  2.6652  0.2661
 3025SOL    HW220712   2.827   1.566  14.720 -0.2379  0.4898  0.2150
 3026SOL     OW20713   0.302   3.246   3.916  0.2632 -0.3848  0.2089
 3026SOL    HW120714   0.218   3.282   3.889 -0.0476 -0.2002  1.4103
 3026SOL    HW220715   0.293   3.270   4.008  1.7378 -1.8025  0.7270
 3027SOL     OW20716   0.924   4.314  11.329  0.1502  0.4304 -0.7054
 3027SOL    HW120717   0.955   4.224  11.324 -1.3340 -0.1541  0.8154
 3027SOL    HW220718   0.867   4.302  11.405 -2.5385  3.0595 -2.3494
 3028SOL     OW20719   0.392   2.981  10.822  0.1608 -0.0845  0.3208
 3028SOL    HW120720   0.306   3.009  10.789  0.1317  0.6572  1.0317
 3028SOL    HW220721   0.425   3.061  10.863 -0.8590  0.4092  0.1925
 3029SOL     OW20722   4.172   3.877   2.889  0.0644  0.3202  0.2561
 3029SOL    HW120723   4.082   3.910   2.888  0.3982  1.2150 -0.1320
 3029SOL    HW220724   4.193   3.900   2.979 -1.5388  0.5058  0.5745
 3030SOL     OW20725   4.141   2.396   4.926  0.6677  0.0183  0.3490
 3030SOL    HW120726   4.071   2.419   4.864  2.6607 -1.5107 -2.4966
 3030SOL    HW220727   4.124   2.302   4.936  1.9160 -0.2171  0.2579
 3031SOL     OW20728   0.891   2.473   6.255 -0.3681  0.2525  0.4049
 3031SOL    HW120729   0.923   2.540   6.194 -0.7291  2.6978  2.9059
 3031SOL    HW220730   0.864   2.519   6.335  0.2379 -0.2253  0.8876
 3032SOL     OW20731   2.199   3.114   5.585  0.1221 -0.0435  0.6185
 3032SOL    HW120732   2.134   3.139   5.651 -0.3045  0.6059 -0.0473
 3032SOL    HW220733   2.240   3.039   5.629  1.8708  0.7460  0.3154
 3033SOL     OW20734   4.729   2.584  17.562 -0.3025  0.0158 -0.2686
 3033SOL    HW120735   4.643   2.616  17.538 -0.0746  0.5965 -0.3073
 3033SOL    HW220736   0.002   2.509  17.503  0.0205 -1.1720  1.2724
 3034SOL     OW20737   1.787   3.958  17.592  0.2941 -0.4859 -0.5064
 3034SOL    HW120738   1.834   4.036  17.562  1.9467 -0.9784  0.7816
 3034SOL    HW220739   1.701   3.990  17.565  0.3583 -0.3993 -0.6062
 3035SOL     OW20740   1.046   4.525  11.177 -0.1103  0.2212  0.4523
 3035SOL    HW120741   1.023   4.452  11.235 -4.2542 -0.9590 -2.6915
 3035SOL    HW220742   0.968   4.579  11.184 -0.4492 -0.2804  0.4844
 3036SOL     OW20743   1.274   3.062   6.209 -0.6843 -0.3666 -0.0032
 3036SOL    HW120744   1.241   2.990   6.263 -0.9092  0.1572  0.5459
 3036SOL    HW220745   1.344   3.016   6.163 -0.3676  0.3275 -0.2063
 3037SOL     OW20746   4.289   0.451   0.477 -0.2367 -0.5363 -0.3090
 3037SOL    HW120747   4.327   0.368   0.447  3.9534  0.1538  3.2820
 3037SOL    HW220748   4.345   0.517   0.438 -0.5043 -0.3767 -0.4256
 3038SOL     OW20749   3.948   1.333  11.809  0.1190 -0.1780  0.1145
 3038SOL    HW120750   3.921   1.287  11.730  1.1131 -0.1703 -0.2345
 3038SOL    HW220751   3.925   1.266  11.873  0.2749 -0.3527 -0.0144
 3039SOL     OW20752   1.461   3.790  11.490  0.3711  0.7218  0.4321
 3039SOL    HW120753   1.455   3.712  11.544  1.2212 -0.4929 -1.2130
 3039SOL    HW220754   1.515   3.740  11.429  0.6819  1.9251 -0.2783
 3040SOL     OW20755   2.921   4.225  14.286 -0.8181  0.2497 -0.3673
 3040SOL    HW120756   2.996   4.274  14.251 -0.3907 -0.0509  0.1177
 3040SOL    HW220757   2.951   4.134  14.281  1.6718  0.9300  1.9087
 3041SOL     OW20758   1.001   4.418   5.918  0.6676 -0.4724  0.2003
 3041SOL    HW120759   0.938   4.367   5.868  1.0447  1.8393 -2.5998
 3041SOL    HW220760   1.010   4.368   5.999 -0.2087 -1.2482 -0.1772
 3042SOL     OW20761   2.368   0.842  12.048  0.5530 -0.1590 -0.2394
 3042SOL    HW120762   2.277   0.811  12.051  0.5224  0.0472  1.0936
 3042SOL    HW220763   2.388   0.859  12.140  3.5007  4.3009 -1.6717
 3043SOL     OW20764   3.150   3.331  11.826 -0.2400 -0.0089  0.1785
 3043SOL    HW120765   3.105   3.248  11.839 -1.1699  0.7346  1.7542
 3043SOL    HW220766   3.161   3.341  11.920 -1.0218  1.3991  0.1173
 3044SOL     OW20767   4.331   3.053   8.731 -0.1965  0.2708  0.0466
 3044SOL    HW120768   4.378   2.999   8.795  1.3074  0.2740 -1.0482
 3044SOL    HW220769   4.411   3.102   8.709  1.1076 -1.4701  0.8947
 3045SOL     OW20770   1.109   0.404   2.343  0.1272  0.2000  0.4904
 3045SOL    HW120771   1.174   0.450   2.397 -0.7492  0.1665  1.5892
 3045SOL    HW220772   1.074   0.480   2.296  1.5419  0.8999  0.5406
 3046SOL     OW20773   2.165   1.161   2.871 -0.3155  0.4415 -0.3162
 3046SOL    HW120774   2.256   1.132   2.879  0.1236  2.2391  1.2088
 3046SOL    HW220775   2.118   1.090   2.827 -1.1825  0.3666  0.7274
 3047SOL     OW20776   4.172   0.467   2.687 -0.4785 -0.6066 -0.9314
 3047SOL    HW120777   4.183   0.457   2.593  0.6029  0.0998 -0.8852
 3047SOL    HW220778   4.098   0.412   2.713  0.7420 -2.0533 -0.5487
 3048SOL     OW20779   4.038   1.401  12.868 -0.0880  0.1279 -0.2489
 3048SOL    HW120780   4.059   1.332  12.930 -1.1879  0.4579  0.4743
 3048SOL    HW220781   4.124   1.438  12.848 -0.5840  1.3900 -0.0370
 3049SOL     OW20782   1.961   4.518   3.045 -0.5292  0.0268  0.2438
 3049SOL    HW120783   1.957   4.614   3.041 -0.0652  0.0069 -0.5623
 3049SOL    HW220784   1.981   4.499   2.954  1.1417 -4.1294  1.4697
 3050SOL     OW20785   1.102   0.390   9.253 -0.3933  0.5892 -0.0746
 3050SOL    HW120786   1.081   0.453   9.322 -1.4173 -1.8233  1.8150
 3050SOL    HW220787   1.189   0.424   9.229  0.9157 -1.9080  1.0966
 3051SOL     OW20788   0.810   4.251   5.794 -0.3260  0.3081  0.1497
 3051SOL    HW120789   0.716   4.266   5.799 -0.2626  0.7544  0.0604
 3051SOL    HW220790   0.829   4.277   5.704  1.0372  2.6783  1.1001
 3052SOL     OW20791   3.838   3.466   2.548  0.0250  0.7327  0.0225
 3052SOL    HW120792   3.855   3.556   2.520 -1.6116  0.8880 -0.4927
 3052SOL    HW220793   3.915   3.446   2.601 -0.6391 -0.7026  0.4557
 3053SOL     OW20794   1.059   0.405   5.196  0.7048  0.4919  0.3254
 3053SOL    HW120795   1.089   0.445   5.114 -0.4245 -0.9747 -0.8126
 3053SOL    HW220796   1.140   0.359   5.221  0.1070  0.0659  1.4642
 3054SOL     OW20797   1.531   3.769   1.444  0.0738  0.3038  0.1750
 3054SOL    HW120798   1.454   3.825   1.437  1.6954  2.1971 -2.1777
 3054SOL    HW220799   1.492   3.682   1.434  0.1508  0.6179 -2.8145
 3055SOL     OW20800   4.488   3.532  10.493 -0.0192 -1.0325 -0.1526
 3055SOL    HW120801   4.442   3.597  10.440 -2.7764 -1.8779  1.2026
 3055SOL    HW220802   4.490   3.459  10.431 -0.1094 -0.3878 -0.9134
 3056SOL     OW20803   2.634   3.171   3.955 -0.4948 -0.2099 -0.2302
 3056SOL    HW120804   2.699   3.210   4.015 -1.9891  2.5779 -0.4173
 3056SOL    HW220805   2.657   3.086   3.992 -1.5384 -0.1759  0.4982
 3057SOL     OW20806   4.139   2.806   6.156 -0.1514 -0.2107  0.0166
 3057SOL    HW120807   4.061   2.835   6.203 -0.2425 -0.2458 -0.1144
 3057SOL    HW220808   4.155   2.720   6.194  2.7441  0.2380 -0.2179
 3058SOL     OW20809   0.209   3.055   4.577  0.0803 -0.3400  0.3056
 3058SOL    HW120810   0.201   3.040   4.671 -1.3522 -0.9963  0.0904
 3058SOL    HW220811   0.248   2.973   4.547 -0.4279  1.0154 -4.1041
 3059SOL     OW20812   0.386   3.358   1.628  0.5274 -0.0842  0.4137
 3059SOL    HW120813   0.363   3.282   1.682  1.6109 -0.3801  0.4606
 3059SOL    HW220814   0.417   3.314   1.549 -1.2868  0.3778 -0.5615
 3060SOL     OW20815   1.550   4.201   3.637  0.0988 -0.2546 -0.4505
 3060SOL    HW120816   1.594   4.118   3.657 -1.3585 -0.6535  1.1458
 3060SOL    HW220817   1.592   4.239   3.560  1.3538  1.2432  0.9697
 3061SOL     OW20818   1.984   4.682   6.977  0.6682  0.1349 -0.3789
 3061SOL    HW120819   1.925   4.703   7.049  2.3464  2.6447  0.2854
 3061SOL    HW220820   1.932   4.694   6.897 -0.3805  0.3397  0.3328
 3062SOL     OW20821   3.996   3.351   1.986  0.2564 -0.2846 -0.6188
 3062SOL    HW120822   3.960   3.279   2.038 -2.6881  2.4488  1.0794
 3062SOL    HW220823   3.916   3.396   1.960 -0.4858 -0.1751  1.8583
 3063SOL     OW20824   2.998   1.805   3.553 -0.1949 -0.7978 -0.0411
 3063SOL    HW120825   3.069   1.841   3.499  2.9968 -3.4351  2.4188
 3063SOL    HW220826   2.927   1.836   3.496  0.4236  2.1724  0.7836
 3064SOL     OW20827   1.853   3.003   6.530  0.5623  0.1781 -0.0479
 3064SOL    HW120828   1.829   2.959   6.612  0.4740  1.2789  0.5098
 3064SOL    HW220829   1.775   3.047   6.497  0.1468 -0.3652  0.2058
 3065SOL     OW20830   0.717   1.374  12.598 -0.1515  0.0969  0.5074
 3065SOL    HW120831   0.702   1.295  12.650  0.9858 -0.8937 -0.6767
 3065SOL    HW220832   0.803   1.354  12.561 -2.0391 -2.0437 -2.7450
 3066SOL     OW20833   1.550   0.683   9.067 -0.5194  0.0661 -0.4023
 3066SOL    HW120834   1.645   0.682   9.053 -0.3814  1.1545  0.5453
 3066SOL    HW220835   1.517   0.646   8.984 -0.9555 -0.6340  0.0839
 3067SOL     OW20836   2.019   1.881   5.540  0.0276  0.0046  0.2758
 3067SOL    HW120837   2.067   1.920   5.467 -1.1697 -1.1576 -1.1158
 3067SOL    HW220838   2.084   1.820   5.575  0.4758  0.5773  0.4419
 3068SOL     OW20839   4.223   0.547   8.439  0.2087 -0.3216  0.0252
 3068SOL    HW120840   4.287   0.615   8.461 -1.1454  1.2855 -1.0427
 3068SOL    HW220841   4.211   0.496   8.520  2.6245 -0.1092  0.5122
 3069SOL     OW20842   3.811   0.193   4.514 -0.5870  0.0301  0.3938
 3069SOL    HW120843   3.749   0.164   4.447  0.5526  0.9913 -1.0763
 3069SOL    HW220844   3.787   0.286   4.519  0.9274  0.4592 -0.4216
 3070SOL     OW20845   4.197   1.918  11.344  0.3031 -0.5010  0.3453
 3070SOL    HW120846   4.238   1.834  11.367 -2.2347 -1.5874  0.8200
 3070SOL    HW220847   4.120   1.900  11.397 -0.2475 -0.5525 -0.4805
 3071SOL     OW20848   2.079   2.037   4.400  0.2952 -0.0085 -0.3295
 3071SOL    HW120849   2.024   2.107   4.367 -1.1211 -0.0300  1.9961
 3071SOL    HW220850   2.102   2.054   4.492  0.4260 -1.0684 -0.1671
 3072SOL     OW20851   3.579   3.004  10.392  0.0540 -0.1789  0.7692
 3072SOL    HW120852   3.585   3.098  10.409 -0.7165 -0.1085  0.6674
 3072SOL    HW220853   3.566   2.958  10.475 -2.0125 -0.0702  0.4945
 3073SOL     OW20854   2.511   1.764   7.905 -0.1889  0.0506  0.6133
 3073SOL    HW120855   2.569   1.756   7.981  0.1721  3.3315  0.6923
 3073SOL    HW220856   2.424   1.764   7.946 -1.2562  0.6508 -1.6782
 3074SOL     OW20857   3.743   0.439   1.403 -0.2755 -0.1793  0.2025
 3074SOL    HW120858   3.679   0.404   1.465 -0.5739 -1.9925 -1.1148
 3074SOL    HW220859   3.719   0.384   1.328 -1.3075 -0.6335  0.8679
 3075SOL     OW20860   1.056   2.721   5.012  0.1951 -0.6082 -0.2120
 3075SOL    HW120861   0.966   2.690   5.015  0.5385 -1.5362  0.4991
 3075SOL    HW220862   1.085   2.711   5.103 -0.4518  1.9196  0.2974
 3076SOL     OW20863   1.789   3.016   8.908  0.5723  0.4238 -0.0183
 3076SOL    HW120864   1.871   3.011   8.957  0.8039 -1.0941 -0.5690
 3076SOL    HW220865   1.804   3.086   8.844 -0.2439  1.3552  0.8013
 3077SOL     OW20866   3.439   3.819  10.342  1.0038  0.4148 -0.8901
 3077SOL    HW120867   3.412   3.800  10.252  2.0869  0.7872 -1.2962
 3077SOL    HW220868   3.521   3.772  10.356  1.2715  0.8821 -0.8699
 3078SOL     OW20869   0.021   1.721   4.622 -0.4530 -0.0293  0.0159
 3078SOL    HW120870   0.018   1.626   4.638  3.1938 -0.2515 -0.6136
 3078SOL    HW220871   0.068   1.721   4.539 -1.0761  2.6855 -0.3329
 3079SOL     OW20872   1.143   1.240   4.056 -0.1088  0.0041  0.0080
 3079SOL    HW120873   1.229   1.274   4.031 -1.3248  2.4802 -0.7766
 3079SOL    HW220874   1.165   1.147   4.051 -0.3660 -0.0801  0.4546
 3080SOL     OW20875   3.904   2.796  17.191  0.1200  0.3113  0.1509
 3080SOL    HW120876   3.934   2.804  17.100  0.6869  1.0406  0.4072
 3080SOL    HW220877   3.949   2.715  17.214  0.0113 -0.0013 -0.7015
 3081SOL     OW20878   4.710   4.153   2.743 -0.7974  0.3123  0.1014
 3081SOL    HW120879   4.704   4.172   2.650 -1.5027  3.3744  0.7770
 3081SOL    HW220880   4.651   4.219   2.779  0.5086  0.4604  1.9788
 3082SOL     OW20881   4.033   3.268   8.030  0.8731 -0.1475  0.1636
 3082SOL    HW120882   3.983   3.290   8.108 -1.9742 -2.0396 -1.1222
 3082SOL    HW220883   3.968   3.273   7.960  1.9246 -0.7112 -0.8482
 3083SOL     OW20884   2.271   3.498   5.545 -0.4234 -0.3126  0.0830
 3083SOL    HW120885   2.183   3.463   5.559 -0.5816  1.0817  2.6297
 3083SOL    HW220886   2.268   3.554   5.622  1.7826 -1.3282  0.9140
 3084SOL     OW20887   1.086   1.314   7.117 -0.2185  0.5412 -0.3862
 3084SOL    HW120888   1.067   1.224   7.091  0.8093  0.1932  0.0477
 3084SOL    HW220889   1.048   1.317   7.205  0.9736 -0.5267  0.1662
 3085SOL     OW20890   4.670   0.186  17.368  0.5232 -0.6470  0.2174
 3085SOL    HW120891   4.576   0.171  17.380  0.0290  1.8388 -0.6073
 3085SOL    HW220892   4.707   0.106  17.405 -1.8476 -0.8902  2.0330
 3086SOL     OW20893   4.636   4.552  16.083  0.3592 -0.5618  0.1462
 3086SOL    HW120894   4.586   4.585  16.008 -0.1779 -2.3392 -0.2911
 3086SOL    HW220895   4.678   4.471  16.055 -0.2819 -1.0129  0.4709
 3087SOL     OW20896   1.962   0.232   4.370 -0.3698 -0.7387  0.0148
 3087SOL    HW120897   1.924   0.153   4.410  1.9300 -0.7741  2.1050
 3087SOL    HW220898   1.986   0.280   4.449 -1.2660  0.4354 -0.4208
 3088SOL     OW20899   3.375   1.845   7.173  0.0258  0.8361 -0.0995
 3088SOL    HW120900   3.320   1.810   7.243 -0.1207  2.8026  0.7825
 3088SOL    HW220901   3.411   1.924   7.214  1.5808  0.2041 -0.2431
 3089SOL     OW20902   4.304   4.402   4.275  0.8355  0.4693 -0.1929
 3089SOL    HW120903   4.239   4.366   4.336  1.1594 -1.3264 -0.8844
 3089SOL    HW220904   4.381   4.347   4.293  1.5203  0.5610 -2.8313
 3090SOL     OW20905   4.649   3.430   4.369 -0.0007 -0.4921 -0.0169
 3090SOL    HW120906   4.710   3.454   4.299 -2.0789  1.3006 -1.1779
 3090SOL    HW220907   4.579   3.394   4.316  0.2493 -0.4040 -0.4063
 3091SOL     OW20908   2.776   1.976   7.195 -0.1755 -0.4508 -0.4111
 3091SOL    HW120909   2.870   1.958   7.193 -0.2395 -0.4773 -3.1716
 3091SOL    HW220910   2.738   1.889   7.211 -3.5488  1.4206  1.6978
 3092SOL     OW20911   3.676   1.503  11.997  0.1727  0.1883  0.4893
 3092SOL    HW120912   3.673   1.455  11.914 -1.6209  0.2256  0.5308
 3092SOL    HW220913   3.597   1.471  12.039  1.0044  1.1654  2.8051
 3093SOL     OW20914   3.623   2.880  16.874 -0.4552 -0.5340 -0.1028
 3093SOL    HW120915   3.606   2.811  16.939  0.8081 -0.1717  0.6069
 3093SOL    HW220916   3.719   2.878  16.875 -0.5030 -0.4404  3.4250
 3094SOL     OW20917   1.694   4.707   7.524 -0.3104 -0.0202  0.4199
 3094SOL    HW120918   1.660   0.007   7.605 -0.5014 -1.1360  0.8302
 3094SOL    HW220919   1.766   0.033   7.511 -1.0979  0.8567  0.2321
 3095SOL     OW20920   3.409   3.489   8.520 -0.4513 -0.1570 -0.5440
 3095SOL    HW120921   3.408   3.569   8.467 -0.3923  0.3398  0.1996
 3095SOL    HW220922   3.463   3.509   8.596 -4.2832  1.3370  1.8078
 3096SOL     OW20923   3.173   4.496   0.009 -0.2130 -0.8231  0.1658
 3096SOL    HW120924   3.268   4.498   0.019 -0.0046 -0.2700 -1.7936
 3096SOL    HW220925   3.161   4.564   0.075 -1.1879  0.8683 -1.7373
 3097SOL     OW20926   0.323   1.250   7.133 -0.2268 -0.1746 -0.1751
 3097SOL    HW120927   0.414   1.219   7.134 -1.0113 -2.4637  0.9739
 3097SOL    HW220928   0.332   1.318   7.066 -0.6408 -1.0222 -1.0879
 3098SOL     OW20929   0.257   2.544   7.771 -0.2073 -0.0662 -0.6071
 3098SOL    HW120930   0.163   2.559   7.760 -0.6114 -1.8430  0.5375
 3098SOL    HW220931   0.271   2.538   7.865 -0.0716 -0.0270 -0.6244
 3099SOL     OW20932   1.674   3.236   1.452  0.3375  0.1173 -0.5735
 3099SOL    HW120933   1.712   3.158   1.411 -3.3963 -1.2738 -1.3115
 3099SOL    HW220934   1.620   3.200   1.522  2.1049 -0.2761  0.6041
 3100SOL     OW20935   3.157   4.380   4.164 -0.0296  0.0993 -0.4995
 3100SOL    HW120936   3.105   4.423   4.096 -0.4173  1.6399  0.7887
 3100SOL    HW220937   3.114   4.296   4.177  0.1979  0.1057  0.3145
 3101SOL     OW20938   1.397   3.131   8.579 -0.5873 -0.0813 -0.2597
 3101SOL    HW120939   1.472   3.081   8.545 -0.1278 -0.4597  1.2935
 3101SOL    HW220940   1.399   3.116   8.673  0.1079 -0.9343 -0.4039
 3102SOL     OW20941   2.337   1.727   9.765  0.1620 -0.1177 -0.0571
 3102SOL    HW120942   2.261   1.767   9.722 -0.4650  0.3603  1.4585
 3102SOL    HW220943   2.408   1.785   9.738  0.0653  0.1595  0.2714
 3103SOL     OW20944   2.686   4.475   0.023 -0.3545 -0.0620  0.0351
 3103SOL    HW120945   2.597   4.510   0.029  0.5059  1.8182  1.5023
 3103SOL    HW220946   2.713   4.507  17.675  1.0738  0.4500  0.6782
 3104SOL     OW20947   4.615   2.002  12.388  0.3692 -0.3321  0.7374
 3104SOL    HW120948   4.700   2.029  12.352  0.1056  0.8325  0.9847
 3104SOL    HW220949   4.567   2.008  12.305 -0.3851 -4.8310  0.8492
 3105SOL     OW20950   3.198   1.283   4.624 -0.2214  0.2393  0.4928
 3105SOL    HW120951   3.258   1.249   4.557 -0.0074 -0.0939  0.8567
 3105SOL    HW220952   3.206   1.211   4.686 -0.4773 -0.5403 -0.3726
 3106SOL     OW20953   3.997   0.914   7.833 -0.2590 -0.0350 -0.0910
 3106SOL    HW120954   3.983   0.977   7.763  1.2290  0.9359  0.5050
 3106SOL    HW220955   3.959   0.955   7.910  0.8459  2.0867 -0.6930
 3107SOL     OW20956   3.771   0.104   5.199 -0.1952  0.9231  0.1645
 3107SOL    HW120957   3.765   0.080   5.106 -1.5231 -0.6606  0.6541
 3107SOL    HW220958   3.777   0.011   5.222 -1.2159  0.7655 -0.1793
 3108SOL     OW20959   1.059   3.107   3.425  0.4612  0.0428 -0.7828
 3108SOL    HW120960   1.149   3.140   3.417  0.9321 -0.9842  0.3410
 3108SOL    HW220961   1.081   3.015   3.439 -2.6463 -0.4108  0.9671
 3109SOL     OW20962   4.677   3.423   2.353 -0.1291 -0.2974 -0.3652
 3109SOL    HW120963   4.669   3.330   2.331  4.8735 -1.3542  2.3923
 3109SOL    HW220964   4.619   3.473   2.296 -0.0041  1.7609  1.3217
 3110SOL     OW20965   2.242   4.441  14.942 -0.0028  0.1696  0.4365
 3110SOL    HW120966   2.296   4.381  14.891 -0.8226 -0.4851  0.3474
 3110SOL    HW220967   2.218   4.511  14.881 -0.9081 -0.4670  0.0696
 3111SOL     OW20968   0.620   1.593   2.759 -0.0298 -0.3002 -0.0120
 3111SOL    HW120969   0.679   1.600   2.683 -0.3441  1.1487 -0.1220
 3111SOL    HW220970   0.552   1.535   2.725  0.6531  0.1953 -2.2628
 3112SOL     OW20971   4.703   3.850  13.986 -0.6050 -0.4321  0.3407
 3112SOL    HW120972   0.057   3.841  14.020 -0.9572 -1.8138  0.8979
 3112SOL    HW220973   4.717   3.850  13.891  0.9443  2.0737  0.5568
 3113SOL     OW20974   1.039   0.402   2.873  0.8707  0.1782 -0.6614
 3113SOL    HW120975   1.134   0.402   2.867  0.9130 -3.2662 -0.1576
 3113SOL    HW220976   1.012   0.476   2.927 -1.0791 -0.8531 -0.2098
 3114SOL     OW20977   3.371   4.686   0.084 -0.5011  0.0686  0.2797
 3114SOL    HW120978   3.335   4.714   0.169 -1.6488  1.5066 -0.6821
 3114SOL    HW220979   3.465   4.707   0.088 -0.0988 -1.9935  1.9391
 3115SOL     OW20980   3.979   0.513  16.337 -0.4165  0.3592 -0.8031
 3115SOL    HW120981   3.976   0.481  16.427  1.5007 -0.4201 -1.0280
 3115SOL    HW220982   4.019   0.599  16.331 -0.7485  0.6138  0.8191
 3116SOL     OW20983   0.675   0.894  16.596  0.3311  0.1611  0.2638
 3116SOL    HW120984   0.715   0.960  16.652  0.1654  1.8213 -1.5935
 3116SOL    HW220985   0.676   0.951  16.519 -1.4877  0.0725  0.1844
 3117SOL     OW20986   0.103   4.333   6.366 -0.0820  0.5633  0.4020
 3117SOL    HW120987   0.099   4.414   6.417 -0.1761 -0.2579  1.7163
 3117SOL    HW220988   0.197   4.329   6.352 -0.2396 -0.9856 -0.2121
 3118SOL     OW20989   2.834   3.194   7.200  0.3850  0.0642 -0.2392
 3118SOL    HW120990   2.785   3.120   7.165  0.2056 -0.5291  1.2539
 3118SOL    HW220991   2.762   3.255   7.214  0.7692  0.6828 -0.9205
 3119SOL     OW20992   4.558   4.074   7.263  0.3807  0.2982 -0.3485
 3119SOL    HW120993   4.469   4.105   7.249  1.1027  2.7829  0.4993
 3119SOL    HW220994   4.609   4.149   7.232  2.6781 -1.2178 -0.2439
 3120SOL     OW20995   1.547   1.126   2.505  0.0803 -0.3808  0.6049
 3120SOL    HW120996   1.621   1.135   2.565  1.2802  1.5989 -1.1793
 3120SOL    HW220997   1.475   1.096   2.561  2.5209 -2.3283  2.7447
 3121SOL     OW20998   0.310   3.792  17.246  0.5379  0.5771 -0.9705
 3121SOL    HW120999   0.401   3.778  17.272  0.0570  1.0391  0.9724
 3121SOL    HW221000   0.294   3.708  17.203 -0.4430  0.7805 -1.0058
 3122SOL     OW21001   3.627   3.454   9.325 -0.4844 -0.5972 -0.0985
 3122SOL    HW121002   3.705   3.506   9.339 -1.3974  0.6064  0.4977
 3122SOL    HW221003   3.593   3.450   9.415  0.8286  1.1338  0.4668
 3123SOL     OW21004   3.723   0.332   6.902  0.1198  0.1738  0.5029
 3123SOL    HW121005   3.730   0.427   6.910 -1.0988  0.4625 -1.9628
 3123SOL    HW221006   3.654   0.314   6.966 -0.2973  0.5233  0.1474
 3124SOL     OW21007   2.718   3.645   2.845 -0.0949  0.2404 -0.0485
 3124SOL    HW121008   2.765   3.623   2.765  0.4303  1.0914  0.0311
 3124SOL    HW221009   2.629   3.659   2.815  0.5362 -0.0309 -2.0243
 3125SOL     OW21010   4.542   2.141   6.366 -0.5354  0.2772 -0.3897
 3125SOL    HW121011   4.459   2.159   6.322 -1.0660 -1.1314  0.0577
 3125SOL    HW221012   4.519   2.153   6.459 -2.9399  0.8333 -1.0701
 3126SOL     OW21013   1.047   0.332  14.770 -0.5371 -0.0600  0.3642
 3126SOL    HW121014   1.096   0.411  14.793 -0.8138 -0.2016  1.4368
 3126SOL    HW221015   0.986   0.365  14.704 -0.7936 -2.2092 -0.4696
 3127SOL     OW21016   0.071   3.964   9.135  0.1184  0.3707 -0.3452
 3127SOL    HW121017   0.057   4.024   9.209  1.6031 -0.7278  0.8344
 3127SOL    HW221018   0.134   4.018   9.088  0.4603 -2.3335 -3.0216
 3128SOL     OW21019   2.181   1.708   5.040 -0.7615 -0.2288 -0.0504
 3128SOL    HW121020   2.213   1.747   5.122  2.0991  0.8925 -1.7414
 3128SOL    HW221021   2.088   1.729   5.029 -1.5019 -3.1582  0.4968
 3129SOL     OW21022   4.078   4.267   2.024 -0.6254 -0.2241  0.1576
 3129SOL    HW121023   3.985   4.280   2.010 -0.4037  0.1585 -1.0113
 3129SOL    HW221024   4.119   4.272   1.938  3.7199 -1.5644  2.1358
 3130SOL     OW21025   3.565   3.561   5.856 -0.0491  0.2715 -0.3997
 3130SOL    HW121026   3.477   3.527   5.871 -1.4197  2.6281 -3.1156
 3130SOL    HW221027   3.586   3.510   5.777 -2.0691  0.6021 -1.1401
 3131SOL     OW21028   2.173   2.959   5.960 -0.3627  0.2748 -0.2423
 3131SOL    HW121029   2.084   2.992   5.976 -0.0276  1.1833 -0.2641
 3131SOL    HW221030   2.169   2.871   5.997  0.8096  0.8390  1.1899
 3132SOL     OW21031   3.133   1.935   3.801 -0.2364 -0.3672 -0.0214
 3132SOL    HW121032   3.126   1.862   3.862  2.6990 -0.6389 -0.0275
 3132SOL    HW221033   3.110   1.880   3.727  0.4339 -1.0359  0.2746
 3133SOL     OW21034   2.989   0.614   1.359 -0.0736  0.0679 -0.3164
 3133SOL    HW121035   2.951   0.683   1.413  1.9145  1.5744 -0.8554
 3133SOL    HW221036   3.052   0.576   1.420 -0.8579 -2.3841 -1.0339
 3134SOL     OW21037   0.059   2.410  11.399  0.3204 -0.1483 -0.3608
 3134SOL    HW121038   4.711   2.370  11.372 -0.2728  1.0280 -0.2704
 3134SOL    HW221039   0.119   2.337  11.417 -0.8726 -1.6871 -2.5920
 3135SOL     OW21040   0.401   0.030   9.208 -0.3399  0.2577 -0.2395
 3135SOL    HW121041   0.328   0.091   9.199 -1.9160 -1.3963  1.1743
 3135SOL    HW221042   0.470   0.083   9.248 -0.1688  0.4579 -0.8044
 3136SOL     OW21043   0.452   4.610   2.726  0.2250 -0.1906 -0.1379
 3136SOL    HW121044   0.433   4.518   2.747  1.8028  0.1069  2.5266
 3136SOL    HW221045   0.382   4.615   2.660  1.0738 -1.6773 -1.1705
 3137SOL     OW21046   2.158   1.944   2.130  0.5017  0.5370 -0.5107
 3137SOL    HW121047   2.080   1.978   2.085 -0.8021  0.1901  1.5008
 3137SOL    HW221048   2.187   2.025   2.173  0.2369 -0.3962  1.4016
 3138SOL     OW21049   2.908   0.826   2.540 -0.0858  0.1513 -0.2720
 3138SOL    HW121050   2.884   0.785   2.457 -1.0323 -0.6978  0.4245
 3138SOL    HW221051   2.935   0.914   2.512  1.5109 -0.5148 -0.8222
 3139SOL     OW21052   4.467   3.872   3.012  0.2604 -0.1933  0.7222
 3139SOL    HW121053   4.545   3.863   2.957 -1.8804  0.6133 -2.4975
 3139SOL    HW221054   4.490   3.946   3.068  2.8572 -1.2780  1.0435
 3140SOL     OW21055   0.955   3.723   1.206  0.0099 -0.4618  0.2187
 3140SOL    HW121056   0.986   3.745   1.294  1.0981  0.5183 -0.4115
 3140SOL    HW221057   0.908   3.640   1.202  0.5646 -0.7400 -0.4088
 3141SOL     OW21058   0.321   0.951   1.784 -0.6095 -0.0990  0.6970
 3141SOL    HW121059   0.326   0.860   1.754 -0.2034  0.1908 -0.1183
 3141SOL    HW221060   0.258   0.985   1.720 -0.3642 -0.1874  0.4103
 3142SOL     OW21061   0.457   3.937   1.181  0.0540 -0.3615  0.1195
 3142SOL    HW121062   0.514   3.972   1.113 -1.0911  0.1656 -0.5756
 3142SOL    HW221063   0.415   3.865   1.133 -0.0056  0.6912 -1.4252
 3143SOL     OW21064   3.511   0.678   5.461 -0.3106  0.3059 -0.0456
 3143SOL    HW121065   3.480   0.767   5.478 -0.3589 -0.1343  2.0978
 3143SOL    HW221066   3.576   0.687   5.391  2.2287 -0.0585  2.3113
 3144SOL     OW21067   0.032   2.479   8.660  0.2095 -0.1743  0.0721
 3144SOL    HW121068   0.072   2.547   8.605  2.5183 -0.3740  1.5075
 3144SOL    HW221069   4.694   2.458   8.602  1.4424 -2.0894 -0.7905
 3145SOL     OW21070   1.742   4.094   1.618 -0.3693  0.0207 -0.1523
 3145SOL    HW121071   1.714   4.138   1.698  0.3957 -2.6290  1.5892
 3145SOL    HW221072   1.819   4.047   1.651  0.4157  0.8119 -0.8718
 3146SOL     OW21073   2.208   2.658   7.343 -0.6358  0.1842  0.2767
 3146SOL    HW121074   2.248   2.684   7.260  0.5256 -1.6723  0.2540
 3146SOL    HW221075   2.258   2.580   7.371  1.0016  0.3241 -2.2766
 3147SOL     OW21076   0.225   3.291   2.542 -0.4192  0.0691  0.1904
 3147SOL    HW121077   0.186   3.206   2.561  1.2747 -0.8733 -0.6113
 3147SOL    HW221078   0.173   3.338   2.607  2.1682  0.3443  2.0931
 3148SOL     OW21079   4.456   1.703  12.186 -0.4805 -0.1455 -0.3083
 3148SOL    HW121080   4.475   1.796  12.171 -0.8824 -0.0626 -0.2996
 3148SOL    HW221081   4.360   1.702  12.190 -0.4977 -0.0211 -0.6617
 3149SOL     OW21082   0.795   0.364   5.215  0.0916 -0.2194 -0.0701
 3149SOL    HW121083   0.887   0.388   5.200  0.0665 -0.7676 -1.0603
 3149SOL    HW221084   0.810   0.291   5.275 -0.1342 -0.9949 -0.9683
 3150SOL     OW21085   0.857   1.040   3.074 -0.5053 -0.5649 -0.4728
 3150SOL    HW121086   0.776   0.994   3.054 -0.8929  0.9225 -2.2757
 3150SOL    HW221087   0.911   1.029   2.996 -0.1903  1.4126 -0.5244
 3151SOL     OW21088   2.176   0.941   4.347 -0.2505 -0.0194 -0.1814
 3151SOL    HW121089   2.123   0.914   4.272  1.1207 -2.9231 -0.0836
 3151SOL    HW221090   2.253   0.983   4.309  0.0323 -0.3386  0.0496
 3152SOL     OW21091   3.200   1.201  17.490  0.1297  0.1267 -0.2241
 3152SOL    HW121092   3.113   1.169  17.513  0.8190  0.3245  2.6092
 3152SOL    HW221093   3.176   1.284  17.447  0.8171 -0.5127 -1.8327
 3153SOL     OW21094   1.913   1.903   5.821 -0.0982  0.0701  0.1963
 3153SOL    HW121095   1.935   1.940   5.735 -1.3431  1.5390  0.5006
 3153SOL    HW221096   2.001   1.876   5.848 -0.2669 -2.3754 -1.6719
 3154SOL     OW21097   2.872   2.588   7.831 -0.5346  0.5522 -0.0183
 3154SOL    HW121098   2.811   2.627   7.894  1.7930  1.4362  1.6900
 3154SOL    HW221099   2.812   2.534   7.779 -1.1811  0.7212  0.5614
 3155SOL     OW21100   1.762   3.104   7.953  0.0081 -0.5652 -0.9948
 3155SOL    HW121101   1.853   3.088   7.926 -0.1542 -0.6083 -1.5217
 3155SOL    HW221102   1.721   3.042   7.893 -5.3419 -0.0799  2.1793
 3156SOL     OW21103   2.059   1.069   8.235  0.4590 -0.3659 -0.7030
 3156SOL    HW121104   2.021   1.026   8.311 -1.6667 -0.6195 -1.8903
 3156SOL    HW221105   2.045   1.006   8.164 -0.8917 -0.9274  0.0660
 3157SOL     OW21106   1.538   4.456   1.687  0.1178 -0.2178 -1.0193
 3157SOL    HW121107   1.471   4.505   1.639 -0.7004  0.4233  0.7904
 3157SOL    HW221108   1.619   4.488   1.647  0.1971  0.9883  0.0939
 3158SOL     OW21109   1.669   0.085   6.464  0.4760 -0.6634 -0.3901
 3158SOL    HW121110   1.593   0.052   6.415 -0.9023  0.3938  1.0169
 3158SOL    HW221111   1.720   0.004   6.463  1.1989 -0.2076 -0.4561
 3159SOL     OW21112   1.987   4.690   5.401 -0.4677 -0.2915 -0.1258
 3159SOL    HW121113   1.975   0.010   5.478  1.9191  1.0446 -0.6974
 3159SOL    HW221114   2.042   0.006   5.342  2.7127 -0.8486  2.3867
 3160SOL     OW21115   1.628   0.692   0.091  0.4038  0.0221 -0.4378
 3160SOL    HW121116   1.703   0.744   0.062  1.0901 -1.9494 -2.1567
 3160SOL    HW221117   1.565   0.760   0.115  0.1498 -0.4400  0.2103
 3161SOL     OW21118   3.505   0.089   1.498  0.2009  0.4901 -0.6074
 3161SOL    HW121119   3.545   0.071   1.413 -0.1221  1.8956 -1.0555
 3161SOL    HW221120   3.562   0.154   1.539  1.2732 -0.4392 -0.6281
 3162SOL     OW21121   3.325   3.847  16.227  0.6446 -0.8911  0.5591
 3162SOL    HW121122   3.389   3.777  16.238  0.1556 -1.2900  0.8230
 3162SOL    HW221123   3.346   3.889  16.143  2.9377 -1.9303  0.6225
 3163SOL     OW21124   0.304   0.166   8.115 -0.0711  0.8691 -0.1338
 3163SOL    HW121125   0.321   0.073   8.105  0.0751  0.7530  1.1880
 3163SOL    HW221126   0.265   0.192   8.032 -0.4907 -0.4444 -0.3344
 3164SOL     OW21127   2.225   3.707  16.676 -0.5865  0.0146 -0.2046
 3164SOL    HW121128   2.288   3.711  16.605 -0.7840  0.7935 -0.3392
 3164SOL    HW221129   2.285   3.691  16.748  0.7643  0.5546 -1.2132
 3165SOL     OW21130   1.803   3.402   6.483  0.1503  0.3522  0.1206
 3165SOL    HW121131   1.888   3.374   6.449 -0.6674 -0.5719 -1.1522
 3165SOL    HW221132   1.748   3.332   6.448  1.8993 -1.0908  0.2488
 3166SOL     OW21133   3.671   2.006   2.507  0.7286 -0.0098  0.2103
 3166SOL    HW121134   3.624   2.000   2.590 -1.6228  1.9191 -0.9673
 3166SOL    HW221135   3.716   1.922   2.513  1.4484  0.4442  1.1784
 3167SOL     OW21136   3.247   2.969   7.237  0.0527  0.2272  0.1521
 3167SOL    HW121137   3.206   3.055   7.243 -0.0374  0.4071 -3.1992
 3167SOL    HW221138   3.304   2.977   7.161 -1.2834  0.7294 -0.8105
 3168SOL     OW21139   4.622   4.082   8.580  0.0953 -0.2665  0.2938
 3168SOL    HW121140   4.578   4.012   8.629  0.9679  0.1402  1.6600
 3168SOL    HW221141   4.577   4.157   8.619  1.6685 -0.3450  2.2357
 3169SOL     OW21142   0.003   0.609   2.156  0.6251  0.2547 -0.3084
 3169SOL    HW121143   4.657   0.658   2.171  0.6406  0.1838  0.0031
 3169SOL    HW221144   4.722   0.552   2.080 -0.2882  0.4359 -0.2470
 3170SOL     OW21145   2.393   4.356   8.372 -0.0240 -0.1295  0.0732
 3170SOL    HW121146   2.383   4.325   8.462  0.3525  1.1820  0.5623
 3170SOL    HW221147   2.391   4.451   8.383 -0.2525 -0.1434  0.1512
 3171SOL     OW21148   4.253   1.142   6.981 -0.3891  0.5690  0.3201
 3171SOL    HW121149   4.222   1.088   7.053  0.0857 -2.0414 -1.4153
 3171SOL    HW221150   4.343   1.166   6.998  0.1320  1.7831 -4.0431
 3172SOL     OW21151   1.123   1.724   6.141 -0.1243 -0.0579 -0.2584
 3172SOL    HW121152   1.147   1.632   6.136 -0.3880 -0.1930  0.8855
 3172SOL    HW221153   1.206   1.754   6.178 -0.1158 -0.7968  0.3315
 3173SOL     OW21154   2.557   3.862   7.533 -0.3099  0.3429  0.0318
 3173SOL    HW121155   2.516   3.844   7.448 -2.7468 -2.1325  1.7434
 3173SOL    HW221156   2.620   3.924   7.496 -0.9323 -0.8600 -3.1038
 3174SOL     OW21157   3.321   3.590   2.783  0.1242  0.1188 -0.5153
 3174SOL    HW121158   3.270   3.516   2.750 -0.2367 -1.2271  3.0005
 3174SOL    HW221159   3.310   3.565   2.875  1.0033  1.1712 -0.1249
 3175SOL     OW21160   3.382   3.845  10.950  0.4687  0.3345  0.2150
 3175SOL    HW121161   3.386   3.937  10.926  1.5318  1.3891  4.3962
 3175SOL    HW221162   3.426   3.841  11.035  0.1723  4.4991  0.5417
 3176SOL     OW21163   4.580   4.189   1.552 -0.4636 -0.0886 -0.5301
 3176SOL    HW121164   4.671   4.204   1.528 -0.5575  2.5033  0.6618
 3176SOL    HW221165   4.560   4.101   1.520 -1.9134  0.1373 -0.2540
 3177SOL     OW21166   0.576   3.349   1.248 -0.5393  0.8933 -0.1122
 3177SOL    HW121167   0.570   3.283   1.318  6.4526  1.6004  1.1260
 3177SOL    HW221168   0.483   3.365   1.233 -1.3749 -0.9518  2.9912
 3178SOL     OW21169   2.920   1.999   7.988 -0.0046 -0.5019 -0.0254
 3178SOL    HW121170   3.004   2.018   8.031  1.2989 -1.3927 -2.1494
 3178SOL    HW221171   2.872   2.081   7.981 -2.1739 -1.6824  1.1023
 3179SOL     OW21172   2.013   4.192   5.392  0.2354 -0.4017 -0.3464
 3179SOL    HW121173   2.026   4.116   5.449  0.4246  0.1767  0.3680
 3179SOL    HW221174   1.946   4.154   5.335 -0.1315  0.8392 -0.7262
 3180SOL     OW21175   2.694   1.167   1.075  0.1519 -0.1942 -0.1528
 3180SOL    HW121176   2.644   1.086   1.073  2.0564 -1.4242  1.7382
 3180SOL    HW221177   2.722   1.182   0.985  0.4370 -0.3904 -0.0955
 3181SOL     OW21178   1.357   4.399   2.190  0.7619 -0.6462  0.7591
 3181SOL    HW121179   1.381   4.455   2.116 -0.4848  1.1158  1.6869
 3181SOL    HW221180   1.408   4.453   2.251  1.2539  0.0678 -0.2757
 3182SOL     OW21181   2.782   2.840   2.591  0.7462  0.0622  0.7153
 3182SOL    HW121182   2.755   2.844   2.499  2.0054 -0.2437  0.3300
 3182SOL    HW221183   2.713   2.892   2.633  0.9363 -0.1583  1.2921
 3183SOL     OW21184   1.083   1.021   0.077  0.3280 -0.1315 -0.1610
 3183SOL    HW121185   1.147   0.949   0.079  0.8462  0.3122 -1.0559
 3183SOL    HW221186   1.049   1.009   0.165  3.8974  0.0038  1.2620
 3184SOL     OW21187   0.725   3.201   8.446 -0.3524  0.9578  0.4433
 3184SOL    HW121188   0.783   3.249   8.505 -0.0398 -0.4628  1.2772
 3184SOL    HW221189   0.792   3.166   8.386 -0.8819 -0.7969  0.8823
 3185SOL     OW21190   4.481   1.428   3.511 -0.2385 -0.4635  0.2090
 3185SOL    HW121191   4.421   1.483   3.561 -1.5158 -0.8869 -0.8561
 3185SOL    HW221192   4.422   1.358   3.482  0.4416 -0.9728  0.0585
 3186SOL     OW21193   1.676   2.336  13.576 -0.0469  0.4202 -0.1597
 3186SOL    HW121194   1.701   2.341  13.668 -1.0129 -1.4007  0.2139
 3186SOL    HW221195   1.753   2.377  13.537  0.7475 -0.2698  0.6900
 3187SOL     OW21196   3.700   1.075   7.824 -0.4374 -0.2445 -0.0201
 3187SOL    HW121197   3.633   1.139   7.800  1.9989  2.8803  1.3744
 3187SOL    HW221198   3.691   1.075   7.919  1.0820 -2.3017  0.1222
 3188SOL     OW21199   2.702   0.152   8.042  0.3542 -0.2161  0.1600
 3188SOL    HW121200   2.660   0.117   7.964  0.5718 -0.1831  0.0261
 3188SOL    HW221201   2.621   0.153   8.091  0.2806 -0.7328  0.0537
 3189SOL     OW21202   4.628   4.424   4.154 -0.4199 -0.8013 -0.3454
 3189SOL    HW121203   4.614   4.471   4.071 -1.1794 -0.1466  0.1520
 3189SOL    HW221204   4.562   4.472   4.204  1.7226  0.2028  1.4927
 3190SOL     OW21205   1.842   2.209   6.016 -0.0176  0.6445  0.3275
 3190SOL    HW121206   1.839   2.283   6.076 -2.0218  0.2785  0.6664
 3190SOL    HW221207   1.823   2.133   6.071  0.8133 -1.6293 -2.4826
 3191SOL     OW21208   0.047   4.607  10.990 -0.0097 -0.4399 -0.0324
 3191SOL    HW121209   0.110   4.675  10.966 -2.1897  0.9323 -1.8367
 3191SOL    HW221210   0.109   4.536  11.006  0.8844  0.3516  0.0629
 3192SOL     OW21211   2.309   2.943   2.367 -0.5332 -0.1596  0.4303
 3192SOL    HW121212   2.274   2.963   2.280 -1.0641  1.5125  1.0366
 3192SOL    HW221213   2.236   2.949   2.429 -0.7830  2.2252 -0.0885
 3193SOL     OW21214   0.122   2.388  14.468 -0.0436 -0.0832  0.0700
 3193SOL    HW121215   0.173   2.308  14.453 -1.3359 -0.9121  0.1561
 3193SOL    HW221216   0.139   2.409  14.560  2.8942  0.4221 -0.5737
 3194SOL     OW21217   2.221   1.586   6.219 -0.7473  0.0672 -0.3877
 3194SOL    HW121218   2.247   1.552   6.134 -0.4081 -2.1781  0.5951
 3194SOL    HW221219   2.212   1.503   6.268 -0.6838 -0.3692 -1.1154
 3195SOL     OW21220   0.308   2.206  14.394  0.4787 -0.0765  0.1632
 3195SOL    HW121221   0.313   2.111  14.402 -0.8485 -0.0578  1.2273
 3195SOL    HW221222   0.247   2.221  14.321 -1.5123  0.4700  1.9619
 3196SOL     OW21223   2.830   2.872   4.708 -0.1681  0.2236 -0.4753
 3196SOL    HW121224   2.782   2.955   4.714 -0.8180 -0.0640 -1.8573
 3196SOL    HW221225   2.891   2.888   4.636  1.0245  0.6542  0.6184
 3197SOL     OW21226   1.855   0.139   3.954  0.2902  0.1562 -0.2306
 3197SOL    HW121227   1.909   0.097   3.887  1.5577 -1.2576  1.7022
 3197SOL    HW221228   1.923   0.173   4.012  0.0301  0.8078 -0.3045
 3198SOL     OW21229   0.811   0.388  13.988  0.0105 -0.4188  0.0968
 3198SOL    HW121230   0.905   0.369  13.986  0.1578  0.0998  1.5565
 3198SOL    HW221231   0.811   0.467  14.043  2.3325  0.2466 -0.8469
 3199SOL     OW21232   4.146   0.114   7.700  0.0133  0.4245  0.5878
 3199SOL    HW121233   4.221   0.082   7.751 -0.5566 -1.9732 -0.1107
 3199SOL    HW221234   4.100   0.031   7.689 -0.9172  0.9401  0.5578
 3200SOL     OW21235   1.406   1.956   0.905  0.1997 -0.3564 -0.1218
 3200SOL    HW121236   1.487   1.998   0.934  0.2572 -0.6020  0.0775
 3200SOL    HW221237   1.386   1.999   0.822  0.5745  0.6357  0.3037
 3201SOL     OW21238   4.056   1.709   6.838 -0.1482  0.1950  0.1168
 3201SOL    HW121239   3.989   1.750   6.893 -0.2436  2.5380 -1.7240
 3201SOL    HW221240   4.040   1.615   6.847  2.9947 -0.5240 -1.9425
 3202SOL     OW21241   0.852   3.424   7.668 -0.5010  0.6305  0.0645
 3202SOL    HW121242   0.766   3.453   7.698 -1.0478 -0.1071 -0.8058
 3202SOL    HW221243   0.908   3.501   7.674  0.8721 -0.1163 -3.5235
 3203SOL     OW21244   3.400   3.395   5.191  0.7870  0.5359 -0.2264
 3203SOL    HW121245   3.316   3.365   5.227  0.0659 -0.1228 -2.4924
 3203SOL    HW221246   3.366   3.466   5.137 -1.5058 -0.9534 -0.7135
 3204SOL     OW21247   1.585   3.961   3.976  0.0846 -0.1195  0.7541
 3204SOL    HW121248   1.612   3.875   4.009 -3.6436 -0.7572  2.0452
 3204SOL    HW221249   1.616   3.955   3.886  0.0737  0.0572  0.7394
 3205SOL     OW21250   1.973   3.678  10.042 -0.2990 -0.1108  0.3553
 3205SOL    HW121251   1.929   3.616  10.100 -2.7536  0.3728 -0.9514
 3205SOL    HW221252   2.031   3.625   9.987 -0.1680  0.5070 -0.1094
 3206SOL     OW21253   3.614   2.875   1.497 -0.2153 -0.2882  0.3766
 3206SOL    HW121254   3.671   2.856   1.572  0.9726  0.3018 -0.3702
 3206SOL    HW221255   3.586   2.787   1.471  0.6754 -0.2655 -0.6328
 3207SOL     OW21256   0.203   4.187   1.713 -0.0217 -0.3734  0.3853
 3207SOL    HW121257   0.189   4.221   1.624 -0.3136  0.3419  0.7022
 3207SOL    HW221258   0.258   4.114   1.684 -0.4768 -1.1052  1.4053
 3208SOL     OW21259   1.652   4.538   3.740  0.0256  0.0567  0.2031
 3208SOL    HW121260   1.635   4.632   3.730 -3.4157 -0.6384 -0.6382
 3208SOL    HW221261   1.723   4.527   3.803  0.2995 -2.3584 -0.5405
 3209SOL     OW21262   0.553   1.765  12.152  0.9453  0.7778 -0.3569
 3209SOL    HW121263   0.505   1.834  12.107 -0.8708  0.3259  0.9039
 3209SOL    HW221264   0.482   1.705  12.173  2.8255 -1.4153 -0.2208
 3210SOL     OW21265   1.405   0.485  15.490  0.3896 -0.3651  0.2681
 3210SOL    HW121266   1.483   0.435  15.513  2.0752  2.1730  0.0704
 3210SOL    HW221267   1.364   0.434  15.421 -1.2707 -1.0466  1.7507
 3211SOL     OW21268   4.133   2.167   2.867  0.2250 -0.5258  0.5916
 3211SOL    HW121269   4.133   2.254   2.908  0.7924  0.5624 -1.7086
 3211SOL    HW221270   4.058   2.185   2.811 -2.1966 -1.2399  3.6213
 3212SOL     OW21271   4.308   0.943  17.731 -0.1882  0.1191 -0.4131
 3212SOL    HW121272   4.239   0.999  17.694  0.6111  0.2733 -1.6358
 3212SOL    HW221273   4.263   0.906   0.068  2.1554 -1.2696  0.2760
 3213SOL     OW21274   2.607   1.444   6.273 -0.1899 -0.3637  0.4905
 3213SOL    HW121275   2.626   1.400   6.190 -1.7034  0.0833 -0.0942
 3213SOL    HW221276   2.620   1.535   6.248 -0.6771 -0.4202  0.0417
 3214SOL     OW21277   0.420   2.253   4.781  0.1442  0.0702 -0.0588
 3214SOL    HW121278   0.456   2.330   4.824 -3.6784  0.9844  1.5309
 3214SOL    HW221279   0.392   2.299   4.702  0.6924 -0.9919 -0.8604
 3215SOL     OW21280   3.954   0.750  16.908  0.3743 -0.8521  0.6942
 3215SOL    HW121281   3.932   0.829  16.957  1.6260  0.1352 -0.3121
 3215SOL    HW221282   4.049   0.761  16.915  0.1206  0.1867  2.3961
 3216SOL     OW21283   1.132   4.429   0.097 -0.6840  0.3181 -0.4407
 3216SOL    HW121284   1.145   4.337   0.119 -0.3699  1.0995  2.6462
 3216SOL    HW221285   1.201   4.478   0.141 -1.0011 -1.9890  2.5700
 3217SOL     OW21286   0.920   0.220   4.651 -0.7828 -0.0414 -0.3657
 3217SOL    HW121287   0.927   0.126   4.664 -2.0272 -0.0727  0.0913
 3217SOL    HW221288   0.892   0.247   4.738 -1.1484 -1.3627 -0.0707
 3218SOL     OW21289   1.582   3.522  15.072  0.0996 -0.0170 -0.1155
 3218SOL    HW121290   1.567   3.596  15.014  0.7271  1.0958  1.1298
 3218SOL    HW221291   1.551   3.455  15.012 -1.8950 -1.2088  2.2682
 3219SOL     OW21292   2.628   1.068   3.398  0.3343 -0.2527  0.0211
 3219SOL    HW121293   2.676   1.147   3.420  0.9002 -0.7290  0.5074
 3219SOL    HW221294   2.661   1.037   3.314  0.1356  0.4675 -0.3181
 3220SOL     OW21295   3.209   0.188   1.243  0.0248  0.1526  0.1067
 3220SOL    HW121296   3.243   0.243   1.314  0.4220  0.3643 -0.2485
 3220SOL    HW221297   3.163   0.255   1.192 -0.2562  0.0887  0.2768
 3221SOL     OW21298   0.707   1.942   7.051  0.2328  0.5809 -0.1286
 3221SOL    HW121299   0.694   2.036   7.038  0.3004  0.4742 -0.9722
 3221SOL    HW221300   0.718   1.905   6.964  0.6545 -0.7619  0.4900
 3222SOL     OW21301   0.431   4.013  10.815  0.1118 -0.4095  0.2215
 3222SOL    HW121302   0.513   3.964  10.823 -0.0785 -0.6326  0.7885
 3222SOL    HW221303   0.456   4.091  10.766  0.6448 -0.7747 -0.0938
 3223SOL     OW21304   3.722   2.772   2.708  0.2536 -0.4380  0.7372
 3223SOL    HW121305   3.633   2.796   2.734 -0.0967 -0.3288 -0.5680
 3223SOL    HW221306   3.738   2.713   2.782  1.4690 -0.7703  0.2190
 3224SOL     OW21307   4.560   4.724  15.619  0.6326 -0.6379  0.3389
 3224SOL    HW121308   4.655   4.731  15.614  0.4323  1.8570 -0.3061
 3224SOL    HW221309   4.534   4.706  15.529  3.1792  0.4958 -0.6375
 3225SOL     OW21310   4.733   2.442   1.758  0.2558  0.3200  0.3213
 3225SOL    HW121311   0.026   2.352   1.742 -1.2534 -0.0964 -0.0119
 3225SOL    HW221312   4.672   2.443   1.832  2.8057 -0.3302  2.4198
 3226SOL     OW21313   3.598   0.281   8.685 -0.2780  0.1108 -0.0950
 3226SOL    HW121314   3.609   0.268   8.779 -1.9053 -2.2343 -0.2316
 3226SOL    HW221315   3.517   0.232   8.670  1.2372 -2.0297 -1.4375
 3227SOL     OW21316   1.157   2.138   8.164  0.1378 -0.3134  0.1988
 3227SOL    HW121317   1.077   2.183   8.137 -0.6133 -1.4788  0.5298
 3227SOL    HW221318   1.220   2.211   8.167 -0.9067  0.5441  1.2670
 3228SOL     OW21319   0.686   2.720   4.436  1.1265 -0.3871  0.5586
 3228SOL    HW121320   0.595   2.702   4.457  0.1590  1.9033 -1.7049
 3228SOL    HW221321   0.704   2.652   4.371  0.0096  1.3696 -1.5827
 3229SOL     OW21322   1.982   1.546   2.654  0.1323 -0.3507  0.2717
 3229SOL    HW121323   1.996   1.543   2.560  1.0127 -2.2697  0.4599
 3229SOL    HW221324   1.945   1.634   2.663 -1.7931 -1.4482  3.1888
 3230SOL     OW21325   4.496   3.600   4.521  0.1989  0.1453 -0.2354
 3230SOL    HW121326   4.528   3.531   4.463  0.9478  0.1175  0.2041
 3230SOL    HW221327   4.404   3.580   4.509  0.2408 -0.7606  0.9251
 3231SOL     OW21328   1.052   2.745   7.735 -0.5486  0.0536  0.5154
 3231SOL    HW121329   1.029   2.828   7.776 -0.8396  0.8761 -1.3053
 3231SOL    HW221330   1.087   2.785   7.655  1.1749 -1.9592  0.2547
 3232SOL     OW21331   0.383   3.391   0.957 -0.8662  0.0783 -0.2949
 3232SOL    HW121332   0.455   3.455   0.959  0.9512 -2.0571  3.2042
 3232SOL    HW221333   0.390   3.362   0.866 -0.6838  0.6246 -0.4548
 3233SOL     OW21334   2.514   1.508  15.588  0.6900  0.2523 -0.0076
 3233SOL    HW121335   2.552   1.479  15.671 -0.1362 -1.0048 -0.0789
 3233SOL    HW221336   2.424   1.485  15.612 -0.1431  2.1225 -1.3338
 3234SOL     OW21337   2.190   3.164  13.961  1.2619  1.0034  0.4355
 3234SOL    HW121338   2.251   3.173  14.034  0.0808  0.1760  1.5321
 3234SOL    HW221339   2.166   3.071  13.967  0.3835  1.2784  1.1488
 3235SOL     OW21340   0.432   2.930   0.552 -0.1338 -0.3112  0.8141
 3235SOL    HW121341   0.425   2.954   0.645  0.4940  1.3442  0.4439
 3235SOL    HW221342   0.344   2.897   0.536 -0.0787  0.2367 -0.6776
 3236SOL     OW21343   1.676   1.738  14.067 -0.2647  0.0520  0.1381
 3236SOL    HW121344   1.715   1.774  13.988 -0.8319  0.9306  0.2529
 3236SOL    HW221345   1.729   1.784  14.133  0.0729 -1.2496  0.7756
 3237SOL     OW21346   0.720   1.877   1.515 -0.1165  0.1999 -0.5516
 3237SOL    HW121347   0.765   1.794   1.497 -1.0488 -0.1256 -1.3775
 3237SOL    HW221348   0.746   1.893   1.606  0.9573 -0.0126 -0.8226
 3238SOL     OW21349   0.999   1.785   7.829  0.3938  0.2365  0.0696
 3238SOL    HW121350   1.043   1.870   7.833 -0.6059  0.7872 -0.5643
 3238SOL    HW221351   0.925   1.808   7.772 -1.0249 -2.0513  0.9601
 3239SOL     OW21352   4.492   4.711  15.877 -0.2636  0.4741  0.0278
 3239SOL    HW121353   4.518   4.708  15.785  0.8331 -0.8011  0.3828
 3239SOL    HW221354   4.401   4.683  15.885 -0.6938  1.8051 -0.0493
 3240SOL     OW21355   0.306   4.188   2.216 -0.4648 -0.3106  0.4483
 3240SOL    HW121356   0.395   4.197   2.182 -1.3830 -0.5290 -2.0417
 3240SOL    HW221357   0.264   4.170   2.132  3.7663 -1.1335 -1.4811
 3241SOL     OW21358   0.468   0.614   3.351  0.5831 -0.1660  0.3225
 3241SOL    HW121359   0.556   0.635   3.380  1.5672 -3.1446 -0.5096
 3241SOL    HW221360   0.479   0.537   3.295  1.2488 -1.2931  1.9968
 3242SOL     OW21361   1.539   4.228   2.728  0.2096  0.0148  0.0454
 3242SOL    HW121362   1.465   4.169   2.746 -0.0724  0.2307 -0.4048
 3242SOL    HW221363   1.576   4.250   2.814 -0.0778 -1.4424  0.5456
 3243SOL     OW21364   2.272   4.010  10.730  0.2466  0.5601 -0.6165
 3243SOL    HW121365   2.220   4.061  10.791  0.0230  1.6478 -1.7101
 3243SOL    HW221366   2.359   4.038  10.760  0.1361  0.8451 -0.5632
 3244SOL     OW21367   4.605   4.699   2.430  0.8852  0.1082  0.2865
 3244SOL    HW121368   4.647   4.614   2.443  0.3034  0.1582  2.4336
 3244SOL    HW221369   4.630   4.719   2.340 -0.6265 -1.7582 -0.5366
 3245SOL     OW21370   2.019   3.450   0.212 -0.4010  0.0634 -0.4087
 3245SOL    HW121371   2.015   3.370   0.264 -0.6024 -0.5988 -1.4553
 3245SOL    HW221372   2.114   3.453   0.200 -0.4769 -1.6100 -1.4801
 3246SOL     OW21373   0.694   1.252   6.345 -0.2643 -0.0622  0.2386
 3246SOL    HW121374   0.706   1.343   6.318 -0.3329  0.0087  0.4453
 3246SOL    HW221375   0.773   1.210   6.311  2.0026  1.9809  2.9768
 3247SOL     OW21376   2.141   1.653  10.029 -0.0401 -0.5827  1.1499
 3247SOL    HW121377   2.080   1.727  10.025  0.0285 -0.5661  0.3653
 3247SOL    HW221378   2.219   1.691  10.069 -0.4186 -0.4419  1.7469
 3248SOL     OW21379   2.063   3.862   3.311  0.7191  0.8755 -0.4988
 3248SOL    HW121380   2.129   3.823   3.253 -0.3859 -2.5073  0.5486
 3248SOL    HW221381   2.006   3.903   3.246 -0.3831 -0.4284 -0.3420
 3249SOL     OW21382   1.724   2.597   1.150 -0.3778  0.0749 -0.0094
 3249SOL    HW121383   1.817   2.582   1.168 -0.1862 -0.3151 -1.3265
 3249SOL    HW221384   1.702   2.642   1.231 -1.1491  1.8342 -1.1727
 3250SOL     OW21385   4.191   3.544   3.456 -0.6049  0.4058 -0.8240
 3250SOL    HW121386   4.115   3.595   3.481 -0.7326  0.1399 -0.6616
 3250SOL    HW221387   4.258   3.600   3.495  1.0231 -0.7287 -1.9942
 3251SOL     OW21388   3.788   1.701   0.737  0.2532 -0.3365 -0.0360
 3251SOL    HW121389   3.808   1.613   0.768  2.5003  0.0387 -0.3717
 3251SOL    HW221390   3.693   1.706   0.748  0.0823  0.6751 -2.1341
 3252SOL     OW21391   1.602   3.170   5.437 -0.3169  0.7143  0.2998
 3252SOL    HW121392   1.649   3.111   5.496 -1.7966 -0.7406  0.0416
 3252SOL    HW221393   1.516   3.138   5.466 -0.4060 -0.5890 -1.3929
 3253SOL     OW21394   1.240   2.234   2.126  0.4201  0.2870 -0.2700
 3253SOL    HW121395   1.182   2.307   2.106  0.8031  0.4853 -0.6642
 3253SOL    HW221396   1.223   2.210   2.217 -0.0896 -1.1507 -0.7483
 3254SOL     OW21397   3.508   2.546  14.865  0.0096  0.3496  0.3510
 3254SOL    HW121398   3.508   2.622  14.806 -2.9167 -0.8469 -1.2046
 3254SOL    HW221399   3.595   2.511  14.848  0.4615  0.8459  1.7296
 3255SOL     OW21400   3.173   3.264   8.653 -0.2160  0.7642 -0.4678
 3255SOL    HW121401   3.105   3.277   8.719 -0.3973 -0.8734 -0.3204
 3255SOL    HW221402   3.234   3.215   8.707 -0.9488 -0.6871 -0.9487
 3256SOL     OW21403   4.046   2.440   8.903  0.0429  0.4973 -0.0531
 3256SOL    HW121404   4.012   2.528   8.890  2.0748  1.0887 -1.3712
 3256SOL    HW221405   3.982   2.378   8.868  1.2782 -0.0429 -1.3649
 3257SOL     OW21406   2.827   3.582   3.075  0.4074  0.3945  0.2106
 3257SOL    HW121407   2.781   3.625   3.003  0.5296 -0.6458 -0.4938
 3257SOL    HW221408   2.753   3.544   3.123  1.9702 -1.8003  0.8646
 3258SOL     OW21409   3.358   1.898   8.949  0.0906 -0.0132  0.2010
 3258SOL    HW121410   3.347   1.819   9.001 -0.9165  0.4875  0.7562
 3258SOL    HW221411   3.415   1.881   8.874  1.0426  0.1244  0.8975
 3259SOL     OW21412   3.310   2.023   5.749 -0.5855  0.1455 -0.5052
 3259SOL    HW121413   3.318   2.106   5.796  2.8230  0.4396 -1.6148
 3259SOL    HW221414   3.350   2.048   5.666 -1.8599 -2.3150 -1.8682
 3260SOL     OW21415   0.905   1.672   3.050 -0.2275  0.3825 -0.4127
 3260SOL    HW121416   0.995   1.674   3.019  0.2508  3.9910  1.2226
 3260SOL    HW221417   0.886   1.579   3.041  0.8361  0.0895  0.4736
 3261SOL     OW21418   2.238   0.257   8.703  0.1993  0.3548 -0.0139
 3261SOL    HW121419   2.324   0.232   8.735 -0.0940  0.1466  0.6119
 3261SOL    HW221420   2.187   0.262   8.784  1.3302  1.8571  0.5920
 3262SOL     OW21421   0.575   0.048   7.877  0.5529  0.2110 -0.0538
 3262SOL    HW121422   0.502   4.734   7.838  0.6083  0.0077  0.0996
 3262SOL    HW221423   0.562   0.131   7.831 -0.4397  0.1746  0.1594
 3263SOL     OW21424   3.732   0.711   4.327  0.2216  0.4174  0.8562
 3263SOL    HW121425   3.758   0.801   4.345  0.6044  0.5249 -0.2051
 3263SOL    HW221426   3.668   0.694   4.396 -2.4539 -1.0995 -1.9923
 3264SOL     OW21427   1.201   3.755   7.551  0.3406 -0.0391  0.4255
 3264SOL    HW121428   1.293   3.751   7.579 -0.3352 -0.7941  2.4744
 3264SOL    HW221429   1.178   3.664   7.572  1.1492 -0.0745  1.1682
 3265SOL     OW21430   0.517   0.722  13.241  0.3481  0.5746 -0.3555
 3265SOL    HW121431   0.517   0.815  13.216  0.4980  1.1780  1.9328
 3265SOL    HW221432   0.589   0.732  13.303 -0.8958 -0.3319  1.2534
 3266SOL     OW21433   1.045   3.714  11.348 -0.2583  0.1975  0.0225
 3266SOL    HW121434   1.106   3.780  11.382  0.9429 -0.0309 -1.6453
 3266SOL    HW221435   1.019   3.766  11.272 -0.5026  1.2927  0.8531
 3267SOL     OW21436   1.684   4.388   7.999 -0.2053 -0.4160 -0.0139
 3267SOL    HW121437   1.729   4.448   8.059 -1.0889  2.6313 -2.4268
 3267SOL    HW221438   1.660   4.324   8.066 -0.4108  0.0708  0.3769
 3268SOL     OW21439   3.161   2.423   2.040 -0.2003  0.2177 -0.0341
 3268SOL    HW121440   3.197   2.348   1.992 -1.3037 -1.0806  1.1756
 3268SOL    HW221441   3.077   2.445   2.001 -0.8550  1.0354  1.8287
 3269SOL     OW21442   3.654   0.013   4.336 -0.4682 -0.4655  0.2146
 3269SOL    HW121443   3.676   0.095   4.292 -1.1483 -0.1281  0.5178
 3269SOL    HW221444   3.562   0.020   4.361  0.3072 -0.9261  3.1462
 3270SOL     OW21445   4.600   0.045  10.223 -0.0068 -0.3979 -0.2830
 3270SOL    HW121446   4.558   0.038  10.137 -0.6585 -0.0343  0.0061
 3270SOL    HW221447   4.642   4.694  10.225  0.1796 -0.3246 -1.0679
 3271SOL     OW21448   0.007   4.482   8.560  0.2140  0.4201  0.0940
 3271SOL    HW121449   4.674   4.540   8.526 -1.1747 -0.9238  0.5159
 3271SOL    HW221450   4.708   4.393   8.544  1.2789 -0.1779  1.1596
 3272SOL     OW21451   0.985   3.310  16.015  0.3795 -0.4482 -0.4459
 3272SOL    HW121452   0.947   3.267  16.092  1.1850  1.7965  1.2127
 3272SOL    HW221453   1.070   3.333  16.052  0.2611 -0.3931 -0.2072
 3273SOL     OW21454   3.281   3.914   6.850  0.4006  0.2440  0.0106
 3273SOL    HW121455   3.375   3.919   6.834  0.3444  0.3740 -0.2751
 3273SOL    HW221456   3.276   3.921   6.946 -1.9984  1.4716 -0.2039
 3274SOL     OW21457   2.046   2.011   7.902  0.1386 -0.0477 -0.0844
 3274SOL    HW121458   1.951   2.021   7.901  0.3025  1.6217  3.9001
 3274SOL    HW221459   2.065   2.068   7.827 -0.3086 -1.0413 -0.9519
 3275SOL     OW21460   1.166   4.632   3.780  0.6371 -0.0710 -0.1948
 3275SOL    HW121461   1.150   4.678   3.697 -3.0395  0.7544  0.9655
 3275SOL    HW221462   1.204   4.551   3.746  0.2393 -0.6209  0.6741
 3276SOL     OW21463   4.498   0.661  15.780  0.4203 -0.5617 -0.0368
 3276SOL    HW121464   4.571   0.707  15.739 -0.8863  1.3377 -0.2162
 3276SOL    HW221465   4.494   0.678  15.874 -0.7305  1.4293 -0.4424
 3277SOL     OW21466   4.004   4.630  10.517  0.8405  0.4234 -0.0943
 3277SOL    HW121467   3.929   4.585  10.557  0.1053  1.1986 -0.5963
 3277SOL    HW221468   4.069   4.576  10.561  0.9039 -2.1077 -3.2658
 3278SOL     OW21469   3.913   1.676   1.588  0.0937  0.3364  0.2735
 3278SOL    HW121470   3.858   1.611   1.543  1.3322  0.3647 -1.2899
 3278SOL    HW221471   3.850   1.744   1.611 -1.2221 -0.0465 -2.2139
 3279SOL     OW21472   1.966   2.477   6.807  0.4829  0.3837  0.3637
 3279SOL    HW121473   2.025   2.488   6.732 -1.2079  0.5582 -0.9394
 3279SOL    HW221474   1.946   2.383   6.804 -0.4080  0.5412  1.4527
 3280SOL     OW21475   0.085   3.218  13.884  0.1592  0.2071  0.0816
 3280SOL    HW121476   0.164   3.167  13.903 -1.7743 -2.6086  0.6921
 3280SOL    HW221477   0.111   3.301  13.923 -1.9278  0.9227 -0.0520
 3281SOL     OW21478   3.874   2.732   8.046  0.3149  0.2955  0.1132
 3281SOL    HW121479   3.943   2.675   8.080 -0.3413 -1.3687 -1.3228
 3281SOL    HW221480   3.882   2.803   8.110 -0.9344  0.7934 -0.2866
 3282SOL     OW21481   2.496   3.141   1.894 -0.0331  0.3299  0.6648
 3282SOL    HW121482   2.501   3.168   1.985  3.4897  0.4596  0.4274
 3282SOL    HW221483   2.430   3.196   1.852  1.3013  1.1360 -0.4186
 3283SOL     OW21484   2.923   2.092  15.643  0.0280  0.6529 -0.1566
 3283SOL    HW121485   2.912   2.019  15.705 -1.2600  1.6644  0.8114
 3283SOL    HW221486   3.017   2.095  15.629  0.2898 -0.5980  1.2424
 3284SOL     OW21487   4.405   0.419  12.359 -0.2262 -0.2448  0.2323
 3284SOL    HW121488   4.468   0.486  12.332  0.7026 -0.5588  1.5845
 3284SOL    HW221489   4.378   0.454  12.444 -2.7584  0.0028 -0.6799
 3285SOL     OW21490   1.664   1.134   6.137  0.3596 -0.0493 -0.3298
 3285SOL    HW121491   1.589   1.120   6.079  0.5003 -0.3124 -0.4489
 3285SOL    HW221492   1.707   1.209   6.096  1.8939 -2.1398 -2.5886
 3286SOL     OW21493   1.173   0.176   5.564 -0.0705 -0.3317 -0.1485
 3286SOL    HW121494   1.198   0.126   5.642 -1.1003 -0.3200  0.2016
 3286SOL    HW221495   1.079   0.155   5.559 -0.3821  0.8462  0.7153
 3287SOL     OW21496   3.454   0.271   4.436  0.1658  0.0005 -0.0164
 3287SOL    HW121497   3.438   0.366   4.439  0.3571  0.0729 -1.0666
 3287SOL    HW221498   3.453   0.245   4.528 -0.6587  0.5467  0.1404
 3288SOL     OW21499   2.416   3.142  15.782  0.0979 -0.0956  0.2656
 3288SOL    HW121500   2.328   3.143  15.819  0.8887  0.1908  2.1630
 3288SOL    HW221501   2.448   3.052  15.786  2.1488  0.5343 -2.3808
 3289SOL     OW21502   1.044   0.601   7.670 -0.7709 -0.0429  0.0033
 3289SOL    HW121503   1.065   0.523   7.619  0.2732  0.7161 -0.7178
 3289SOL    HW221504   0.964   0.568   7.711 -0.4499  0.0402  0.6946
 3290SOL     OW21505   3.253   1.218  12.751  0.6264 -0.1195 -0.0447
 3290SOL    HW121506   3.159   1.237  12.751  0.7733  0.6287 -0.0349
 3290SOL    HW221507   3.267   1.222  12.656 -0.4846  0.5981 -0.1706
 3291SOL     OW21508   4.553   3.721   2.577 -0.0336  1.1534  0.1336
 3291SOL    HW121509   4.634   3.747   2.533  0.5060 -0.0649  0.3984
 3291SOL    HW221510   4.568   3.773   2.656  0.3526 -0.2719  1.0181
 3292SOL     OW21511   4.066   3.235   6.632 -0.4581 -0.4129 -0.3573
 3292SOL    HW121512   4.098   3.326   6.637 -0.2688 -0.5300  0.4977
 3292SOL    HW221513   4.143   3.185   6.657  0.8065  0.9236 -1.5448
 3293SOL     OW21514   1.207   2.077   4.571 -0.1947  0.3794  0.0628
 3293SOL    HW121515   1.162   2.158   4.596 -1.5533  0.1437 -1.6383
 3293SOL    HW221516   1.135   2.014   4.562 -1.8798  2.2351  0.4331
 3294SOL     OW21517   1.243   0.167   0.794  0.1607 -0.6684  0.3089
 3294SOL    HW121518   1.172   0.221   0.830 -0.8706 -1.6248 -0.2701
 3294SOL    HW221519   1.195   0.111   0.732  1.1293  0.6644 -1.6520
 3295SOL     OW21520   2.779   3.400  15.133  0.4513 -0.4225 -0.5210
 3295SOL    HW121521   2.870   3.415  15.156 -0.3721  3.1315  0.4425
 3295SOL    HW221522   2.742   3.388  15.221 -0.0224 -1.0832 -0.8101
 3296SOL     OW21523   0.274   2.417   5.396  0.3337  0.6645  0.0238
 3296SOL    HW121524   0.358   2.375   5.376 -0.0549 -0.0267 -0.1434
 3296SOL    HW221525   0.287   2.511   5.390 -0.5255  0.7830  0.0337
 3297SOL     OW21526   3.849   1.824   5.473 -0.0090 -0.3286 -0.3563
 3297SOL    HW121527   3.881   1.913   5.458  2.6359 -0.5726  3.8311
 3297SOL    HW221528   3.934   1.780   5.487  0.2183  0.7449  1.5895
 3298SOL     OW21529   2.443   3.495   7.944 -0.0541 -0.3702  0.3554
 3298SOL    HW121530   2.441   3.521   8.036  4.2568  0.0429  0.3380
 3298SOL    HW221531   2.433   3.576   7.893  0.9386 -1.8685 -2.2378
 3299SOL     OW21532   2.680   1.049   4.182 -0.0479  0.0606  0.0524
 3299SOL    HW121533   2.631   0.975   4.146 -1.0089  1.0681 -0.7079
 3299SOL    HW221534   2.668   1.047   4.277 -3.2369  0.2666 -0.3413
 3300SOL     OW21535   0.274   3.573   5.542  0.0843 -0.0302  0.6955
 3300SOL    HW121536   0.211   3.545   5.608  1.6903 -2.3737  1.2348
 3300SOL    HW221537   0.327   3.631   5.597  0.7704 -0.9111  0.9521
 3301SOL     OW21538   0.175   3.653  15.138  0.1867 -0.0910 -0.1640
 3301SOL    HW121539   0.123   3.627  15.215  2.7603  1.7284  2.2125
 3301SOL    HW221540   0.168   3.749  15.142 -0.6444 -0.1638  0.1163
 3302SOL     OW21541   4.382   3.669   8.553 -0.7026  0.6961 -0.4139
 3302SOL    HW121542   4.470   3.632   8.565 -1.3447 -0.4463  0.7712
 3302SOL    HW221543   4.336   3.586   8.543 -1.0483  1.0673 -1.9394
 3303SOL     OW21544   1.124   4.000   6.283  0.0813 -0.5140 -0.4218
 3303SOL    HW121545   1.056   4.007   6.216  0.3760  2.7175 -0.3729
 3303SOL    HW221546   1.189   3.942   6.242  2.7876  1.6763  0.7640
 3304SOL     OW21547   1.592   2.437   3.163  0.0239 -0.1975  0.2062
 3304SOL    HW121548   1.554   2.352   3.186 -0.9550  0.4752  1.0702
 3304SOL    HW221549   1.581   2.486   3.245  4.1079  0.0332  0.6079
 3305SOL     OW21550   3.386   2.649  12.773 -0.6671  0.6328 -0.9702
 3305SOL    HW121551   3.301   2.623  12.808  0.7051 -0.8802  1.2492
 3305SOL    HW221552   3.359   2.651  12.681  0.1350 -2.7719 -1.2747
 3306SOL     OW21553   1.098   0.127   3.010 -0.3042  0.4829 -0.2773
 3306SOL    HW121554   1.019   0.152   2.962 -0.6114  1.5800  0.7964
 3306SOL    HW221555   1.125   0.050   2.960 -1.3772 -1.7060  2.4703
 3307SOL     OW21556   0.934   0.897   4.070  0.1736 -0.2691 -0.2483
 3307SOL    HW121557   1.012   0.931   4.114 -0.1113 -1.2457  1.0310
 3307SOL    HW221558   0.877   0.952   4.124 -0.9104 -1.4524 -0.1834
 3308SOL     OW21559   1.160   3.763  10.111 -0.3574 -0.4189 -0.3925
 3308SOL    HW121560   1.229   3.698  10.119  0.9707  0.8238 -1.7860
 3308SOL    HW221561   1.208   3.846  10.115 -0.8119 -0.1986  0.5536
 3309SOL     OW21562   0.659   1.446   7.692  0.0201  0.1669 -0.0806
 3309SOL    HW121563   0.736   1.478   7.646  2.4536  0.5538  4.3149
 3309SOL    HW221564   0.584   1.455   7.633  0.5316  2.3833 -0.3944
 3310SOL     OW21565   2.808   2.890  11.185  0.1758 -0.5407  0.4147
 3310SOL    HW121566   2.797   2.811  11.238  1.0610  0.0774  1.5202
 3310SOL    HW221567   2.734   2.943  11.214  2.8847  2.7612  1.2979
 3311SOL     OW21568   3.934   1.233  17.295  0.0329 -0.1821  0.1363
 3311SOL    HW121569   3.920   1.138  17.295 -1.4500  0.0444 -1.5689
 3311SOL    HW221570   4.029   1.241  17.310 -0.0246  1.4229 -0.4037
 3312SOL     OW21571   1.205   3.831   5.205  0.2734 -0.0591  0.0949
 3312SOL    HW121572   1.112   3.840   5.188  0.6129  0.9626 -1.1964
 3312SOL    HW221573   1.235   3.871   5.123 -0.3533  0.6223  0.2011
 3313SOL     OW21574   4.494   3.193   2.510  0.8190  0.1906 -0.4714
 3313SOL    HW121575   4.467   3.279   2.480 -2.3488 -0.3250  0.8623
 3313SOL    HW221576   4.499   3.137   2.432  2.4012  1.2624 -1.1246
 3314SOL     OW21577   2.729   3.705  16.284 -0.2978 -0.4447 -0.5119
 3314SOL    HW121578   2.740   3.765  16.358  1.3915 -1.4002  0.0186
 3314SOL    HW221579   2.678   3.757  16.222 -1.7456  1.5873  2.3769
 3315SOL     OW21580   4.436   1.816  12.493 -0.3492  0.4091 -0.4210
 3315SOL    HW121581   4.516   1.865  12.475  0.3283 -0.9494 -1.0511
 3315SOL    HW221582   4.402   1.802  12.405 -0.9056 -0.5972 -0.0391
 3316SOL     OW21583   3.708   3.156   1.871  0.2162 -0.9142 -0.3734
 3316SOL    HW121584   3.658   3.095   1.816  0.0960 -0.9987 -0.1698
 3316SOL    HW221585   3.713   3.107   1.953  2.2850  0.2518  0.1731
 3317SOL     OW21586   3.672   0.707   1.272 -0.0348 -0.7772  0.2148
 3317SOL    HW121587   3.735   0.647   1.310  0.9864  0.0553 -0.1621
 3317SOL    HW221588   3.609   0.656   1.220  0.7342 -0.1191 -1.3563
 3318SOL     OW21589   2.552   1.767   9.457  0.4131 -0.4602 -0.1358
 3318SOL    HW121590   2.583   1.783   9.368  0.8859  0.5364  0.2090
 3318SOL    HW221591   2.493   1.695   9.435 -1.3066  0.3084  1.9879
 3319SOL     OW21592   3.635   0.683  11.213  0.3659 -0.3087  0.0941
 3319SOL    HW121593   3.643   0.724  11.127  1.9873  0.2537  0.5059
 3319SOL    HW221594   3.717   0.715  11.250 -0.1077 -0.1790  1.0395
 3320SOL     OW21595   2.283   1.259  10.351  0.6022  0.2570  0.1165
 3320SOL    HW121596   2.273   1.176  10.306  0.8654  0.3259 -0.0712
 3320SOL    HW221597   2.379   1.253  10.353  0.6935  1.7032 -0.0116
 3321SOL     OW21598   1.158   4.000  11.713 -0.1194  0.3667  0.5216
 3321SOL    HW121599   1.080   3.955  11.746 -1.9870  2.5744 -0.8953
 3321SOL    HW221600   1.177   4.067  11.778 -0.6455  1.5680 -0.5793
 3322SOL     OW21601   3.015   2.144   3.535 -0.5798  0.3067 -0.3267
 3322SOL    HW121602   2.953   2.169   3.604  1.0923  0.3614  1.1319
 3322SOL    HW221603   2.978   2.070   3.487  2.5395 -1.8503  0.6655
 3323SOL     OW21604   2.558   0.881  10.406 -0.2877 -0.2479  0.2810
 3323SOL    HW121605   2.600   0.837  10.332 -1.7688 -0.0234 -0.7022
 3323SOL    HW221606   2.636   0.916  10.448  0.1871 -2.1171  0.9469
 3324SOL     OW21607   2.223   2.941   1.205  0.3008 -0.3858  0.6659
 3324SOL    HW121608   2.274   2.922   1.284 -0.3813 -1.3854  0.8664
 3324SOL    HW221609   2.268   3.013   1.161  1.9656 -3.1400 -2.1586
 3325SOL     OW21610   1.525   2.626   0.298  0.0407 -0.0374  0.2259
 3325SOL    HW121611   1.511   2.551   0.240  0.2918 -0.5742  0.8489
 3325SOL    HW221612   1.565   2.583   0.374  2.3739  0.8888 -0.4609
 3326SOL     OW21613   2.605   0.134  13.800  0.1073 -0.2752 -0.3554
 3326SOL    HW121614   2.677   0.143  13.862  0.2565 -0.2948 -0.5240
 3326SOL    HW221615   2.651   0.111  13.719 -1.7751 -1.0177 -1.2153
 3327SOL     OW21616   2.029   4.347  10.528 -0.6792  0.1459 -0.0284
 3327SOL    HW121617   2.088   4.406  10.576 -1.1729 -0.0327  0.7986
 3327SOL    HW221618   2.075   4.334  10.446 -2.4768 -1.5993 -0.7483
 3328SOL     OW21619   0.244   1.083  16.444 -0.0617  0.2033  0.1400
 3328SOL    HW121620   0.251   1.135  16.524 -0.2735  2.0193 -1.0296
 3328SOL    HW221621   0.324   1.110  16.400 -0.2975 -0.2858 -0.5922
 3329SOL     OW21622   1.797   2.647  12.845 -0.3622  0.0470  0.3757
 3329SOL    HW121623   1.801   2.620  12.937 -1.1760 -0.7089  0.1908
 3329SOL    HW221624   1.705   2.631  12.825 -0.1385  0.8946 -1.2857
 3330SOL     OW21625   3.629   3.195  17.263  0.1157 -0.1438 -0.4495
 3330SOL    HW121626   3.645   3.101  17.253 -0.1542 -0.5290  2.8346
 3330SOL    HW221627   3.590   3.191  17.350 -1.0523 -0.2460 -0.9779
 3331SOL     OW21628   0.283   0.041  14.861 -0.2650 -1.0073  0.2899
 3331SOL    HW121629   0.319   4.690  14.839 -0.9291 -1.2124  0.0230
 3331SOL    HW221630   0.193   0.023  14.833 -0.6492  1.1337  0.1471
 3332SOL     OW21631   4.240   2.745   7.181 -0.1786 -0.7542 -0.2314
 3332SOL    HW121632   4.189   2.824   7.201  0.3801 -0.1181 -1.2680
 3332SOL    HW221633   4.275   2.732   7.269  2.6766 -0.4657 -1.3077
 3333SOL     OW21634   2.148   2.826   2.922  0.2356 -0.1825 -0.5366
 3333SOL    HW121635   2.071   2.775   2.897  0.4288 -0.4967 -0.4907
 3333SOL    HW221636   2.201   2.762   2.970 -0.4249 -0.7145 -0.5119
 3334SOL     OW21637   0.050   4.653   3.840 -0.7958 -0.7069 -0.2338
 3334SOL    HW121638   0.104   4.575   3.828 -0.2936 -0.4042  0.0449
 3334SOL    HW221639   4.718   4.625   3.901  0.3928 -0.0466  1.3799
 3335SOL     OW21640   0.276   1.892   9.522  0.5846  0.3545  0.4551
 3335SOL    HW121641   0.254   1.833   9.595 -1.8443  1.2340  0.4355
 3335SOL    HW221642   0.201   1.865   9.470  1.7306 -1.9372 -0.0103
 3336SOL     OW21643   1.271   4.643   8.502  0.1101 -1.0267  0.3826
 3336SOL    HW121644   1.236   4.632   8.414  0.9356 -1.1730  0.0691
 3336SOL    HW221645   1.308   4.557   8.522 -0.4500 -1.7015 -1.5566
 3337SOL     OW21646   0.779   0.303   3.792 -0.4404  0.1441 -0.0409
 3337SOL    HW121647   0.870   0.272   3.789 -0.5760 -0.3593  1.1144
 3337SOL    HW221648   0.731   0.233   3.748 -2.3103  1.7321 -0.4752
 3338SOL     OW21649   2.196   0.100  11.591  0.0113 -0.0618  0.0338
 3338SOL    HW121650   2.220   0.012  11.563  0.4531  0.4363 -1.1549
 3338SOL    HW221651   2.267   0.153  11.556 -0.1119  1.2529  1.7456
 3339SOL     OW21652   4.629   4.129   3.828 -0.0939  0.1452 -0.1408
 3339SOL    HW121653   4.656   4.039   3.845 -1.2653 -0.2182 -0.1782
 3339SOL    HW221654   4.613   4.154   3.919  2.1948  0.4005  0.1947
 3340SOL     OW21655   2.119   0.335  14.639  0.4031  0.0713  0.0886
 3340SOL    HW121656   2.140   0.343  14.732  1.5943 -0.6294 -0.1191
 3340SOL    HW221657   2.038   0.384  14.648  1.5917  1.9149  0.6894
 3341SOL     OW21658   2.856   3.050   5.702 -0.0811 -0.1167  0.1457
 3341SOL    HW121659   2.839   3.053   5.796  0.2903 -0.2309  0.2189
 3341SOL    HW221660   2.842   3.144   5.687 -0.9511 -0.3576 -0.5483
 3342SOL     OW21661   2.693   0.355   2.981 -0.3937  0.4469 -0.6851
 3342SOL    HW121662   2.677   0.443   3.015  2.4662  0.5907  0.2440
 3342SOL    HW221663   2.621   0.347   2.918 -1.2997 -0.0040  0.4112
 3343SOL     OW21664   0.975   1.879   6.560 -0.1081  0.0234  0.1528
 3343SOL    HW121665   1.003   1.961   6.519  0.0745 -0.1725 -0.1160
 3343SOL    HW221666   0.882   1.894   6.577 -0.1682  0.5613 -0.6111
 3344SOL     OW21667   0.009   0.817  17.632 -0.0793  0.7092 -0.0965
 3344SOL    HW121668   4.665   0.788  17.587 -0.7318  0.8880  0.9369
 3344SOL    HW221669   0.032   0.901  17.591  1.0189  0.6848  0.4759
 3345SOL     OW21670   0.876   1.514   7.564  0.0084  0.3997  0.1167
 3345SOL    HW121671   0.928   1.542   7.489  0.0784 -1.3066 -0.4705
 3345SOL    HW221672   0.941   1.498   7.633  0.4587  2.9365  0.2924
 3346SOL     OW21673   2.449   0.890  12.341  0.7165  0.2430  0.1093
 3346SOL    HW121674   2.369   0.873  12.390  1.8852 -0.9692  1.6156
 3346SOL    HW221675   2.503   0.817  12.372  1.0392 -0.1466 -1.3895
 3347SOL     OW21676   1.145   1.935   1.541  0.1285  0.6942 -0.3086
 3347SOL    HW121677   1.225   1.980   1.514 -0.2732  2.0451  0.7327
 3347SOL    HW221678   1.173   1.877   1.612 -0.2640  0.5331 -0.2882
 3348SOL     OW21679   3.773   4.229   4.068 -0.0538 -0.6708  0.2394
 3348SOL    HW121680   3.706   4.162   4.082  0.3867 -0.2194  4.4511
 3348SOL    HW221681   3.731   4.296   4.123  0.9345  0.6621 -0.6352
 3349SOL     OW21682   0.004   0.750   0.394  0.0950  0.3765 -0.0272
 3349SOL    HW121683   0.087   0.798   0.393 -0.1683  0.7841 -2.1002
 3349SOL    HW221684   4.702   0.775   0.309  1.7359  2.9119 -0.0125
 3350SOL     OW21685   3.911   4.013   9.690  0.8466 -0.5167  0.0188
 3350SOL    HW121686   3.830   4.005   9.639 -0.5726  1.3863  1.9594
 3350SOL    HW221687   3.893   3.965   9.770 -1.2620 -3.7869 -2.4038
 3351SOL     OW21688   1.611   1.022   1.943  0.2527  0.3794  0.2590
 3351SOL    HW121689   1.617   0.997   2.035 -1.0875  3.8874  1.3398
 3351SOL    HW221690   1.591   0.936   1.905  3.5316 -0.5474  0.6918
 3352SOL     OW21691   3.535   0.759   8.406  0.5437  0.6976 -0.1296
 3352SOL    HW121692   3.440   0.761   8.422  0.9048 -1.5554  2.2990
 3352SOL    HW221693   3.546   0.676   8.453 -1.9248  0.1043 -0.5483
 3353SOL     OW21694   0.763   1.620   6.687 -0.1905 -0.0721 -0.3702
 3353SOL    HW121695   0.704   1.585   6.620 -0.5071 -0.0875 -0.0811
 3353SOL    HW221696   0.788   1.700   6.642 -1.1482 -0.5308 -1.7341
 3354SOL     OW21697   3.897   0.785   7.258 -0.3796  0.5316 -0.2280
 3354SOL    HW121698   3.844   0.812   7.333  0.6027  0.6835  0.3959
 3354SOL    HW221699   3.861   0.846   7.193 -1.2637  0.5145  0.2378
 3355SOL     OW21700   2.007   0.381   3.122  0.3564 -0.1496 -0.1795
 3355SOL    HW121701   2.036   0.464   3.159 -0.0277  0.0157 -0.2504
 3355SOL    HW221702   2.022   0.327   3.200  0.5779 -1.1628 -0.9241
 3356SOL     OW21703   0.418   0.969  17.136  0.4238 -0.2421 -0.6261
 3356SOL    HW121704   0.368   0.958  17.055 -0.0416 -0.7061 -0.2757
 3356SOL    HW221705   0.356   0.949  17.206 -0.0771  0.0475 -0.9812
 3357SOL     OW21706   2.067   4.414   2.822  0.2298  0.3500 -0.0469
 3357SOL    HW121707   2.029   4.489   2.776  2.9318 -0.4467 -3.5862
 3357SOL    HW221708   2.011   4.347   2.783 -0.3755  1.3611 -0.9382
 3358SOL     OW21709   0.227   1.277   4.295  0.5069  0.2544  0.0294
 3358SOL    HW121710   0.173   1.286   4.373 -0.4701  0.3254 -0.6601
 3358SOL    HW221711   0.167   1.314   4.230 -0.8943  0.5520  1.5000
 3359SOL     OW21712   2.749   1.681   9.914 -0.1423 -0.5054  0.3979
 3359SOL    HW121713   2.756   1.734   9.993 -1.4305 -0.0038  0.1612
 3359SOL    HW221714   2.669   1.632   9.935  1.0860 -2.1209  1.4013
 3360SOL     OW21715   2.879   1.175  14.018  0.6310  0.0479 -0.3552
 3360SOL    HW121716   2.857   1.264  13.989  0.2791  0.7410  1.9999
 3360SOL    HW221717   2.957   1.156  13.967 -0.1167  2.0667 -2.2345
 3361SOL     OW21718   0.663   0.195   3.180  0.2409  0.1702  0.3215
 3361SOL    HW121719   0.675   0.103   3.204  0.6944 -0.7148 -3.2883
 3361SOL    HW221720   0.629   0.195   3.091  1.1119  1.2505 -0.0076
 3362SOL     OW21721   1.241   0.532   6.171  0.2962 -0.4483 -0.3451
 3362SOL    HW121722   1.211   0.622   6.185  0.9253 -0.2705 -0.1040
 3362SOL    HW221723   1.331   0.541   6.204  0.2750  1.3564 -0.7444
 3363SOL     OW21724   0.091   1.246  13.211  0.1442 -0.3404  0.3099
 3363SOL    HW121725   0.010   1.255  13.161 -0.3650 -2.8230  0.6991
 3363SOL    HW221726   0.104   1.340  13.227  2.0199 -0.5295 -0.1177
 3364SOL     OW21727   4.572   0.192   6.050  0.4436  0.0776  0.2729
 3364SOL    HW121728   4.544   0.167   6.138 -0.7103  0.5319  0.0288
 3364SOL    HW221729   4.524   0.128   5.999  0.1709  0.0481  0.5675
 3365SOL     OW21730   2.471   2.307  15.127  0.0400 -0.8870  0.1491
 3365SOL    HW121731   2.439   2.221  15.099  1.8547 -1.6457  0.3894
 3365SOL    HW221732   2.471   2.369  15.054 -2.9741 -2.6840 -1.3705
 3366SOL     OW21733   1.135   4.654   6.968 -0.0198  0.6264 -0.2264
 3366SOL    HW121734   1.122   4.598   6.891  0.5420  1.2206 -0.7511
 3366SOL    HW221735   1.151   0.004   6.927 -0.1234  1.0822  0.6712
 3367SOL     OW21736   1.794   3.281   2.501 -0.4274 -0.3182  0.2067
 3367SOL    HW121737   1.846   3.228   2.440 -1.0268 -3.3864  2.3794
 3367SOL    HW221738   1.861   3.348   2.515 -0.6791  0.2073 -1.1104
 3368SOL     OW21739   1.726   3.474  16.406 -0.3555  0.3189 -0.1153
 3368SOL    HW121740   1.678   3.418  16.345 -0.7563 -1.6480  2.0028
 3368SOL    HW221741   1.774   3.524  16.340 -0.2267  1.5506  0.9197
 3369SOL     OW21742   1.031   3.903   4.165 -0.6387  0.1927 -0.4272
 3369SOL    HW121743   0.954   3.889   4.111 -1.5457  2.0451  0.3916
 3369SOL    HW221744   1.097   3.957   4.122 -0.7361 -0.6957 -1.6737
 3370SOL     OW21745   0.114   0.632  15.784 -0.1538 -0.6253 -0.3394
 3370SOL    HW121746   0.084   0.672  15.703  0.6812 -3.3864 -2.0085
 3370SOL    HW221747   0.036   0.607  15.833  0.0157  0.5391  0.5272
 3371SOL     OW21748   0.307   2.408   4.485  0.3991  0.0441 -0.4268
 3371SOL    HW121749   0.237   2.452   4.438 -0.2253 -0.7985 -0.2916
 3371SOL    HW221750   0.266   2.336   4.534  2.5661  1.2081  3.0976
 3372SOL     OW21751   2.852   4.634  12.432  0.1408  0.0344  1.0878
 3372SOL    HW121752   2.885   4.556  12.476  2.1455  0.5723  0.5175
 3372SOL    HW221753   2.765   4.607  12.402 -0.4316  2.7595  0.2822
 3373SOL     OW21754   1.801   2.278   2.051 -0.5749 -0.1456 -0.0854
 3373SOL    HW121755   1.794   2.369   2.081 -1.2308 -0.4648  0.7226
 3373SOL    HW221756   1.709   2.252   2.056 -1.0260  1.2441 -1.1432
 3374SOL     OW21757   3.458   0.001   7.859  0.2957  0.3495  0.0638
 3374SOL    HW121758   3.465   0.018   7.953  3.3126  1.4537 -0.3519
 3374SOL    HW221759   3.420   0.085   7.831  0.4114  0.2196 -0.4818
 3375SOL     OW21760   2.226   4.113   2.162 -0.6540  0.1134  0.1486
 3375SOL    HW121761   2.210   4.176   2.091  0.3122  0.4683  0.2474
 3375SOL    HW221762   2.259   4.171   2.231  0.5132 -2.2286  1.5285
 3376SOL     OW21763   0.862   3.683  10.899  0.5533  0.5177  0.2804
 3376SOL    HW121764   0.905   3.633  10.829 -0.2095  0.3206 -0.0526
 3376SOL    HW221765   0.782   3.631  10.910  2.1438 -1.7925  0.9592
 3377SOL     OW21766   1.751   2.454   5.298 -0.4100  0.4153  0.1121
 3377SOL    HW121767   1.828   2.463   5.243 -2.4553  2.1804 -2.4459
 3377SOL    HW221768   1.686   2.457   5.227  1.5764  1.8131 -1.6309
 3378SOL     OW21769   4.730   1.932   2.620 -0.2037 -0.2499 -0.0378
 3378SOL    HW121770   0.080   1.974   2.628  0.6724 -1.9498 -0.4348
 3378SOL    HW221771   4.683   1.971   2.694  0.6258 -0.0385  0.3735
 3379SOL     OW21772   0.110   0.459   0.734 -0.3632  0.6221  0.1686
 3379SOL    HW121773   0.021   0.423   0.741 -0.9345  1.9624 -0.3138
 3379SOL    HW221774   0.156   0.404   0.671 -1.7338  1.1968 -1.3374
 3380SOL     OW21775   1.395   0.545   5.816 -0.7194  0.3954  0.3557
 3380SOL    HW121776   1.396   0.595   5.898 -0.4455  0.9120  0.0330
 3380SOL    HW221777   1.405   0.607   5.744  1.8555  0.6183  0.9051
 3381SOL     OW21778   4.097   2.867   3.199  0.0948  0.1435 -0.9641
 3381SOL    HW121779   4.185   2.837   3.224 -0.0898  0.3417 -0.0732
 3381SOL    HW221780   4.052   2.843   3.281  1.4703  1.9480  0.3235
 3382SOL     OW21781   2.573   3.855   4.351 -0.3166 -0.5671 -0.4438
 3382SOL    HW121782   2.630   3.928   4.327 -0.3883 -0.1058  0.7823
 3382SOL    HW221783   2.597   3.845   4.443 -1.9252  0.7950  0.1327
 3383SOL     OW21784   2.158   0.724   3.821 -0.1866  0.5882  0.0242
 3383SOL    HW121785   2.143   0.816   3.800  1.0503  0.9742  0.7837
 3383SOL    HW221786   2.253   0.719   3.807 -0.2521  0.1077 -0.2316
 3384SOL     OW21787   3.605   3.631  13.254  0.2111  0.9785  0.2754
 3384SOL    HW121788   3.682   3.628  13.311 -0.7526  1.2208  1.6019
 3384SOL    HW221789   3.610   3.547  13.209  0.1839  1.8388 -1.3347
 3385SOL     OW21790   2.032   4.391   9.977 -0.0409 -0.0177 -0.5888
 3385SOL    HW121791   2.058   4.300   9.972  1.4698  0.3721  0.1954
 3385SOL    HW221792   1.979   4.395  10.057 -0.7241 -3.8177 -0.8710
 3386SOL     OW21793   0.109   0.715   0.712 -0.1545  0.7743 -0.2773
 3386SOL    HW121794   0.106   0.620   0.727 -0.2711  1.1418  1.9846
 3386SOL    HW221795   0.113   0.719   0.616 -0.0698  0.7747 -0.2738
 3387SOL     OW21796   1.261   1.066   2.150  0.1361  0.1504  0.1977
 3387SOL    HW121797   1.278   0.973   2.134 -0.3854  0.0407  0.2594
 3387SOL    HW221798   1.351   1.094   2.162  0.4526 -1.8545  2.4299
 3388SOL     OW21799   0.434   1.425   2.658 -0.4780  0.3807 -0.2320
 3388SOL    HW121800   0.409   1.361   2.591 -2.1788  1.6105 -0.7939
 3388SOL    HW221801   0.392   1.389   2.736  2.2611 -1.7744  0.2502
 3389SOL     OW21802   3.614   3.769   7.169 -0.0214 -0.2258 -0.3536
 3389SOL    HW121803   3.536   3.751   7.222  0.1865  1.6852  0.6059
 3389SOL    HW221804   3.639   3.686   7.129  1.5459  0.3634 -0.6290
 3390SOL     OW21805   3.140   3.529   2.386  0.3181  0.3802 -0.3417
 3390SOL    HW121806   3.190   3.607   2.410  0.5617 -0.1098  0.7354
 3390SOL    HW221807   3.210   3.475   2.348 -0.3663 -0.0368 -1.0063
 3391SOL     OW21808   4.688   1.036   5.038 -0.3009  0.4800 -0.6363
 3391SOL    HW121809   0.002   0.968   5.082  1.5379  1.9479 -0.4301
 3391SOL    HW221810   4.735   1.050   4.956  0.3328  1.1822 -0.1528
 3392SOL     OW21811   4.058   3.129   4.512 -0.2152  0.1972  0.0166
 3392SOL    HW121812   4.052   3.155   4.604 -0.0197 -0.6173  0.2606
 3392SOL    HW221813   3.972   3.160   4.485  0.4480  0.4365 -1.8179
 3393SOL     OW21814   4.659   4.554   1.496 -0.4796 -0.1266 -0.2780
 3393SOL    HW121815   4.634   4.498   1.571  0.3540 -1.4969 -1.0262
 3393SOL    HW221816   4.683   4.640   1.529  0.2329 -0.5511  0.3223
 3394SOL     OW21817   0.883   3.703   8.248 -0.2604  0.5929 -0.7216
 3394SOL    HW121818   0.878   3.607   8.249  1.0728  0.5105 -1.3945
 3394SOL    HW221819   0.804   3.724   8.298 -0.2404  0.9975 -0.8639
 3395SOL     OW21820   3.502   2.832   1.994  0.5286 -0.5716  0.0289
 3395SOL    HW121821   3.475   2.763   2.055 -0.1018 -1.1834 -0.9499
 3395SOL    HW221822   3.503   2.796   1.905  1.9625 -0.7200  0.1001
 3396SOL     OW21823   0.893   3.015   1.449  0.1880 -0.5266 -0.0759
 3396SOL    HW121824   0.960   3.051   1.391  1.6134  0.0403  1.9237
 3396SOL    HW221825   0.954   2.985   1.517  0.5217 -0.0725 -0.1718
 3397SOL     OW21826   3.448   3.686   9.772  0.7438 -0.1034  0.2859
 3397SOL    HW121827   3.354   3.691   9.754  0.8094 -1.6785 -0.4643
 3397SOL    HW221828   3.470   3.779   9.771  0.7891 -0.1117  0.5143
 3398SOL     OW21829   3.253   2.495   2.891  0.1472  0.3287  0.3324
 3398SOL    HW121830   3.268   2.400   2.891  1.4734  0.5321  0.5380
 3398SOL    HW221831   3.164   2.484   2.924  0.3661 -0.6763  0.6062
 3399SOL     OW21832   1.157   0.947   4.222 -0.0057  0.0956  0.5741
 3399SOL    HW121833   1.244   0.965   4.187 -0.9447  1.1940 -1.1865
 3399SOL    HW221834   1.163   0.854   4.243 -0.3506 -0.1972 -0.6204
 3400SOL     OW21835   4.597   3.087   3.926  0.0387 -0.4745 -0.5823
 3400SOL    HW121836   4.639   3.012   3.882  1.8753  0.6301 -0.6848
 3400SOL    HW221837   4.600   3.063   4.018  0.5269  0.5906 -0.3241
 3401SOL     OW21838   3.927   0.664   6.191  0.1528 -0.4083 -0.1356
 3401SOL    HW121839   3.964   0.576   6.199  0.7287 -0.3546 -2.2067
 3401SOL    HW221840   3.955   0.678   6.100 -1.4509  1.2251 -0.3697
 3402SOL     OW21841   0.125   1.657  15.728  0.2644 -0.4684  1.0103
 3402SOL    HW121842   0.119   1.721  15.658 -0.9059 -0.9721  0.6481
 3402SOL    HW221843   0.220   1.659  15.739  0.3900 -0.8901 -0.0347
 3403SOL     OW21844   1.300   4.282  10.597  1.0597 -0.6353  0.9623
 3403SOL    HW121845   1.373   4.266  10.537 -0.1532 -0.7026 -0.4655
 3403SOL    HW221846   1.340   4.348  10.654 -3.3386  0.4317  2.8412
 3404SOL     OW21847   0.739   1.328   4.041  0.0575 -0.2014 -0.2540
 3404SOL    HW121848   0.780   1.330   4.127  0.1187  1.0773 -0.3055
 3404SOL    HW221849   0.653   1.356   4.072  0.9582  2.5246 -0.2022
 3405SOL     OW21850   3.406   3.937   1.866  0.0727  0.4182  0.1253
 3405SOL    HW121851   3.328   3.988   1.845  0.6803  1.8487  1.3302
 3405SOL    HW221852   3.401   3.853   1.820 -1.0675  1.4604 -1.6603
 3406SOL     OW21853   4.221   3.065   7.172  0.3501  0.1103 -0.0252
 3406SOL    HW121854   4.314   3.069   7.149  0.4932 -0.8121  0.3925
 3406SOL    HW221855   4.220   3.120   7.250 -2.2119  1.0167 -0.6917
 3407SOL     OW21856   4.030   4.394   4.707 -0.1295  0.1510  0.1137
 3407SOL    HW121857   4.036   4.301   4.685  2.3705  0.7230 -1.6207
 3407SOL    HW221858   3.965   4.422   4.642  0.5605  2.2957  0.3567
 3408SOL     OW21859   0.249   1.146   2.720 -0.4008 -0.3770  0.0125
 3408SOL    HW121860   0.260   1.189   2.804  2.3191 -0.6630 -0.1884
 3408SOL    HW221861   0.183   1.201   2.678  0.2189 -0.5581 -1.1892
 3409SOL     OW21862   1.972   1.272   0.256  0.0274 -0.0784 -0.3431
 3409SOL    HW121863   1.947   1.197   0.202  2.2731 -0.4210 -0.9459
 3409SOL    HW221864   1.895   1.272   0.312 -0.2732 -0.2196 -0.7623
 3410SOL     OW21865   1.968   2.155   1.410 -0.1652  0.6145 -0.2612
 3410SOL    HW121866   2.009   2.226   1.361  0.9572 -1.4504 -2.3067
 3410SOL    HW221867   1.890   2.200   1.443 -0.5947 -1.0239  0.9727
 3411SOL     OW21868   1.854   1.510   5.244  0.2276  0.0051 -0.1926
 3411SOL    HW121869   1.862   1.533   5.337  0.7921  2.6123 -0.8955
 3411SOL    HW221870   1.892   1.422   5.235  1.1628  0.5517 -1.4730
 3412SOL     OW21871   2.820   3.059  12.971 -0.5116 -0.0414  0.1143
 3412SOL    HW121872   2.818   3.144  13.015 -4.0907  0.9793 -1.9798
 3412SOL    HW221873   2.729   3.058  12.941 -0.0046  1.5491 -1.4456
 3413SOL     OW21874   0.036   1.569   5.653 -0.5299 -0.3036  0.3364
 3413SOL    HW121875   0.022   1.490   5.706 -2.2220  0.2562  0.6864
 3413SOL    HW221876   4.684   1.602   5.633 -0.0907  1.6236  1.5628
 3414SOL     OW21877   0.356   4.172  14.575  0.0605  0.4120  0.1886
 3414SOL    HW121878   0.284   4.112  14.597  0.0507  1.5534  3.2522
 3414SOL    HW221879   0.322   4.253  14.613 -0.5910 -0.1985  0.9130
 3415SOL     OW21880   2.188   4.406  17.677  0.6110 -0.2305 -0.1847
 3415SOL    HW121881   2.257   4.445  17.624  0.7161 -1.1100 -0.6902
 3415SOL    HW221882   2.198   4.312  17.687 -0.3167 -0.5239 -2.1424
 3416SOL     OW21883   2.843   1.910   3.345  0.2104  0.5090 -0.2200
 3416SOL    HW121884   2.817   1.833   3.295  2.0349  0.3671 -0.9224
 3416SOL    HW221885   2.787   1.977   3.306  0.1895  0.2721 -0.5958
 3417SOL     OW21886   4.492   0.830  17.557  0.4149  0.6214  0.1820
 3417SOL    HW121887   4.520   0.904  17.503 -0.5316  1.5273  0.9418
 3417SOL    HW221888   4.410   0.861  17.595  0.8989  2.9129 -0.6246
 3418SOL     OW21889   1.109   0.142   3.319  0.1401 -0.1389 -1.0143
 3418SOL    HW121890   1.119   0.173   3.229  2.0338 -1.8938 -1.4286
 3418SOL    HW221891   1.099   0.223   3.369 -0.5670 -0.6016 -0.3967
 3419SOL     OW21892   0.186   3.476   5.286 -0.5015 -0.5990 -0.4715
 3419SOL    HW121893   0.114   3.531   5.255 -0.1750 -0.1860 -0.4951
 3419SOL    HW221894   0.194   3.507   5.376  1.6616 -1.3505 -0.4130
 3420SOL     OW21895   1.839   0.660  14.438 -0.2582 -0.2458  0.1106
 3420SOL    HW121896   1.835   0.605  14.516 -1.2921  0.3290  0.4668
 3420SOL    HW221897   1.917   0.624  14.396  0.7283  0.6986  1.1082
 3421SOL     OW21898   3.580   0.391   5.039  0.2321 -0.1864  0.2248
 3421SOL    HW121899   3.528   0.452   4.985  0.0532  0.0571  0.6756
 3421SOL    HW221900   3.646   0.447   5.080 -0.6298  0.0687  1.2707
 3422SOL     OW21901   2.678   4.385   4.380 -0.1291 -0.0922 -0.3106
 3422SOL    HW121902   2.636   4.458   4.425  2.2699  1.7696 -1.0702
 3422SOL    HW221903   2.716   4.425   4.302 -0.6754 -2.7288 -1.9442
 3423SOL     OW21904   3.239   0.185   1.602 -0.1528  0.5234  0.1212
 3423SOL    HW121905   3.285   0.173   1.685 -2.4469 -0.9242  1.1698
 3423SOL    HW221906   3.312   0.188   1.540  0.3952  2.1597  0.8556
 3424SOL     OW21907   4.430   4.601   2.939 -0.0575 -0.0747  0.5338
 3424SOL    HW121908   4.474   4.655   2.873  1.1332  1.2767  2.4572
 3424SOL    HW221909   4.508   4.585   2.992 -0.0715 -0.5889  0.4022
 3425SOL     OW21910   0.812   2.898  14.783 -0.3971 -0.0779 -0.3868
 3425SOL    HW121911   0.900   2.935  14.776 -1.0626  1.4404 -0.7374
 3425SOL    HW221912   0.826   2.820  14.837  2.3166  0.8677  0.2864
 3426SOL     OW21913   4.189   3.628   0.262  0.1713  0.5862  0.1726
 3426SOL    HW121914   4.215   3.557   0.319 -0.6263  1.1579  1.2529
 3426SOL    HW221915   4.184   3.591   0.174 -0.4622  0.2359  0.3554
 3427SOL     OW21916   4.655   2.599   0.926 -0.0331  0.0951  0.3579
 3427SOL    HW121917   4.709   2.537   0.975  0.6013  0.5464  0.2291
 3427SOL    HW221918   4.624   2.531   0.866  1.5542 -1.3461  1.2066
 3428SOL     OW21919   2.349   4.070   5.466 -1.0011 -0.3925 -0.5059
 3428SOL    HW121920   2.299   3.991   5.486  0.9372 -1.4261  0.3240
 3428SOL    HW221921   2.439   4.036   5.472 -0.2223  1.9141  0.6618
 3429SOL     OW21922   1.244   1.602   8.282 -0.2093 -0.0232 -0.5780
 3429SOL    HW121923   1.230   1.615   8.376  1.5753 -0.6922 -0.2163
 3429SOL    HW221924   1.241   1.691   8.248  0.1760 -0.1620 -0.9758
 3430SOL     OW21925   2.022   2.001  11.106  0.2055  0.6445 -0.9979
 3430SOL    HW121926   2.069   1.918  11.108  1.6502  1.4816 -0.2460
 3430SOL    HW221927   2.082   2.053  11.159 -1.5686 -0.7545  2.3494
 3431SOL     OW21928   1.781   3.231   3.875  0.1469 -0.8478  0.6351
 3431SOL    HW121929   1.830   3.211   3.795 -0.4770  2.8210 -0.6666
 3431SOL    HW221930   1.849   3.284   3.917  0.4079 -1.9102  1.5621
 3432SOL     OW21931   1.793   3.737   7.585 -0.2602 -0.5078 -0.4711
 3432SOL    HW121932   1.798   3.714   7.678 -0.6221  2.2695  0.2134
 3432SOL    HW221933   1.784   3.832   7.586  0.2285 -0.4704  1.9826
 3433SOL     OW21934   4.732   4.147   3.231  0.7371  0.0506 -0.1186
 3433SOL    HW121935   0.039   4.174   3.312 -0.0782  0.4935  0.1494
 3433SOL    HW221936   0.053   4.072   3.207  1.4646 -0.4840  3.3115
 3434SOL     OW21937   2.723   0.318   5.002 -0.3960  0.0975 -0.0047
 3434SOL    HW121938   2.806   0.294   4.962 -0.0375 -0.3698  1.0347
 3434SOL    HW221939   2.677   0.345   4.922 -1.4262 -1.2423  0.1278
 3435SOL     OW21940   1.426   2.749   1.452 -0.0854 -0.1989 -0.1907
 3435SOL    HW121941   1.401   2.791   1.370  1.1207 -2.9154 -1.9423
 3435SOL    HW221942   1.346   2.709   1.484 -1.2457 -0.4281 -3.4250
 3436SOL     OW21943   4.025   2.463  13.252 -0.2225  0.4214 -0.3951
 3436SOL    HW121944   4.065   2.544  13.222  1.0722  0.2092  0.8041
 3436SOL    HW221945   4.084   2.447  13.325  0.5170 -0.7698 -1.2487
 3437SOL     OW21946   3.252   4.140   7.306 -0.2925 -0.0947 -0.3203
 3437SOL    HW121947   3.242   4.235   7.301  1.4706  0.0392 -1.2617
 3437SOL    HW221948   3.168   4.119   7.264 -0.7986  1.1682  0.0598
 3438SOL     OW21949   0.878   0.395   9.003 -0.1378 -0.5757 -0.6335
 3438SOL    HW121950   0.798   0.405   9.055  0.2310  1.8901 -0.5409
 3438SOL    HW221951   0.934   0.456   9.051 -1.7831  1.3946 -1.2310
 3439SOL     OW21952   2.146   3.355   4.997 -0.3140  0.5031 -0.3820
 3439SOL    HW121953   2.112   3.443   5.011  2.0833  1.3650 -0.0296
 3439SOL    HW221954   2.235   3.377   4.972 -0.5826  0.4925 -1.3880
 3440SOL     OW21955   2.046   2.633  16.663  0.3446 -0.1429 -0.3167
 3440SOL    HW121956   2.048   2.699  16.732 -0.4677  1.9995 -2.3273
 3440SOL    HW221957   2.008   2.686  16.592 -1.3754  0.8229  1.3399
 3441SOL     OW21958   3.785   0.467   4.564 -0.3381 -0.1321  0.7754
 3441SOL    HW121959   3.819   0.537   4.620 -1.4019 -1.9181  3.6612
 3441SOL    HW221960   3.796   0.505   4.477  0.4578 -2.5180 -0.1740
 3442SOL     OW21961   1.347   3.385   7.444  0.3005 -0.2738 -0.1687
 3442SOL    HW121962   1.436   3.364   7.473  0.0828  0.1576  0.8116
 3442SOL    HW221963   1.312   3.297   7.432  0.9032 -0.2876 -1.7596
 3443SOL     OW21964   0.446   3.676   7.119 -0.5361 -0.5012  0.0133
 3443SOL    HW121965   0.419   3.764   7.093  2.2460 -0.2595 -2.0895
 3443SOL    HW221966   0.538   3.686   7.144 -0.9206  0.7152  0.9201
 3444SOL     OW21967   2.897   1.961   3.975 -0.1920 -0.3774 -0.1711
 3444SOL    HW121968   2.822   1.919   3.932 -0.5743  0.6302 -0.4938
 3444SOL    HW221969   2.950   1.983   3.899  0.7706  2.7174  1.4258
 3445SOL     OW21970   0.475   3.660   6.606  0.3313 -0.1255  0.1286
 3445SOL    HW121971   0.560   3.704   6.603 -1.4332  3.2596 -0.0335
 3445SOL    HW221972   0.437   3.703   6.682 -2.1590 -0.9118 -0.6703
 3446SOL     OW21973   3.404   3.321   3.365  0.1641 -0.0682  0.2922
 3446SOL    HW121974   3.493   3.290   3.352  0.1296  0.7798 -1.8370
 3446SOL    HW221975   3.409   3.377   3.443 -0.7386 -0.7689  0.8542
 3447SOL     OW21976   2.623   1.347   4.860 -0.1149  0.0050  0.1433
 3447SOL    HW121977   2.612   1.311   4.949 -1.7992  2.5718  0.9611
 3447SOL    HW221978   2.573   1.428   4.871 -1.0824 -0.5043 -0.4779
 3448SOL     OW21979   2.945   1.486   4.472  0.2774  0.4069  0.5192
 3448SOL    HW121980   2.852   1.463   4.459  1.2547 -2.1398 -2.1020
 3448SOL    HW221981   2.946   1.500   4.566  2.2968  0.1800  0.5342
 3449SOL     OW21982   0.733   1.066  16.401  0.7466 -0.3461 -0.3391
 3449SOL    HW121983   0.731   1.132  16.332  0.8551 -0.0477 -0.0526
 3449SOL    HW221984   0.723   0.991  16.343 -2.6192  0.1077 -0.3119
 3450SOL     OW21985   2.169   3.783   6.515 -0.0912  0.1003 -1.2747
 3450SOL    HW121986   2.163   3.735   6.432  0.2518 -1.5668 -0.3307
 3450SOL    HW221987   2.082   3.820   6.526  0.4608  0.7073  1.0220
 3451SOL     OW21988   2.412   0.340  13.722  0.1141  0.3162 -0.0837
 3451SOL    HW121989   2.471   0.416  13.726 -0.0377  0.4223  0.1861
 3451SOL    HW221990   2.470   0.264  13.719 -0.7133 -0.1961 -2.5754
 3452SOL     OW21991   0.917   2.095   7.690 -0.1363  0.3927 -0.3512
 3452SOL    HW121992   0.967   2.084   7.771 -0.2365  1.3147 -0.1621
 3452SOL    HW221993   0.969   2.045   7.628  1.7525 -0.2731  1.7545
 3453SOL     OW21994   1.267   2.085   3.291  0.4399  0.5760  0.5368
 3453SOL    HW121995   1.234   2.110   3.377 -1.6012  1.1477 -0.4260
 3453SOL    HW221996   1.207   2.013   3.274  0.4559  0.8222 -0.5899
 3454SOL     OW21997   2.026   4.441   4.662 -0.0432  0.1053 -0.3833
 3454SOL    HW121998   1.939   4.445   4.701 -0.2050 -2.7401 -0.4679
 3454SOL    HW221999   2.067   4.363   4.699  1.0030  0.4617 -0.7771
 3455SOL     OW22000   2.555   4.330   6.263 -0.0870  0.1094 -0.2842
 3455SOL    HW122001   2.522   4.338   6.352 -2.3024  1.0699 -1.2084
 3455SOL    HW222002   2.473   4.340   6.215 -0.5418 -1.2052  0.2207
 3456SOL     OW22003   0.002   4.212   2.468  0.2112  0.2340 -0.6244
 3456SOL    HW122004   4.683   4.142   2.431  1.4517 -1.7297  1.2443
 3456SOL    HW222005   0.086   4.165   2.476 -0.3646 -0.8032 -0.7459
 3457SOL     OW22006   1.206   1.258  15.143 -0.0418  0.2393 -0.0464
 3457SOL    HW122007   1.192   1.171  15.106  0.8257 -0.0334  0.2606
 3457SOL    HW222008   1.165   1.303  15.069  0.1184 -1.0945 -0.9323
 3458SOL     OW22009   1.395   0.750   7.175  0.4593 -0.5916  0.0080
 3458SOL    HW122010   1.449   0.802   7.235 -0.0860  0.9119 -0.8015
 3458SOL    HW222011   1.385   0.797   7.092  0.8246 -0.2973  0.1301
 3459SOL     OW22012   2.182   3.662  15.868 -0.4005 -0.0647 -0.0943
 3459SOL    HW122013   2.143   3.746  15.893  0.7365  1.0328 -1.9866
 3459SOL    HW222014   2.256   3.650  15.929 -1.2405 -1.7247  0.5977
 3460SOL     OW22015   1.697   4.632   6.136 -0.2557  0.2872  0.5039
 3460SOL    HW122016   1.637   4.683   6.081  0.4985  0.4026 -0.2186
 3460SOL    HW222017   1.626   4.593   6.186 -0.3454 -1.7151 -1.1524
 3461SOL     OW22018   1.625   3.123   6.405  0.1469  0.0269  0.2259
 3461SOL    HW122019   1.622   3.046   6.349 -2.3732  1.7685 -2.0476
 3461SOL    HW222020   1.612   3.195   6.343 -0.8419 -0.0319  0.3524
 3462SOL     OW22021   4.422   2.466   4.960  0.4983  0.0546  0.0456
 3462SOL    HW122022   4.438   2.379   4.997 -0.9205 -0.3646 -0.3335
 3462SOL    HW222023   4.343   2.497   5.004  1.1406 -0.5782  1.6277
 3463SOL     OW22024   0.224   4.053   5.064  0.0929  0.2415 -0.7483
 3463SOL    HW122025   0.222   3.965   5.101 -0.7407  1.0759  1.2229
 3463SOL    HW222026   0.240   4.102   5.145 -1.6193 -0.7991  0.2242
 3464SOL     OW22027   0.461   4.608   0.550  0.2494  0.1242 -0.4008
 3464SOL    HW122028   0.404   4.533   0.531  1.1237 -0.1186 -2.1081
 3464SOL    HW222029   0.440   4.668   0.479 -1.5934  2.4494  2.1325
 3465SOL     OW22030   4.127   4.683   4.815  0.5054  0.0074  0.0342
 3465SOL    HW122031   4.134   4.598   4.772  0.0003  0.1226 -0.2846
 3465SOL    HW222032   4.057   4.715   4.757  1.1009  2.0352  0.4195
 3466SOL     OW22033   3.489   0.428  13.186  0.4163 -0.1397  0.6953
 3466SOL    HW122034   3.529   0.425  13.273 -2.1743  0.9224  1.9484
 3466SOL    HW222035   3.497   0.519  13.157 -2.4758 -0.1546 -0.1638
 3467SOL     OW22036   0.199   1.126  13.996 -0.1741 -0.0038  0.2671
 3467SOL    HW122037   0.133   1.084  14.051  1.7800 -0.1849  2.4955
 3467SOL    HW222038   0.201   1.061  13.926  0.1763  1.0673 -0.7281
 3468SOL     OW22039   3.640   2.217  11.928 -0.4348 -0.0393 -0.2597
 3468SOL    HW122040   3.596   2.173  12.000 -1.9593 -0.4136 -1.4125
 3468SOL    HW222041   3.614   2.308  11.946 -2.0201 -0.5459 -0.0255
 3469SOL     OW22042   3.183   1.585   5.298 -0.2602 -0.0579  0.2522
 3469SOL    HW122043   3.278   1.588   5.310 -0.3019  4.3032 -0.5773
 3469SOL    HW222044   3.163   1.518   5.232 -1.9737  1.3297 -0.6312
 3470SOL     OW22045   1.313   2.856  11.158  0.3063 -0.3975 -0.1182
 3470SOL    HW122046   1.301   2.924  11.225  1.3226 -0.2353 -0.1120
 3470SOL    HW222047   1.267   2.896  11.085  0.1514 -0.3354  0.0126
 3471SOL     OW22048   0.288   1.777   8.107  0.3541 -1.1331 -0.1446
 3471SOL    HW122049   0.321   1.802   8.021  0.2547 -0.4676  0.0069
 3471SOL    HW222050   0.371   1.752   8.147 -0.3938  1.5333  3.0438
 3472SOL     OW22051   1.638   0.930  10.496 -0.2342  0.5048 -0.4284
 3472SOL    HW122052   1.591   0.878  10.432  0.7175 -1.8795  0.8006
 3472SOL    HW222053   1.698   0.983  10.444  2.1665  0.1607  1.9269
 3473SOL     OW22054   3.487   2.374   2.345 -0.3212  0.1159  0.3271
 3473SOL    HW122055   3.500   2.466   2.367  0.6100  0.7711 -2.9782
 3473SOL    HW222056   3.555   2.373   2.277 -1.1373  0.7180 -0.4956
 3474SOL     OW22057   3.788   0.420   5.747  0.0243 -0.1968  0.1538
 3474SOL    HW122058   3.730   0.464   5.686 -0.4649 -1.2368 -0.1324
 3474SOL    HW222059   3.730   0.347   5.764  0.4081 -1.1079 -2.4447
 3475SOL     OW22060   2.460   1.299  11.244 -0.0121  0.4201  0.6501
 3475SOL    HW122061   2.367   1.289  11.225  0.1124 -1.1591  0.8515
 3475SOL    HW222062   2.475   1.215  11.287 -0.8152  0.5407  1.1541
 3476SOL     OW22063   2.470   2.076  16.926  0.0188 -0.0743  0.4719
 3476SOL    HW122064   2.436   1.988  16.939  0.0301 -0.6309 -3.1619
 3476SOL    HW222065   2.396   2.128  16.956 -1.0660 -0.4472 -1.5819
 3477SOL     OW22066   0.346   3.071   6.279 -0.3924  0.9164 -0.0846
 3477SOL    HW122067   0.283   3.125   6.231  0.1838  1.9546  0.3265
 3477SOL    HW222068   0.411   3.130   6.317  0.3355  0.9384 -1.3520
 3478SOL     OW22069   1.308   3.956  15.534 -0.4544 -0.1288  0.0829
 3478SOL    HW122070   1.281   3.874  15.494 -0.8609  0.6341 -1.1881
 3478SOL    HW222071   1.377   3.986  15.474  0.6668 -1.8236  0.5228
 3479SOL     OW22072   3.542   2.098  11.416  0.0910 -0.3125  0.4550
 3479SOL    HW122073   3.577   2.150  11.488 -0.7910  1.3725 -0.3575
 3479SOL    HW222074   3.451   2.091  11.445  0.1220  0.7677  0.8265
 3480SOL     OW22075   1.626   1.022  13.157 -0.0767  0.1695  0.4669
 3480SOL    HW122076   1.680   0.965  13.212  1.2227  2.5450  1.6396
 3480SOL    HW222077   1.696   1.066  13.109  0.0932 -1.1695 -0.5317
 3481SOL     OW22078   1.835   3.166  15.138 -0.4529  0.6999 -0.1772
 3481SOL    HW122079   1.898   3.095  15.138  0.1924  1.2779 -3.2290
 3481SOL    HW222080   1.759   3.130  15.183  0.2905  0.7597  1.1146
 3482SOL     OW22081   1.031   2.202  12.172 -0.0843 -0.2221  0.6478
 3482SOL    HW122082   1.114   2.245  12.153 -1.3111  1.4302 -0.9943
 3482SOL    HW222083   1.064   2.118  12.203  2.2563  0.4926  0.0527
 3483SOL     OW22084   2.668   0.019   1.283 -0.3036 -0.4242  0.0374
 3483SOL    HW122085   2.733   4.723   1.345 -1.5894 -0.3579  1.4183
 3483SOL    HW222086   2.659   4.688   1.215 -1.5718 -1.8084  1.5355
 3484SOL     OW22087   3.897   0.680   9.304 -0.1349 -0.5024  0.4202
 3484SOL    HW122088   3.874   0.614   9.369  0.5026 -1.7127 -0.5814
 3484SOL    HW222089   3.909   0.624   9.227  0.5277 -1.8101  1.4786
 3485SOL     OW22090   3.418   3.627   2.528  0.3374  0.5180 -0.1869
 3485SOL    HW122091   3.453   3.538   2.525  1.0915  0.7031  2.5713
 3485SOL    HW222092   3.389   3.634   2.620 -1.8136  0.7565 -0.8765
 3486SOL     OW22093   2.012   0.931   2.770  0.6423  0.6202 -0.0404
 3486SOL    HW122094   1.922   0.922   2.740 -0.2985  0.3660  2.8116
 3486SOL    HW222095   1.995   0.896   2.858  0.4045 -1.8799 -1.0897
 3487SOL     OW22096   3.041   4.411   7.932 -0.1263  0.2688 -1.3770
 3487SOL    HW122097   3.071   4.454   8.011 -2.0271 -2.1613  0.6732
 3487SOL    HW222098   2.974   4.474   7.904 -0.3047  0.5345 -0.3389
 3488SOL     OW22099   4.000   2.366  16.514  0.1281 -0.4968 -0.1749
 3488SOL    HW122100   4.001   2.271  16.527 -1.5242 -0.6204 -1.0066
 3488SOL    HW222101   3.937   2.369  16.443 -0.2448 -1.2048  0.1264
 3489SOL     OW22102   4.572   1.997   6.153 -0.0139 -0.3571 -0.4344
 3489SOL    HW122103   4.577   2.038   6.239  0.7124 -1.5422  0.0813
 3489SOL    HW222104   4.659   2.011   6.116  0.4272  0.1695  0.8102
 3490SOL     OW22105   3.024   3.465  12.411 -0.5441  0.0632 -0.0872
 3490SOL    HW122106   3.007   3.374  12.434 -0.4935  0.3329  1.0078
 3490SOL    HW222107   3.023   3.459  12.315 -2.4631  2.5780 -0.2236
 3491SOL     OW22108   4.311   1.194   6.243 -0.0762 -0.8536 -0.1008
 3491SOL    HW122109   4.227   1.225   6.209  0.3002 -0.1988 -0.4254
 3491SOL    HW222110   4.313   1.105   6.207 -0.1472 -1.0255  0.3216
 3492SOL     OW22111   2.099   4.704  17.175 -0.1807 -0.3014  0.3417
 3492SOL    HW122112   2.073   0.060  17.165 -0.0050 -0.2880  0.0113
 3492SOL    HW222113   2.132   4.697  17.085  0.0953 -1.2509  0.5148
 3493SOL     OW22114   2.218   0.178  14.405 -0.0720 -0.4707 -0.2978
 3493SOL    HW122115   2.194   0.217  14.489 -0.0711 -2.8933  0.8144
 3493SOL    HW222116   2.135   0.152  14.364 -0.6417  1.9642 -0.7026
 3494SOL     OW22117   4.685   4.442  17.448  0.4386  0.2376  0.1209
 3494SOL    HW122118   4.676   4.537  17.438  1.9443  0.1790 -1.6570
 3494SOL    HW222119   0.001   4.441  17.529 -0.0020  1.0688  0.4107
 3495SOL     OW22120   0.755   0.796   8.750 -0.0943  0.1497  0.1775
 3495SOL    HW122121   0.763   0.701   8.741 -2.1050  0.2217 -2.5691
 3495SOL    HW222122   0.829   0.815   8.807 -0.5995  0.6897  0.6545
 3496SOL     OW22123   0.371   0.428   8.482 -0.1494 -0.2676  0.1343
 3496SOL    HW122124   0.322   0.368   8.538 -0.5270  0.2954  0.4020
 3496SOL    HW222125   0.313   0.503   8.489 -1.2170 -1.0736 -0.1809
 3497SOL     OW22126   3.618   2.494   1.173  0.4618 -0.1245  0.5093
 3497SOL    HW122127   3.665   2.425   1.219  2.5604  0.9598  0.0002
 3497SOL    HW222128   3.685   2.562   1.168  0.4528 -0.2853 -2.0483
 3498SOL     OW22129   0.972   3.314   1.327  0.6178  0.0563  0.0416
 3498SOL    HW122130   0.996   3.228   1.292  1.0280  0.1254  0.1546
 3498SOL    HW222131   1.047   3.372   1.313 -0.3206  1.9591  2.8129
 3499SOL     OW22132   1.035   0.233   6.458 -0.3937  0.0319 -0.0796
 3499SOL    HW122133   0.943   0.262   6.454 -0.3638  0.2072  0.6018
 3499SOL    HW222134   1.066   0.307   6.510 -0.9710  0.6759 -0.6386
 3500SOL     OW22135   1.654   0.665   2.719 -0.1914 -0.2386  0.6010
 3500SOL    HW122136   1.597   0.611   2.664  0.8812  0.2397 -0.9846
 3500SOL    HW222137   1.727   0.691   2.662 -2.2757  2.4182 -0.8484
 3501SOL     OW22138   1.283   2.778   3.257  0.8229  0.4706 -0.4178
 3501SOL    HW122139   1.365   2.728   3.263  2.0083  2.3781 -0.5470
 3501SOL    HW222140   1.228   2.700   3.256  2.1416 -0.4642 -0.2199
 3502SOL     OW22141   3.514   2.325   2.647  0.4698  0.1268 -0.1817
 3502SOL    HW122142   3.520   2.231   2.666 -0.4880  0.4310  1.5621
 3502SOL    HW222143   3.524   2.317   2.552  3.0173 -0.0376  0.1071
 3503SOL     OW22144   1.216   2.824   3.824 -0.0746  0.4947  0.2358
 3503SOL    HW122145   1.250   2.751   3.773 -0.4507  0.4735  0.0143
 3503SOL    HW222146   1.300   2.862   3.849  1.6116 -2.8717 -0.3940
 3504SOL     OW22147   3.241   1.239   1.791  0.1681 -0.2311  0.2614
 3504SOL    HW122148   3.241   1.161   1.736 -0.6391 -0.2478  0.2822
 3504SOL    HW222149   3.333   1.253   1.815 -0.2772  1.5058  0.8866
 3505SOL     OW22150   1.501   2.099   7.255 -0.2538  0.4517  0.0301
 3505SOL    HW122151   1.415   2.119   7.291  0.2871 -0.2359  1.6746
 3505SOL    HW222152   1.516   2.025   7.313  0.1665  0.1225 -0.4904
 3506SOL     OW22153   4.619   0.924  13.884  0.2453  0.1280 -0.7550
 3506SOL    HW122154   4.614   0.838  13.925  1.1796 -0.7645 -2.4876
 3506SOL    HW222155   4.702   0.912  13.838 -0.2915  0.0597 -1.7167
 3507SOL     OW22156   0.954   0.753   5.076 -0.3231 -0.5098  0.1534
 3507SOL    HW122157   0.875   0.700   5.068 -1.8709  1.9384 -0.9516
 3507SOL    HW222158   0.961   0.792   4.989 -0.7396 -0.7720  0.0054
 3508SOL     OW22159   0.600   3.802   8.021  1.1388  0.0291 -0.3310
 3508SOL    HW122160   0.695   3.797   8.019  1.1915  1.3135 -1.5635
 3508SOL    HW222161   0.571   3.715   7.993 -0.6519  0.5594 -0.1745
 3509SOL     OW22162   3.517   3.129  16.929 -0.0786 -0.4593 -0.0252
 3509SOL    HW122163   3.449   3.107  16.993 -0.3561 -1.7621 -0.7566
 3509SOL    HW222164   3.560   3.043  16.934  2.7783  0.9675 -0.2227
 3510SOL     OW22165   2.755   0.297  10.911  0.2577  0.0574  0.0706
 3510SOL    HW122166   2.753   0.240  10.834  0.2662 -1.5996  1.2939
 3510SOL    HW222167   2.822   0.247  10.958  0.9743  1.1252  0.1872
 3511SOL     OW22168   2.082   2.543   0.887 -0.1197  0.6860 -0.1101
 3511SOL    HW122169   2.039   2.574   0.807 -2.3419 -1.2397  0.3444
 3511SOL    HW222170   2.109   2.622   0.935 -0.1203  0.4736  0.2376
 3512SOL     OW22171   3.207   2.902   9.305 -0.1355 -0.3652 -0.2076
 3512SOL    HW122172   3.152   2.968   9.263 -0.9982 -0.2222  1.1649
 3512SOL    HW222173   3.260   2.886   9.227  0.4504  1.2983 -0.1386
 3513SOL     OW22174   3.310   3.172   7.707  0.1214  0.8052  0.0530
 3513SOL    HW122175   3.218   3.165   7.734  0.1790 -0.4656 -0.0735
 3513SOL    HW222176   3.311   3.089   7.659  0.9543  0.0426  1.3884
 3514SOL     OW22177   0.105   4.033   6.104 -0.2293  0.1489  0.4512
 3514SOL    HW122178   0.101   3.974   6.029  0.1863 -0.5679  0.9960
 3514SOL    HW222179   0.015   4.064   6.104 -0.2951 -0.0377 -0.3188
 3515SOL     OW22180   4.652   1.036   1.475 -0.6318  0.2877  0.0569
 3515SOL    HW122181   4.622   1.105   1.533 -1.7996  1.3102 -1.7750
 3515SOL    HW222182   4.720   1.091   1.437  0.5414 -0.9870  0.2971
 3516SOL     OW22183   2.335   2.868   3.989 -0.1934 -0.2545  0.3370
 3516SOL    HW122184   2.413   2.867   3.933 -0.1743  0.0592  0.3579
 3516SOL    HW222185   2.341   2.777   4.018  1.9381  0.0292  0.7657
 3517SOL     OW22186   1.944   0.716  13.487 -0.8853 -0.4380 -0.1116
 3517SOL    HW122187   1.937   0.744  13.578 -0.9043 -1.0001  0.0599
 3517SOL    HW222188   1.988   0.631  13.491  3.6341  1.8938  0.1539
 3518SOL     OW22189   1.693   2.564   6.288 -0.3651  0.2446  0.3971
 3518SOL    HW122190   1.669   2.473   6.305 -0.1776  0.2576  0.7391
 3518SOL    HW222191   1.680   2.584   6.381 -1.2194 -0.4171  0.4174
 3519SOL     OW22192   3.758   2.333   6.889  0.1649 -0.4851  0.1866
 3519SOL    HW122193   3.842   2.313   6.930  0.5175  0.1326 -0.2196
 3519SOL    HW222194   3.738   2.256   6.836 -1.4095 -0.2462  0.4383
 3520SOL     OW22195   0.534   1.350   5.078  0.3813 -0.3054 -0.4956
 3520SOL    HW122196   0.480   1.271   5.085  0.1144 -0.0997 -0.2273
 3520SOL    HW222197   0.510   1.390   5.161  0.4145  1.3509 -1.2958
 3521SOL     OW22198   0.588   3.641   2.049  0.1886 -0.1932  0.3873
 3521SOL    HW122199   0.572   3.553   2.082 -0.1376 -0.1251  0.4137
 3521SOL    HW222200   0.540   3.689   2.117 -2.2574 -0.0479 -1.4542
 3522SOL     OW22201   4.432   1.966   5.278 -0.4863  0.3041  0.1590
 3522SOL    HW122202   4.490   2.026   5.326  0.4728  0.5226 -1.2561
 3522SOL    HW222203   4.506   1.928   5.230 -0.5425  1.2325 -0.6821
 3523SOL     OW22204   0.923   1.409   6.674  0.3725  0.0597 -0.4049
 3523SOL    HW122205   0.865   1.483   6.655 -0.6969 -0.0286  2.5130
 3523SOL    HW222206   0.975   1.435   6.750 -1.0428 -1.1378  0.9905
 3524SOL     OW22207   0.752   1.647   5.954  0.5030 -0.4125  0.2506
 3524SOL    HW122208   0.814   1.697   6.006 -0.0124  0.0554  0.4110
 3524SOL    HW222209   0.676   1.676   6.004  1.5984  2.1580  0.4310
 3525SOL     OW22210   4.287   0.565   7.121  0.7174  0.0734 -0.5799
 3525SOL    HW122211   4.382   0.567   7.123  0.7078  0.6442 -0.6869
 3525SOL    HW222212   4.284   0.536   7.030  3.6786  0.1826 -0.6990
 3526SOL     OW22213   1.044   2.318   5.747 -0.2424  0.4159  0.2931
 3526SOL    HW122214   0.991   2.398   5.754  1.1797  1.0465  3.9389
 3526SOL    HW222215   1.024   2.284   5.660  3.1096 -3.1546  0.9004
 3527SOL     OW22216   4.155   2.723   4.058  0.4593  0.2027 -0.6943
 3527SOL    HW122217   4.168   2.654   4.123  0.9137 -0.9827 -2.0504
 3527SOL    HW222218   4.220   2.792   4.071 -0.4877  0.9863 -0.0814
 3528SOL     OW22219   2.216   3.823  15.088  0.7219  0.2403  0.0098
 3528SOL    HW122220   2.294   3.823  15.033  1.0805 -1.5575  0.5283
 3528SOL    HW222221   2.191   3.732  15.076 -0.9983  0.4572  1.9353
 3529SOL     OW22222   2.384   4.605   2.950  0.2650 -0.1321  0.0660
 3529SOL    HW122223   2.469   4.592   2.993  1.1353 -1.6280 -2.0755
 3529SOL    HW222224   2.323   4.648   3.010  1.7959  1.5794  0.3962
 3530SOL     OW22225   3.235   4.110   6.412 -0.1854  0.4531 -0.0510
 3530SOL    HW122226   3.151   4.133   6.372 -1.4055 -3.4655  0.3134
 3530SOL    HW222227   3.204   4.046   6.476  0.0172 -0.1124 -0.5229
 3531SOL     OW22228   0.544   4.144   7.583  0.2324  0.4092 -0.1070
 3531SOL    HW122229   0.553   4.080   7.655  0.3542 -0.1859 -0.6489
 3531SOL    HW222230   0.629   4.187   7.588 -0.5725  1.8154  1.3440
 3532SOL     OW22231   4.342   3.812   3.884 -0.0611 -0.2863 -0.3531
 3532SOL    HW122232   4.309   3.723   3.887 -2.0181  0.4593 -0.0667
 3532SOL    HW222233   4.311   3.846   3.800 -1.1398  1.8533  0.8856
 3533SOL     OW22234   4.294   3.158   5.647 -0.8259 -1.0754 -0.4178
 3533SOL    HW122235   4.358   3.133   5.579  1.2731 -0.7719  1.4567
 3533SOL    HW222236   4.294   3.073   5.691  1.1629 -0.0938  1.4449
 3534SOL     OW22237   1.602   3.208   0.998 -0.6892 -0.2981 -0.1449
 3534SOL    HW122238   1.688   3.176   1.028 -1.2407 -0.2180  1.4952
 3534SOL    HW222239   1.597   3.276   1.065  2.3907 -2.0976  1.9464
 3535SOL     OW22240   3.662   2.234   3.475 -0.1481  0.0394 -0.4849
 3535SOL    HW122241   3.706   2.151   3.492 -1.2358 -0.3976  0.2051
 3535SOL    HW222242   3.727   2.301   3.496 -0.7819  1.3145 -2.5987
 3536SOL     OW22243   2.362   2.551  11.626 -0.6464  0.3875  0.2751
 3536SOL    HW122244   2.337   2.484  11.562 -0.7494  0.3344  0.3710
 3536SOL    HW222245   2.335   2.638  11.595 -2.7771 -0.6184 -0.7373
 3537SOL     OW22246   0.308   4.370   2.427  0.4552 -0.1910 -0.1434
 3537SOL    HW122247   0.260   4.451   2.443  0.2569 -0.8049  2.3854
 3537SOL    HW222248   0.270   4.352   2.341  2.0552 -2.4909 -0.3674
 3538SOL     OW22249   1.796   1.425   6.735 -0.1131  0.2288 -0.1578
 3538SOL    HW122250   1.779   1.514   6.765  2.2287  0.2876  1.0485
 3538SOL    HW222251   1.738   1.426   6.659  0.1312  1.8504 -0.3300
 3539SOL     OW22252   3.070   3.722  14.704 -0.4453  0.2696  0.2106
 3539SOL    HW122253   3.077   3.644  14.650  2.0682  0.9401 -0.4054
 3539SOL    HW222254   3.060   3.800  14.649 -0.4802 -0.5630 -0.9554
 3540SOL     OW22255   0.817   0.741   9.743  0.0500  0.3385 -0.5859
 3540SOL    HW122256   0.734   0.754   9.698 -0.7575 -1.3108  0.4541
 3540SOL    HW222257   0.789   0.770   9.829  1.1047  2.1542 -0.8376
 3541SOL     OW22258   3.608   1.701  11.291  0.1192 -0.4027 -0.5873
 3541SOL    HW122259   3.554   1.758  11.237  0.0367  0.5131  0.4421
 3541SOL    HW222260   3.569   1.620  11.258  1.5254 -0.5094 -1.9960
 3542SOL     OW22261   3.784   3.030   2.656  0.0545 -0.0488  0.4555
 3542SOL    HW122262   3.808   2.945   2.620  2.1762  1.1746 -1.0152
 3542SOL    HW222263   3.766   3.004   2.747 -1.4751 -1.6036 -0.3058
 3543SOL     OW22264   4.488   4.516  12.821  0.0279 -0.1234 -0.0869
 3543SOL    HW122265   4.477   4.552  12.909 -0.5171  1.3496 -0.7549
 3543SOL    HW222266   4.419   4.450  12.833  0.4918 -0.4009  1.0987
 3544SOL     OW22267   1.711   0.960   4.057 -0.1511  0.1367  0.0161
 3544SOL    HW122268   1.761   1.033   4.094 -0.0805 -0.1119  0.4180
 3544SOL    HW222269   1.730   0.885   4.113 -0.4688 -0.2030 -0.3354
 3545SOL     OW22270   0.196   1.769   7.695  0.1232 -0.2803  0.2886
 3545SOL    HW122271   0.186   1.674   7.695  1.0877 -0.3901 -1.8191
 3545SOL    HW222272   0.190   1.791   7.602  0.6197  0.4311  0.4161
 3546SOL     OW22273   4.244   3.450   1.855  0.2320  0.5124 -0.2503
 3546SOL    HW122274   4.168   3.402   1.889 -0.4824  0.6831 -1.5793
 3546SOL    HW222275   4.307   3.444   1.926  0.4756 -1.0668 -0.5997
 3547SOL     OW22276   0.502   1.069   7.061  0.2164 -0.8002  0.3000
 3547SOL    HW122277   0.480   1.089   6.970  0.6305  1.4544  0.7113
 3547SOL    HW222278   0.537   0.980   7.068  1.8881  0.0095  2.1526
 3548SOL     OW22279   1.773   0.157   5.247  0.3856 -0.5766  0.5620
 3548SOL    HW122280   1.834   0.087   5.220 -0.3040 -0.5546 -1.0516
 3548SOL    HW222281   1.700   0.150   5.186  0.2749 -1.3565  0.7835
 3549SOL     OW22282   0.056   4.093  15.502 -0.5899  0.3751  0.7564
 3549SOL    HW122283   0.130   4.095  15.441 -1.3341 -1.7160 -0.2195
 3549SOL    HW222284   0.093   4.061  15.584 -0.6235  0.6182  0.8668
 3550SOL     OW22285   4.597   1.359   4.383  0.2163 -0.2275  0.3754
 3550SOL    HW122286   4.559   1.445   4.367 -0.7672 -0.2157  2.6927
 3550SOL    HW222287   4.628   1.336   4.295 -2.4016  0.9181 -0.8348
 3551SOL     OW22288   0.733   1.195   2.110  0.2129 -0.3059  0.3393
 3551SOL    HW122289   0.820   1.159   2.123  0.1663 -0.6285 -0.2579
 3551SOL    HW222290   0.718   1.237   2.195 -0.1659 -0.0676  0.1540
 3552SOL     OW22291   3.704   0.603   6.872  1.0498  0.2886 -0.1048
 3552SOL    HW122292   3.650   0.609   6.793  1.8933 -0.3181 -0.7278
 3552SOL    HW222293   3.751   0.686   6.874 -1.0320  1.4774 -0.8691
 3553SOL     OW22294   2.110   4.055   5.107  0.0523 -0.3417  0.5601
 3553SOL    HW122295   2.035   4.112   5.095  0.7150  0.4059  0.0203
 3553SOL    HW222296   2.175   4.115   5.143  1.0092 -0.4612 -0.9552
 3554SOL     OW22297   0.446   0.220   0.733  0.5285  0.1269  0.0436
 3554SOL    HW122298   0.385   0.186   0.799  1.6229  1.0698  1.5213
 3554SOL    HW222299   0.376   0.249   0.673  1.2455 -0.0762 -0.8852
 3555SOL     OW22300   0.547   0.307   7.769  0.8069  0.0470  0.3032
 3555SOL    HW122301   0.546   0.340   7.859  1.5261 -2.6343  1.2696
 3555SOL    HW222302   0.473   0.360   7.738  1.1142  0.4528  0.2703
 3556SOL     OW22303   0.313   0.093  17.637  0.4021 -0.8446 -0.3084
 3556SOL    HW122304   0.399   0.096  17.678 -0.1966 -0.6397  0.9668
 3556SOL    HW222305   0.322   0.159  17.568 -0.9774 -0.4376 -0.1067
 3557SOL     OW22306   2.901   4.006   5.523 -0.4927  0.0569 -0.8088
 3557SOL    HW122307   2.990   3.972   5.530 -1.2023 -2.5995 -4.5211
 3557SOL    HW222308   2.906   4.081   5.582  2.4195 -1.0247  0.2817
 3558SOL     OW22309   0.937   1.427   3.366 -0.5634  0.2130 -0.0468
 3558SOL    HW122310   0.933   1.407   3.460  0.8786 -1.1169 -0.2587
 3558SOL    HW222311   0.896   1.353   3.320  1.1499 -0.1750 -0.9516
 3559SOL     OW22312   4.545   3.619   1.858 -0.1825 -0.0789  0.2326
 3559SOL    HW122313   4.612   3.592   1.795  1.3411  2.8122  0.6439
 3559SOL    HW222314   4.477   3.654   1.799  0.4465 -0.7445 -0.8912
 3560SOL     OW22315   1.714   0.385  17.623  0.1141  0.0805  0.1455
 3560SOL    HW122316   1.783   0.452  17.627 -1.6391  1.8932 -0.3336
 3560SOL    HW222317   1.650   0.419  17.685 -1.2489 -1.1198 -0.6039
 3561SOL     OW22318   0.361   0.175  15.604  0.1918  0.1879 -0.0637
 3561SOL    HW122319   0.333   0.244  15.664 -1.8049 -0.4278 -0.2865
 3561SOL    HW222320   0.449   0.207  15.582  1.5640 -1.3808  3.0990
 3562SOL     OW22321   3.252   4.495   9.174 -0.6537 -0.0374  0.4207
 3562SOL    HW122322   3.302   4.447   9.241  1.0198  2.5261  1.0068
 3562SOL    HW222323   3.304   4.485   9.094  0.7905  0.1720  1.3388
 3563SOL     OW22324   2.958   0.716   5.296  0.5479 -0.2117 -0.0256
 3563SOL    HW122325   2.964   0.802   5.254 -0.0207  0.4695  1.2994
 3563SOL    HW222326   2.886   0.674   5.250  0.1322 -0.9677  1.3436
 3564SOL     OW22327   0.011   3.015   5.293 -0.2158 -0.1897 -0.5245
 3564SOL    HW122328   0.063   3.081   5.248 -1.9569  2.7848  1.8290
 3564SOL    HW222329   4.728   3.064   5.373 -0.6735  0.8735 -1.2806
 3565SOL     OW22330   0.423   3.585   2.531 -0.1230 -0.2700 -0.1937
 3565SOL    HW122331   0.411   3.584   2.626 -0.4360  1.3727 -0.2269
 3565SOL    HW222332   0.333   3.577   2.499  0.5676  0.2859 -2.2449
 3566SOL     OW22333   4.554   0.965  16.854  0.5188  0.4002  0.3557
 3566SOL    HW122334   4.506   0.962  16.771  0.6558 -1.0957  0.3145
 3566SOL    HW222335   4.491   1.015  16.906 -0.9919  0.7860 -1.8410
 3567SOL     OW22336   2.221   4.229   6.472  0.5609 -0.3872  0.4937
 3567SOL    HW122337   2.175   4.217   6.390  0.7048 -2.5951  0.7553
 3567SOL    HW222338   2.258   4.142   6.484  0.7286 -0.0794  2.2457
 3568SOL     OW22339   3.448   1.463   7.289  0.1171 -0.5730  0.2533
 3568SOL    HW122340   3.449   1.370   7.265 -2.7178 -0.2336 -1.1405
 3568SOL    HW222341   3.542   1.480   7.279 -0.1516  0.5012 -0.3530
 3569SOL     OW22342   2.431   2.941  15.001 -0.4449 -0.1338  0.0164
 3569SOL    HW122343   2.372   2.932  15.076  0.7816 -1.2763  0.8374
 3569SOL    HW222344   2.505   2.982  15.046 -0.5256  0.2586 -0.2067
 3570SOL     OW22345   2.003   4.074   7.425  0.1101  0.2008  0.0200
 3570SOL    HW122346   2.097   4.068   7.440  0.1015  1.2640  0.4852
 3570SOL    HW222347   1.969   3.992   7.389 -1.5776  0.7862  0.2614
 3571SOL     OW22348   0.846   1.057   3.538  0.0236  0.2064  0.1450
 3571SOL    HW122349   0.876   1.140   3.577  1.1588 -0.1320 -0.0223
 3571SOL    HW222350   0.808   1.011   3.612 -1.2417 -1.8331 -1.7821
 3572SOL     OW22351   0.490   3.296  16.289  0.1067  0.4800  0.0674
 3572SOL    HW122352   0.481   3.202  16.274 -0.7635  0.3272  1.5520
 3572SOL    HW222353   0.405   3.339  16.293  0.4853  1.5461 -2.9691
 3573SOL     OW22354   1.189   1.463   6.095 -0.6237 -0.1572 -0.1358
 3573SOL    HW122355   1.252   1.409   6.142 -0.4598 -0.8018 -1.1090
 3573SOL    HW222356   1.124   1.397   6.072 -0.8809 -0.4436  1.3816
 3574SOL     OW22357   1.711   3.253  10.198  0.2697 -0.0382 -0.1281
 3574SOL    HW122358   1.735   3.202  10.120  2.8669 -0.4698  0.9412
 3574SOL    HW222359   1.706   3.191  10.271 -1.5367  1.0404  0.6528
 3575SOL     OW22360   3.613   3.209   8.078 -0.2819 -0.5751  0.4542
 3575SOL    HW122361   3.528   3.205   8.033  0.9777  0.0153 -1.9611
 3575SOL    HW222362   3.622   3.122   8.115  1.5086 -0.6325 -0.1320
 3576SOL     OW22363   3.173   2.379  15.627 -0.2460  0.3474  0.1120
 3576SOL    HW122364   3.081   2.395  15.649 -0.5460 -0.2830 -0.7005
 3576SOL    HW222365   3.206   2.466  15.606 -1.5503  1.5929  3.1836
 3577SOL     OW22366   3.911   3.700   9.577  0.0960  0.3920 -0.4845
 3577SOL    HW122367   3.951   3.754   9.645 -0.3298  0.2027 -0.0737
 3577SOL    HW222368   3.946   3.613   9.597  0.0652  0.3129 -0.7844
 3578SOL     OW22369   1.125   0.135   9.129  0.0872 -0.2333  0.0235
 3578SOL    HW122370   1.219   0.136   9.111 -0.7200  2.4252 -4.2121
 3578SOL    HW222371   1.105   0.218   9.172 -1.5269 -0.0878 -1.0049
 3579SOL     OW22372   0.130   4.351   7.338  0.0626 -0.1640 -0.3013
 3579SOL    HW122373   0.192   4.320   7.403  0.9461 -1.0323 -1.5677
 3579SOL    HW222374   0.086   4.426   7.380  0.6964  1.4960 -2.5933
 3580SOL     OW22375   4.558   0.235   3.345  0.1960  0.3696  0.0486
 3580SOL    HW122376   4.543   0.325   3.373 -0.7025 -0.3374  1.8880
 3580SOL    HW222377   4.649   0.230   3.374  0.0165  0.0857  0.5586
 3581SOL     OW22378   0.284   4.531   3.134 -0.0895  0.2879 -0.0629
 3581SOL    HW122379   0.373   4.497   3.145  0.4690  1.2446 -1.5604
 3581SOL    HW222380   0.286   4.620   3.169 -3.1072  0.7926 -1.1809
 3582SOL     OW22381   4.068   0.409   6.975 -0.0631 -0.7387  0.2645
 3582SOL    HW122382   4.016   0.411   7.056  1.9982  0.7672  1.5799
 3582SOL    HW222383   4.014   0.343   6.932  0.4701 -0.5103 -0.7464
 3583SOL     OW22384   2.456   3.705   4.729  0.3734  0.0342 -0.1205
 3583SOL    HW122385   2.445   3.751   4.813  1.1982 -1.0864  0.6102
 3583SOL    HW222386   2.480   3.783   4.679  1.0866  1.2471  2.1010
 3584SOL     OW22387   0.818   2.996   7.447  0.2949  0.1174 -0.2607
 3584SOL    HW122388   0.816   2.920   7.506  0.8515  0.9892  0.8823
 3584SOL    HW222389   0.875   3.061   7.488 -0.3553 -0.0253  0.8665
 3585SOL     OW22390   0.582   3.975   4.516 -0.4205 -0.2236  0.4982
 3585SOL    HW122391   0.596   3.938   4.429  4.1076 -0.1397  1.2020
 3585SOL    HW222392   0.581   3.895   4.568 -0.0187 -0.9938 -0.6908
 3586SOL     OW22393   0.070   3.811   1.038  0.2586  0.0493 -0.7175
 3586SOL    HW122394   0.065   3.759   1.118 -2.3610  1.3982 -0.0208
 3586SOL    HW222395   0.163   3.821   1.019  1.2676 -1.0312  3.6152
 3587SOL     OW22396   2.272   3.194   5.317  0.3934  0.4505  0.1975
 3587SOL    HW122397   2.283   3.103   5.291  0.8698  0.6610 -0.3605
 3587SOL    HW222398   2.222   3.178   5.396  1.1697 -0.8422  0.4242
 3588SOL     OW22399   1.897   2.245   0.557 -0.4239 -0.0307  0.4130
 3588SOL    HW122400   1.827   2.204   0.607  1.0393 -2.4232  0.4631
 3588SOL    HW222401   1.927   2.188   0.487  0.1724  2.1306 -1.0928
 3589SOL     OW22402   0.595   0.810   9.566 -0.4245  0.6838  0.3616
 3589SOL    HW122403   0.524   0.746   9.562 -1.6486  2.1419 -1.3122
 3589SOL    HW222404   0.550   0.883   9.608 -0.7683  1.4024 -1.2576
 3590SOL     OW22405   1.335   0.785   3.312  0.1527  0.4735 -0.3352
 3590SOL    HW122406   1.294   0.777   3.226  0.9012  0.3766 -0.6821
 3590SOL    HW222407   1.318   0.876   3.332 -1.6659  0.0009  0.2378
 3591SOL     OW22408   1.404   0.718   5.121 -0.4322 -0.1195  0.4087
 3591SOL    HW122409   1.415   0.811   5.141  2.3884 -0.4052  0.2380
 3591SOL    HW222410   1.336   0.690   5.183 -0.3272 -0.3215  0.4341
 3592SOL     OW22411   0.067   2.105   6.073 -0.0638 -0.3934 -0.1156
 3592SOL    HW122412   0.156   2.114   6.109 -0.3535  0.0460  0.5008
 3592SOL    HW222413   0.091   2.080   5.984  0.3053  1.4147 -0.5241
 3593SOL     OW22414   1.561   2.984   5.706  0.0037 -0.0760  0.2130
 3593SOL    HW122415   1.493   2.938   5.756  0.5177 -1.7006 -0.5824
 3593SOL    HW222416   1.591   2.909   5.654 -1.5498 -0.2210 -0.4685
 3594SOL     OW22417   3.333   4.218   7.668 -0.2630 -0.4430 -0.2563
 3594SOL    HW122418   3.334   4.225   7.764 -3.4666 -1.4555 -0.1514
 3594SOL    HW222419   3.244   4.183   7.665  0.2955 -1.7750 -1.1502
 3595SOL     OW22420   4.073   2.364   8.297 -0.3031 -0.0924 -0.5542
 3595SOL    HW122421   4.058   2.431   8.364 -2.3876  1.0520 -2.1563
 3595SOL    HW222422   4.070   2.285   8.351 -1.2395  0.3362  0.0238
 3596SOL     OW22423   2.634   3.496   9.100  0.0206  0.1014  0.1056
 3596SOL    HW122424   2.548   3.504   9.057  0.3901  2.6547 -0.1809
 3596SOL    HW222425   2.618   3.437   9.174  0.3799 -0.0748  0.0400
 3597SOL     OW22426   1.948   1.488   1.122  0.3215 -0.5151 -0.4921
 3597SOL    HW122427   1.920   1.501   1.031 -1.3272 -2.2000 -0.2370
 3597SOL    HW222428   1.871   1.439   1.152 -1.6636  2.0065 -1.4054
 3598SOL     OW22429   3.223   1.376   9.233 -0.2767 -0.3395 -0.0126
 3598SOL    HW122430   3.162   1.448   9.252  0.2997  0.0811  0.2409
 3598SOL    HW222431   3.159   1.322   9.188  0.0219 -0.0468 -0.7804
 3599SOL     OW22432   2.595   3.441  16.793 -0.5719  0.6737 -0.1455
 3599SOL    HW122433   2.687   3.424  16.814 -1.0194 -1.4000  0.1585
 3599SOL    HW222434   2.603   3.454  16.699  2.9288 -0.4368 -0.0108
 3600SOL     OW22435   3.005   3.968   6.972  0.5802  0.4541  0.4001
 3600SOL    HW122436   3.006   4.041   6.910 -1.2241  0.2943  0.1831
 3600SOL    HW222437   2.965   3.902   6.915 -0.4626  0.9928  0.5137
 3601SOL     OW22438   4.195   1.025   4.634 -0.2085  0.0473 -0.1528
 3601SOL    HW122439   4.267   1.080   4.602 -0.1936  0.6441  0.9372
 3601SOL    HW222440   4.216   1.029   4.727  1.6916  1.2106 -0.6323
 3602SOL     OW22441   3.885   1.067   7.599  0.1317  0.2717  0.1944
 3602SOL    HW122442   3.815   1.115   7.644  0.5958 -0.4202  1.6688
 3602SOL    HW222443   3.833   1.006   7.548 -1.6131  1.5619  0.4434
 3603SOL     OW22444   0.408   3.764   5.710  0.0024  0.5154  0.5023
 3603SOL    HW122445   0.365   3.845   5.739  1.8621  0.8404  2.3349
 3603SOL    HW222446   0.462   3.805   5.642  1.3244  1.1831  1.9471
 3604SOL     OW22447   2.384   1.777   8.204 -0.7490 -0.0101  0.1486
 3604SOL    HW122448   2.410   1.694   8.244  0.8036  0.1664 -0.4723
 3604SOL    HW222449   2.317   1.758   8.138  0.4803  0.3079 -1.1885
 3605SOL     OW22450   2.082   1.286   1.837 -0.6298 -0.1975  0.1821
 3605SOL    HW122451   2.004   1.232   1.827 -0.2745 -0.8385  0.8993
 3605SOL    HW222452   2.126   1.252   1.915 -1.1699 -0.8774  0.1854
 3606SOL     OW22453   2.743   0.705   4.542  0.2357  0.0931 -0.0101
 3606SOL    HW122454   2.731   0.649   4.619 -0.2890 -0.7007 -0.6616
 3606SOL    HW222455   2.727   0.638   4.476  0.7656 -1.3315  1.3006
 3607SOL     OW22456   4.440   1.176   6.468  0.4362  0.0450 -1.0574
 3607SOL    HW122457   4.376   1.128   6.521  3.0052 -0.8912  1.2284
 3607SOL    HW222458   4.385   1.185   6.391  0.1413  4.5758 -0.3214
 3608SOL     OW22459   4.110   1.132   1.670 -0.1763 -0.3162  0.6232
 3608SOL    HW122460   4.020   1.128   1.702 -1.2428  0.0265 -2.2628
 3608SOL    HW222461   4.108   1.049   1.622 -2.2546 -0.2051  0.5145
 3609SOL     OW22462   0.592   3.573   7.612  0.4384  0.3954  0.3311
 3609SOL    HW122463   0.565   3.573   7.520  1.0775  0.1289  0.1426
 3609SOL    HW222464   0.510   3.593   7.658  0.5207 -0.0045  0.6478
 3610SOL     OW22465   2.567   0.709   4.964 -0.0435  0.2050  0.2629
 3610SOL    HW122466   2.497   0.676   4.908 -0.0624  0.8480 -0.0998
 3610SOL    HW222467   2.648   0.665   4.939 -0.2366  0.1955 -0.3362
 3611SOL     OW22468   4.350   1.692   0.054 -0.2277  0.2545  0.2710
 3611SOL    HW122469   4.322   1.753  17.725  3.0298 -0.2720 -1.5462
 3611SOL    HW222470   4.385   1.755   0.117  2.9017 -1.1857 -0.0290
 3612SOL     OW22471   3.487   4.081   3.571  0.0583 -0.1553  0.0044
 3612SOL    HW122472   3.557   4.110   3.512  1.6307  0.7660  2.3434
 3612SOL    HW222473   3.538   4.064   3.650 -1.5212  0.2405  1.1028
 3613SOL     OW22474   3.746   3.861   8.811 -0.6143  0.2376 -0.1539
 3613SOL    HW122475   3.686   3.852   8.885  0.7723  2.1590  1.2069
 3613SOL    HW222476   3.698   3.820   8.739 -2.1378 -1.6768  1.9568
 3614SOL     OW22477   4.046   1.312  14.088 -0.3646  0.0327 -0.3619
 3614SOL    HW122478   4.022   1.399  14.057  3.8181  0.7222 -1.6431
 3614SOL    HW222479   4.135   1.306  14.056  0.0943  0.2066  0.8880
 3615SOL     OW22480   4.476   1.519  11.949 -0.3205  0.5837  0.1208
 3615SOL    HW122481   4.469   1.583  11.879  0.1245 -0.1751 -0.6251
 3615SOL    HW222482   4.447   1.562  12.029  0.3599  1.5028 -0.1329
 3616SOL     OW22483   4.351   1.828  15.101  0.2172  0.5942  0.1684
 3616SOL    HW122484   4.428   1.884  15.103 -1.7546  3.2886  0.5484
 3616SOL    HW222485   4.392   1.745  15.126  0.5943  0.9946  0.8573
 3617SOL     OW22486   0.032   0.794   1.299  0.0499 -0.3584 -0.0782
 3617SOL    HW122487   0.003   0.852   1.229  1.3858  1.4156  0.8513
 3617SOL    HW222488   4.682   0.787   1.344  0.0922 -0.5213 -0.0244
 3618SOL     OW22489   1.619   3.827  17.350  0.4843 -0.3381 -0.0455
 3618SOL    HW122490   1.621   3.916  17.385 -0.8335 -0.4994  0.4338
 3618SOL    HW222491   1.703   3.822  17.305  0.1366  0.1578 -0.7549
 3619SOL     OW22492   2.008   2.389   2.937  0.0650  0.0447 -0.1224
 3619SOL    HW122493   2.030   2.297   2.953  1.7810  0.4087 -0.3747
 3619SOL    HW222494   1.961   2.398   3.020  0.5352  0.8494  0.0560
 3620SOL     OW22495   1.332   2.084   4.820  0.0857  0.3230  0.5966
 3620SOL    HW122496   1.381   2.002   4.827 -0.1481  0.3635  2.7789
 3620SOL    HW222497   1.302   2.081   4.729 -1.4862  1.0690  1.0940
 3621SOL     OW22498   4.618   1.312  13.029 -0.2532  0.0779  0.0288
 3621SOL    HW122499   4.529   1.278  13.027 -0.6157  0.9032  1.7019
 3621SOL    HW222500   4.598   1.401  13.059  2.4001  1.4033 -2.1374
 3622SOL     OW22501   0.878   1.191  12.303  0.2675 -0.1819  0.9081
 3622SOL    HW122502   0.888   1.282  12.329  0.3378  0.0685 -0.0094
 3622SOL    HW222503   0.969   1.166  12.319  1.1788 -0.0951 -3.9925
 3623SOL     OW22504   3.019   1.437   6.639 -0.1369 -0.3815 -0.1445
 3623SOL    HW122505   2.983   1.522   6.663  1.6930  0.7027 -1.2516
 3623SOL    HW222506   2.986   1.435   6.550 -1.3388 -0.8208  0.3114
 3624SOL     OW22507   4.106   4.466   6.084 -0.0255 -0.3827 -0.2539
 3624SOL    HW122508   4.028   4.508   6.047  0.2467  0.4094  0.0662
 3624SOL    HW222509   4.142   4.543   6.128  0.3309  0.5247 -2.1288
 3625SOL     OW22510   3.083   2.622  14.949  0.0952  0.0465  0.1001
 3625SOL    HW122511   3.139   2.554  14.986  0.7469  0.8860  0.6471
 3625SOL    HW222512   3.147   2.690  14.927  0.4545 -0.1813  0.4454
 3626SOL     OW22513   0.596   2.858   1.992 -0.0141  0.2421  0.3325
 3626SOL    HW122514   0.645   2.856   1.910  0.4481  1.4250  0.5835
 3626SOL    HW222515   0.667   2.855   2.056  0.0608  1.0500  0.2865
 3627SOL     OW22516   2.908   2.039   9.733 -0.0919  0.5444  0.0612
 3627SOL    HW122517   2.858   2.057   9.813  1.9424  1.7329  1.0601
 3627SOL    HW222518   2.886   2.116   9.681 -1.4073  0.6078  0.7149
 3628SOL     OW22519   3.067   4.214   5.162  0.1082  0.1487  0.3694
 3628SOL    HW122520   2.978   4.192   5.189  0.0659  0.3540  0.3968
 3628SOL    HW222521   3.073   4.292   5.218  0.6712 -1.5973  2.7423
 3629SOL     OW22522   2.711   1.209   6.957  0.4495  0.5232 -0.1088
 3629SOL    HW122523   2.791   1.245   6.918  0.0709  0.1050 -1.2931
 3629SOL    HW222524   2.641   1.240   6.898 -0.0108 -1.1474 -0.4479
 3630SOL     OW22525   1.583   0.641  12.939 -0.0535 -0.3380  0.1581
 3630SOL    HW122526   1.534   0.711  12.983 -1.4404 -0.4186 -1.2443
 3630SOL    HW222527   1.556   0.660  12.849 -0.8628 -0.1951  0.4267
 3631SOL     OW22528   4.364   0.655  10.554  0.0054 -0.5890 -0.5608
 3631SOL    HW122529   4.275   0.654  10.589  0.0109  0.0178 -0.5224
 3631SOL    HW222530   4.365   0.576  10.501 -1.5981 -0.2180 -1.1635
 3632SOL     OW22531   2.726   2.785   6.054 -0.1329  0.5664  0.4080
 3632SOL    HW122532   2.641   2.821   6.030 -0.4783 -0.5805 -0.0810
 3632SOL    HW222533   2.775   2.867   6.056  1.0112 -0.1532  1.7149
 3633SOL     OW22534   1.245   4.146   9.425 -0.1084  0.2417 -0.4101
 3633SOL    HW122535   1.223   4.067   9.473  1.2923 -0.2717 -0.6105
 3633SOL    HW222536   1.163   4.194   9.435  0.1944  0.1974  2.2205
 3634SOL     OW22537   3.194   3.819   1.107  0.5589 -0.1052 -0.4979
 3634SOL    HW122538   3.195   3.868   1.024 -1.1351 -1.9078 -1.5597
 3634SOL    HW222539   3.270   3.760   1.107 -1.0814 -2.2022 -0.6346
 3635SOL     OW22540   0.645   2.264   6.998 -0.5091  0.2256  0.3452
 3635SOL    HW122541   0.638   2.353   7.031  1.1982 -0.5363  2.6906
 3635SOL    HW222542   0.616   2.278   6.907 -1.0645  0.6008  0.5813
 3636SOL     OW22543   3.665   4.282   6.822 -0.1644 -0.7818  0.4889
 3636SOL    HW122544   3.696   4.360   6.777 -0.5525 -0.1976  1.2391
 3636SOL    HW222545   3.570   4.278   6.808  0.0207 -1.0611 -0.7433
 3637SOL     OW22546   0.008   2.892   3.766 -0.3119  0.2497 -0.6294
 3637SOL    HW122547   4.690   2.813   3.755  1.9327 -1.2076 -0.8819
 3637SOL    HW222548   0.056   2.892   3.683  1.4879 -1.7331  0.4060
 3638SOL     OW22549   2.846   3.854   5.297 -0.0131  0.1145  0.3647
 3638SOL    HW122550   2.829   3.925   5.235 -0.0866 -1.0873 -0.9832
 3638SOL    HW222551   2.857   3.900   5.381  0.2607 -0.7458  0.8028
 3639SOL     OW22552   3.255   0.652  10.859  0.1780  0.4160  0.1623
 3639SOL    HW122553   3.264   0.715  10.931 -0.3954  0.1562  0.4599
 3639SOL    HW222554   3.194   0.590  10.899  0.6789 -0.5548 -0.5999
 3640SOL     OW22555   0.915   1.873  15.942 -0.0125  0.3448  0.0906
 3640SOL    HW122556   0.870   1.817  15.878  1.6231 -0.2830 -0.5185
 3640SOL    HW222557   0.914   1.818  16.020 -0.5262  3.0265  1.9825
 3641SOL     OW22558   1.946   2.648   4.912 -0.2586 -0.8408  0.0686
 3641SOL    HW122559   1.910   2.563   4.938 -0.9026 -0.1724  1.4059
 3641SOL    HW222560   1.888   2.714   4.953 -1.9791 -0.0476 -3.6213
 3642SOL     OW22561   0.234   0.517   0.308 -0.2965 -0.0633  0.0651
 3642SOL    HW122562   0.175   0.571   0.256  0.4190  0.5869 -0.0733
 3642SOL    HW222563   0.319   0.538   0.270 -0.7143 -0.3180 -1.0092
 3643SOL     OW22564   1.737   4.104  14.030 -0.1218 -0.1378  0.2318
 3643SOL    HW122565   1.712   4.196  14.025 -1.3791 -0.7018 -3.5405
 3643SOL    HW222566   1.649   4.065  14.026 -0.4554  0.7350 -0.8252
 3644SOL     OW22567   0.386   2.388   9.547  0.6348  0.0216 -0.8738
 3644SOL    HW122568   0.364   2.296   9.531  3.8628 -0.5626 -1.8350
 3644SOL    HW222569   0.331   2.427   9.479  0.6210 -0.0075 -0.8795
 3645SOL     OW22570   4.389   1.740   8.272 -0.0036  0.6722 -0.7747
 3645SOL    HW122571   4.319   1.802   8.251 -1.6608 -1.1743 -0.7363
 3645SOL    HW222572   4.462   1.795   8.300 -0.9848  1.6743 -0.1689
 3646SOL     OW22573   3.214   0.003  16.180  0.2911 -0.2323  0.2547
 3646SOL    HW122574   3.174   0.035  16.261  1.0507  0.0099  0.5291
 3646SOL    HW222575   3.296   4.704  16.216  0.3571 -0.4540 -0.1113
 3647SOL     OW22576   1.811   3.003   4.791  0.0831  0.1870  0.2449
 3647SOL    HW122577   1.900   2.986   4.823  1.1354  1.2054 -2.1450
 3647SOL    HW222578   1.756   3.008   4.869 -1.4430 -0.8622 -0.7599
 3648SOL     OW22579   4.085   1.626   4.439  0.2089  0.6189 -0.7871
 3648SOL    HW122580   4.101   1.536   4.411 -2.0339  0.6740 -2.2703
 3648SOL    HW222581   3.992   1.617   4.421 -0.0487 -1.5913  1.7616
 3649SOL     OW22582   0.514   4.418   6.696  0.1307  0.0887  0.4905
 3649SOL    HW122583   0.431   4.375   6.716 -0.6390  1.6149  0.5754
 3649SOL    HW222584   0.518   4.428   6.601  0.4631  0.2789  0.5211
 3650SOL     OW22585   2.934   1.015  13.489 -0.1768  0.1227 -0.2883
 3650SOL    HW122586   2.844   0.996  13.462 -0.2084 -0.4693  0.2277
 3650SOL    HW222587   2.931   1.109  13.503  3.0997  0.2844 -0.5374
 3651SOL     OW22588   3.165   4.276   0.995  0.1363  0.3628  0.4625
 3651SOL    HW122589   3.086   4.305   0.949 -1.2040 -4.8067 -0.5108
 3651SOL    HW222590   3.129   4.280   1.084 -2.4511 -0.4664 -0.5250
 3652SOL     OW22591   4.236   2.350   7.612 -0.3877 -0.0363 -0.3419
 3652SOL    HW122592   4.217   2.399   7.532 -0.5471  0.3990 -0.0356
 3652SOL    HW222593   4.322   2.391   7.623  0.2579 -1.3487 -0.4412
 3653SOL     OW22594   4.037   4.598  12.942  0.6185  0.2219 -0.1056
 3653SOL    HW122595   3.955   4.617  12.895  0.0952 -1.6579  0.0422
 3653SOL    HW222596   4.083   4.678  12.918  0.4620  0.5382  0.6657
 3654SOL     OW22597   0.990   3.250  10.274  0.2987  0.2652 -0.1427
 3654SOL    HW122598   1.026   3.245  10.362  2.5845 -1.8869 -1.1920
 3654SOL    HW222599   0.916   3.310  10.278  0.4078  0.2976  1.4500
 3655SOL     OW22600   1.890   4.114  10.609  0.1983 -0.0935  0.1529
 3655SOL    HW122601   1.866   4.147  10.696 -1.2055  1.0814 -0.6701
 3655SOL    HW222602   1.907   4.196  10.564 -0.4176 -0.7767 -1.3260
 3656SOL     OW22603   1.246   4.701   1.298 -0.5685 -0.1252  0.6848
 3656SOL    HW122604   1.200   0.008   1.225  1.6698 -0.5295 -0.9417
 3656SOL    HW222605   1.182   4.631   1.310 -0.5097 -0.1773  0.6973
 3657SOL     OW22606   1.301   0.414   2.925 -0.3083  0.0168 -0.4349
 3657SOL    HW122607   1.394   0.422   2.905  0.0388 -1.0531  0.7959
 3657SOL    HW222608   1.293   0.454   3.012 -0.3957 -0.4295 -0.2395
 3658SOL     OW22609   3.556   4.323  17.045 -0.3017 -0.4689  0.1458
 3658SOL    HW122610   3.614   4.264  16.996  1.0298 -1.9674  3.5002
 3658SOL    HW222611   3.578   4.407  17.004  0.9113  0.2812  2.3567
 3659SOL     OW22612   3.239   0.965  11.996  0.0773  0.4383 -0.5570
 3659SOL    HW122613   3.307   0.992  12.057 -0.5076  0.5151  0.0669
 3659SOL    HW222614   3.172   1.032  12.014  0.2973  0.8307 -1.2000
 3660SOL     OW22615   3.300   3.758   7.998 -0.0412 -0.0716  0.7689
 3660SOL    HW122616   3.228   3.767   8.060  0.1442  2.6749  0.5940
 3660SOL    HW222617   3.255   3.750   7.914 -0.8797  0.1966  1.1925
 3661SOL     OW22618   3.393   4.454   7.559  0.5168 -0.8908  0.1098
 3661SOL    HW122619   3.369   4.369   7.595 -1.7379 -0.4070 -0.2759
 3661SOL    HW222620   3.472   4.475   7.609  0.9415 -2.9732  0.2831
 3662SOL     OW22621   0.818   2.356   1.587  0.8163  0.4827  0.4017
 3662SOL    HW122622   0.845   2.267   1.566 -1.1703  0.0143 -0.2289
 3662SOL    HW222623   0.759   2.372   1.513  0.8766  0.4115  0.3383
 3663SOL     OW22624   1.561   2.213   4.455 -0.4374 -0.0615  0.1998
 3663SOL    HW122625   1.553   2.296   4.408  1.3471  0.3568  0.6323
 3663SOL    HW222626   1.473   2.178   4.445 -0.4375 -0.3438  1.1121
 3664SOL     OW22627   2.774   3.484   0.482 -0.0924  0.0184 -0.0888
 3664SOL    HW122628   2.806   3.452   0.397 -1.5982  2.2115 -1.4744
 3664SOL    HW222629   2.787   3.402   0.531 -2.2416 -1.7299 -2.4425
 3665SOL     OW22630   4.734   1.970   7.973 -0.2795  0.5061  0.5521
 3665SOL    HW122631   4.706   2.050   8.018  0.8264  1.1942  0.0278
 3665SOL    HW222632   4.724   1.897   8.034 -1.0413  0.6977  0.6658
 3666SOL     OW22633   3.533   4.581   5.340  0.2150 -0.4363  0.2402
 3666SOL    HW122634   3.547   4.614   5.428  1.0098  2.6186 -1.0259
 3666SOL    HW222635   3.623   4.555   5.318  0.9732  0.0640  2.7972
 3667SOL     OW22636   3.310   2.796   7.696 -0.0640  0.3627 -0.1109
 3667SOL    HW122637   3.221   2.768   7.676  0.7600 -1.7526 -0.8488
 3667SOL    HW222638   3.326   2.858   7.626  1.2300  0.9246  0.6868
 3668SOL     OW22639   4.225   0.660   9.126  0.0686 -0.3590 -0.5359
 3668SOL    HW122640   4.212   0.740   9.075  0.7275  1.6486  2.4622
 3668SOL    HW222641   4.235   0.596   9.055  1.2411 -1.6665  0.8095
 3669SOL     OW22642   1.217   4.127   3.544 -0.6798 -0.2255 -0.1306
 3669SOL    HW122643   1.243   4.142   3.453 -1.3083 -0.0492 -0.2849
 3669SOL    HW222644   1.294   4.077   3.569 -1.9509 -0.0476  4.0973
 3670SOL     OW22645   2.207   0.023   3.108 -0.1967 -0.4482  0.1124
 3670SOL    HW122646   2.137   0.059   3.054 -1.2950  0.2752  2.0148
 3670SOL    HW222647   2.237   0.106   3.145 -2.5761  0.9861 -1.1040
 3671SOL     OW22648   0.154   0.070   3.037  0.2941 -0.0997 -0.0588
 3671SOL    HW122649   0.080   0.076   3.097  1.5202 -3.2909  1.7446
 3671SOL    HW222650   0.113   0.047   2.954 -0.1759  0.0839  0.1222
 3672SOL     OW22651   2.021   0.586   5.341 -0.0490  0.5894  0.5002
 3672SOL    HW122652   1.977   0.657   5.293  0.7023  0.5830 -0.2051
 3672SOL    HW222653   1.958   0.516   5.324  0.8595  0.3025 -1.7115
 3673SOL     OW22654   1.908   3.720  12.276  0.5609  0.5804  0.4373
 3673SOL    HW122655   1.976   3.713  12.342  2.1013 -0.4392 -1.2675
 3673SOL    HW222656   1.853   3.780  12.327 -1.8959  0.1462 -1.6588
 3674SOL     OW22657   3.196   2.548  12.566  0.1418  0.1430  0.8522
 3674SOL    HW122658   3.109   2.589  12.560  0.6378  0.9137 -1.0288
 3674SOL    HW222659   3.238   2.607  12.504 -2.1016  1.2483  0.3514
 3675SOL     OW22660   4.242   0.969   9.013 -0.1254  0.2233 -0.1076
 3675SOL    HW122661   4.197   0.965   9.097  1.0488  1.8457  0.6034
 3675SOL    HW222662   4.191   1.040   8.975 -1.1066 -0.6845 -0.4615
 3676SOL     OW22663   3.754   1.471   6.919  0.4924 -0.8765 -0.1085
 3676SOL    HW122664   3.719   1.551   6.881  0.1951  0.3057  2.6263
 3676SOL    HW222665   3.735   1.475   7.013 -0.7958  0.5169 -0.4382
 3677SOL     OW22666   4.049   2.541   1.447  0.3569 -0.7738 -0.1020
 3677SOL    HW122667   4.138   2.551   1.413  1.9890  0.1663  4.3581
 3677SOL    HW222668   4.050   2.451   1.480 -0.9507 -0.9117 -0.4161
 3678SOL     OW22669   3.435   4.089   5.298  0.1305  0.5144 -0.5149
 3678SOL    HW122670   3.460   3.999   5.316 -0.5333  0.4957  0.3480
 3678SOL    HW222671   3.435   4.131   5.385 -0.2331  0.1519 -0.3380
 3679SOL     OW22672   4.724   1.459   8.354 -0.2657 -0.1740  0.5176
 3679SOL    HW122673   0.074   1.478   8.313 -0.2264  2.3513  1.7466
 3679SOL    HW222674   0.007   1.386   8.413 -0.0360 -0.6552 -0.1511
 3680SOL     OW22675   4.682   2.951  11.665  0.1604 -0.0627 -0.0054
 3680SOL    HW122676   0.037   2.920  11.668  0.0209 -0.5854 -1.2648
 3680SOL    HW222677   4.659   2.971  11.756  0.0498  0.9292 -0.2584
 3681SOL     OW22678   3.802   0.434   5.182  0.2047  0.0136  0.4182
 3681SOL    HW122679   3.842   0.484   5.111  0.6514  1.7454  1.9030
 3681SOL    HW222680   3.846   0.350   5.165  0.8174  0.8664 -2.1462
 3682SOL     OW22681   0.921   0.213  15.148 -0.1052  0.0615  0.1335
 3682SOL    HW122682   0.867   0.179  15.219 -0.7847  0.1459 -0.3439
 3682SOL    HW222683   0.855   0.260  15.097  1.6146  1.0562 -1.1521
 3683SOL     OW22684   2.880   1.711   2.139  0.2878 -0.3102 -0.0864
 3683SOL    HW122685   2.881   1.698   2.234 -0.1689  0.4417  0.0148
 3683SOL    HW222686   2.959   1.765   2.131 -0.6665  1.0941  0.1557
 3684SOL     OW22687   4.544   2.745   5.795 -0.7472  0.2026 -0.1156
 3684SOL    HW122688   4.522   2.689   5.870  2.7773  0.1787  0.9233
 3684SOL    HW222689   4.460   2.757   5.751 -0.1046  2.5742 -0.7016
 3685SOL     OW22690   1.953   3.355   4.364  0.0865 -0.0526  0.0669
 3685SOL    HW122691   2.019   3.352   4.295  0.3390  2.4929  0.2211
 3685SOL    HW222692   1.889   3.409   4.318 -1.8663 -1.1378  1.4650
 3686SOL     OW22693   0.514   2.837   2.324  0.4905 -0.5158  0.0720
 3686SOL    HW122694   0.533   2.767   2.261 -1.4925 -0.2822 -0.7868
 3686SOL    HW222695   0.575   2.908   2.310  0.1847 -0.3110 -0.2210
 3687SOL     OW22696   2.566   3.329   1.249 -0.1440  0.3509  0.0339
 3687SOL    HW122697   2.591   3.273   1.322 -0.2316 -1.0915 -1.0455
 3687SOL    HW222698   2.577   3.419   1.280  0.0547  1.7436 -3.9806
 3688SOL     OW22699   3.797   0.850   4.054 -0.0386  0.2944 -0.1626
 3688SOL    HW122700   3.817   0.828   4.145 -2.3841 -1.0356  0.0236
 3688SOL    HW222701   3.704   0.839   4.034 -0.5742  2.2810  1.1660
 3689SOL     OW22702   2.239   3.667   4.513  0.2805  0.1263  0.4391
 3689SOL    HW122703   2.281   3.704   4.590 -0.7128 -0.1058  1.0916
 3689SOL    HW222704   2.207   3.582   4.545 -0.1078 -0.3540 -1.2346
 3690SOL     OW22705   1.381   4.208   6.302 -0.7239  0.3356 -0.0425
 3690SOL    HW122706   1.348   4.275   6.362  1.1756 -0.3454  1.7563
 3690SOL    HW222707   1.306   4.148   6.294 -0.9151  0.6808 -0.8104
 3691SOL     OW22708   0.201   4.671   2.606  0.0356  0.1007  0.1464
 3691SOL    HW122709   0.157   4.593   2.572  0.5829  0.1377 -0.6425
 3691SOL    HW222710   0.148   4.697   2.681 -0.6442 -0.8706  0.0142
 3692SOL     OW22711   1.327   3.197   8.159 -0.4485  1.0677 -0.0962
 3692SOL    HW122712   1.306   3.192   8.252  2.0268  1.7262  0.4909
 3692SOL    HW222713   1.422   3.198   8.170 -0.5648 -0.9162  1.0175
 3693SOL     OW22714   1.655   4.322  10.706 -0.3689 -0.2731 -0.6866
 3693SOL    HW122715   1.596   4.397  10.693  1.1526  0.9096 -0.6704
 3693SOL    HW222716   1.617   4.256  10.648  1.2803 -1.0534 -0.8613
 3694SOL     OW22717   0.999   4.067   1.838  0.2436  0.2343 -0.7736
 3694SOL    HW122718   0.920   4.036   1.881 -0.0653  0.8369 -0.9062
 3694SOL    HW222719   1.043   3.983   1.823 -1.9920 -1.2271  0.9088
 3695SOL     OW22720   3.374   4.199   8.406  0.6899 -0.6648  0.2436
 3695SOL    HW122721   3.389   4.183   8.499  0.8475 -1.0184  0.1556
 3695SOL    HW222722   3.443   4.149   8.362  0.4214 -1.3871  0.6525
 3696SOL     OW22723   0.747   2.074   7.400 -0.1778  0.3299 -0.0810
 3696SOL    HW122724   0.695   2.009   7.353 -0.6343  0.6455 -0.0062
 3696SOL    HW222725   0.700   2.074   7.484  0.1400  1.6986  0.0881
 3697SOL     OW22726   1.755   4.246   8.748  0.2633  0.1689  0.2249
 3697SOL    HW122727   1.737   4.338   8.765 -2.7149 -0.5940  1.1913
 3697SOL    HW222728   1.851   4.249   8.744  0.3036 -0.9444  0.3872
 3698SOL     OW22729   0.534   2.869  14.873  0.2683  0.2582 -0.0527
 3698SOL    HW122730   0.521   2.964  14.878 -1.9724  0.0637 -2.6634
 3698SOL    HW222731   0.623   2.868  14.838 -0.0489  0.7163 -0.8739
 3699SOL     OW22732   1.163   0.648  13.772  0.9272  0.1426 -0.3100
 3699SOL    HW122733   1.222   0.702  13.825 -0.0707  1.1912 -0.2748
 3699SOL    HW222734   1.085   0.698  13.748 -1.5034 -3.3752  0.2857
 3700SOL     OW22735   3.354   0.921   4.759  0.5187  0.0835 -0.3643
 3700SOL    HW122736   3.294   0.993   4.783 -1.1876 -0.1544 -3.8347
 3700SOL    HW222737   3.432   0.968   4.730  0.7739  0.6402  1.2265
 3701SOL     OW22738   4.043   2.654   2.810 -0.6553 -0.1686 -0.2430
 3701SOL    HW122739   4.009   2.735   2.848  1.0002 -0.4591  1.8395
 3701SOL    HW222740   4.127   2.687   2.778 -1.5411  2.7620  0.4330
 3702SOL     OW22741   1.961   1.315   2.802 -0.0506 -0.0871  0.3953
 3702SOL    HW122742   2.048   1.293   2.835  0.4967  1.3441 -0.1224
 3702SOL    HW222743   1.989   1.394   2.756 -2.8076  1.1008  0.7563
 3703SOL     OW22744   3.914   2.132  16.348 -0.1450  0.5661  0.1521
 3703SOL    HW122745   3.849   2.105  16.412  2.5260 -3.8080  1.0428
 3703SOL    HW222746   3.898   2.071  16.275  0.0580 -2.6459  2.8091
 3704SOL     OW22747   1.962   2.533   7.487  0.1736 -0.3941 -0.2072
 3704SOL    HW122748   2.036   2.573   7.441  1.8078 -0.6958  2.1296
 3704SOL    HW222749   1.981   2.439   7.484 -0.2652 -0.5581  2.5426
 3705SOL     OW22750   0.593   0.164  17.730 -0.2964  0.3994  0.4074
 3705SOL    HW122751   0.660   0.104  17.697 -0.0608  1.2256 -0.6412
 3705SOL    HW222752   0.562   0.111   0.064 -0.8438 -2.0253 -1.5696
 3706SOL     OW22753   1.618   0.826   6.210  0.3308  0.0666  0.0484
 3706SOL    HW122754   1.634   0.907   6.162  1.4403 -1.0201 -1.4284
 3706SOL    HW222755   1.683   0.826   6.280 -1.2716  1.8035  1.5135
 3707SOL     OW22756   3.160   1.470   3.354  0.0586  0.1115  0.0728
 3707SOL    HW122757   3.145   1.443   3.264  0.1088 -1.0183  0.3993
 3707SOL    HW222758   3.206   1.397   3.394  0.3191  0.4107  0.3245
 3708SOL     OW22759   3.523   2.786  12.983 -0.6672  0.0588  0.1675
 3708SOL    HW122760   3.488   2.742  12.905  2.4488  2.1500 -2.3744
 3708SOL    HW222761   3.504   2.715  13.045  0.1839  0.9824  1.4802
 3709SOL     OW22762   0.657   3.451  16.152  0.2781 -0.4275  0.0210
 3709SOL    HW122763   0.606   3.399  16.215  0.7547 -1.3306 -0.3468
 3709SOL    HW222764   0.594   3.442  16.080 -0.2423  1.2155  0.2598
 3710SOL     OW22765   1.273   3.761  11.797 -0.4267 -0.3771 -0.1121
 3710SOL    HW122766   1.299   3.836  11.745  2.0352 -1.1941 -0.0624
 3710SOL    HW222767   1.195   3.792  11.842 -0.4806  1.4343 -1.4692
 3711SOL     OW22768   2.849   3.070   8.914  0.1032 -0.3505  0.0662
 3711SOL    HW122769   2.839   2.996   8.854  0.1876 -1.1360  1.0312
 3711SOL    HW222770   2.769   3.119   8.895 -0.7912 -2.4560 -1.5665
 3712SOL     OW22771   1.907   1.982  16.990  0.3864  0.0592 -1.5992
 3712SOL    HW122772   1.811   1.978  16.995  0.5048  0.8569  1.6677
 3712SOL    HW222773   1.919   2.077  16.983 -3.2372  0.8514  2.7116
 3713SOL     OW22774   2.905   3.564   2.664 -0.0298 -0.1581 -0.3211
 3713SOL    HW122775   2.990   3.522   2.677 -0.2052 -0.8779 -1.5019
 3713SOL    HW222776   2.905   3.574   2.568  1.7109  1.3381 -0.1857
 3714SOL     OW22777   2.650   2.913  10.482 -0.3439  0.0772  0.2855
 3714SOL    HW122778   2.711   2.987  10.489  1.0121 -1.1922  1.8954
 3714SOL    HW222779   2.620   2.925  10.392  1.4430 -0.7977 -0.4163
 3715SOL     OW22780   0.258   4.416   0.803 -0.0821 -0.1377 -0.0165
 3715SOL    HW122781   0.189   4.469   0.844  1.9040  1.3625  1.4116
 3715SOL    HW222782   0.285   4.371   0.883 -0.6523 -0.9616 -0.2973
 3716SOL     OW22783   1.268   1.368  10.305 -0.2438  0.4289 -0.0477
 3716SOL    HW122784   1.318   1.287  10.301 -0.9732 -0.1259  2.2007
 3716SOL    HW222785   1.306   1.430  10.243  1.3466  0.1248  0.6168
 3717SOL     OW22786   2.124   1.863  10.380  0.1738  0.1131 -0.2603
 3717SOL    HW122787   2.093   1.860  10.289  0.8469 -0.6897 -0.4686
 3717SOL    HW222788   2.217   1.851  10.359  0.3076  2.0756 -0.7886
 3718SOL     OW22789   1.830   0.298   6.495 -0.0874  0.3550 -0.4997
 3718SOL    HW122790   1.764   0.229   6.484 -0.0571  0.2149  0.1881
 3718SOL    HW222791   1.900   0.267   6.552  0.2924  0.2599 -1.0239
 3719SOL     OW22792   3.853   3.325   4.985  0.2633  0.2835 -0.1726
 3719SOL    HW122793   3.922   3.280   5.033 -0.6493 -1.3252 -0.3438
 3719SOL    HW222794   3.771   3.288   5.018  1.1580 -0.0886  1.5834
 3720SOL     OW22795   3.168   3.872   8.356  0.2457  0.4498 -0.1354
 3720SOL    HW122796   3.075   3.850   8.362  0.2522  0.5476  0.3931
 3720SOL    HW222797   3.159   3.961   8.323 -1.0923  0.3671 -0.0215
 3721SOL     OW22798   4.584   4.178   4.095 -0.0280 -0.5440 -0.1447
 3721SOL    HW122799   4.591   4.270   4.118 -1.4557 -0.3991 -0.2725
 3721SOL    HW222800   4.535   4.156   4.175 -1.3512 -2.1373 -1.3900
 3722SOL     OW22801   0.408   2.263  13.107  0.9554  0.3716 -0.5934
 3722SOL    HW122802   0.359   2.270  13.189 -1.5397 -0.5436 -2.0177
 3722SOL    HW222803   0.352   2.319  13.053  1.2717  0.6352 -0.6500
 3723SOL     OW22804   2.012   3.495   1.737  0.0047  0.1964  0.1825
 3723SOL    HW122805   1.995   3.546   1.658 -0.5667  1.5413  1.1888
 3723SOL    HW222806   1.960   3.416   1.720  1.8315 -0.8229 -0.6775
 3724SOL     OW22807   4.628   2.196   8.176  0.0103  0.2982  0.3951
 3724SOL    HW122808   4.619   2.223   8.267 -0.3826  0.2487  0.3736
 3724SOL    HW222809   4.539   2.196   8.139 -0.5535 -0.9468  1.7506
 3725SOL     OW22810   3.010   3.065  16.604 -0.0238 -0.1330 -0.2827
 3725SOL    HW122811   2.946   3.137  16.606  0.3141  0.1504  0.3579
 3725SOL    HW222812   3.088   3.107  16.639 -0.5196  0.7300 -0.2125
 3726SOL     OW22813   0.061   4.664   3.343  0.2427 -0.2517  0.1946
 3726SOL    HW122814   0.137   4.707   3.382 -0.1914  2.6363 -2.1964
 3726SOL    HW222815   0.011   4.645   3.423 -1.9055 -0.7646 -1.2683
 3727SOL     OW22816   1.876   2.138   5.462  0.0297 -0.8271  0.3369
 3727SOL    HW122817   1.937   2.193   5.413  0.9237 -2.1571 -0.0483
 3727SOL    HW222818   1.914   2.154   5.549 -1.6390 -1.5778  1.2040
 3728SOL     OW22819   2.391   2.709   7.792 -0.2725 -0.2254  0.0624
 3728SOL    HW122820   2.450   2.741   7.724 -0.7781 -2.4667 -1.4327
 3728SOL    HW222821   2.384   2.617   7.768 -1.8230 -0.4932  1.5054
 3729SOL     OW22822   4.344   4.147  15.623 -0.0631  0.0492  0.0085
 3729SOL    HW122823   4.380   4.230  15.655  2.6279 -0.8859 -0.6541
 3729SOL    HW222824   4.388   4.143  15.538 -0.2456  0.6708 -0.1134
 3730SOL     OW22825   2.837   3.747   0.555  0.2597  0.3854 -0.3378
 3730SOL    HW122826   2.807   3.664   0.517 -0.1087  1.0267 -1.4415
 3730SOL    HW222827   2.926   3.741   0.519 -0.5412 -2.2670 -1.8821
 3731SOL     OW22828   1.584   3.312   6.192 -0.0843  0.7372  0.0651
 3731SOL    HW122829   1.512   3.321   6.131 -1.7447 -1.7080  1.6724
 3731SOL    HW222830   1.649   3.292   6.125 -0.0425  0.7474  0.1020
 3732SOL     OW22831   1.731   4.512   8.829 -0.0522 -0.0278  0.7186
 3732SOL    HW122832   1.754   4.585   8.885  0.8257  0.1199  0.1665
 3732SOL    HW222833   1.671   4.552   8.766  1.6358 -0.5618 -1.2414
 3733SOL     OW22834   4.471   2.549  15.882  0.1566 -0.6136 -0.7463
 3733SOL    HW122835   4.461   2.520  15.792 -1.7677  0.2350 -0.8060
 3733SOL    HW222836   4.430   2.478  15.932 -0.8208  0.4787 -0.0068
 3734SOL     OW22837   4.017   0.320   5.042  0.2008  0.3216 -0.2901
 3734SOL    HW122838   3.978   0.320   4.954  0.4223 -0.5670 -0.3892
 3734SOL    HW222839   4.099   0.369   5.033  0.4713 -0.2363 -0.8810
 3735SOL     OW22840   0.107   2.898   4.045  0.2307  0.0057 -0.9079
 3735SOL    HW122841   0.130   2.876   3.955  1.0779 -2.1392 -0.1752
 3735SOL    HW222842   0.020   2.858   4.042  0.8901 -1.1768 -3.9979
 3736SOL     OW22843   0.961   0.649   0.768 -0.3015  0.2451  0.0788
 3736SOL    HW122844   0.890   0.708   0.741  0.0883  0.1961 -1.0621
 3736SOL    HW222845   1.024   0.721   0.771  0.9352 -0.6918 -3.3621
 3737SOL     OW22846   4.411   1.217  13.603  0.0011  0.2657  0.1997
 3737SOL    HW122847   4.466   1.230  13.526  0.3977  0.3203  0.4907
 3737SOL    HW222848   4.479   1.231  13.669 -1.0600  2.7178  0.7938
 3738SOL     OW22849   3.269   1.115   5.632 -0.5660 -0.1146  0.1089
 3738SOL    HW122850   3.306   1.027   5.630 -2.0009 -0.6790 -1.7257
 3738SOL    HW222851   3.238   1.129   5.542  0.2138  2.7656  0.2721
 3739SOL     OW22852   4.109   2.163  11.880 -0.1192  0.9132 -0.3489
 3739SOL    HW122853   4.028   2.124  11.846 -1.9181  2.2437  2.4548
 3739SOL    HW222854   4.064   2.226  11.937  1.5505  0.6977  1.1851
 3740SOL     OW22855   2.922   0.522  10.195  0.1917  0.0421  0.2572
 3740SOL    HW122856   2.980   0.554  10.264 -0.8483  2.1694  0.1528
 3740SOL    HW222857   2.884   0.603  10.161  0.7434  1.0772  2.0703
 3741SOL     OW22858   3.877   4.725  10.067  0.4644  0.1857  0.5333
 3741SOL    HW122859   3.874   4.644  10.118 -1.7037 -0.5698 -0.7649
 3741SOL    HW222860   3.967   0.018  10.082  0.9084 -0.1670 -1.3909
 3742SOL     OW22861   0.839   3.442   0.846  0.4960  0.5843 -0.3726
 3742SOL    HW122862   0.905   3.391   0.799  1.7808 -0.5147  2.6022
 3742SOL    HW222863   0.897   3.517   0.856  1.8405 -0.5695  0.4945
 3743SOL     OW22864   2.081   2.924   6.903  0.0624  0.2335  0.5813
 3743SOL    HW122865   1.998   2.958   6.868 -0.9306 -4.0422 -1.1858
 3743SOL    HW222866   2.122   3.010   6.900  3.0389 -1.2713 -0.7888
 3744SOL     OW22867   3.954   3.794   6.072  0.4361 -0.1449  0.8259
 3744SOL    HW122868   4.028   3.791   6.132  1.4283 -0.7083 -0.4325
 3744SOL    HW222869   3.986   3.728   6.011  2.4900  1.6371  0.0101
 3745SOL     OW22870   0.691   2.283   2.665  0.0442 -0.1535 -0.1549
 3745SOL    HW122871   0.663   2.339   2.738 -1.4006 -2.3145  0.9566
 3745SOL    HW222872   0.787   2.288   2.670 -0.1117  0.9495  1.7678
 3746SOL     OW22873   1.584   3.433  13.091  0.2978  0.3036 -0.4032
 3746SOL    HW122874   1.615   3.497  13.154  0.9111 -1.1547  0.7805
 3746SOL    HW222875   1.668   3.395  13.066  0.4372  0.6764 -0.4958
 3747SOL     OW22876   1.365   1.971   5.936  0.5722 -0.0704 -0.4307
 3747SOL    HW122877   1.306   2.037   5.901 -0.2083  1.1385  3.1440
 3747SOL    HW222878   1.442   2.023   5.958  1.7026 -2.6762  1.8774
 3748SOL     OW22879   2.796   4.640  17.533  0.2706 -0.3536  0.1647
 3748SOL    HW122880   2.871   4.602  17.488  1.3082  1.7068  0.1977
 3748SOL    HW222881   2.823   4.714  17.586  1.3140 -1.2695  0.9067
 3749SOL     OW22882   0.239   1.383   9.876 -0.0447  0.1762 -0.4458
 3749SOL    HW122883   0.152   1.383   9.917 -0.7682  1.3371 -1.9753
 3749SOL    HW222884   0.288   1.311   9.917 -1.6188 -0.6379  0.0311
 3750SOL     OW22885   0.277   0.604   4.220  0.3228  0.2235 -0.2674
 3750SOL    HW122886   0.290   0.567   4.133 -0.2562  0.0601 -0.2902
 3750SOL    HW222887   0.285   0.697   4.197  0.0134  0.7112  1.5597
 3751SOL     OW22888   1.254   2.501   9.744 -0.1648  0.1894  0.1332
 3751SOL    HW122889   1.293   2.417   9.770 -0.5623  0.5489  1.8213
 3751SOL    HW222890   1.181   2.470   9.690  0.0046  1.4366 -0.8119
 3752SOL     OW22891   0.783   0.950   1.708  0.0211 -0.4082 -0.6523
 3752SOL    HW122892   0.801   1.036   1.746 -0.2085 -0.6400 -0.0103
 3752SOL    HW222893   0.701   0.931   1.754  0.4592 -0.7430 -0.0072
 3753SOL     OW22894   0.787   1.756   8.045 -0.8347 -0.0728 -0.4210
 3753SOL    HW122895   0.862   1.789   7.995 -0.1134  0.0245  0.7104
 3753SOL    HW222896   0.755   1.687   7.988  1.4249 -1.1324 -0.4114
 3754SOL     OW22897   4.681   2.394  11.905  0.2780  0.2125  0.0696
 3754SOL    HW122898   0.001   2.456  11.857 -0.5819 -0.9481 -2.4092
 3754SOL    HW222899   0.001   2.373  11.980 -0.5146 -1.2806  0.2267
 3755SOL     OW22900   1.591   4.625   2.901  0.6665  0.7910 -0.2456
 3755SOL    HW122901   1.519   4.667   2.854  1.5905 -0.1252 -2.5274
 3755SOL    HW222902   1.620   4.698   2.954 -0.4764 -0.2932  1.8688
 3756SOL     OW22903   2.282   3.101   3.223  0.3061 -0.1211 -0.3583
 3756SOL    HW122904   2.281   3.086   3.318  2.7922  0.1451 -0.2941
 3756SOL    HW222905   2.320   3.189   3.229  2.6257 -1.1946  0.2745
 3757SOL     OW22906   3.961   4.132   1.259 -0.6946  0.5168  0.5187
 3757SOL    HW122907   4.044   4.160   1.297  0.4011 -0.5613 -1.0719
 3757SOL    HW222908   3.905   4.206   1.280 -0.6613  0.9847 -1.0158
 3758SOL     OW22909   4.088   0.634   4.865 -0.0245  0.4707  0.1814
 3758SOL    HW122910   4.171   0.587   4.871  1.0287  2.4067  0.5925
 3758SOL    HW222911   4.091   0.696   4.937 -0.0447  1.4019 -0.6283
 3759SOL     OW22912   4.287   2.945   3.604  0.2930 -0.2410  0.4242
 3759SOL    HW122913   4.262   2.910   3.690  1.2610 -0.9879  0.3988
 3759SOL    HW222914   4.318   3.027   3.644  0.4948  0.3582 -0.9739
 3760SOL     OW22915   2.718   1.808  15.357 -0.2519  0.2560  0.5271
 3760SOL    HW122916   2.746   1.894  15.388  1.0733  0.8049 -2.2397
 3760SOL    HW222917   2.801   1.766  15.380  0.1516  1.1420  0.6928
 3761SOL     OW22918   0.607   0.633   8.459  0.1350 -0.5258 -0.7326
 3761SOL    HW122919   0.528   0.580   8.469  0.5426 -1.4225 -2.3015
 3761SOL    HW222920   0.586   0.709   8.513  0.1108 -0.5711 -0.6778
 3762SOL     OW22921   4.132   2.862  15.996 -0.2562  0.0982  0.1224
 3762SOL    HW122922   4.117   2.786  16.052  0.4760 -0.3421 -0.2799
 3762SOL    HW222923   4.145   2.814  15.915  0.7779  0.1494  0.2670
 3763SOL     OW22924   1.721   3.954  11.371  0.2554 -0.2511 -0.1267
 3763SOL    HW122925   1.758   3.951  11.460 -0.5413 -0.9562  0.1829
 3763SOL    HW222926   1.681   3.870  11.352 -0.3523 -0.0373  0.2014
 3764SOL     OW22927   2.255   3.556   3.466  0.2423 -0.4550 -0.9376
 3764SOL    HW122928   2.174   3.518   3.430  1.4117 -1.6363 -2.2988
 3764SOL    HW222929   2.210   3.591   3.543  1.5262 -1.5341  0.3180
 3765SOL     OW22930   3.646   4.104   4.643  0.4451  0.1178  0.5530
 3765SOL    HW122931   3.611   4.017   4.660  0.9763 -0.1805  0.1460
 3765SOL    HW222932   3.568   4.158   4.653 -1.2306 -1.7997 -2.2142
 3766SOL     OW22933   1.566   0.435   0.130  0.2108  0.0738 -0.5969
 3766SOL    HW122934   1.594   0.526   0.120  2.3647 -0.4184  0.7489
 3766SOL    HW222935   1.519   0.434   0.214 -0.4603 -0.0955 -0.9781
 3767SOL     OW22936   4.722   2.328   6.298 -0.0052 -0.4482 -0.2029
 3767SOL    HW122937   4.655   2.263   6.320 -0.2331 -0.7371 -1.7854
 3767SOL    HW222938   4.698   2.348   6.208  1.0953  1.0750 -0.1659
 3768SOL     OW22939   0.261   1.826   4.759 -0.6524 -0.3325  0.3735
 3768SOL    HW122940   0.205   1.781   4.695 -0.9622  0.9706 -0.2703
 3768SOL    HW222941   0.350   1.826   4.721 -0.2509  0.4999  1.3052
 3769SOL     OW22942   1.131   1.431  10.010 -0.4872 -0.3036 -0.2720
 3769SOL    HW122943   1.221   1.454  10.034 -1.1276  1.2165  0.6738
 3769SOL    HW222944   1.086   1.488  10.072  0.0901 -0.4381  0.2666
 3770SOL     OW22945   1.057   4.662   6.042  0.2170 -0.0483 -0.1636
 3770SOL    HW122946   1.030   4.574   6.015 -0.8172  0.2682 -0.1515
 3770SOL    HW222947   1.119   4.631   6.108 -1.0711  1.3391  1.6905
 3771SOL     OW22948   0.774   4.527   9.412  0.0924  0.2144  0.3444
 3771SOL    HW122949   0.857   4.523   9.458  1.9950  1.7171 -3.0079
 3771SOL    HW222950   0.744   4.604   9.460 -0.6882 -1.2347  2.2139
 3772SOL     OW22951   2.816   3.052   5.966  0.9364 -0.3440  0.1613
 3772SOL    HW122952   2.855   3.134   5.997  0.3390  1.6566 -4.3911
 3772SOL    HW222953   2.725   3.065   5.992  0.1346 -3.0967 -1.2062
 3773SOL     OW22954   0.968   3.674   5.608 -0.1048  0.3966  0.0643
 3773SOL    HW122955   0.995   3.670   5.700  1.3344  1.8373 -0.2937
 3773SOL    HW222956   1.049   3.712   5.576 -0.2539  2.2261  1.8756
 3774SOL     OW22957   0.923   3.463  14.085 -0.0590 -0.1135  0.0591
 3774SOL    HW122958   0.880   3.383  14.113  1.9478 -1.5025 -0.8871
 3774SOL    HW222959   1.017   3.458  14.103  0.0329 -0.3581 -0.4965
 3775SOL     OW22960   0.660   2.050   1.965  0.5264 -0.4238 -0.6350
 3775SOL    HW122961   0.625   1.966   1.936 -0.6938 -0.4681  0.9742
 3775SOL    HW222962   0.584   2.076   2.017 -0.6470 -1.5215 -1.8048
 3776SOL     OW22963   3.605   0.549   8.584  0.3018  0.4562 -0.0731
 3776SOL    HW122964   3.616   0.552   8.679 -2.1192  1.6027  0.1627
 3776SOL    HW222965   3.584   0.455   8.579 -0.2739  0.7186 -2.7101
 3777SOL     OW22966   4.409   0.876   4.284 -0.5409 -0.5029 -0.0086
 3777SOL    HW122967   4.347   0.851   4.352  0.0623  1.0915  1.1266
 3777SOL    HW222968   4.465   0.799   4.282  1.6682  1.1517 -1.5912
 3778SOL     OW22969   1.007   3.571   3.102  0.2272  0.0876  0.1702
 3778SOL    HW122970   1.025   3.504   3.167 -2.1952 -0.8483 -0.1151
 3778SOL    HW222971   1.074   3.637   3.123  0.3918  0.3814 -1.2827
 3779SOL     OW22972   2.254   4.000   4.715  0.3842 -0.6236 -0.3743
 3779SOL    HW122973   2.317   4.032   4.650 -0.4526  1.8704  0.0403
 3779SOL    HW222974   2.315   3.972   4.783  1.9830  2.0505 -0.7029
 3780SOL     OW22975   1.083   3.010   1.636 -0.0890 -0.1919 -0.2335
 3780SOL    HW122976   1.173   2.986   1.660 -1.0733 -3.0632  0.5828
 3780SOL    HW222977   1.058   3.086   1.688  0.4547  1.0408 -1.8016
 3781SOL     OW22978   2.721   3.098   1.464  0.2658 -0.0258  0.0803
 3781SOL    HW122979   2.786   3.054   1.519  0.5075  0.1898 -0.0381
 3781SOL    HW222980   2.744   3.081   1.373 -2.4710  0.8456 -0.7727
 3782SOL     OW22981   2.908   1.246   9.420  0.5595 -0.0667 -0.1720
 3782SOL    HW122982   2.836   1.241   9.357 -0.7837 -1.0619  1.4289
 3782SOL    HW222983   2.950   1.329   9.395 -0.4252  0.6937  0.7207
 3783SOL     OW22984   4.228   1.207   8.016  0.1255 -0.3411  0.1423
 3783SOL    HW122985   4.132   1.208   8.022  0.1847 -0.2192  1.0810
 3783SOL    HW222986   4.237   1.240   7.927  0.8906 -0.1075  0.3093
 3784SOL     OW22987   0.016   3.641   6.394  0.2509 -0.5011 -0.6635
 3784SOL    HW122988   4.735   3.732   6.419 -0.0087 -1.2346  1.8320
 3784SOL    HW222989   4.684   3.627   6.328 -0.0974  0.4377 -0.5112
 3785SOL     OW22990   0.888   1.633  10.394 -0.2909 -0.4696  0.0444
 3785SOL    HW122991   0.836   1.705  10.430  1.2520  0.0698  1.1752
 3785SOL    HW222992   0.815   1.591  10.349  0.6168 -1.7000 -0.2658
 3786SOL     OW22993   1.847   1.901   3.079 -0.6720  0.1965 -0.0334
 3786SOL    HW122994   1.853   1.821   3.026  1.9631  0.1177  0.4129
 3786SOL    HW222995   1.754   1.904   3.104 -1.0362  1.3345 -1.5488
 3787SOL     OW22996   3.059   4.115   7.518 -0.2706  0.2222 -0.6155
 3787SOL    HW122997   3.101   4.113   7.432 -0.9020  2.5973 -0.9872
 3787SOL    HW222998   3.025   4.205   7.519  0.5379  0.5185  2.0641
 3788SOL     OW22999   1.335   2.963   2.802 -0.8307 -0.0885 -0.4404
 3788SOL    HW123000   1.418   2.967   2.850 -0.1157  0.9936 -1.7264
 3788SOL    HW223001   1.275   2.969   2.876 -1.3290 -2.1363 -0.6773
 3789SOL     OW23002   0.718   3.002   2.274  0.5243  0.3138  0.4580
 3789SOL    HW123003   0.762   3.086   2.262 -0.3171  0.2957 -2.7754
 3789SOL    HW223004   0.793   2.953   2.241 -0.0230 -0.5197  0.4355
 3790SOL     OW23005   1.952   0.683   8.460 -0.2759  0.2895  0.4466
 3790SOL    HW123006   2.004   0.690   8.379 -0.2970 -2.1851  0.2208
 3790SOL    HW223007   2.012   0.637   8.520 -1.6467 -1.7115  0.2885
 3791SOL     OW23008   0.798   2.689   3.511 -0.2373  0.1921  0.0782
 3791SOL    HW123009   0.775   2.611   3.563  0.0682  0.1967  0.2218
 3791SOL    HW223010   0.835   2.744   3.581 -0.1178 -0.9349  0.9138
 3792SOL     OW23011   4.349   0.980   9.636 -0.0135  0.0503  0.3498
 3792SOL    HW123012   4.297   0.899   9.640  1.5332 -0.7990  2.8887
 3792SOL    HW223013   4.397   0.976   9.553  0.2512 -3.2288  0.6457
 3793SOL     OW23014   1.093   4.466  14.085  0.1511  0.3588 -0.1683
 3793SOL    HW123015   1.014   4.479  14.033  0.1241  0.5983 -0.0667
 3793SOL    HW223016   1.130   4.395  14.033 -0.5199  0.5544 -0.9071
 3794SOL     OW23017   4.215   1.397   8.456 -0.0390  0.9307  0.0571
 3794SOL    HW123018   4.285   1.385   8.392 -0.8711  1.6480 -0.9930
 3794SOL    HW223019   4.141   1.415   8.398 -0.2573 -0.7325 -0.1803
 3795SOL     OW23020   4.296   1.693   8.728 -0.0048 -0.7075 -0.0445
 3795SOL    HW123021   4.390   1.679   8.733  0.0246 -0.1817  0.9608
 3795SOL    HW223022   4.272   1.688   8.821 -1.3866  0.9346 -0.3092
 3796SOL     OW23023   3.186   3.959   5.513 -0.4217  0.3124  0.2773
 3796SOL    HW123024   3.264   3.983   5.562  1.0028 -1.2936 -1.1863
 3796SOL    HW223025   3.192   3.864   5.510  1.5604  0.5334 -3.1448
 3797SOL     OW23026   0.201   1.789   5.683 -0.0211  0.0454  0.6097
 3797SOL    HW123027   0.145   1.864   5.703 -0.0859 -0.5372  2.5962
 3797SOL    HW223028   0.141   1.715   5.692  0.4414 -0.7084 -2.4169
 3798SOL     OW23029   0.021   1.188   0.343 -0.5261  0.3272  0.0144
 3798SOL    HW123030   4.678   1.142   0.374  1.2970 -2.0335  1.1453
 3798SOL    HW223031   0.070   1.123   0.292 -1.0017 -0.4768  0.5723
 3799SOL     OW23032   0.847   3.278   2.253  0.0685 -0.0838  0.1367
 3799SOL    HW123033   0.897   3.268   2.334 -0.4365 -1.9601  0.2319
 3799SOL    HW223034   0.825   3.371   2.258  1.2114  0.1949  0.0259
 3800SOL     OW23035   0.303   3.397  11.262 -0.4134 -0.0594 -0.3504
 3800SOL    HW123036   0.255   3.479  11.271  1.5600  1.2547 -1.5740
 3800SOL    HW223037   0.382   3.411  11.315 -0.8538  1.0549  0.0194
 3801SOL     OW23038   4.226   3.852   1.262 -0.7478  0.0764 -0.4768
 3801SOL    HW123039   4.160   3.874   1.328  0.1453 -2.5485  1.3112
 3801SOL    HW223040   4.215   3.911   1.188  1.7097 -0.3591 -1.1858
 3802SOL     OW23041   2.812   3.629   9.364 -0.2522 -0.0486  0.4231
 3802SOL    HW123042   2.830   3.713   9.321 -0.3594 -0.7237 -0.9360
 3802SOL    HW223043   2.765   3.587   9.292  1.1834  1.0842 -1.1726
 3803SOL     OW23044   0.928   3.625   4.974 -0.0635  0.2657  0.1993
 3803SOL    HW123045   0.995   3.590   4.917 -0.4870  0.5047 -0.4444
 3803SOL    HW223046   0.855   3.608   4.914 -0.8599  0.3711  1.1334
 3804SOL     OW23047   4.543   0.192   5.697 -0.0692  0.3006 -0.1266
 3804SOL    HW123048   4.601   0.206   5.622  0.5973  2.6901  0.8086
 3804SOL    HW223049   4.534   0.097   5.698 -2.0632  0.4684 -0.6423
 3805SOL     OW23050   2.227   3.632   6.724 -0.4340  0.2988 -0.5334
 3805SOL    HW123051   2.305   3.670   6.764 -1.6608  0.4162  1.7645
 3805SOL    HW223052   2.192   3.701   6.668  0.2861  0.1307 -1.1919
 3806SOL     OW23053   1.984   3.787  13.563 -0.0608  0.1739 -0.2789
 3806SOL    HW123054   1.969   3.697  13.534 -0.3392  0.5459 -1.2852
 3806SOL    HW223055   2.036   3.805  13.485  0.1881  1.5565  0.1978
 3807SOL     OW23056   2.350   2.930   7.969 -0.0115  0.0677  0.8581
 3807SOL    HW123057   2.365   3.003   7.909 -1.8358  0.7505  1.2435
 3807SOL    HW223058   2.371   2.859   7.908 -2.7164 -0.2367  0.3098
 3808SOL     OW23059   1.048   0.255   3.573 -1.2601 -0.0368 -0.1309
 3808SOL    HW123060   1.111   0.213   3.632 -1.1950  0.2859  0.0326
 3808SOL    HW223061   1.109   0.318   3.535 -0.6683 -1.3820 -1.3992
 3809SOL     OW23062   1.077   3.652  15.619  0.5672 -0.0963 -0.2659
 3809SOL    HW123063   1.013   3.720  15.604 -0.4152 -0.9681 -0.0238
 3809SOL    HW223064   1.159   3.684  15.580  1.1757 -2.4624 -0.9905
 3810SOL     OW23065   4.628   1.106   7.889 -0.4349  0.7362 -0.0193
 3810SOL    HW123066   4.608   1.174   7.954  1.4574  1.0892  0.1944
 3810SOL    HW223067   4.587   1.134   7.807 -0.2834  0.0333 -0.3368
 3811SOL     OW23068   0.607   2.266   9.342  0.6532  0.2204 -0.9861
 3811SOL    HW123069   0.676   2.308   9.290 -1.1366 -0.4020 -3.8717
 3811SOL    HW223070   0.534   2.320   9.314 -0.7081 -0.8142  0.5644
 3812SOL     OW23071   0.462   2.046  10.073 -0.1303  0.5527  0.4032
 3812SOL    HW123072   0.399   2.112  10.101 -0.3439 -0.6254  2.6823
 3812SOL    HW223073   0.543   2.093  10.092  1.0767 -1.1583 -0.5617
 3813SOL     OW23074   2.828   0.743   7.153  0.6523 -0.3714 -0.1853
 3813SOL    HW123075   2.888   0.683   7.196  0.8553 -0.8935 -1.2229
 3813SOL    HW223076   2.817   0.687   7.077  0.4234  0.5271 -0.8213
 3814SOL     OW23077   3.942   2.767   8.830  0.4045  0.5506 -0.6790
 3814SOL    HW123078   4.036   2.775   8.811  0.1410  0.3550 -2.0769
 3814SOL    HW223079   3.919   2.716   8.752 -0.7475  2.4699 -1.5979
 3815SOL     OW23080   3.279   3.859   1.567 -0.2169  0.6191 -0.0963
 3815SOL    HW123081   3.355   3.804   1.584  0.4213  1.3690 -0.5562
 3815SOL    HW223082   3.302   3.920   1.497 -0.1084  0.2230 -0.4038
 3816SOL     OW23083   4.315   1.891   0.270 -0.4276 -0.5861  0.7630
 3816SOL    HW123084   4.236   1.847   0.303  0.3924 -2.5540  0.1201
 3816SOL    HW223085   4.291   1.907   0.179 -1.5898 -0.3396  1.1137
 3817SOL     OW23086   1.859   1.855  14.278 -0.0426  0.2933  0.2714
 3817SOL    HW123087   1.868   1.948  14.299 -2.6791  0.8564 -1.0335
 3817SOL    HW223088   1.924   1.809  14.332 -0.3693 -3.2793 -2.4153
 3818SOL     OW23089   3.798   4.440   7.634  0.0870  0.5988  0.5488
 3818SOL    HW123090   3.728   4.505   7.623  0.2060  0.9796  2.0631
 3818SOL    HW223091   3.818   4.455   7.726 -1.6484  0.4613  0.9514
 3819SOL     OW23092   2.635   0.600   9.723  0.1343  0.3395 -0.3417
 3819SOL    HW123093   2.728   0.597   9.746  0.1088  1.2953 -0.1205
 3819SOL    HW223094   2.616   0.506   9.718 -1.3029  0.7147 -1.5431
 3820SOL     OW23095   1.200   1.215   8.668 -0.2449 -0.1296 -0.6985
 3820SOL    HW123096   1.136   1.178   8.729 -0.6711  0.4441 -0.7966
 3820SOL    HW223097   1.149   1.196   8.589  0.8826  1.0200 -1.6951
 3821SOL     OW23098   3.296   0.085   6.740  0.3458  0.1767  0.3108
 3821SOL    HW123099   3.354   0.015   6.711 -1.7841 -1.9593  1.1116
 3821SOL    HW223100   3.320   0.155   6.680 -2.4306  0.4215 -0.5107
 3822SOL     OW23101   0.504   1.923   8.444  0.1040  0.0077  0.2033
 3822SOL    HW123102   0.419   1.946   8.406  0.5713 -2.4223 -2.2879
 3822SOL    HW223103   0.507   1.834   8.410 -0.2039 -0.3491  1.1231
 3823SOL     OW23104   0.191   2.440  14.722  0.5966  0.0810  0.3281
 3823SOL    HW123105   0.175   2.461  14.814 -0.1339 -1.8031  0.6266
 3823SOL    HW223106   0.281   2.471  14.715  0.2876  1.0145  0.5803
 3824SOL     OW23107   3.677   4.464  16.567  0.4305 -0.0051  0.0084
 3824SOL    HW123108   3.587   4.453  16.600  0.6314 -1.2224  0.1275
 3824SOL    HW223109   3.697   4.540  16.622 -0.8322 -0.9399  1.7906
 3825SOL     OW23110   3.636   0.438   9.225 -0.1401 -0.5503  0.0579
 3825SOL    HW123111   3.731   0.448   9.240 -0.2668  1.7438 -0.6344
 3825SOL    HW223112   3.606   0.429   9.316 -0.8289 -0.6072 -0.1808
 3826SOL     OW23113   0.180   1.051  10.149 -0.0564 -0.0528 -0.0213
 3826SOL    HW123114   0.092   1.022  10.127  0.1821  1.0797 -2.4374
 3826SOL    HW223115   0.227   1.039  10.067 -1.2402 -2.3570 -0.3719
 3827SOL     OW23116   4.073   3.703  13.576 -0.3469  0.0724  0.9641
 3827SOL    HW123117   4.154   3.719  13.528 -0.4654 -2.2834 -0.0266
 3827SOL    HW223118   4.070   3.788  13.620  1.6667 -0.8938  2.9661
 3828SOL     OW23119   0.727   4.682   6.702 -0.0265 -0.0929  0.6882
 3828SOL    HW123120   0.770   4.613   6.651  1.1130  1.4177 -0.3722
 3828SOL    HW223121   0.696   4.629   6.775  0.7945 -1.6825 -0.1219
 3829SOL     OW23122   1.481   2.547  17.600  0.7145 -0.3685  0.0964
 3829SOL    HW123123   1.481   2.593  17.516 -0.0566 -0.2337  0.1623
 3829SOL    HW223124   1.391   2.515  17.602  0.9895 -0.9565  2.1236
 3830SOL     OW23125   1.423   1.307  17.240 -0.3770  0.2319 -0.0587
 3830SOL    HW123126   1.391   1.226  17.280 -1.2248 -0.4527 -2.1402
 3830SOL    HW223127   1.466   1.364  17.304  1.6790  0.4625 -1.6171
 3831SOL     OW23128   2.308   3.451   3.910 -0.0076 -0.5839  0.3601
 3831SOL    HW123129   2.247   3.411   3.972 -0.0908  0.2961  0.8518
 3831SOL    HW223130   2.256   3.506   3.851 -0.7979 -0.4633  1.1658
 3832SOL     OW23131   1.115   0.184   7.324  0.0453 -0.8988  0.4099
 3832SOL    HW123132   1.159   0.099   7.325 -3.3296 -2.6502  0.5798
 3832SOL    HW223133   1.124   0.210   7.232 -1.0289  3.4553  1.4898
 3833SOL     OW23134   1.051   3.458   4.488  0.4457 -0.6825 -0.2302
 3833SOL    HW123135   0.998   3.535   4.467  0.3788 -0.2293  1.6023
 3833SOL    HW223136   0.981   3.398   4.514 -1.6177 -0.2549 -4.6715
 3834SOL     OW23137   2.676   3.803   4.584  0.1895  0.2876 -0.0405
 3834SOL    HW123138   2.746   3.816   4.520  0.5955  0.1567  0.3773
 3834SOL    HW223139   2.715   3.748   4.653  1.8681 -0.2393 -1.3867
 3835SOL     OW23140   1.133   2.394   4.341 -0.2791  0.1253  0.9970
 3835SOL    HW123141   1.123   2.340   4.420  0.3812 -2.1126 -0.4547
 3835SOL    HW223142   1.199   2.454   4.377  2.3806 -1.2929 -1.5942
 3836SOL     OW23143   0.992   0.683  15.733 -0.3478  0.5334 -0.3550
 3836SOL    HW123144   1.064   0.746  15.732  0.3050 -0.2145  0.1823
 3836SOL    HW223145   0.977   0.675  15.827 -0.5662 -1.8264 -0.5762
 3837SOL     OW23146   1.423   1.361  12.940 -0.1297  0.4795 -0.3483
 3837SOL    HW123147   1.361   1.289  12.933  0.0622  0.2276  0.4755
 3837SOL    HW223148   1.374   1.441  12.958 -0.0427  0.1162  1.5801
 3838SOL     OW23149   3.213   1.181   8.816 -0.1749 -0.4064 -0.6238
 3838SOL    HW123150   3.139   1.181   8.756 -0.0538  1.3483 -0.7632
 3838SOL    HW223151   3.248   1.268   8.796 -0.6746  0.1637  0.9787
 3839SOL     OW23152   1.970   1.717   6.872  0.4764 -0.0255  0.9326
 3839SOL    HW123153   2.017   1.780   6.817  1.1359  0.6897  2.3034
 3839SOL    HW223154   1.949   1.647   6.811 -1.2926  1.1024  0.2560
 3840SOL     OW23155   3.220   1.428  15.555 -0.2328 -0.8473  0.6219
 3840SOL    HW123156   3.180   1.454  15.638 -0.1688  1.7869 -0.1741
 3840SOL    HW223157   3.159   1.369  15.510 -1.1135  1.5504 -1.3186
 3841SOL     OW23158   1.103   2.040   1.150 -0.8372  0.3313 -0.2011
 3841SOL    HW123159   1.123   2.127   1.185 -1.2574  0.5933 -0.6225
 3841SOL    HW223160   1.008   2.042   1.146 -0.9724 -1.1499  2.0881
 3842SOL     OW23161   1.526   3.572  17.304  0.0975 -0.4005 -0.3587
 3842SOL    HW123162   1.567   3.568  17.217  0.8200  0.5652 -0.0604
 3842SOL    HW223163   1.545   3.663  17.326 -0.0545 -0.2798 -0.7229
 3843SOL     OW23164   4.257   1.034   4.102 -0.3221 -0.3805  0.0664
 3843SOL    HW123165   4.209   0.958   4.068 -0.6258 -0.9042  1.6865
 3843SOL    HW223166   4.294   1.003   4.184  0.0025  0.4320  0.2264
 3844SOL     OW23167   4.385   2.631   2.671  0.2380  0.7791 -0.4455
 3844SOL    HW123168   4.432   2.574   2.611 -1.0809  0.4443 -1.1667
 3844SOL    HW223169   4.307   2.658   2.623 -0.4824  0.8575  0.7604
 3845SOL     OW23170   1.210   3.945   4.710 -0.4112 -0.1046 -0.1829
 3845SOL    HW123171   1.117   3.936   4.688 -0.9577  2.9966  0.8387
 3845SOL    HW223172   1.251   3.950   4.624  1.0501 -1.3057  0.4554
 3846SOL     OW23173   0.936   1.290  14.398  0.3899  0.0010  0.0520
 3846SOL    HW123174   1.029   1.309  14.400  0.5430 -0.8378  0.6458
 3846SOL    HW223175   0.931   1.230  14.324  0.8047  2.8988 -2.3213
 3847SOL     OW23176   3.053   4.528   8.189  0.4254 -0.3329  0.4642
 3847SOL    HW123177   3.004   4.462   8.238  1.7677 -1.3701  0.4219
 3847SOL    HW223178   2.987   4.596   8.198 -0.3000 -1.1940  1.6396
 3848SOL     OW23179   4.611   4.670   7.188  0.0879  0.2746 -0.2285
 3848SOL    HW123180   4.563   4.732   7.243  0.9408  0.2624  0.5286
 3848SOL    HW223181   4.593   4.692   7.097 -0.5706  1.7109  0.2616
 3849SOL     OW23182   2.871   4.451   1.709 -0.6126 -0.2000 -0.0324
 3849SOL    HW123183   2.839   4.367   1.742  1.2504 -1.7204 -2.0470
 3849SOL    HW223184   2.866   4.438   1.614 -0.4811  1.3400 -0.2580
 3850SOL     OW23185   4.023   1.320   7.602 -0.3775  0.0218  0.1164
 3850SOL    HW123186   3.996   1.228   7.609 -0.8166 -0.0325 -2.0476
 3850SOL    HW223187   4.101   1.321   7.656 -1.4527 -0.7196  1.6665
 3851SOL     OW23188   0.267   2.084   3.044  0.1681  0.1695 -0.3054
 3851SOL    HW123189   0.318   2.100   3.123  1.3301 -1.0572 -0.7999
 3851SOL    HW223190   0.334   2.098   2.977 -0.3983  1.2599 -0.6515
 3852SOL     OW23191   0.518   0.511  12.714 -0.0444 -0.0533 -0.0043
 3852SOL    HW123192   0.513   0.541  12.805  2.9296  1.4029 -0.2955
 3852SOL    HW223193   0.435   0.468  12.697  0.5352 -1.0882 -0.2486
 3853SOL     OW23194   1.953   2.876   0.774  0.3346 -0.4723 -0.2024
 3853SOL    HW123195   1.952   2.796   0.722 -0.9320  0.1390 -1.1184
 3853SOL    HW223196   2.000   2.937   0.717  0.3532  0.3055  0.6426
 3854SOL     OW23197   0.981   4.020   6.024 -0.3129  0.1481  0.1930
 3854SOL    HW123198   0.915   4.083   6.052 -1.5934 -0.5903 -1.1377
 3854SOL    HW223199   1.007   4.063   5.942 -0.2011 -1.3113 -0.5343
 3855SOL     OW23200   0.825   3.495  12.188  0.3549  0.5063  0.0995
 3855SOL    HW123201   0.877   3.439  12.130 -0.7533 -0.0081 -0.4090
 3855SOL    HW223202   0.896   3.548  12.224 -1.3723  2.3765  0.7179
 3856SOL     OW23203   4.569   4.627   3.976  0.3683  0.3824  0.3254
 3856SOL    HW123204   4.567   4.703   4.034 -1.3831  0.5483  0.0542
 3856SOL    HW223205   4.525   4.672   3.904 -0.2086 -2.2831 -0.9856
 3857SOL     OW23206   3.486   1.732   4.676  0.0470 -0.6202  0.0141
 3857SOL    HW123207   3.433   1.674   4.621 -0.9118 -2.1961  2.5777
 3857SOL    HW223208   3.419   1.775   4.729 -0.3323 -1.2200  0.0187
 3858SOL     OW23209   4.125   1.358   6.089  0.1651  0.0938  0.4262
 3858SOL    HW123210   4.033   1.333   6.099  0.9976 -2.3098  2.1887
 3858SOL    HW223211   4.113   1.441   6.043  0.2749 -0.0625  0.1163
 3859SOL     OW23212   2.857   0.741  12.290 -0.5848  0.8053  0.4031
 3859SOL    HW123213   2.877   0.738  12.196 -0.2403  1.3726  0.4542
 3859SOL    HW223214   2.813   0.826  12.299  0.1833  0.9811  2.3586
 3860SOL     OW23215   1.351   1.158   7.565 -0.1775  0.3251  0.4075
 3860SOL    HW123216   1.299   1.081   7.543  1.2885 -1.0582  1.7331
 3860SOL    HW223217   1.433   1.119   7.534  1.6192  3.9932  0.5542
 3861SOL     OW23218   0.190   1.013   1.575 -0.2086  0.3989  0.5754
 3861SOL    HW123219   0.183   1.099   1.534 -0.0761  0.4802  0.7255
 3861SOL    HW223220   0.122   0.965   1.528  1.6997 -1.3448 -0.3974
 3862SOL     OW23221   0.079   1.500  13.313  0.2914 -0.8948  0.1364
 3862SOL    HW123222   4.724   1.495  13.281  1.2947  2.2673 -3.2487
 3862SOL    HW223223   0.083   1.591  13.341 -1.4530 -0.3366 -1.3696
 3863SOL     OW23224   1.873   1.063   6.483  0.3084 -0.5252  0.2057
 3863SOL    HW123225   1.869   1.033   6.392  3.5053 -1.7836  0.4531
 3863SOL    HW223226   1.944   1.127   6.493 -0.6603  0.3764  1.2644
 3864SOL     OW23227   3.053   0.314  14.545 -0.4780  0.9010  0.8113
 3864SOL    HW123228   2.973   0.340  14.590 -0.2631 -1.9440  2.8198
 3864SOL    HW223229   3.112   0.295  14.618 -0.8620  1.7573  1.3266
 3865SOL     OW23230   3.891   0.206   5.444 -0.7548  0.6047  0.0579
 3865SOL    HW123231   3.869   0.169   5.359 -0.7667  1.5862 -0.3744
 3865SOL    HW223232   3.973   0.162   5.466 -0.5957  1.1706  0.6242
 3866SOL     OW23233   3.399   4.472  12.572  0.2904 -0.9929  0.4230
 3866SOL    HW123234   3.478   4.508  12.532  0.6599 -2.5384 -0.2092
 3866SOL    HW223235   3.344   4.455  12.496  0.2874 -0.6289  0.3434
 3867SOL     OW23236   0.413   0.139   6.753  0.0627 -0.0560 -0.4326
 3867SOL    HW123237   0.403   0.234   6.763  1.3264 -0.0351  0.5291
 3867SOL    HW223238   0.452   0.120   6.838  0.8087  2.9775 -0.1085
 3868SOL     OW23239   2.826   1.563  16.441 -1.1441 -0.0859 -0.0854
 3868SOL    HW123240   2.902   1.591  16.493 -1.4023  0.6655 -0.1145
 3868SOL    HW223241   2.764   1.634  16.457 -0.1152  1.6674 -3.7879
 3869SOL     OW23242   0.789   1.837  17.053  0.4010  0.0563 -0.0078
 3869SOL    HW123243   0.795   1.870  16.964  0.4332 -1.5683 -0.6088
 3869SOL    HW223244   0.782   1.912  17.112  0.3886  0.8080 -0.9752
 3870SOL     OW23245   4.555   2.419  15.387  0.2885 -0.1911  0.4173
 3870SOL    HW123246   4.571   2.382  15.473  0.7708  0.4623  0.6105
 3870SOL    HW223247   4.506   2.347  15.347  1.2062 -0.2161 -0.6716
 3871SOL     OW23248   0.484   3.377   5.512  0.6742 -0.4019  0.2219
 3871SOL    HW123249   0.473   3.354   5.605  1.0506  2.6444  1.0217
 3871SOL    HW223250   0.442   3.462   5.502  2.3324  0.4056  0.1762
 3872SOL     OW23251   1.936   3.412  13.988 -0.3046  0.4040 -0.1296
 3872SOL    HW123252   1.926   3.488  14.045  0.1681  1.5234 -1.5303
 3872SOL    HW223253   1.956   3.450  13.903 -1.8791  1.7592  0.1091
 3873SOL     OW23254   0.183   2.560   9.433  0.0592  0.1475  0.4353
 3873SOL    HW123255   0.149   2.620   9.366  0.6233  0.2779  0.2677
 3873SOL    HW223256   0.199   2.613   9.511  0.9596 -2.1967  1.8426
 3874SOL     OW23257   0.480   2.216  11.733 -0.6409 -0.1648  0.0188
 3874SOL    HW123258   0.542   2.179  11.796 -0.7199 -0.2381  0.0539
 3874SOL    HW223259   0.519   2.182  11.652  0.9682 -1.1170  1.1771
 3875SOL     OW23260   4.589   0.455   7.985 -0.2000  0.2808 -0.6085
 3875SOL    HW123261   4.666   0.493   7.943 -1.2403  2.2218 -0.7687
 3875SOL    HW223262   4.594   0.361   7.967  3.1047  0.0405  1.6728
 3876SOL     OW23263   4.473   3.805   8.915  0.1111  0.0130  0.5026
 3876SOL    HW123264   4.558   3.763   8.922 -1.1119 -2.2198  1.7066
 3876SOL    HW223265   4.418   3.745   8.965  1.4952 -0.8879  0.9387
 3877SOL     OW23266   3.152   2.092   7.173  0.3132  0.4222  0.2566
 3877SOL    HW123267   3.238   2.097   7.215  0.1547  4.4480  0.0717
 3877SOL    HW223268   3.084   2.112   7.237  0.1943  0.0021  0.2616
 3878SOL     OW23269   0.701   3.214   3.153  0.6900  0.2226 -0.1518
 3878SOL    HW123270   0.623   3.166   3.126  1.5919  0.7651 -3.8045
 3878SOL    HW223271   0.760   3.145   3.122  0.7930 -0.1562  0.8878
 3879SOL     OW23272   1.431   1.552   7.899  0.1029  0.1295 -0.1806
 3879SOL    HW123273   1.350   1.602   7.902  1.2574  2.1006 -1.5295
 3879SOL    HW223274   1.444   1.513   7.986  1.6815 -0.8993 -0.8628
 3880SOL     OW23275   1.189   3.070   5.775 -0.2104 -0.5396 -0.4163
 3880SOL    HW123276   1.132   3.030   5.840  0.2078  0.8460  0.8141
 3880SOL    HW223277   1.220   3.143   5.830 -0.7817  0.1617 -1.0345
 3881SOL     OW23278   0.848   3.146  12.218 -0.0191 -0.6176  0.1989
 3881SOL    HW123279   0.912   3.200  12.172 -0.5941  0.9140  1.1903
 3881SOL    HW223280   0.908   3.101  12.277 -0.0516  0.0763  0.7654
 3882SOL     OW23281   0.478   3.572   4.413  0.0266 -0.5282  0.1098
 3882SOL    HW123282   0.431   3.655   4.409  1.9248  0.5824  0.5646
 3882SOL    HW223283   0.471   3.548   4.505 -0.3199  1.2513  0.5515
 3883SOL     OW23284   4.527   0.394  15.782 -0.4200  0.1927  0.1802
 3883SOL    HW123285   4.506   0.487  15.770  0.9065  0.4539 -0.0982
 3883SOL    HW223286   4.488   0.355  15.704 -0.7780 -0.5089  0.7084
 3884SOL     OW23287   3.830   2.256   4.357  0.3649 -0.3419 -0.0166
 3884SOL    HW123288   3.865   2.310   4.286 -1.9624  0.2754 -0.7102
 3884SOL    HW223289   3.904   2.248   4.417  0.7603 -3.1406 -0.9121
 3885SOL     OW23290   2.564   0.033  17.574 -0.1278 -0.2667  0.7228
 3885SOL    HW123291   2.643   4.720  17.548  1.1766  1.1133  2.1428
 3885SOL    HW223292   2.502   4.698  17.591  1.5436 -1.7206  0.8266
 3886SOL     OW23293   2.409   3.796  16.219  0.1329 -0.0798 -0.2611
 3886SOL    HW123294   2.394   3.872  16.163 -1.8678 -0.4843 -0.2954
 3886SOL    HW223295   2.433   3.728  16.157  0.3556  0.1269 -0.4036
 3887SOL     OW23296   3.821   1.446   7.449  0.4175  0.8268 -0.5969
 3887SOL    HW123297   3.888   1.404   7.502 -0.9940 -3.5435 -2.1779
 3887SOL    HW223298   3.800   1.531   7.488  2.4895  0.8678  0.3989
 3888SOL     OW23299   2.049   4.375   6.653  0.0367  0.4025 -0.3102
 3888SOL    HW123300   2.110   4.342   6.587 -0.6966  0.8900 -1.2401
 3888SOL    HW223301   1.974   4.315   6.642 -1.1739  1.5655  1.6261
 3889SOL     OW23302   3.057   0.122   7.508  0.3443  0.3673 -0.3646
 3889SOL    HW123303   3.140   0.075   7.509  0.4303  0.5656  1.8674
 3889SOL    HW223304   3.027   0.111   7.418 -1.4855 -2.6513  0.5867
 3890SOL     OW23305   2.514   2.341  14.507  0.9200  0.0264  0.3621
 3890SOL    HW123306   2.598   2.295  14.518 -1.3123 -3.7332  1.8633
 3890SOL    HW223307   2.543   2.422  14.548 -1.4251  1.9203 -1.7739
 3891SOL     OW23308   0.739   4.656   5.324 -0.3010  0.3395  0.2591
 3891SOL    HW123309   0.736   4.733   5.268  1.3526 -0.8613 -1.5095
 3891SOL    HW223310   0.650   4.623   5.316 -0.3556  1.1966 -2.6559
 3892SOL     OW23311   0.892   1.420   1.794 -0.1951  0.6095  0.1628
 3892SOL    HW123312   0.926   1.509   1.780 -0.3273  0.6393  0.0258
 3892SOL    HW223313   0.938   1.391   1.873 -0.5947 -1.2728 -0.3055
 3893SOL     OW23314   2.117   4.526  17.356 -0.0992 -0.3768 -0.3824
 3893SOL    HW123315   2.093   4.592  17.291 -1.2989  1.4486  1.9012
 3893SOL    HW223316   2.032   4.486  17.377  0.4872 -2.5612 -2.1948
 3894SOL     OW23317   3.101   1.122   7.393  0.3588  0.1030  0.0821
 3894SOL    HW123318   3.082   1.055   7.458 -1.1959  1.2947  0.8452
 3894SOL    HW223319   3.035   1.095   7.328 -0.8544 -0.0459  1.3788
 3895SOL     OW23320   2.323   1.163   4.231 -0.3130 -0.5062 -0.2078
 3895SOL    HW123321   2.264   1.238   4.235  1.2690  0.7882 -0.6236
 3895SOL    HW223322   2.369   1.193   4.152  0.7085 -0.4761  0.3888
 3896SOL     OW23323   1.815   3.602   4.037 -0.3655 -0.6996 -0.0272
 3896SOL    HW123324   1.855   3.618   4.122 -2.9942  0.7853  0.8832
 3896SOL    HW223325   1.837   3.684   3.993  1.3964 -0.9361  0.4029
 3897SOL     OW23326   2.495   2.135   3.629  0.1347 -0.2959 -0.2630
 3897SOL    HW123327   2.570   2.168   3.581 -0.2573  0.7476 -0.1439
 3897SOL    HW223328   2.457   2.077   3.563  0.0270  0.6193 -0.9902
 3898SOL     OW23329   4.215   4.043   1.623 -0.2772  0.9824 -0.6399
 3898SOL    HW123330   4.277   4.002   1.563 -1.9374 -1.0743 -0.9301
 3898SOL    HW223331   4.127   4.025   1.590 -0.4447 -0.3419  0.5426
 3899SOL     OW23332   0.109   3.825   5.170  0.0439  0.5109  0.0855
 3899SOL    HW123333   0.100   3.848   5.263  0.1402  1.9565 -0.2556
 3899SOL    HW223334   0.097   3.731   5.174  0.8147  0.3838 -0.6327
 3900SOL     OW23335   4.464   0.027  10.001  0.1888 -0.0275 -0.2966
 3900SOL    HW123336   4.426   0.005   9.916 -0.6641 -1.3214  0.4172
 3900SOL    HW223337   4.483   0.118   9.980 -1.8737  0.1288 -1.4854
 3901SOL     OW23338   3.436   3.314   7.434  0.4422 -0.0881  0.4390
 3901SOL    HW123339   3.378   3.238   7.431  0.9288 -0.4831  0.8981
 3901SOL    HW223340   3.520   3.280   7.403 -0.9262  0.7672 -4.1645
 3902SOL     OW23341   4.471   4.329   5.528  0.5010  0.0684  0.4305
 3902SOL    HW123342   4.400   4.269   5.503  1.9620 -2.7403  3.0113
 3902SOL    HW223343   4.422   4.390   5.584 -2.6781 -1.4178 -0.7170
 3903SOL     OW23344   2.438   2.047   9.509 -0.0519  0.4793  0.2670
 3903SOL    HW123345   2.435   2.082   9.420  1.9140  0.8414  0.3561
 3903SOL    HW223346   2.475   1.959   9.501 -1.1288  0.0603 -0.0674
 3904SOL     OW23347   0.811   3.270  16.487  0.7906 -0.2845  0.4223
 3904SOL    HW123348   0.852   3.265  16.574 -0.0174 -1.8832  0.7103
 3904SOL    HW223349   0.763   3.352  16.500  3.1171  1.6484 -3.1942
 3905SOL     OW23350   1.205   0.699  16.392  0.5345 -0.0951  0.8765
 3905SOL    HW123351   1.259   0.628  16.358  0.3716  1.0209 -1.7494
 3905SOL    HW223352   1.157   0.656  16.462 -3.2438  2.5201 -0.0957
 3906SOL     OW23353   3.929   1.936   7.717  0.5773  0.2177  0.2093
 3906SOL    HW123354   3.916   1.955   7.624  2.9433  1.3796  0.0998
 3906SOL    HW223355   3.972   1.851   7.706  0.3225 -0.0176  1.0344
 3907SOL     OW23356   2.155   0.886   4.081 -0.2426 -0.2991 -0.0405
 3907SOL    HW123357   2.063   0.873   4.105  0.4160 -2.2016  1.4612
 3907SOL    HW223358   2.153   0.845   3.995 -1.8602  3.8008 -1.9835
 3908SOL     OW23359   3.548   2.941   2.451  0.1252  0.7955  0.0281
 3908SOL    HW123360   3.536   3.030   2.420 -0.7432  0.9444  0.7813
 3908SOL    HW223361   3.548   2.957   2.545 -2.4511 -0.9508  0.3150
 3909SOL     OW23362   1.157   1.538  11.725  0.5313  0.3553  0.7652
 3909SOL    HW123363   1.166   1.488  11.644 -0.7977 -0.7702  1.2988
 3909SOL    HW223364   1.171   1.469  11.791  2.3324  0.5437  0.5782
 3910SOL     OW23365   0.051   1.704   4.164  0.4732  0.1612  0.0150
 3910SOL    HW123366   4.691   1.706   4.150  0.5469 -1.7107 -0.7689
 3910SOL    HW223367   0.085   1.654   4.089  0.9182  0.7717 -0.1898
 3911SOL     OW23368   3.595   0.799   3.175  0.4040 -0.3374 -0.1290
 3911SOL    HW123369   3.664   0.811   3.111  1.1287  0.1653  0.7543
 3911SOL    HW223370   3.575   0.705   3.174 -1.2181  0.0143 -1.0316
 3912SOL     OW23371   0.218   4.420   3.887 -0.9402  0.0570  0.1908
 3912SOL    HW123372   0.219   4.344   3.828  0.2581  1.6044 -1.7673
 3912SOL    HW223373   0.197   4.385   3.974 -2.0432 -1.9197 -0.8671
 3913SOL     OW23374   0.808   0.796   5.777 -0.2154  0.6064  0.0505
 3913SOL    HW123375   0.867   0.731   5.740 -0.2868  0.2001  0.6519
 3913SOL    HW223376   0.816   0.881   5.732  0.5265  0.5067 -0.0006
 3914SOL     OW23377   3.873   2.149  15.672 -0.4389 -0.4481  0.1537
 3914SOL    HW123378   3.779   2.148  15.690 -0.8897 -2.1556 -2.3417
 3914SOL    HW223379   3.871   2.089  15.598 -1.9879 -1.0894  0.7290
 3915SOL     OW23380   0.242   2.197  11.425  0.0687  0.1509 -0.3072
 3915SOL    HW123381   0.253   2.105  11.447  0.9291  0.1521 -0.7390
 3915SOL    HW223382   0.259   2.250  11.503  0.0072 -0.2275 -0.0362
 3916SOL     OW23383   4.056   3.567   3.106  0.5358  0.3544  0.5239
 3916SOL    HW123384   4.058   3.660   3.129  0.4034  0.4861  0.0105
 3916SOL    HW223385   3.969   3.558   3.066  0.7109  1.5394 -0.1384
 3917SOL     OW23386   1.850   4.421  17.441 -0.0482  0.4983 -0.2164
 3917SOL    HW123387   1.851   4.333  17.478  0.6629 -0.5472 -2.6979
 3917SOL    HW223388   1.869   4.475  17.518  1.1630  1.0248 -0.8793
 3918SOL     OW23389   1.957   1.683   4.065 -0.0174  0.6453 -0.4996
 3918SOL    HW123390   2.017   1.702   4.137 -0.7869  0.3530  0.2213
 3918SOL    HW223391   1.874   1.698   4.111  0.8159  3.4806  0.0481
 3919SOL     OW23392   2.368   0.996   3.245  0.1203  0.5501 -0.8249
 3919SOL    HW123393   2.379   0.901   3.249  0.9838  0.5943 -1.8532
 3919SOL    HW223394   2.388   1.016   3.336  0.0091  1.2950 -0.9659
 3920SOL     OW23395   4.207   1.298  17.395 -0.2421 -0.1845  0.4266
 3920SOL    HW123396   4.153   1.309  17.474 -0.7078 -2.1726  0.3742
 3920SOL    HW223397   4.281   1.357  17.411  0.0695 -0.8177  1.3751
 3921SOL     OW23398   4.297   0.697  12.241 -0.1265  0.0612  0.0047
 3921SOL    HW123399   4.392   0.684  12.243  0.1341  2.0096  0.1061
 3921SOL    HW223400   4.289   0.726  12.331  1.9063  0.5470  0.0264
 3922SOL     OW23401   4.514   0.461   9.366 -0.2024 -0.1699 -0.2306
 3922SOL    HW123402   4.525   0.366   9.374 -0.2735 -0.4293 -2.9514
 3922SOL    HW223403   4.555   0.469   9.280  1.9448 -2.0640  0.6383
 3923SOL     OW23404   4.486   1.961  16.961  0.1202 -0.4271  0.8271
 3923SOL    HW123405   4.571   1.918  16.967  0.6301  0.4041 -0.7063
 3923SOL    HW223406   4.467   1.985  17.052 -0.5084  0.2802  0.5103
 3924SOL     OW23407   3.696   2.659   5.772  0.3515  0.3587 -0.4020
 3924SOL    HW123408   3.613   2.701   5.753 -0.8060 -2.0886 -0.7549
 3924SOL    HW223409   3.657   2.609   5.844 -2.6238  1.5829 -1.1879
 3925SOL     OW23410   2.925   4.032   4.699 -0.3035  0.2499 -0.4209
 3925SOL    HW123411   2.967   4.066   4.778  0.9897 -2.0269 -0.1326
 3925SOL    HW223412   2.872   4.105   4.666  0.9642  0.5403 -1.8161
 3926SOL     OW23413   4.244   2.232  14.614 -0.2027  0.2813  0.1697
 3926SOL    HW123414   4.176   2.170  14.590  0.4761 -0.7589  0.9326
 3926SOL    HW223415   4.237   2.229  14.710  0.9796  1.5692  0.2915
 3927SOL     OW23416   3.550   1.954   8.716  0.2285  0.2903 -0.4397
 3927SOL    HW123417   3.581   2.043   8.701  1.9185 -0.2059  0.1861
 3927SOL    HW223418   3.609   1.911   8.654  0.4391  1.6237 -1.1726
 3928SOL     OW23419   3.227   2.601  13.366 -0.2593 -0.6168  0.8797
 3928SOL    HW123420   3.192   2.632  13.282  0.7618 -1.4023  0.1748
 3928SOL    HW223421   3.287   2.536  13.330 -1.5714 -0.1227 -2.1873
 3929SOL     OW23422   4.059   1.495  11.149  0.0439  0.0108  0.4018
 3929SOL    HW123423   4.094   1.568  11.098 -0.2467  0.2065  0.4817
 3929SOL    HW223424   4.097   1.504  11.237  0.0711  0.2361  0.3667
 3930SOL     OW23425   1.098   3.383   5.581 -0.1454 -0.0548  0.0415
 3930SOL    HW123426   1.033   3.317   5.604 -0.1664  0.5304  1.6333
 3930SOL    HW223427   1.049   3.465   5.569 -1.6283 -0.6427  2.1002
 3931SOL     OW23428   2.275   0.409   3.997  0.3003 -0.6672  0.4559
 3931SOL    HW123429   2.355   0.356   3.996  1.5936  1.2383  3.5758
 3931SOL    HW223430   2.244   0.406   3.906  0.9359  0.2065  0.2072
 3932SOL     OW23431   2.602   0.332  14.533 -0.6612  0.0980  0.3423
 3932SOL    HW123432   2.572   0.274  14.464  0.4042  2.9103 -2.4789
 3932SOL    HW223433   2.523   0.386  14.542  0.3361  1.3036  1.9745
 3933SOL     OW23434   2.126   1.084   7.460  0.3443  0.6244  0.3279
 3933SOL    HW123435   2.125   1.164   7.513 -0.3976 -0.4105  1.8822
 3933SOL    HW223436   2.181   1.119   7.389  0.1660 -2.3223 -1.2634
 3934SOL     OW23437   1.659   1.334   5.101 -0.2337 -0.2134  0.8438
 3934SOL    HW123438   1.719   1.408   5.110  1.1507 -1.4438  1.6527
 3934SOL    HW223439   1.648   1.309   5.193 -0.0762  0.2280  0.9788
 3935SOL     OW23440   2.948   3.443  14.524 -0.0831  0.7658  0.3121
 3935SOL    HW123441   2.867   3.493  14.538 -0.5246 -0.3898  1.8466
 3935SOL    HW223442   2.971   3.403  14.608  2.6846 -0.1691 -0.9105
 3936SOL     OW23443   4.239   1.458   4.700 -0.6549  0.4604  0.8585
 3936SOL    HW123444   4.227   1.424   4.611  0.7871 -0.8824  1.1707
 3936SOL    HW223445   4.294   1.397   4.748 -1.3180  1.2846  2.6529
 3937SOL     OW23446   4.082   0.387   8.274 -0.2907  0.0199  0.1271
 3937SOL    HW123447   4.090   0.314   8.335  1.5871 -1.3151 -1.7110
 3937SOL    HW223448   4.141   0.454   8.308  0.3477 -1.1495  1.3063
 3938SOL     OW23449   3.696   3.649   6.598 -0.0760 -0.1648 -0.1797
 3938SOL    HW123450   3.700   3.700   6.679  1.4425  0.9741 -0.9789
 3938SOL    HW223451   3.771   3.682   6.548  1.0108 -2.5334 -0.1097
 3939SOL     OW23452   0.900   3.533   2.264 -0.7641 -0.0862  0.5092
 3939SOL    HW123453   0.930   3.570   2.348 -0.3561  1.4383 -0.3071
 3939SOL    HW223454   0.871   3.617   2.228 -0.2445 -0.2556 -0.2942
 3940SOL     OW23455   4.001   2.496   7.423 -0.1301  0.4692  0.3983
 3940SOL    HW123456   4.024   2.587   7.440  1.3795  0.1144  0.1740
 3940SOL    HW223457   3.946   2.501   7.344 -1.7378 -0.1112  1.4648
 3941SOL     OW23458   3.099   0.457   8.614  0.1799  0.1325 -0.0159
 3941SOL    HW123459   3.140   0.439   8.529 -1.5687  0.5022 -0.9305
 3941SOL    HW223460   3.160   0.479   8.684 -0.3334 -0.8258  0.7313
 3942SOL     OW23461   1.528   3.173   1.948  0.3148  0.0424  0.0246
 3942SOL    HW123462   1.439   3.208   1.947 -0.1718 -1.2417 -0.4421
 3942SOL    HW223463   1.554   3.198   2.037 -0.1162 -1.4196  0.5530
 3943SOL     OW23464   0.230   4.029   6.365 -0.2965  0.0003 -0.1331
 3943SOL    HW123465   0.163   4.072   6.419 -0.0017 -2.6255  2.3443
 3943SOL    HW223466   0.192   4.042   6.278  2.1314 -1.1273 -1.3409
 3944SOL     OW23467   3.063   2.943   0.854  0.1274 -0.6213  0.0265
 3944SOL    HW123468   3.090   2.896   0.933  2.5287  1.0671  0.1953
 3944SOL    HW223469   3.146   2.935   0.808  0.5797  0.8001  0.5942
 3945SOL     OW23470   1.243   0.907   4.629 -0.3473 -0.6794  0.3699
 3945SOL    HW123471   1.274   0.875   4.714 -1.8219 -0.2699  1.0698
 3945SOL    HW223472   1.165   0.955   4.658 -0.8195  0.3799 -2.6349
 3946SOL     OW23473   1.508   0.417  16.141  0.2897 -0.0443 -0.3420
 3946SOL    HW123474   1.495   0.501  16.097 -2.2330 -0.6256 -0.7102
 3946SOL    HW223475   1.446   0.416  16.214 -0.3767  0.8229 -0.8948
 3947SOL     OW23476   4.545   4.001  13.127 -0.3269 -0.2911 -0.2366
 3947SOL    HW123477   4.595   3.990  13.046  0.3081 -0.0062  0.1170
 3947SOL    HW223478   4.462   4.031  13.091 -1.0408  0.7547  2.2909
 3948SOL     OW23479   3.061   1.275   9.059 -0.1062 -0.4307 -0.0093
 3948SOL    HW123480   3.105   1.273   8.974  1.4335  0.6924  0.7542
 3948SOL    HW223481   2.972   1.289   9.025  0.3876  0.6334 -0.8614
 3949SOL     OW23482   4.344   0.127   7.033  0.0802  0.3457  0.0747
 3949SOL    HW123483   4.256   0.090   7.033  0.3269 -0.2549 -1.0591
 3949SOL    HW223484   4.363   0.124   7.127 -1.7723  1.2534  0.4642
 3950SOL     OW23485   2.321   0.930   6.357 -0.0424  0.3549 -0.5458
 3950SOL    HW123486   2.416   0.922   6.353  0.0528  1.3010 -0.0946
 3950SOL    HW223487   2.316   0.972   6.442  1.1587 -1.6229  0.5097
 3951SOL     OW23488   0.934   2.566   1.299 -0.4252 -0.3203 -0.2566
 3951SOL    HW123489   0.999   2.553   1.368 -0.6758 -0.6155 -0.0779
 3951SOL    HW223490   0.907   2.475   1.287 -2.5929  0.1937  0.8185
 3952SOL     OW23491   3.529   1.302   4.499 -0.2124  0.0077  0.7727
 3952SOL    HW123492   3.577   1.336   4.424  0.7333  0.6252  1.6609
 3952SOL    HW223493   3.455   1.262   4.453  0.6151  0.6059 -1.0783
 3953SOL     OW23494   0.719   0.769   7.734 -0.1621 -0.7756  0.3337
 3953SOL    HW123495   0.686   0.763   7.824  1.1105 -2.6209  0.6754
 3953SOL    HW223496   0.725   0.677   7.709  0.5118 -0.6266 -0.0225
 3954SOL     OW23497   3.710   0.403   7.368  0.2929 -0.2215 -0.5056
 3954SOL    HW123498   3.779   0.444   7.420  1.4672 -1.7964 -0.8187
 3954SOL    HW223499   3.652   0.475   7.343 -1.3756 -0.9525  1.2886
 3955SOL     OW23500   3.921   0.310   1.107  0.0953 -0.4798  0.4721
 3955SOL    HW123501   3.967   0.373   1.053  2.1890 -0.8933  1.7598
 3955SOL    HW223502   3.839   0.354   1.127 -0.0017 -0.3135 -0.3235
 3956SOL     OW23503   3.079   1.083   9.566  0.0528 -0.2679  0.3869
 3956SOL    HW123504   3.110   1.143   9.633  0.7738  0.6362 -0.7456
 3956SOL    HW223505   3.018   1.136   9.514 -0.0810  1.2263  2.0822
 3957SOL     OW23506   2.373   1.972   1.796 -0.0725  0.4305 -0.3205
 3957SOL    HW123507   2.323   2.029   1.738 -0.3115 -1.8010 -2.3246
 3957SOL    HW223508   2.308   1.909   1.825 -1.6752  1.4316 -1.7543
 3958SOL     OW23509   1.452   2.359   6.113  0.2387 -0.3202 -0.5692
 3958SOL    HW123510   1.365   2.370   6.150  0.1607  1.1126 -1.1827
 3958SOL    HW223511   1.473   2.448   6.086 -2.1558  0.2315 -0.5714
 3959SOL     OW23512   2.612   3.041   3.321  0.4663  0.2116  1.2831
 3959SOL    HW123513   2.569   3.118   3.282  0.1263 -0.1920  0.8670
 3959SOL    HW223514   2.591   3.064   3.412  1.2296  1.8270  1.0583
 3960SOL     OW23515   0.735   2.628   3.122  0.2436 -0.3848  0.4845
 3960SOL    HW123516   0.792   2.588   3.187  0.5043 -0.1374  0.4107
 3960SOL    HW223517   0.657   2.668   3.161  1.1506 -0.7395  2.6499
 3961SOL     OW23518   2.393   2.698   3.015  0.3856  0.5978  0.6596
 3961SOL    HW123519   2.423   2.754   3.087 -2.2001  1.0581  1.3524
 3961SOL    HW223520   2.479   2.666   2.986 -0.2742 -0.3080 -0.2842
 3962SOL     OW23521   4.209   4.604   7.414 -0.2516  0.3170 -0.1568
 3962SOL    HW123522   4.134   4.634   7.466 -0.0928 -0.0583  0.2867
 3962SOL    HW223523   4.176   4.521   7.379  0.4415 -0.0408  0.0476
 3963SOL     OW23524   1.936   1.638   4.476 -0.3737 -0.3485 -0.3271
 3963SOL    HW123525   1.928   1.731   4.497 -0.8785 -0.0916 -1.6529
 3963SOL    HW223526   1.992   1.648   4.399 -0.6452  1.2253 -0.3109
 3964SOL     OW23527   2.365   3.910   4.182  0.6716 -0.0726 -0.1802
 3964SOL    HW123528   2.430   3.874   4.243 -0.2655 -0.0528  0.8518
 3964SOL    HW223529   2.380   4.003   4.200  1.5474 -0.3067  0.3072
 3965SOL     OW23530   4.654   0.648  13.649 -0.2564 -0.2457  0.2883
 3965SOL    HW123531   4.571   0.670  13.690 -0.6166 -0.7499 -0.1677
 3965SOL    HW223532   4.695   0.577  13.699 -2.0960 -1.6547 -0.1859
 3966SOL     OW23533   0.284   0.738   7.523 -0.0568 -0.1560 -0.0252
 3966SOL    HW123534   0.302   0.814   7.578 -2.2747  0.4092 -0.0615
 3966SOL    HW223535   0.367   0.722   7.478 -1.2289  1.0181 -2.6008
 3967SOL     OW23536   1.956   4.435  15.056  0.1493  1.1295  0.2761
 3967SOL    HW123537   1.900   4.431  14.978  0.3983  1.1459  0.0953
 3967SOL    HW223538   2.045   4.447  15.021  1.0644 -0.5775  2.0634
 3968SOL     OW23539   0.216   4.521   4.198  0.1646 -0.7255  0.1768
 3968SOL    HW123540   0.163   4.441   4.193  0.6239 -1.0495  0.5530
 3968SOL    HW223541   0.150   4.585   4.226 -1.0758 -1.8483 -0.1292
 3969SOL     OW23542   1.055   1.364   0.798 -0.4848  0.1908  0.2530
 3969SOL    HW123543   1.054   1.459   0.782  2.2558  0.7659  3.3529
 3969SOL    HW223544   1.059   1.365   0.893  1.9958  0.1671  0.1504
 3970SOL     OW23545   2.049   2.655   3.106  0.0630 -0.1185  0.2692
 3970SOL    HW123546   2.134   2.662   3.151 -0.6835 -0.0283  1.6788
 3970SOL    HW223547   2.055   2.584   3.042 -0.4105 -1.1825  1.3997
 3971SOL     OW23548   1.049   4.566   5.701 -0.0802 -0.4411  0.1389
 3971SOL    HW123549   1.067   4.659   5.716 -1.4477 -0.3338  1.0163
 3971SOL    HW223550   1.028   4.541   5.790  0.1216  1.2257  0.6666
 3972SOL     OW23551   3.117   0.602  10.399  0.3534 -0.6772  0.8094
 3972SOL    HW123552   3.163   0.661  10.339 -0.2712 -0.0115  0.9847
 3972SOL    HW223553   3.145   0.640  10.482  1.3619  2.6868 -1.0652
 3973SOL     OW23554   1.321   4.598  12.137  0.2063  0.1250 -0.0005
 3973SOL    HW123555   1.225   4.595  12.134  0.2333 -0.2866 -0.4335
 3973SOL    HW223556   1.340   4.671  12.078 -0.5310  1.4215  1.3773
 3974SOL     OW23557   0.919   3.448   8.257 -0.2835  0.0741  0.1375
 3974SOL    HW123558   0.981   3.390   8.301  0.9390  0.4256 -1.1362
 3974SOL    HW223559   0.956   3.438   8.170  2.0622 -0.8609  1.2436
 3975SOL     OW23560   1.153   2.696   0.162  0.0506 -0.1162 -0.2383
 3975SOL    HW123561   1.208   2.775   0.160  1.1488 -0.8796 -0.1747
 3975SOL    HW223562   1.202   2.625   0.120  0.8142  0.3833 -0.2009
 3976SOL     OW23563   2.031   2.729  11.180  0.8954 -0.6312  0.3252
 3976SOL    HW123564   2.073   2.655  11.136  0.7011  0.0113 -0.9393
 3976SOL    HW223565   2.065   2.802  11.128 -0.1604  0.5723  1.3390
 3977SOL     OW23566   0.553   4.351   5.769  0.2051 -0.0106 -0.1207
 3977SOL    HW123567   0.541   4.433   5.720 -1.2778 -0.2415 -0.1445
 3977SOL    HW223568   0.550   4.374   5.861 -1.6304 -1.3063  0.1489
 3978SOL     OW23569   3.829   0.633   6.460  0.1432 -0.1044  0.1687
 3978SOL    HW123570   3.828   0.706   6.522  0.9036  1.7305 -1.9899
 3978SOL    HW223571   3.858   0.684   6.384 -0.7883 -0.1218 -0.1915
 3979SOL     OW23572   4.629   2.703  16.075  0.0909  0.0861 -0.2106
 3979SOL    HW123573   4.556   2.756  16.107 -0.5177  0.0538 -1.5694
 3979SOL    HW223574   4.604   2.665  15.992 -2.3539  0.1889  0.4900
 3980SOL     OW23575   4.112   2.737   4.514  0.3433 -0.4793  0.2690
 3980SOL    HW123576   4.058   2.800   4.561 -0.5730  0.8315 -2.5666
 3980SOL    HW223577   4.150   2.674   4.575  1.6490  0.8000  0.7862
 3981SOL     OW23578   0.843   0.369   3.181  0.4271 -0.5276 -0.2528
 3981SOL    HW123579   0.784   0.294   3.183 -2.2229  1.6125  0.0279
 3981SOL    HW223580   0.809   0.414   3.103 -2.0498 -0.1920  1.0420
 3982SOL     OW23581   3.041   2.230  17.703 -0.7166  0.3549  0.0438
 3982SOL    HW123582   2.997   2.177  17.637 -1.7296 -0.2893  1.2242
 3982SOL    HW223583   3.068   2.298  17.642  1.4563  0.2986  0.9409
 3983SOL     OW23584   1.634   4.553   4.433  0.2870  0.3859 -0.4928
 3983SOL    HW123585   1.567   4.565   4.366 -1.4868 -1.4165  0.9412
 3983SOL    HW223586   1.603   4.622   4.493  0.1682  0.3123 -0.4707
 3984SOL     OW23587   3.077   4.287   9.211 -0.2263 -0.0414 -0.5236
 3984SOL    HW123588   3.145   4.231   9.173  0.9103  1.8365 -1.2751
 3984SOL    HW223589   3.116   4.375   9.211 -1.1185  0.3635 -1.0407
 3985SOL     OW23590   3.958   3.503  12.822  0.5819 -0.0791 -0.3409
 3985SOL    HW123591   3.916   3.581  12.786  0.9403 -0.6925 -2.0473
 3985SOL    HW223592   3.969   3.519  12.916 -1.3227 -1.5073  0.1271
 3986SOL     OW23593   3.196   4.418  16.280  0.0565 -0.4763 -0.2665
 3986SOL    HW123594   3.240   4.350  16.230 -0.2875 -0.0885 -1.1000
 3986SOL    HW223595   3.128   4.450  16.220 -0.2349 -3.1372 -1.3815
 3987SOL     OW23596   2.853   2.651   3.103 -0.2517  0.4658 -0.5427
 3987SOL    HW123597   2.887   2.631   3.190  0.1523 -0.3744 -0.8916
 3987SOL    HW223598   2.838   2.746   3.110  3.3267  0.9603  0.4849
 3988SOL     OW23599   4.392   1.677  17.053 -0.9007 -0.1882  0.2701
 3988SOL    HW123600   4.313   1.689  17.001 -0.3148  2.3245 -0.0201
 3988SOL    HW223601   4.416   1.768  17.069 -2.4927  0.7188 -2.6071
 3989SOL     OW23602   0.132   2.892  14.868  0.2842  0.4692  0.2201
 3989SOL    HW123603   0.074   2.882  14.792  2.2497  1.8466 -1.4464
 3989SOL    HW223604   0.118   2.984  14.892  2.9334  1.1608 -0.9417
 3990SOL     OW23605   3.449   0.113   8.140 -0.2944 -0.4856  0.0807
 3990SOL    HW123606   3.381   0.180   8.135  0.8619  0.3347 -4.5870
 3990SOL    HW223607   3.400   0.052   8.195  1.3773  0.1656  2.3048
 3991SOL     OW23608   0.413   4.454   8.374 -0.2782  0.2900  0.4885
 3991SOL    HW123609   0.325   4.438   8.341 -0.1835  0.2611  0.2485
 3991SOL    HW223610   0.446   4.512   8.305  1.6414 -1.0190  0.3116
 3992SOL     OW23611   1.598   4.133   3.051  0.2132 -0.1521 -0.2194
 3992SOL    HW123612   1.669   4.189   3.081 -0.1045  0.1877 -0.0935
 3992SOL    HW223613   1.595   4.082   3.131 -0.1099 -0.9975 -0.7701
 3993SOL     OW23614   2.624   4.023   5.489 -0.7246 -0.2705 -0.0175
 3993SOL    HW123615   2.714   3.992   5.503 -0.9693 -0.3491  1.2965
 3993SOL    HW223616   2.647   4.098   5.433 -1.7116  0.1679  0.1613
 3994SOL     OW23617   2.607   4.298   3.089  0.6185 -0.5393  0.8015
 3994SOL    HW123618   2.567   4.279   3.174 -2.1397 -0.1506 -0.4080
 3994SOL    HW223619   2.632   4.388   3.108  0.7144 -0.6043  0.9855
 3995SOL     OW23620   1.921   2.596  11.732  0.0453 -0.4523 -0.0578
 3995SOL    HW123621   1.874   2.675  11.759 -0.8530 -0.9162 -0.2674
 3995SOL    HW223622   1.962   2.559  11.811  4.2026 -0.3772 -2.2006
 3996SOL     OW23623   3.356   2.144  13.198 -0.4384 -0.0035  0.0879
 3996SOL    HW123624   3.336   2.081  13.266  1.0895 -2.4442 -1.7498
 3996SOL    HW223625   3.432   2.095  13.167  1.4375  2.9582 -0.0466
 3997SOL     OW23626   3.390   2.855   5.021 -0.1437  0.4344  0.2960
 3997SOL    HW123627   3.397   2.937   5.070 -0.6245  0.0439  1.0171
 3997SOL    HW223628   3.450   2.883   4.952  1.4399  0.0608  1.5309
 3998SOL     OW23629   4.353   2.597   0.630 -0.1112  0.1755  0.7198
 3998SOL    HW123630   4.373   2.666   0.693 -3.5007  2.6860 -0.9497
 3998SOL    HW223631   4.352   2.644   0.547  0.3649 -3.2246 -1.2133
 3999SOL     OW23632   0.708   3.148   0.532  0.6350  0.4375 -0.0512
 3999SOL    HW123633   0.745   3.090   0.598 -0.8459  1.0095  1.2679
 3999SOL    HW223634   0.630   3.179   0.578  0.8244  0.3335  0.3397
 4000SOL     OW23635   2.540   3.237   0.257  0.5820  0.6041  0.4407
 4000SOL    HW123636   2.623   3.189   0.264  0.6626  0.9287  1.7439
 4000SOL    HW223637   2.577   3.325   0.251 -0.5768  0.9379 -1.8014
 4001SOL     OW23638   3.271   3.302   4.791 -0.2985  0.3376 -0.0779
 4001SOL    HW123639   3.196   3.256   4.829  0.5795  0.8785  2.3205
 4001SOL    HW223640   3.352   3.261   4.821  0.9522  0.9799 -2.5790
 4002SOL     OW23641   3.273   1.644   6.460 -0.2711 -0.1114  0.0238
 4002SOL    HW123642   3.307   1.707   6.397 -1.4413  0.1900 -0.3086
 4002SOL    HW223643   3.191   1.680   6.493 -1.3862 -0.7592 -2.0032
 4003SOL     OW23644   0.152   2.539  11.117 -0.0950  0.2874  0.5770
 4003SOL    HW123645   0.175   2.458  11.071 -3.5148 -0.6217  0.4503
 4003SOL    HW223646   0.098   2.583  11.052  1.9983  2.1633  0.1263
 4004SOL     OW23647   0.721   0.058   5.740 -0.5636  0.5115 -0.2177
 4004SOL    HW123648   0.628   0.080   5.741 -0.4655  0.9863 -1.6464
 4004SOL    HW223649   0.745   0.046   5.832  2.6182 -1.8848 -1.3712
 4005SOL     OW23650   0.148   3.961   7.866  0.2381 -0.2138 -0.2789
 4005SOL    HW123651   0.087   3.915   7.923 -0.7934  0.1221 -1.1049
 4005SOL    HW223652   0.087   4.019   7.819  1.9270  2.2180  0.5348
 4006SOL     OW23653   2.533   0.278   5.731  0.0013 -0.3532 -0.3209
 4006SOL    HW123654   2.474   0.307   5.800 -2.5412  0.4569 -2.8156
 4006SOL    HW223655   2.615   0.324   5.753  0.2816 -0.7373 -0.5789
 4007SOL     OW23656   2.819   0.578   4.941 -0.1891  0.4619 -0.0426
 4007SOL    HW123657   2.888   0.641   4.918  0.0083  0.5178  0.7178
 4007SOL    HW223658   2.821   0.520   4.865  3.5396 -2.4047  2.2388
 4008SOL     OW23659   1.967   3.483   9.850 -0.5324  0.4589 -0.0908
 4008SOL    HW123660   2.024   3.427   9.797  1.3955  1.9215  0.4356
 4008SOL    HW223661   1.886   3.436   9.831  0.0308  0.2198 -1.9151
 4009SOL     OW23662   0.069   1.822   9.328 -0.2149 -0.0798 -0.3316
 4009SOL    HW123663   0.149   1.792   9.284 -0.0561  2.7679 -1.9524
 4009SOL    HW223664   0.027   1.737   9.338  2.8068 -1.3456  1.5560
 4010SOL     OW23665   2.919   2.694  17.649 -0.2506  0.0596 -0.2070
 4010SOL    HW123666   2.911   2.786  17.673  0.4435  0.3615 -1.1147
 4010SOL    HW223667   3.011   2.671  17.634 -0.0396 -0.5834  2.1171
 4011SOL     OW23668   4.218   2.471   4.593  0.0548  0.3908 -0.0894
 4011SOL    HW123669   4.308   2.502   4.585  0.7879 -1.8575 -0.6801
 4011SOL    HW223670   4.201   2.514   4.677  1.4947 -0.0620  0.4255
 4012SOL     OW23671   3.148   2.793   7.940  0.3077  0.4806 -0.0053
 4012SOL    HW123672   3.225   2.779   7.885  0.9063 -0.8244  1.1638
 4012SOL    HW223673   3.185   2.825   8.023  0.5634  0.2527 -0.0318
 4013SOL     OW23674   3.536   4.205   6.319 -0.0790  0.5191  0.4331
 4013SOL    HW123675   3.502   4.116   6.310  2.7883 -0.5026 -0.0684
 4013SOL    HW223676   3.577   4.208   6.233  0.9279  0.0087  0.9070
 4014SOL     OW23677   2.993   3.871   2.295  0.4898 -0.7709 -0.3407
 4014SOL    HW123678   3.014   3.864   2.202  1.9224 -0.4568 -0.0458
 4014SOL    HW223679   3.080   3.885   2.333  0.9717 -1.3023 -1.2612
 4015SOL     OW23680   3.663   1.305   9.120  0.0731 -0.4865  0.3742
 4015SOL    HW123681   3.642   1.397   9.136 -0.1983 -0.2825 -1.1352
 4015SOL    HW223682   3.617   1.297   9.036 -0.3449  3.0840  0.2537
 4016SOL     OW23683   4.483   4.245   0.303  0.3311 -0.0995  0.2506
 4016SOL    HW123684   4.510   4.157   0.278 -1.6486 -0.3275 -1.1043
 4016SOL    HW223685   4.409   4.259   0.244  0.4685  0.0335  0.1099
 4017SOL     OW23686   3.988   3.111   7.035 -0.3352 -0.2663  0.6760
 4017SOL    HW123687   3.973   3.027   7.078  1.1025  0.2407  2.1829
 4017SOL    HW223688   4.068   3.130   7.084  0.4475 -1.1875 -0.2372
 4018SOL     OW23689   1.776   3.428   2.123  0.2178  0.2225 -0.4287
 4018SOL    HW123690   1.859   3.460   2.086 -0.9090  1.0488 -2.2600
 4018SOL    HW223691   1.758   3.502   2.180 -0.3078 -0.4275  0.2337
 4019SOL     OW23692   3.787   0.525  17.329  0.6048  0.3791 -0.5579
 4019SOL    HW123693   3.761   0.453  17.387  0.2300  0.6171 -0.4292
 4019SOL    HW223694   3.788   0.492  17.239 -0.1126  0.0777 -0.4620
 4020SOL     OW23695   3.024   0.782   2.100  0.2449 -0.7943  0.2688
 4020SOL    HW123696   3.086   0.711   2.084 -1.0719 -2.2863  1.7848
 4020SOL    HW223697   3.082   0.858   2.100 -0.6548 -0.1031 -1.0099
 4021SOL     OW23698   1.586   1.770  11.272 -0.3854 -0.8819 -0.1615
 4021SOL    HW123699   1.531   1.752  11.348  0.1410 -3.5985 -0.4200
 4021SOL    HW223700   1.567   1.696  11.214  0.6504 -0.9766 -0.3864
 4022SOL     OW23701   4.674   0.262  11.510 -0.5301  0.4523  0.0600
 4022SOL    HW123702   4.596   0.296  11.553 -1.3546  0.9941 -1.8741
 4022SOL    HW223703   4.656   0.168  11.504 -0.8341  0.5564 -0.6408
 4023SOL     OW23704   3.432   2.539   8.107  0.2094 -0.1928 -0.0270
 4023SOL    HW123705   3.426   2.462   8.050  1.8382 -0.1844 -0.1976
 4023SOL    HW223706   3.470   2.607   8.053 -2.1930  1.3004  0.1406
 4024SOL     OW23707   2.277   4.396   0.501  0.4138 -0.9159 -0.0857
 4024SOL    HW123708   2.363   4.356   0.517 -0.0769 -2.9000 -2.3383
 4024SOL    HW223709   2.233   4.346   0.569  0.4579  0.8790  1.2599
 4025SOL     OW23710   0.775   1.491  17.059  0.0960 -0.1175 -0.4314
 4025SOL    HW123711   0.864   1.517  17.086  0.4012 -0.3208 -1.2472
 4025SOL    HW223712   0.781   1.491  16.963 -1.3221  0.7999 -0.5135
 4026SOL     OW23713   4.710   2.793  16.378 -0.0408  0.2884  0.0052
 4026SOL    HW123714   4.688   2.884  16.362 -4.4344 -1.1017 -1.7104
 4026SOL    HW223715   4.627   2.751  16.357  1.6977 -2.9261 -0.5333
 4027SOL     OW23716   3.738   3.454   4.410 -0.1764 -0.7403 -0.3247
 4027SOL    HW123717   3.791   3.377   4.388  1.9874  0.0724  2.0871
 4027SOL    HW223718   3.791   3.483   4.484 -0.8663  1.8143 -0.8418
 4028SOL     OW23719   0.622   4.190   8.432 -0.3952 -0.4142 -0.1966
 4028SOL    HW123720   0.532   4.158   8.427 -0.9439  0.9345  0.9684
 4028SOL    HW223721   0.605   4.279   8.402  1.0532 -0.2070 -0.3729
 4029SOL     OW23722   4.460   2.190   4.807  0.5090  0.2907 -0.0172
 4029SOL    HW123723   4.499   2.190   4.894  0.7131 -0.0500 -0.1078
 4029SOL    HW223724   4.426   2.279   4.810  1.2719  0.5126  2.0035
 4030SOL     OW23725   3.659   4.622   7.357 -0.1018  0.4065  0.2731
 4030SOL    HW123726   3.689   4.639   7.446 -2.7317  2.0155  0.8205
 4030SOL    HW223727   3.660   4.710   7.320 -0.0842  1.1288  2.0268
 4031SOL     OW23728   3.050   0.908   5.746 -0.1784 -0.2573 -0.4024
 4031SOL    HW123729   3.141   0.885   5.765 -0.3868 -0.8679 -0.1555
 4031SOL    HW223730   3.019   0.921   5.836 -0.1397 -0.5750 -0.3435
 4032SOL     OW23731   0.247   0.677   1.438  0.5219 -0.2604 -0.9086
 4032SOL    HW123732   0.204   0.593   1.451  0.1367  0.2838  1.4908
 4032SOL    HW223733   0.186   0.717   1.376 -0.0447 -1.4257 -1.0994
 4033SOL     OW23734   3.474   4.637  10.461 -0.1031 -0.0812 -0.1441
 4033SOL    HW123735   3.458   4.715  10.408 -1.0860 -1.7928 -2.3781
 4033SOL    HW223736   3.390   4.624  10.506 -0.2421  4.7286  0.9532
 4034SOL     OW23737   3.473   0.177   4.734 -0.4551  0.3325  0.7473
 4034SOL    HW123738   3.551   0.126   4.713  0.1559  1.4276  0.3513
 4034SOL    HW223739   3.497   0.214   4.819  1.1268  0.6925  0.1438
 4035SOL     OW23740   0.006   2.292  17.550 -0.3420 -0.2012  0.2467
 4035SOL    HW123741   0.080   2.235  17.572  1.5550  1.4559 -1.9166
 4035SOL    HW223742   4.663   2.250  17.588 -0.1872 -0.2879  0.4706
 4036SOL     OW23743   2.507   0.930   6.941  0.1333  0.2271  0.1293
 4036SOL    HW123744   2.514   0.991   6.867 -0.3289  0.2392  0.0945
 4036SOL    HW223745   2.413   0.909   6.937 -0.1706  1.6736 -0.6777
 4037SOL     OW23746   3.053   4.715   6.415  0.1098  0.6391  0.7738
 4037SOL    HW123747   3.139   4.675   6.409  0.4268  1.0777  2.4558
 4037SOL    HW223748   3.048   0.044   6.344  1.1366 -0.6627 -0.4619
 4038SOL     OW23749   2.451   0.563   4.409  0.5342  0.9057  0.1945
 4038SOL    HW123750   2.406   0.571   4.325 -0.1604 -0.7541  0.4189
 4038SOL    HW223751   2.539   0.581   4.376  0.3434 -0.3247 -0.9957
 4039SOL     OW23752   0.282   1.967   7.876  0.7951 -0.2105  0.0808
 4039SOL    HW123753   0.203   1.950   7.927  0.6995  1.9146  0.6415
 4039SOL    HW223754   0.265   1.901   7.809  1.4989 -1.6147  1.2774
 4040SOL     OW23755   4.302   3.559   9.550 -0.0010  0.0150  0.0633
 4040SOL    HW123756   4.387   3.550   9.509  0.4195 -0.4449  1.0342
 4040SOL    HW223757   4.320   3.628   9.614 -0.1730 -0.4414  0.6029
 4041SOL     OW23758   4.111   4.051   5.271 -0.4640  0.0676  0.3637
 4041SOL    HW123759   4.151   4.004   5.198  1.0863  2.9305 -0.6474
 4041SOL    HW223760   4.016   4.042   5.264 -0.7697  1.0734  3.2066
 4042SOL     OW23761   1.372   1.849  14.664 -0.0127  0.5607 -0.0152
 4042SOL    HW123762   1.413   1.848  14.751 -2.6221 -1.2338  1.1635
 4042SOL    HW223763   1.345   1.940  14.675 -1.4433  0.3372 -1.8748
 4043SOL     OW23764   2.156   4.260   8.266  0.1898 -0.3205 -0.3078
 4043SOL    HW123765   2.237   4.289   8.308  0.1383 -1.2895  0.4750
 4043SOL    HW223766   2.109   4.221   8.340  0.1450 -1.7165 -1.0656
 4044SOL     OW23767   1.366   0.781  15.472  0.4635  0.4695 -0.0277
 4044SOL    HW123768   1.361   0.688  15.495 -1.5303 -0.2652 -3.3465
 4044SOL    HW223769   1.304   0.793  15.400  2.7289  1.7903 -1.8100
 4045SOL     OW23770   1.971   1.412  13.326 -0.4859  0.1341  0.8973
 4045SOL    HW123771   1.891   1.412  13.379 -0.4597  1.6105  0.9576
 4045SOL    HW223772   1.948   1.432  13.236 -0.2237  0.4755  0.9032
 4046SOL     OW23773   2.244   2.927   6.545  0.0026 -0.5036 -0.1201
 4046SOL    HW123774   2.338   2.923   6.564 -0.2116  3.4553  1.6373
 4046SOL    HW223775   2.240   3.019   6.570 -0.6478 -0.1736 -1.4292
 4047SOL     OW23776   0.586   0.930   9.016  0.5391  0.2008 -0.4361
 4047SOL    HW123777   0.613   0.844   8.986  0.3569 -0.5872  1.6785
 4047SOL    HW223778   0.517   0.946   8.951 -0.2399 -1.3935 -0.0097
 4048SOL     OW23779   3.651   3.739  13.621  0.7374 -0.5360 -0.2703
 4048SOL    HW123780   3.677   3.718  13.531 -0.8733 -1.2093 -0.5917
 4048SOL    HW223781   3.646   3.649  13.653  0.7088  0.0249  1.3281
 4049SOL     OW23782   3.066   0.356   7.393  0.3586  0.5840  0.2138
 4049SOL    HW123783   3.054   0.290   7.461  0.4233 -0.5680 -0.8906
 4049SOL    HW223784   3.004   0.325   7.326  1.6098  1.7695 -1.4848
 4050SOL     OW23785   0.220   4.491   6.946  0.4700 -0.6242 -0.0802
 4050SOL    HW123786   0.137   4.462   6.983  0.7745 -1.0627  0.2577
 4050SOL    HW223787   0.225   4.435   6.868  1.3820 -0.9794  0.2412
 4051SOL     OW23788   3.455   3.954   8.890 -0.4319  0.2122 -0.1053
 4051SOL    HW123789   3.369   3.922   8.862 -0.9757  1.9632 -0.4513
 4051SOL    HW223790   3.496   3.878   8.930 -0.1442  1.5169  2.0700
 4052SOL     OW23791   0.039   2.189   3.920 -0.3329 -0.2509  0.0592
 4052SOL    HW123792   0.087   2.185   4.003 -2.9486 -1.0363  1.5339
 4052SOL    HW223793   0.084   2.122   3.870 -0.7227 -0.5908  0.1629
 4053SOL     OW23794   1.014   3.651   7.236 -0.5180 -0.4137  0.3353
 4053SOL    HW123795   1.025   3.745   7.247  1.8863 -0.6227 -0.2817
 4053SOL    HW223796   1.050   3.631   7.149 -0.0745 -1.2415  0.7041
 4054SOL     OW23797   0.881   2.719   0.125 -0.7097 -0.2117  0.1374
 4054SOL    HW123798   0.955   2.742   0.180 -2.6928 -0.9161  3.1043
 4054SOL    HW223799   0.810   2.778   0.148 -0.8152 -0.2687 -0.0403
 4055SOL     OW23800   2.275   2.559   5.723  0.6329  0.0469 -0.3587
 4055SOL    HW123801   2.318   2.479   5.694  2.6272  0.2034  2.2087
 4055SOL    HW223802   2.219   2.528   5.795  1.3449 -1.2849 -0.3768
 4056SOL     OW23803   2.975   4.191   6.785 -0.2716  0.3802 -0.0820
 4056SOL    HW123804   2.919   4.258   6.823 -1.3733 -0.7137  0.2394
 4056SOL    HW223805   2.966   4.202   6.690  0.5662  0.6829 -0.1264
 4057SOL     OW23806   3.393   0.612   6.607  0.0412  0.3470  0.0482
 4057SOL    HW123807   3.365   0.537   6.660 -1.1333  1.2791  0.7605
 4057SOL    HW223808   3.357   0.689   6.652  0.7550  1.5842 -1.5190
 4058SOL     OW23809   1.004   1.040   0.961 -0.1696  0.2030 -0.0982
 4058SOL    HW123810   0.975   1.074   0.876  0.4622  0.0201 -0.3810
 4058SOL    HW223811   0.928   1.050   1.018 -0.6347  0.9894 -0.8433
 4059SOL     OW23812   4.151   0.877   3.686 -0.0804 -0.6602 -0.2396
 4059SOL    HW123813   4.235   0.922   3.689 -0.1997 -0.3347 -1.6188
 4059SOL    HW223814   4.101   0.946   3.642  0.8725 -0.0702 -0.3778
 4060SOL     OW23815   1.706   2.148   8.114  0.0640 -0.0279  0.7160
 4060SOL    HW123816   1.636   2.142   8.178 -2.0816 -1.0941 -1.7022
 4060SOL    HW223817   1.700   2.241   8.093 -0.0948 -0.7756 -2.6829
 4061SOL     OW23818   2.364   0.590   0.938  0.2506 -0.7362  0.6439
 4061SOL    HW123819   2.388   0.509   0.891 -1.1089 -1.1173  0.5953
 4061SOL    HW223820   2.330   0.565   1.023  0.0202 -0.8694  0.5135
 4062SOL     OW23821   4.009   2.210   6.557  0.2699  0.2066 -0.3708
 4062SOL    HW123822   4.048   2.158   6.628  0.5571  3.4270  1.8059
 4062SOL    HW223823   4.062   2.289   6.560 -1.5412  1.3286  1.4582
 4063SOL     OW23824   1.687   3.987   5.645 -0.4997  0.1299  0.0153
 4063SOL    HW123825   1.726   3.911   5.688  2.4321  1.6044 -0.0527
 4063SOL    HW223826   1.731   4.061   5.686  2.9601  0.2122 -3.8173
 4064SOL     OW23827   1.202   2.635   5.836 -0.1609 -0.0397  0.1676
 4064SOL    HW123828   1.209   2.706   5.772  0.8595 -0.8790 -0.6641
 4064SOL    HW223829   1.229   2.561   5.781  0.5217 -0.9310  1.7144
 4065SOL     OW23830   1.553   4.339  15.304  0.1693 -0.1533 -0.1311
 4065SOL    HW123831   1.588   4.428  15.306  2.8687 -1.1879 -0.8975
 4065SOL    HW223832   1.491   4.338  15.376 -0.5550 -1.8867 -0.7748
 4066SOL     OW23833   0.164   1.749  12.324  0.1714 -0.0685  0.4001
 4066SOL    HW123834   0.193   1.761  12.415 -0.1053 -1.4229  0.6585
 4066SOL    HW223835   0.231   1.689  12.293 -0.2263 -2.1301  3.4684
 4067SOL     OW23836   2.308   2.154  12.441  0.2453  0.1094  0.2035
 4067SOL    HW123837   2.375   2.142  12.374 -0.3894  1.1818 -0.6432
 4067SOL    HW223838   2.277   2.244  12.429  0.8820  0.1613 -1.0009
 4068SOL     OW23839   4.608   1.029   3.445  0.4783  0.1997 -0.0634
 4068SOL    HW123840   4.690   1.025   3.395 -0.1796 -1.3339 -1.0154
 4068SOL    HW223841   4.623   0.958   3.507 -1.3351  0.8329  1.0933
 4069SOL     OW23842   0.029   3.051   8.561  0.1997  0.2107 -0.2211
 4069SOL    HW123843   0.061   3.032   8.649 -1.1302  1.7763  0.5978
 4069SOL    HW223844   0.109   3.077   8.514  1.0010 -1.4966  0.1890
 4070SOL     OW23845   4.411   0.555   3.001  0.0962 -0.2710 -0.7261
 4070SOL    HW123846   4.429   0.619   3.071 -1.6642 -0.6546  0.1049
 4070SOL    HW223847   4.329   0.588   2.963  0.1376  0.3772 -0.2491
 4071SOL     OW23848   4.222   4.281  14.288  0.0138 -0.3065  0.1862
 4071SOL    HW123849   4.164   4.206  14.278  1.4684 -1.4960  0.8010
 4071SOL    HW223850   4.217   4.285  14.384  1.6988 -0.5245  0.2782
 4072SOL     OW23851   2.218   0.088   6.924 -0.3513 -0.0058 -0.4803
 4072SOL    HW123852   2.176   0.174   6.923 -3.1418 -1.3542  2.0291
 4072SOL    HW223853   2.146   0.032   6.953 -0.6521  0.7626  0.2444
 4073SOL     OW23854   0.239   0.518   8.146 -0.0021 -0.1103 -0.1035
 4073SOL    HW123855   0.299   0.506   8.220  0.4845  1.2546 -0.2898
 4073SOL    HW223856   0.155   0.488   8.182  0.1186 -0.0869  0.2028
 4074SOL     OW23857   1.389   1.491  10.065 -0.2000  0.2149 -0.1999
 4074SOL    HW123858   1.420   1.411  10.023 -0.0750  1.4200 -2.3973
 4074SOL    HW223859   1.423   1.551   9.999  1.8239 -0.7340 -0.0188
 4075SOL     OW23860   2.000   3.114   7.337 -0.0268 -0.5098 -0.0019
 4075SOL    HW123861   2.060   3.062   7.283  0.3944  0.1760 -0.1888
 4075SOL    HW223862   2.039   3.201   7.332 -0.6585 -0.1761  0.8478
 4076SOL     OW23863   3.640   3.904  17.000 -0.2333 -0.5326 -0.4372
 4076SOL    HW123864   3.552   3.935  17.018 -0.1907 -0.4402 -0.3889
 4076SOL    HW223865   3.615   3.812  16.997  0.3015 -0.6896 -0.1878
 4077SOL     OW23866   2.088   1.389   6.750 -0.1463 -0.1001 -0.3276
 4077SOL    HW123867   1.994   1.406   6.749 -0.4659 -1.8409  0.9944
 4077SOL    HW223868   2.124   1.476   6.765  4.6787 -2.0374 -0.8053
 4078SOL     OW23869   4.050   2.383   2.179  0.0112  0.1907 -0.4358
 4078SOL    HW123870   4.101   2.464   2.184  0.7857 -0.2656 -0.8524
 4078SOL    HW223871   3.975   2.401   2.236 -0.4796 -0.8994 -0.7370
 4079SOL     OW23872   2.509   2.453  16.876  0.0037 -0.2658 -0.2049
 4079SOL    HW123873   2.445   2.415  16.936 -0.7154 -1.1712 -1.5380
 4079SOL    HW223874   2.483   2.414  16.792  0.5680 -0.8451 -0.1080
 4080SOL     OW23875   1.042   4.466   2.443  0.0006 -0.0014 -0.1494
 4080SOL    HW123876   0.974   4.493   2.504  0.2329 -0.3558  0.2641
 4080SOL    HW223877   1.033   4.533   2.375  3.2013  0.7177  0.0970
 4081SOL     OW23878   0.451   2.137   7.145  0.4675 -0.1450  0.8874
 4081SOL    HW123879   0.520   2.168   7.086 -3.0712  1.3682 -2.4513
 4081SOL    HW223880   0.483   2.180   7.225 -2.4113  0.2739  1.8380
 4082SOL     OW23881   2.334   4.424  10.717  0.0567  0.3215  0.6807
 4082SOL    HW123882   2.249   4.462  10.738  0.5431  0.9703  1.4464
 4082SOL    HW223883   2.354   4.372  10.795 -1.5508 -1.3471  0.0058
 4083SOL     OW23884   2.681   3.382  12.451  0.4220  0.3808 -0.2373
 4083SOL    HW123885   2.633   3.313  12.496  0.8854  0.6905  0.7108
 4083SOL    HW223886   2.698   3.328  12.373 -0.8798 -2.0685  1.1706
 4084SOL     OW23887   0.796   4.315   0.467 -0.1271  0.1427  0.2278
 4084SOL    HW123888   0.804   4.406   0.495  0.2009  0.3729 -0.6345
 4084SOL    HW223889   0.705   4.310   0.497 -0.7678  0.0758 -1.7302
 4085SOL     OW23890   0.461   2.151   7.538  0.0489  0.2651  0.3160
 4085SOL    HW123891   0.372   2.153   7.503  0.4507  3.0251 -0.5703
 4085SOL    HW223892   0.454   2.168   7.632  0.2719  4.9783 -0.4880
 4086SOL     OW23893   3.031   4.543   2.105  0.0992  0.9427  0.0313
 4086SOL    HW123894   3.109   4.540   2.050  0.4343  0.0596  0.5649
 4086SOL    HW223895   2.970   4.591   2.049 -3.0381 -2.6946  0.3755
 4087SOL     OW23896   2.402   0.902  17.110 -0.2045 -0.2082 -0.4783
 4087SOL    HW123897   2.462   0.844  17.157  2.5402  1.6964 -1.6235
 4087SOL    HW223898   2.458   0.914  17.034  1.3459 -0.1571  0.6797
 4088SOL     OW23899   0.037   3.945   3.618  0.8685  0.3334 -1.0157
 4088SOL    HW123900   0.051   4.039   3.629  1.9883  0.1635 -0.9729
 4088SOL    HW223901   0.049   3.905   3.705 -1.1032 -0.5051 -1.1169
 4089SOL     OW23902   3.569   4.267   7.367  0.3175 -0.1872 -0.0307
 4089SOL    HW123903   3.562   4.340   7.430  1.2700  0.0459 -0.1938
 4089SOL    HW223904   3.664   4.255   7.371  0.4066  0.2907 -0.7888
 4090SOL     OW23905   3.396   1.281   4.086 -0.3251  0.1242 -0.0429
 4090SOL    HW123906   3.440   1.212   4.036  0.9671  1.0039 -0.1259
 4090SOL    HW223907   3.320   1.276   4.028 -0.1868 -0.0006 -0.2132
 4091SOL     OW23908   0.534   3.331  10.730  0.1568  0.4077 -0.0348
 4091SOL    HW123909   0.556   3.411  10.682 -1.4366  1.3891  0.8582
 4091SOL    HW223910   0.592   3.272  10.681  1.8986  1.7079  0.4358
 4092SOL     OW23911   1.752   0.549   5.169  0.4669  0.4604 -0.4560
 4092SOL    HW123912   1.752   0.645   5.167 -3.4067  0.4859  0.2780
 4092SOL    HW223913   1.665   0.526   5.203  0.1406  2.0081 -0.2595
 4093SOL     OW23914   3.565   4.510   9.506  0.8130 -0.0027 -0.6767
 4093SOL    HW123915   3.529   4.430   9.469 -0.1970 -0.5933  1.5769
 4093SOL    HW223916   3.530   4.572   9.442  1.9622  0.0628 -1.2535
 4094SOL     OW23917   4.019   3.272  15.755 -0.1671  0.0014 -0.1303
 4094SOL    HW123918   4.070   3.212  15.809 -2.4895 -1.5584  0.2922
 4094SOL    HW223919   3.977   3.206  15.699  1.0767 -1.1059  0.2331
 4095SOL     OW23920   0.422   2.580  14.834 -0.0134  0.2572  0.5377
 4095SOL    HW123921   0.333   2.601  14.862 -1.0643 -1.0881 -1.7730
 4095SOL    HW223922   0.443   2.672  14.816 -1.9166  0.7034  0.5148
 4096SOL     OW23923   2.130   3.282   5.964 -0.0225  0.0364  0.4287
 4096SOL    HW123924   2.175   3.362   5.993 -0.4522  0.0926  0.9373
 4096SOL    HW223925   2.199   3.224   5.996  0.3337 -0.0028 -0.4062
 4097SOL     OW23926   4.253   0.089   4.488  0.3194  0.3881  0.3561
 4097SOL    HW123927   4.180   0.031   4.511  1.6168 -2.2568 -2.2438
 4097SOL    HW223928   4.230   0.171   4.533 -0.8861  0.1619  0.1685
 4098SOL     OW23929   2.273   4.397   3.793  0.5670  0.2072 -0.1206
 4098SOL    HW123930   2.365   4.407   3.817 -0.3841  1.9172  2.8003
 4098SOL    HW223931   2.279   4.438   3.707  0.3707  0.2925 -0.0915
 4099SOL     OW23932   3.411   3.744   8.406  0.0764 -0.6292 -0.2251
 4099SOL    HW123933   3.330   3.794   8.392  1.0750  0.5393 -1.7610
 4099SOL    HW223934   3.443   3.732   8.317  2.6160 -1.6047  0.8080
 4100SOL     OW23935   2.070   0.750   6.666 -0.3102  0.3914 -0.1949
 4100SOL    HW123936   2.055   0.720   6.576  1.6899  2.4570 -1.2246
 4100SOL    HW223937   2.075   0.663   6.706  1.5867  1.2605  1.4392
 4101SOL     OW23938   1.813   3.175  13.481 -0.0907  0.3068  0.0790
 4101SOL    HW123939   1.896   3.166  13.528  0.3301  0.6603 -0.5836
 4101SOL    HW223940   1.764   3.130  13.549 -1.9191  0.7743 -0.9146
 4102SOL     OW23941   0.407   3.465   8.956 -0.0348 -0.4229  0.6729
 4102SOL    HW123942   0.439   3.539   9.007  0.9879  1.3515 -2.5162
 4102SOL    HW223943   0.468   3.399   8.987 -0.0261 -0.6389  0.2014
 4103SOL     OW23944   3.717   1.559   0.177  0.5300  0.6235 -0.4693
 4103SOL    HW123945   3.810   1.576   0.188  1.0947 -2.9670  0.2002
 4103SOL    HW223946   3.682   1.641   0.213 -1.1936  0.2489 -1.2711
 4104SOL     OW23947   0.986   2.611  10.144  0.8055  0.2967 -0.2072
 4104SOL    HW123948   1.036   2.683  10.182  0.1021  1.0270 -0.6709
 4104SOL    HW223949   0.990   2.639  10.053  0.3885  0.8032 -0.0751
 4105SOL     OW23950   4.321   2.308   6.910  0.1924 -0.5069  0.0341
 4105SOL    HW123951   4.317   2.402   6.929  0.4321 -0.2487 -1.2411
 4105SOL    HW223952   4.415   2.299   6.926 -0.1379 -3.6865  0.2167
 4106SOL     OW23953   2.697   3.198  15.412  0.5859 -0.1296  0.4068
 4106SOL    HW123954   2.744   3.163  15.488  0.9552 -1.2040 -0.3219
 4106SOL    HW223955   2.607   3.170  15.428  0.3620  0.4149  0.0686
 4107SOL     OW23956   1.767   0.751  12.377 -0.2604  0.2013 -0.9575
 4107SOL    HW123957   1.738   0.696  12.304 -0.1914  0.1552 -0.9499
 4107SOL    HW223958   1.798   0.832  12.338  0.5854  0.5926  0.5291
 4108SOL     OW23959   0.871   3.127  15.604  0.1341 -0.2586 -0.1442
 4108SOL    HW123960   0.821   3.178  15.541 -1.3272 -0.5222  0.8029
 4108SOL    HW223961   0.870   3.196  15.670 -1.8124 -1.3614  0.9622
 4109SOL     OW23962   1.801   2.743   2.870  0.2079  0.3743 -0.5543
 4109SOL    HW123963   1.812   2.683   2.796  2.6139 -0.0150  0.1285
 4109SOL    HW223964   1.733   2.691   2.913  0.4707 -0.3397 -0.9978
 4110SOL     OW23965   1.652   3.264   6.784  0.0475 -0.1935 -0.0918
 4110SOL    HW123966   1.712   3.199   6.823  1.7577  1.1599 -0.4637
 4110SOL    HW223967   1.672   3.339   6.840 -2.2082  1.6276 -1.7657
 4111SOL     OW23968   4.319   1.031  11.796 -0.6408  0.2240  0.7714
 4111SOL    HW123969   4.413   1.019  11.811 -0.5306  1.3044  0.9555
 4111SOL    HW223970   4.315   1.127  11.795  2.0212  0.3120 -1.3073
 4112SOL     OW23971   4.168   1.421   6.946 -0.3766 -0.5180  0.7743
 4112SOL    HW123972   4.141   1.347   7.000  0.2750 -0.9975  0.4477
 4112SOL    HW223973   4.256   1.404   6.913 -0.2265 -0.1476  0.9807
 4113SOL     OW23974   2.057   0.863  17.506 -0.7342  0.2118 -0.1257
 4113SOL    HW123975   2.054   0.773  17.475 -0.2761 -0.7729  2.6602
 4113SOL    HW223976   2.037   0.917  17.430 -0.7892  1.3490  0.6846
 4114SOL     OW23977   3.202   0.019  12.871  0.5637  0.0424  0.7165
 4114SOL    HW123978   3.159   4.707  12.799  1.7303  0.7264 -0.4271
 4114SOL    HW223979   3.232   0.098  12.827 -1.2910 -0.4266 -1.3984
 4115SOL     OW23980   4.726   3.466   9.205 -0.5926 -0.1881  0.2302
 4115SOL    HW123981   0.045   3.508   9.272 -1.6578  0.5594  0.6223
 4115SOL    HW223982   0.061   3.424   9.155  1.0465 -0.4596  2.7431
 4116SOL     OW23983   1.475   1.701  17.009  0.5220 -0.1156  0.0317
 4116SOL    HW123984   1.516   1.675  16.926  0.4693 -0.3136  0.0688
 4116SOL    HW223985   1.382   1.715  16.993  0.9185  2.9598  0.3379
 4117SOL     OW23986   1.977   3.572  13.772 -0.0557  0.2936 -0.4586
 4117SOL    HW123987   1.963   3.660  13.736  1.0157  0.7420  0.2203
 4117SOL    HW223988   1.954   3.512  13.701 -0.2512 -0.7269  0.4635
 4118SOL     OW23989   1.773   2.550   2.094  0.0634 -0.0363  0.0459
 4118SOL    HW123990   1.721   2.590   2.162 -0.7169 -0.0039 -0.5684
 4118SOL    HW223991   1.841   2.618   2.094 -1.0283  1.0388 -1.0722
 4119SOL     OW23992   0.729   0.390   8.365 -0.0150 -0.2207 -0.1428
 4119SOL    HW123993   0.681   0.468   8.393 -0.4868 -0.0361 -1.4926
 4119SOL    HW223994   0.659   0.359   8.308  1.2058 -0.2325 -1.6342
 4120SOL     OW23995   3.179   2.191   1.598  0.2821  0.0465 -0.3055
 4120SOL    HW123996   3.175   2.229   1.511  3.0646  0.1994 -0.3821
 4120SOL    HW223997   3.232   2.261   1.637  0.5731  0.0185 -0.6515
 4121SOL     OW23998   1.136   0.260   8.305 -0.4849  0.1922 -0.0380
 4121SOL    HW123999   1.090   0.323   8.361 -1.8381 -1.3705  0.5771
 4121SOL    HW224000   1.067   0.223   8.250 -0.2653  0.7184 -0.6657
 4122SOL     OW24001   2.372   2.664   3.533 -0.1700 -0.1548  0.5142
 4122SOL    HW124002   2.458   2.678   3.493  0.6679 -1.5645  1.8038
 4122SOL    HW224003   2.320   2.628   3.461 -2.6858  2.4022  1.0789
 4123SOL     OW24004   2.367   0.321   2.463  0.6518 -0.5841 -0.5664
 4123SOL    HW124005   2.428   0.318   2.390  1.5285 -0.8975  0.1820
 4123SOL    HW224006   2.312   0.392   2.431 -0.1355 -1.5514 -1.3807
 4124SOL     OW24007   0.331   4.273   9.385 -0.4867 -0.2604 -0.1405
 4124SOL    HW124008   0.287   4.349   9.347  0.4872  0.2345 -0.2705
 4124SOL    HW224009   0.418   4.281   9.347 -0.8885  0.1663 -0.9718
 4125SOL     OW24010   0.929   4.556  15.582  0.1302  0.3278 -0.0217
 4125SOL    HW124011   0.972   4.596  15.658  1.6168 -1.8125  0.2558
 4125SOL    HW224012   0.968   4.602  15.507  1.0496 -2.7156 -1.4255
 4126SOL     OW24013   3.043   3.999  12.399 -0.8301  0.4404 -0.2052
 4126SOL    HW124014   3.100   4.073  12.381 -2.3913  0.9916 -2.8049
 4126SOL    HW224015   3.053   3.986  12.494  1.7224  5.0722  0.1662
 4127SOL     OW24016   0.689   0.477   2.930  0.1361 -0.1924 -0.2039
 4127SOL    HW124017   0.703   0.553   2.873 -0.1730 -0.4474 -0.6239
 4127SOL    HW224018   0.700   0.402   2.871  0.1930 -1.4746  1.4367
 4128SOL     OW24019   0.651   1.242   8.615 -0.4129  0.0642 -0.1054
 4128SOL    HW124020   0.562   1.276   8.619 -1.0322 -1.7801  1.5833
 4128SOL    HW224021   0.662   1.246   8.710  0.1853 -0.4431 -0.1499
 4129SOL     OW24022   1.092   1.973   4.304 -0.2777 -0.2638  0.0167
 4129SOL    HW124023   1.188   1.967   4.298 -0.4905 -3.5936  0.3003
 4129SOL    HW224024   1.066   1.918   4.377 -0.7184 -1.1003 -0.7725
 4130SOL     OW24025   3.321   2.847   0.020 -0.2469  0.0445  0.5362
 4130SOL    HW124026   3.335   2.927  17.709  0.6481  0.0472  0.7986
 4130SOL    HW224027   3.410   2.835   0.054  0.1024  2.7120  0.5314
 4131SOL     OW24028   4.300   4.377   4.690  0.0970 -0.0667  0.5773
 4131SOL    HW124029   4.209   4.383   4.717 -0.5298  0.0359 -1.5141
 4131SOL    HW224030   4.308   4.284   4.669  1.7454  0.3771 -0.8126
 4132SOL     OW24031   2.310   0.301   1.396 -0.0208  0.0207 -0.3968
 4132SOL    HW124032   2.404   0.289   1.385  0.4872  4.6119 -1.3309
 4132SOL    HW224033   2.278   0.256   1.318 -0.4960 -1.0601  0.4199
 4133SOL     OW24034   1.204   1.194   2.768  0.8206 -0.3690 -0.0618
 4133SOL    HW124035   1.199   1.190   2.863 -1.0258  1.5570 -0.0917
 4133SOL    HW224036   1.300   1.192   2.761  0.8777 -0.4533  0.8169
 4134SOL     OW24037   2.416   2.095   2.693  0.1071 -0.7389  0.0947
 4134SOL    HW124038   2.501   2.085   2.735 -0.4375 -0.5113  1.2512
 4134SOL    HW224039   2.428   2.042   2.614 -0.3325  0.6228 -0.8857
 4135SOL     OW24040   3.015   0.493  12.645  0.4890 -0.0084 -0.4373
 4135SOL    HW124041   2.950   0.564  12.651 -0.6198 -1.1085  0.6402
 4135SOL    HW224042   2.981   0.433  12.712  0.2702  2.5556  1.7271
 4136SOL     OW24043   0.389   3.359  10.359  0.0966  0.8169  0.3949
 4136SOL    HW124044   0.380   3.285  10.419  0.6140 -1.1765 -2.0117
 4136SOL    HW224045   0.356   3.436  10.407  0.7430  1.4487 -0.1808
 4137SOL     OW24046   0.922   0.621   5.989 -0.7509  0.6161 -0.4244
 4137SOL    HW124047   0.933   0.684   6.060  1.6982  1.8483 -1.8774
 4137SOL    HW224048   0.879   0.669   5.918 -1.9330  1.1624  0.6620
 4138SOL     OW24049   0.453   0.698   6.795 -0.3650  0.1560  0.1345
 4138SOL    HW124050   0.371   0.742   6.818 -0.1722  0.5784  0.0107
 4138SOL    HW224051   0.513   0.714   6.869  0.6284 -1.4831 -0.3177
 4139SOL     OW24052   0.533   3.139   2.881 -0.0303  0.3533  0.5339
 4139SOL    HW124053   0.600   3.187   2.833 -0.3649  2.9250  2.6557
 4139SOL    HW224054   0.586   3.062   2.903 -2.2387 -1.2091  0.3276
 4140SOL     OW24055   1.416   4.481  16.993 -0.6418  0.2334 -0.0732
 4140SOL    HW124056   1.376   4.414  17.048  3.7269 -0.1209  2.6541
 4140SOL    HW224057   1.381   4.466  16.905  1.7030  0.4504 -1.0358
 4141SOL     OW24058   1.691   4.705   3.319  0.2517 -0.2632 -0.1476
 4141SOL    HW124059   1.632   0.023   3.373  1.0234  1.5401 -1.0647
 4141SOL    HW224060   1.644   4.630   3.284 -0.7468  0.0328  0.5310
 4142SOL     OW24061   2.388   0.193   4.857 -0.4518  0.5219  0.6246
 4142SOL    HW124062   2.442   0.116   4.873 -0.8712 -0.1189 -0.9768
 4142SOL    HW224063   2.362   0.208   4.948 -0.3773  2.4015  0.3307
 4143SOL     OW24064   2.863   0.924   5.158 -0.6711  0.3069  0.2023
 4143SOL    HW124065   2.855   1.019   5.162 -1.3759  0.2532  0.1086
 4143SOL    HW224066   2.773   0.900   5.181 -1.2475  1.2257 -1.1094
 4144SOL     OW24067   4.428   0.833   1.888  0.7622 -0.0830 -0.2801
 4144SOL    HW124068   4.411   0.889   1.812  2.2474 -0.0236 -0.5702
 4144SOL    HW224069   4.347   0.783   1.900 -0.1694  1.8311  1.4657
 4145SOL     OW24070   0.780   1.779  12.278 -0.2689 -0.0745  0.4560
 4145SOL    HW124071   0.735   1.779  12.362 -3.5289  1.1872 -1.2641
 4145SOL    HW224072   0.717   1.781  12.206  1.9827  0.1786 -1.5198
 4146SOL     OW24073   4.408   3.485  12.143  0.2418  0.6983  0.2870
 4146SOL    HW124074   4.468   3.452  12.076  1.0981  2.5416  0.1496
 4146SOL    HW224075   4.419   3.420  12.212  3.0665  2.1201  1.1652
 4147SOL     OW24076   3.803   0.158   7.680 -0.5681 -0.5861 -0.4156
 4147SOL    HW124077   3.817   0.115   7.764 -0.5085 -0.9986 -0.6389
 4147SOL    HW224078   3.892   0.191   7.672 -0.7983 -0.0152 -0.6349
 4148SOL     OW24079   1.712   3.554   2.756  0.2327 -0.4951  0.9495
 4148SOL    HW124080   1.786   3.569   2.816  2.2643 -1.6022 -1.2734
 4148SOL    HW224081   1.751   3.611   2.689  0.6552 -0.4320  1.2503
 4149SOL     OW24082   0.115   4.579   7.963  0.0145  0.2539  0.3194
 4149SOL    HW124083   0.207   4.601   7.976  0.5398 -2.0703  0.5005
 4149SOL    HW224084   0.126   4.501   7.909  0.3474  1.3473 -1.1835
 4150SOL     OW24085   4.586   2.682   3.766  0.4384 -0.3010 -0.2360
 4150SOL    HW124086   4.513   2.624   3.749  1.0120 -0.9586 -0.4497
 4150SOL    HW224087   4.660   2.623   3.779 -0.2084 -1.2389 -0.9072
 4151SOL     OW24088   4.662   1.010   1.132  0.0123 -0.2162  0.0698
 4151SOL    HW124089   4.692   0.999   1.041 -1.3285 -1.5967 -0.2093
 4151SOL    HW224090   4.649   1.104   1.124  2.9953  0.1705 -0.4412
 4152SOL     OW24091   0.852   1.620   8.559  0.4336  0.0909  0.0489
 4152SOL    HW124092   0.823   1.541   8.514  2.1154 -0.3036 -0.3487
 4152SOL    HW224093   0.898   1.587   8.636  0.1809 -0.8198 -0.1981
 4153SOL     OW24094   2.470   3.067   5.762  0.3434  0.0734  0.0055
 4153SOL    HW124095   2.488   3.093   5.853 -0.2132  0.3061  0.0542
 4153SOL    HW224096   2.485   2.973   5.766 -3.3909 -0.5411 -0.3250
 4154SOL     OW24097   2.880   4.327  17.111 -0.5500  0.6024 -0.0897
 4154SOL    HW124098   2.806   4.270  17.133 -0.8987  1.5633  1.2503
 4154SOL    HW224099   2.834   4.391  17.056 -0.9099 -1.1145 -1.7698
 4155SOL     OW24100   2.697   0.511   9.300 -0.5209  0.0209  0.4143
 4155SOL    HW124101   2.732   0.594   9.331 -0.7880  0.1382  0.4020
 4155SOL    HW224102   2.607   0.543   9.299 -0.8140 -0.8512 -1.3025
 4156SOL     OW24103   1.993   1.258  14.839  0.1164  0.0417  0.3536
 4156SOL    HW124104   1.949   1.305  14.910  0.7945  0.1412  0.7135
 4156SOL    HW224105   1.965   1.297  14.757 -3.4669 -0.9854  1.1004
 4157SOL     OW24106   1.355   4.362   3.027 -0.1629  0.0087  1.0311
 4157SOL    HW124107   1.262   4.344   3.037  0.1533 -1.6918  0.9440
 4157SOL    HW224108   1.386   4.287   2.975 -1.0072 -0.0254  0.5853
 4158SOL     OW24109   0.884   3.342   4.758  0.0854  0.5745 -0.0862
 4158SOL    HW124110   0.925   3.269   4.805  0.4743  0.6116 -0.3690
 4158SOL    HW224111   0.955   3.406   4.755 -0.5233  1.2983  1.0985
 4159SOL     OW24112   1.587   3.219   4.781 -0.3036 -0.6221  0.3123
 4159SOL    HW124113   1.657   3.215   4.715 -0.9092  0.7400 -0.4161
 4159SOL    HW224114   1.543   3.136   4.763  1.8669 -1.5255 -0.7914
 4160SOL     OW24115   4.610   3.834   3.835  0.2858  0.2717  0.2489
 4160SOL    HW124116   4.643   3.745   3.847 -0.1670  0.2300  1.2682
 4160SOL    HW224117   4.520   3.822   3.864  0.0024 -2.9634 -1.9630
 4161SOL     OW24118   2.713   2.764  17.176  0.0380  0.0969 -0.0322
 4161SOL    HW124119   2.803   2.796  17.177 -0.4748  1.5838 -1.1709
 4161SOL    HW224120   2.725   2.694  17.112 -1.9142 -0.5746  0.3397
 4162SOL     OW24121   4.252   0.293  10.000 -0.1551  0.2161 -0.3557
 4162SOL    HW124122   4.346   0.275   9.992 -0.0332  0.8264 -0.2780
 4162SOL    HW224123   4.222   0.258   9.916 -0.3378  1.2249 -0.7107
 4163SOL     OW24124   4.286   3.387   7.640  0.3406  0.2802  0.3127
 4163SOL    HW124125   4.198   3.398   7.603  0.1800 -1.5806  0.1411
 4163SOL    HW224126   4.322   3.471   7.614  1.1365  0.0427  0.6518
 4164SOL     OW24127   1.558   4.213   8.450 -0.1187  0.2612 -0.2367
 4164SOL    HW124128   1.637   4.161   8.466 -0.8431 -0.0805  2.2640
 4164SOL    HW224129   1.500   4.142   8.425 -0.2769 -0.2447  1.5778
 4165SOL     OW24130   0.792   3.144   4.162 -0.1329  0.2810 -0.7729
 4165SOL    HW124131   0.712   3.098   4.189 -0.6247 -0.1371 -2.9823
 4165SOL    HW224132   0.854   3.072   4.147 -2.4991 -1.1698 -3.6548
 4166SOL     OW24133   2.625   0.916   2.442 -0.2145 -0.0874  0.5261
 4166SOL    HW124134   2.685   0.886   2.374  1.0570  0.1091  1.5731
 4166SOL    HW224135   2.621   1.011   2.430  1.0720 -0.2539 -1.3213
 4167SOL     OW24136   1.682   2.480   4.724 -0.0617  0.0538  0.5437
 4167SOL    HW124137   1.647   2.527   4.800  1.0889 -2.2949  2.5184
 4167SOL    HW224138   1.672   2.545   4.654 -1.7826 -0.6657  0.1363
 4168SOL     OW24139   0.820   4.140   4.323  0.1865  0.3609 -0.4255
 4168SOL    HW124140   0.762   4.077   4.281  0.0991 -0.9787  1.7228
 4168SOL    HW224141   0.764   4.167   4.395  0.7302 -0.0786  0.1550
 4169SOL     OW24142   3.319   3.469   5.875  0.3819  0.4374  0.0644
 4169SOL    HW124143   3.283   3.485   5.962 -2.1305 -0.4177 -0.8197
 4169SOL    HW224144   3.271   3.389   5.852  0.8085  0.8247 -2.1668
 4170SOL     OW24145   4.217   1.193  15.266 -0.0006  0.0500  0.6894
 4170SOL    HW124146   4.288   1.257  15.268 -0.9162  1.0981  0.1949
 4170SOL    HW224147   4.212   1.190  15.170  1.5674  0.3815  0.6009
 4171SOL     OW24148   3.334   2.842   9.551  0.3399  0.7725 -0.1015
 4171SOL    HW124149   3.374   2.928   9.540  1.1570  0.2795 -0.9456
 4171SOL    HW224150   3.262   2.839   9.489  0.4943 -2.7355 -0.1055
 4172SOL     OW24151   0.068   3.809   2.394 -0.0244 -0.8597 -1.1929
 4172SOL    HW124152   0.110   3.894   2.400  1.9768 -1.8804 -0.8465
 4172SOL    HW224153   0.114   3.778   2.316 -0.2200  1.6144 -2.2719
 4173SOL     OW24154   2.928   1.332   6.866  0.0122  0.6555  0.0581
 4173SOL    HW124155   2.934   1.419   6.905  0.3036  0.7050 -0.1014
 4173SOL    HW224156   2.949   1.359   6.777  0.1267 -0.4094 -0.2340
 4174SOL     OW24157   0.322   0.993   3.178  0.2447 -0.3900 -0.2931
 4174SOL    HW124158   0.298   0.901   3.164  1.1153 -0.2933 -2.4577
 4174SOL    HW224159   0.261   1.034   3.117  0.1273  1.1845  0.8837
 4175SOL     OW24160   2.817   2.860   6.901  0.2757 -0.4276 -0.3600
 4175SOL    HW124161   2.803   2.766   6.917 -0.3242 -0.3080 -0.1819
 4175SOL    HW224162   2.908   2.856   6.871 -1.3666 -4.0379 -5.0538
 4176SOL     OW24163   4.294   4.511   3.565  0.1293 -0.0350  0.6791
 4176SOL    HW124164   4.306   4.600   3.597 -0.6156  0.2597  0.1392
 4176SOL    HW224165   4.344   4.520   3.484 -1.3412  3.4510  0.1418
 4177SOL     OW24166   0.445   2.685  10.412 -0.5949 -0.4334  0.1533
 4177SOL    HW124167   0.479   2.721  10.494 -0.0632 -2.8882  0.9996
 4177SOL    HW224168   0.506   2.735  10.357 -0.0319 -0.4641  0.7383
 4178SOL     OW24169   2.392   1.659   1.710  0.0387 -0.2027  0.1712
 4178SOL    HW124170   2.315   1.625   1.664  0.2666  1.4996 -1.4278
 4178SOL    HW224171   2.342   1.709   1.775 -1.6047 -0.6473 -0.7404
 4179SOL     OW24172   3.894   2.188   2.751 -0.7664  0.1818 -0.2253
 4179SOL    HW124173   3.867   2.277   2.776 -4.5093 -0.9430 -0.2731
 4179SOL    HW224174   3.866   2.197   2.660  1.7366  1.0332 -0.9207
 4180SOL     OW24175   1.489   0.575   3.353  0.1679  0.5915  0.6047
 4180SOL    HW124176   1.438   0.654   3.336 -2.3321 -0.9775  0.7988
 4180SOL    HW224177   1.577   0.612   3.342 -1.0129  3.1555 -0.1616
 4181SOL     OW24178   1.664   4.274   6.351  0.8224  0.1177 -0.1327
 4181SOL    HW124179   1.695   4.281   6.261  1.0804  0.3730 -0.0226
 4181SOL    HW224180   1.578   4.235   6.332  1.4265 -0.7795 -1.0151
 4182SOL     OW24181   3.366   4.067   5.956  0.2714  0.2962  0.3085
 4182SOL    HW124182   3.440   4.007   5.955 -0.6018 -0.7820  1.0104
 4182SOL    HW224183   3.303   4.005   5.992  0.7474  0.5475  1.5480
 4183SOL     OW24184   0.225   0.085  10.976 -0.5100 -0.5737 -0.4204
 4183SOL    HW124185   0.288   0.137  10.926  0.8909 -0.9214  0.9670
 4183SOL    HW224186   0.156   0.149  10.992  1.7187  2.1718 -1.8904
 4184SOL     OW24187   2.112   4.162  10.914 -0.3144  0.1637 -0.3145
 4184SOL    HW124188   2.096   4.115  10.996  1.6736 -0.9888 -0.5807
 4184SOL    HW224189   2.026   4.193  10.885  0.1140  1.0808 -0.6025
 4185SOL     OW24190   3.037   3.434  13.158 -0.0772  0.0555  0.1969
 4185SOL    HW124191   3.112   3.478  13.196 -0.9138  0.2339  1.6320
 4185SOL    HW224192   2.991   3.505  13.113  0.6182  0.6048  0.3564
 4186SOL     OW24193   3.336   2.959  13.097  0.4704 -0.7229 -0.3497
 4186SOL    HW124194   3.277   2.936  13.026  1.4468 -0.6354 -1.1864
 4186SOL    HW224195   3.400   2.891  13.079 -0.0031 -1.2713  0.0289
 4187SOL     OW24196   4.630   2.930   0.510  0.0817  0.5438  0.4808
 4187SOL    HW124197   4.603   2.992   0.442 -1.5753  0.2805  0.8827
 4187SOL    HW224198   4.545   2.919   0.553 -0.6104  0.2046 -0.9518
 4188SOL     OW24199   1.816   3.475   4.916  0.4018 -0.3031  0.5382
 4188SOL    HW124200   1.754   3.438   4.852  1.0446 -0.0844 -0.2185
 4188SOL    HW224201   1.761   3.511   4.985  2.0228  0.0380  1.6282
 4189SOL     OW24202   1.771   2.782  11.238  0.2903 -0.0859 -0.5667
 4189SOL    HW124203   1.866   2.778  11.227  0.0904 -3.0412 -1.0789
 4189SOL    HW224204   1.760   2.693  11.271  2.6367 -0.1844 -0.0193
 4190SOL     OW24205   2.109   2.837   1.763 -0.0147 -0.2874 -0.2758
 4190SOL    HW124206   2.110   2.928   1.733 -1.2592 -0.4820 -0.9095
 4190SOL    HW224207   2.191   2.829   1.811 -0.0799 -1.7181 -0.4076
 4191SOL     OW24208   3.962   1.918   3.176 -0.5859 -0.0010 -0.7507
 4191SOL    HW124209   3.925   1.996   3.136 -0.8950 -0.7308 -1.9040
 4191SOL    HW224210   3.963   1.850   3.108  1.8798 -1.1363  0.4118
 4192SOL     OW24211   2.783   4.202   1.733 -0.2355  0.1192  0.1087
 4192SOL    HW124212   2.795   4.108   1.746 -2.2111 -0.3331 -1.3492
 4192SOL    HW224213   2.693   4.215   1.763 -0.9787  0.0045 -2.0811
 4193SOL     OW24214   3.158   4.563   1.796  0.3016 -0.5050  0.1658
 4193SOL    HW124215   3.172   4.617   1.718 -1.1645 -2.7365 -1.6458
 4193SOL    HW224216   3.079   4.514   1.771  1.1105 -2.3547  1.2423
 4194SOL     OW24217   3.596   1.418   8.347 -0.0426 -0.1572  0.0214
 4194SOL    HW124218   3.579   1.511   8.336  0.3988 -0.3091 -2.0182
 4194SOL    HW224219   3.549   1.371   8.277 -0.6128  0.8705 -0.2846
 4195SOL     OW24220   1.637   1.410  17.387 -0.0545 -0.0119 -0.0494
 4195SOL    HW124221   1.724   1.428  17.422  0.5587 -2.3008 -0.3758
 4195SOL    HW224222   1.646   1.462  17.308 -0.9342 -1.9037 -1.3857
 4196SOL     OW24223   0.471   1.564  11.360  0.9481 -0.1479 -1.1503
 4196SOL    HW124224   0.493   1.560  11.453 -3.2253 -0.3177 -0.1666
 4196SOL    HW224225   0.530   1.633  11.330 -0.9888  1.9388 -0.1813
 4197SOL     OW24226   3.657   0.483   2.213 -0.0308  0.1124 -0.2476
 4197SOL    HW124227   3.748   0.513   2.220 -0.1314 -0.1211  2.0411
 4197SOL    HW224228   3.676   0.424   2.140  0.4949 -0.8649  0.6717
 4198SOL     OW24229   3.202   0.709   5.002  0.2389 -0.2066  0.2366
 4198SOL    HW124230   3.262   0.781   4.980 -0.5237  0.1454 -0.6844
 4198SOL    HW224231   3.124   0.724   4.949 -0.0608 -1.3451  0.3494
 4199SOL     OW24232   4.027   3.147   8.721  0.1324 -0.0186 -0.0982
 4199SOL    HW124233   4.039   3.142   8.626  0.9638 -1.7227  0.0848
 4199SOL    HW224234   4.112   3.118   8.754  0.3161 -0.8132 -1.2493
 4200SOL     OW24235   3.100   4.635  11.036  0.1621  0.0533  0.1776
 4200SOL    HW124236   3.134   4.553  11.071  2.4861  1.1065  0.4054
 4200SOL    HW224237   3.005   4.630  11.048  0.0755  2.1494  0.5173
 4201SOL     OW24238   0.466   4.671   5.396  0.0009 -0.0232 -0.5166
 4201SOL    HW124239   0.395   4.691   5.335 -0.0586 -0.3545 -0.5560
 4201SOL    HW224240   0.496   0.026   5.409 -0.7458 -0.1941  2.4328
 4202SOL     OW24241   3.724   3.897   7.456  0.2523 -0.5262  0.2071
 4202SOL    HW124242   3.634   3.929   7.468  0.9152  0.3621  2.7041
 4202SOL    HW224243   3.734   3.921   7.364  2.1526  4.5100  1.7780
 4203SOL     OW24244   4.357   4.704   1.988 -0.0634  0.3491 -0.4867
 4203SOL    HW124245   4.369   4.613   2.014  1.7304  1.3031  1.9385
 4203SOL    HW224246   4.431   4.719   1.929  1.1078 -1.4263  0.5444
 4204SOL     OW24247   2.327   4.319   8.661 -0.1005 -0.0407 -0.3771
 4204SOL    HW124248   2.337   4.251   8.728  0.2461 -0.3214 -0.7183
 4204SOL    HW224249   2.245   4.357   8.693  2.1294  4.7099 -0.3934
 4205SOL     OW24250   2.958   0.166   3.629 -0.3784  0.0644  0.0997
 4205SOL    HW124251   3.050   0.193   3.635 -0.1191 -0.3557 -2.2807
 4205SOL    HW224252   2.961   0.087   3.576  2.6291 -0.8327  1.6094
 4206SOL     OW24253   0.277   1.911   4.104  0.5664 -0.4701 -0.3766
 4206SOL    HW124254   0.280   1.836   4.162  0.4356 -0.8572 -0.8723
 4206SOL    HW224255   0.196   1.889   4.057 -0.6886  2.1801  0.5208
 4207SOL     OW24256   1.409   1.996  16.736  0.4401 -0.4774 -0.1094
 4207SOL    HW124257   1.499   1.978  16.762  0.1000  1.2199  2.2776
 4207SOL    HW224258   1.362   1.913  16.738 -0.1556 -0.0746  2.9982
 4208SOL     OW24259   2.135   0.025   6.052 -0.3777 -0.4344 -0.4613
 4208SOL    HW124260   2.073   0.057   6.118 -0.7676  1.6039 -1.8054
 4208SOL    HW224261   2.217   0.060   6.086 -1.3495  2.1931 -0.7713
 4209SOL     OW24262   2.177   3.576  11.333 -0.0191  0.5690 -0.2875
 4209SOL    HW124263   2.124   3.604  11.258 -0.1202  1.3729  0.0871
 4209SOL    HW224264   2.248   3.540  11.281 -2.0902 -0.6118 -2.2953
 4210SOL     OW24265   0.848   2.332   7.355 -0.3888 -0.3872  0.1793
 4210SOL    HW124266   0.774   2.372   7.310 -1.2760  0.9941  2.8507
 4210SOL    HW224267   0.814   2.243   7.371 -2.0572  0.0588 -0.9160
 4211SOL     OW24268   3.442   0.030   9.096  0.5543  0.3224 -0.3584
 4211SOL    HW124269   3.475   4.678   9.073  0.3806 -0.0155  0.7120
 4211SOL    HW224270   3.466   0.023   9.188  0.3989  0.3420 -0.3162
 4212SOL     OW24271   2.709   1.597   5.250  0.2009 -0.0558 -0.3392
 4212SOL    HW124272   2.747   1.538   5.315 -0.3649  2.4221  2.2168
 4212SOL    HW224273   2.616   1.590   5.274 -0.3231  0.9917 -2.0412
 4213SOL     OW24274   0.624   0.257  15.589  0.2861  0.3603 -0.0404
 4213SOL    HW124275   0.680   0.227  15.661 -0.8713  1.2236  1.2245
 4213SOL    HW224276   0.669   0.336  15.561  1.8871 -0.4303  0.3333
 4214SOL     OW24277   2.753   3.953   8.235  0.0100  0.2074  0.2923
 4214SOL    HW124278   2.709   3.996   8.161  0.1399 -1.3490 -0.6868
 4214SOL    HW224279   2.738   3.861   8.214 -1.2075  0.9939 -2.4097
 4215SOL     OW24280   0.225   0.200   4.195  0.5986 -0.3443  0.2236
 4215SOL    HW124281   0.189   0.129   4.247 -0.0892 -0.1254  0.0463
 4215SOL    HW224282   0.143   0.235   4.160  0.1023 -1.8816 -0.1407
 4216SOL     OW24283   0.206   3.135  11.330  0.1575 -0.1140  0.2450
 4216SOL    HW124284   0.133   3.166  11.383 -0.0229  0.6150 -0.4289
 4216SOL    HW224285   0.219   3.204  11.265  1.5535  0.0271  0.6825
 4217SOL     OW24286   1.856   4.477   5.333  0.3618 -0.0588  0.8217
 4217SOL    HW124287   1.867   4.405   5.396 -3.3036 -0.3583  1.0798
 4217SOL    HW224288   1.919   4.543   5.363  1.2749 -0.2635 -0.6285
 4218SOL     OW24289   2.975   3.434   6.919  0.6320 -0.1340  0.0492
 4218SOL    HW124290   3.045   3.500   6.912  0.4242  0.1045  0.2106
 4218SOL    HW224291   3.022   3.354   6.943  0.4553 -0.2446  0.0168
 4219SOL     OW24292   2.756   1.710   4.163  0.1913 -0.2628  0.8654
 4219SOL    HW124293   2.717   1.623   4.170  1.9371 -1.2462 -1.5176
 4219SOL    HW224294   2.703   1.742   4.091  2.6035  0.8046 -0.4335
 4220SOL     OW24295   1.702   0.090   2.709  0.0039  0.3592  0.4890
 4220SOL    HW124296   1.675   0.103   2.618 -1.5772 -1.3302  0.7166
 4220SOL    HW224297   1.625   0.084   2.765  1.2959 -0.8304  2.1470
 4221SOL     OW24298   1.555   3.431   0.690 -0.0807 -0.4073  0.0068
 4221SOL    HW124299   1.522   3.431   0.600  4.3251 -0.5559 -1.6322
 4221SOL    HW224300   1.493   3.495   0.723 -0.8724 -0.9800 -0.3771
 4222SOL     OW24301   1.490   3.837   1.136  0.6057  0.4156  0.2363
 4222SOL    HW124302   1.509   3.852   1.043 -2.4208  2.1197 -0.1086
 4222SOL    HW224303   1.531   3.751   1.146  1.1896  0.8015  1.1298
 4223SOL     OW24304   2.660   0.390   8.940  0.0740  0.3247 -0.0983
 4223SOL    HW124305   2.612   0.341   8.873 -0.5454 -0.8405  1.2023
 4223SOL    HW224306   2.751   0.377   8.914 -0.4857 -2.4918 -0.6809
 4224SOL     OW24307   3.142   3.991  10.320 -0.0743  0.2576 -0.1219
 4224SOL    HW124308   3.131   4.040  10.401 -0.3056  3.4526 -2.0666
 4224SOL    HW224309   3.188   3.909  10.337 -1.3207 -0.3682  0.2556
 4225SOL     OW24310   2.971   4.588  12.989  0.3016 -0.1554  0.0676
 4225SOL    HW124311   3.033   4.659  12.974 -0.1085 -0.3798 -2.7099
 4225SOL    HW224312   2.996   4.574  13.080 -2.6881  1.9581  1.2197
 4226SOL     OW24313   1.362   4.244  13.776  0.4079 -0.0201  0.0076
 4226SOL    HW124314   1.342   4.163  13.728 -4.0627  0.5777  0.8791
 4226SOL    HW224315   1.330   4.218  13.862  1.8348  1.0217  0.8528
 4227SOL     OW24316   1.810   3.188   8.678 -0.0316  0.5017  0.1153
 4227SOL    HW124317   1.773   3.171   8.592  0.3298  0.6646 -0.0699
 4227SOL    HW224318   1.778   3.277   8.694  1.6331  1.2277 -0.6125
 4228SOL     OW24319   2.898   3.209   5.287 -0.0434  0.8945 -0.2563
 4228SOL    HW124320   2.846   3.193   5.208  1.7194 -1.2785 -0.9849
 4228SOL    HW224321   2.847   3.282   5.322 -0.9320 -0.6153  1.5386
 4229SOL     OW24322   4.587   2.529   4.225  0.7733 -0.1876  0.5034
 4229SOL    HW124323   4.543   2.457   4.180 -0.2473  0.1732  0.9404
 4229SOL    HW224324   4.636   2.567   4.152 -3.4097  0.4391 -1.9759
 4230SOL     OW24325   4.481   2.868   8.862 -0.3553 -0.4368 -0.1545
 4230SOL    HW124326   4.575   2.883   8.868 -0.1605 -1.5478 -0.5265
 4230SOL    HW224327   4.495   2.790   8.809 -2.2004 -0.6120 -0.3946
 4231SOL     OW24328   4.443   1.452   8.297  0.0774  0.7742  1.0939
 4231SOL    HW124329   4.527   1.465   8.341  0.7956  0.4031 -0.1870
 4231SOL    HW224330   4.418   1.541   8.275 -1.6721  0.3692  1.3896
 4232SOL     OW24331   0.625   0.312   7.154 -0.0424  0.5836  0.0301
 4232SOL    HW124332   0.543   0.342   7.116 -0.1233 -0.1906 -0.4160
 4232SOL    HW224333   0.682   0.322   7.078 -0.4969  1.4392 -0.1971
 4233SOL     OW24334   0.622   1.666   3.036  0.4959  0.4702  0.0126
 4233SOL    HW124335   0.703   1.619   3.057  0.2942  0.1989  0.1948
 4233SOL    HW224336   0.601   1.623   2.953  0.4496 -2.2231  1.3953
 4234SOL     OW24337   0.268   3.619   1.862 -0.2017 -0.6085  0.2836
 4234SOL    HW124338   0.337   3.685   1.865 -0.0833 -0.8039  1.5804
 4234SOL    HW224339   0.267   3.564   1.940  0.4797 -0.5919  0.3051
 4235SOL     OW24340   2.555   3.743   7.031 -0.3911  0.1849  0.1405
 4235SOL    HW124341   2.606   3.743   6.950 -1.5102 -2.4532 -0.5728
 4235SOL    HW224342   2.512   3.827   7.016 -1.2140  0.0094  1.5332
 4236SOL     OW24343   1.557   1.664   6.359 -0.2548  0.0041  0.5576
 4236SOL    HW124344   1.623   1.708   6.305 -1.8847  1.0030 -0.6190
 4236SOL    HW224345   1.476   1.673   6.309  0.4770 -2.7125 -1.1294
 4237SOL     OW24346   3.008   2.897   9.652  0.0577  0.0985  1.0643
 4237SOL    HW124347   2.951   2.952   9.706  0.2525  1.3872 -0.0396
 4237SOL    HW224348   2.976   2.922   9.566 -0.0601 -2.7199  0.3061
 4238SOL     OW24349   2.434   2.317   8.066 -0.2482  0.0518 -0.0273
 4238SOL    HW124350   2.353   2.274   8.092  0.2641 -1.1409 -0.4138
 4238SOL    HW224351   2.457   2.272   7.984  1.9436 -1.1665  1.2713
 4239SOL     OW24352   2.569   2.941   1.183 -0.3686 -0.0664  0.6291
 4239SOL    HW124353   2.635   3.010   1.181 -0.2393 -0.2279 -0.5723
 4239SOL    HW224354   2.531   2.960   1.097 -1.1054 -0.0161  0.9657
 4240SOL     OW24355   1.166   4.473   4.606  0.9393  0.4808  0.1861
 4240SOL    HW124356   1.109   4.397   4.612 -1.1590  2.1163  0.7086
 4240SOL    HW224357   1.237   4.434   4.554  2.7117  1.5935  1.7443
 4241SOL     OW24358   2.707   3.495   8.463 -0.0042 -0.3495  0.5731
 4241SOL    HW124359   2.761   3.574   8.458  0.1059 -0.3712  1.4463
 4241SOL    HW224360   2.776   3.437   8.493  1.6775  1.8937  1.0354
 4242SOL     OW24361   0.647   4.120   1.023 -0.1011 -0.3888  0.1509
 4242SOL    HW124362   0.631   4.193   1.083 -1.1158  0.0588 -0.6695
 4242SOL    HW224363   0.724   4.079   1.062  1.5567  0.0357 -2.7262
 4243SOL     OW24364   0.070   3.467   1.459  0.6508  0.1644 -0.2947
 4243SOL    HW124365   0.074   3.484   1.553 -1.3796  1.7248 -0.4864
 4243SOL    HW224366   0.091   3.374   1.461 -0.0581  0.0544  1.8852
 4244SOL     OW24367   4.195   0.277  11.259  0.3055  0.8776 -0.5156
 4244SOL    HW124368   4.144   0.233  11.326 -0.9758  1.5530 -1.0457
 4244SOL    HW224369   4.200   0.216  11.185 -3.3182 -0.4447  0.3261
 4245SOL     OW24370   3.151   4.675   4.081 -0.1243 -0.5025  0.1021
 4245SOL    HW124371   3.203   4.674   4.001  0.2158  0.5722  0.3200
 4245SOL    HW224372   3.071   4.629   4.055 -1.7035  2.7431 -0.7430
 4246SOL     OW24373   0.836   1.038   5.636 -0.3595 -0.6044 -0.3892
 4246SOL    HW124374   0.906   0.980   5.608  1.2147  0.3190  1.6880
 4246SOL    HW224375   0.883   1.120   5.621  0.7869 -1.2427 -0.2295
 4247SOL     OW24376   4.022   3.981   2.092 -0.4073 -0.8782 -0.0441
 4247SOL    HW124377   4.082   4.051   2.064  0.1019 -0.9388  0.9015
 4247SOL    HW224378   4.081   3.934   2.151 -1.3147 -1.2187  0.5858
 4248SOL     OW24379   4.310   2.603   5.185  0.0604 -0.4187 -0.3168
 4248SOL    HW124380   4.297   2.528   5.244 -1.6172  1.3544  1.5837
 4248SOL    HW224381   4.399   2.634   5.198  0.2099 -0.6686 -0.7689
 4249SOL     OW24382   0.536   3.089   8.147  0.2049  0.6963  0.1093
 4249SOL    HW124383   0.610   3.148   8.162 -0.5900  1.1072  2.3657
 4249SOL    HW224384   0.577   3.006   8.170  0.6138  1.3397  1.6698
 4250SOL     OW24385   0.690   2.562   3.953  0.2139 -0.0554 -0.1134
 4250SOL    HW124386   0.636   2.639   3.935  0.3676  0.5961  2.2103
 4250SOL    HW224387   0.737   2.578   4.035  1.0312  2.9843 -1.1600
 4251SOL     OW24388   1.782   3.893   3.051 -0.0145 -0.0559  0.4825
 4251SOL    HW124389   1.853   3.950   3.079  0.8778  0.5868 -3.0335
 4251SOL    HW224390   1.753   3.850   3.131 -1.7731 -3.5387 -1.9939
 4252SOL     OW24391   0.914   3.394   3.878  0.6034 -0.1629  0.1921
 4252SOL    HW124392   0.868   3.320   3.839  2.4542 -0.4868 -1.3871
 4252SOL    HW224393   0.853   3.412   3.949 -2.0834  3.2922 -2.9996
 4253SOL     OW24394   4.167   0.810   2.131 -0.3316 -0.3445 -0.0413
 4253SOL    HW124395   4.247   0.861   2.141 -0.7827  0.3706 -0.1300
 4253SOL    HW224396   4.181   0.743   2.198 -0.4439  1.8392  2.1720
 4254SOL     OW24397   3.244   0.974   7.124 -0.0289  0.3000 -0.0574
 4254SOL    HW124398   3.183   0.928   7.066  1.5506 -1.6763 -0.1525
 4254SOL    HW224399   3.227   0.921   7.202  1.4699  1.5203  1.1025
 4255SOL     OW24400   0.249   1.990   4.412 -0.3905  0.3440 -0.3198
 4255SOL    HW124401   0.205   2.038   4.482  1.4004 -0.5409  1.4249
 4255SOL    HW224402   0.338   2.023   4.428 -0.1494 -0.0608 -0.8057
 4256SOL     OW24403   3.588   3.428   5.595 -0.6845  0.0483 -0.2478
 4256SOL    HW124404   3.534   3.351   5.579  0.6212 -1.9875  5.0250
 4256SOL    HW224405   3.646   3.406   5.522  0.0667 -0.1691  0.4182
 4257SOL     OW24406   1.576   4.672   7.222  0.7812  0.4581  0.3823
 4257SOL    HW124407   1.551   4.580   7.211  0.1763  0.5771  0.7636
 4257SOL    HW224408   1.589   4.707   7.134 -0.8007 -1.2215 -0.5228
 4258SOL     OW24409   4.370   3.404   5.996  0.1133  0.2484  0.4670
 4258SOL    HW124410   4.427   3.415   5.920  2.0420 -0.0766  1.8581
 4258SOL    HW224411   4.369   3.311   6.018 -0.7201 -0.3138 -1.9924
 4259SOL     OW24412   1.635   3.185   2.217 -0.1142  0.0312 -0.0485
 4259SOL    HW124413   1.593   3.212   2.299  0.3525 -0.4208  0.3338
 4259SOL    HW224414   1.687   3.264   2.202  0.3055 -0.6404 -2.1677
 4260SOL     OW24415   4.507   1.448   6.498  0.4740 -0.0591  0.3192
 4260SOL    HW124416   4.496   1.355   6.516 -2.0338 -0.1495 -1.6425
 4260SOL    HW224417   4.548   1.441   6.412  0.5429 -1.1997  0.4477
 4261SOL     OW24418   1.974   4.563   9.764  0.5647  0.1288  0.0579
 4261SOL    HW124419   1.972   4.516   9.847  0.5598 -2.1255 -1.2001
 4261SOL    HW224420   1.937   4.499   9.701  0.5875 -1.4407  1.6417
 4262SOL     OW24421   4.260   4.291   5.900  0.2710 -0.4069  0.1628
 4262SOL    HW124422   4.340   4.319   5.944  0.1626  0.5212 -0.2302
 4262SOL    HW224423   4.200   4.355   5.939  2.9744  0.6302  2.6338
 4263SOL     OW24424   2.413   3.665  15.382  0.0287  0.5767 -0.6380
 4263SOL    HW124425   2.389   3.654  15.474  1.8008 -0.0230 -0.2491
 4263SOL    HW224426   2.392   3.579  15.347 -1.4725  1.2634 -1.4540
 4264SOL     OW24427   0.535   1.471   8.065 -0.1889  0.1529 -0.0049
 4264SOL    HW124428   0.444   1.460   8.037  0.8330 -1.9200 -2.4040
 4264SOL    HW224429   0.565   1.536   8.001 -1.3534  0.8983  0.1893
 4265SOL     OW24430   1.107   1.529   4.015 -0.2716 -0.3796  0.1004
 4265SOL    HW124431   1.088   1.437   4.033  1.1921 -0.7028  0.0465
 4265SOL    HW224432   1.094   1.562   4.104  0.3489 -1.3176  0.5351
 4266SOL     OW24433   0.928   1.386   1.507  0.2093  0.1854  0.0833
 4266SOL    HW124434   0.984   1.457   1.476 -1.0370  1.4462  0.6773
 4266SOL    HW224435   0.912   1.413   1.598  0.5136 -1.4285  0.6239
 4267SOL     OW24436   1.069   4.453   7.887 -0.4023 -0.5842 -0.0457
 4267SOL    HW124437   0.984   4.477   7.924  0.1710  0.7542  0.3753
 4267SOL    HW224438   1.055   4.371   7.839 -1.1989 -0.5515  0.1422
 4268SOL     OW24439   0.215   1.714   2.277  0.0651  0.3109 -0.0629
 4268SOL    HW124440   0.213   1.809   2.282  0.0967  0.3512 -0.7581
 4268SOL    HW224441   0.205   1.695   2.183  2.5376 -0.9573 -0.0626
 4269SOL     OW24442   4.464   2.048   1.772 -0.9410  0.0748 -0.8004
 4269SOL    HW124443   4.387   2.003   1.737 -2.3267  2.2192 -0.5037
 4269SOL    HW224444   4.527   2.044   1.700 -0.3906  2.5552 -0.4427
 4270SOL     OW24445   0.410   1.656  17.365  0.4043  0.5151  0.0972
 4270SOL    HW124446   0.469   1.644  17.290  0.5090 -2.0603  0.5719
 4270SOL    HW224447   0.412   1.575  17.416 -2.5957  1.2154  1.2801
 4271SOL     OW24448   1.467   2.646   6.130  0.3476 -0.0116 -0.3214
 4271SOL    HW124449   1.559   2.620   6.135  0.5013  0.7587  0.8355
 4271SOL    HW224450   1.478   2.726   6.078 -0.6073  0.8402  0.8072
 4272SOL     OW24451   3.605   2.649   8.654 -0.2204 -0.3782 -0.1600
 4272SOL    HW124452   3.699   2.658   8.643 -0.2374 -1.3636 -1.1083
 4272SOL    HW224453   3.596   2.684   8.742 -2.0968  0.0804 -0.5224
 4273SOL     OW24454   2.833   3.413   0.212 -0.4056  0.1387  0.9810
 4273SOL    HW124455   2.925   3.386   0.214 -0.5251 -0.3926 -0.5323
 4273SOL    HW224456   2.827   3.449   0.123  2.6622  0.7631  1.0370
 4274SOL     OW24457   2.048   4.656  13.553 -0.2804 -0.8183  0.1196
 4274SOL    HW124458   2.101   4.690  13.624  1.1436 -1.3831 -0.6782
 4274SOL    HW224459   2.102   4.580  13.533  0.8582 -0.2573  1.1109
 4275SOL     OW24460   3.269   2.691  15.627 -0.0030 -0.1446  0.3251
 4275SOL    HW124461   3.260   2.704  15.722  0.8091  0.8138  0.2819
 4275SOL    HW224462   3.362   2.712  15.621 -0.0174  0.0751  0.8474
 4276SOL     OW24463   4.718   0.415  11.276  0.0315  0.3401 -0.0599
 4276SOL    HW124464   4.729   0.379  11.364  0.9239  3.8836  1.2763
 4276SOL    HW224465   4.622   0.419  11.266  0.1814  0.6667 -1.3933
 4277SOL     OW24466   2.170   0.451   8.219  0.4264  0.1924  0.5523
 4277SOL    HW124467   2.261   0.440   8.246  1.5319  1.3861 -2.7365
 4277SOL    HW224468   2.134   0.386   8.280  1.0979  0.7775  1.5783
 4278SOL     OW24469   1.958   4.565   6.020  0.1772  0.1059 -0.0748
 4278SOL    HW124470   2.018   4.638   6.033 -1.8317  1.1416  3.4854
 4278SOL    HW224471   1.895   4.561   6.092 -0.1821  0.3827 -0.3694
 4279SOL     OW24472   3.458   3.069   6.338 -0.8872 -0.4095  0.2238
 4279SOL    HW124473   3.383   3.021   6.303  0.2635 -1.9219 -0.1441
 4279SOL    HW224474   3.495   3.106   6.258  0.8351  2.8978  2.5211
 4280SOL     OW24475   2.359   4.676   5.245  0.3409 -0.4008  0.3372
 4280SOL    HW124476   2.351   4.652   5.338  0.9543  0.7895  0.7041
 4280SOL    HW224477   2.288   0.005   5.242  0.8528  0.2461  1.9512
 4281SOL     OW24478   2.430   0.338   5.176  0.4691 -0.1330  0.1662
 4281SOL    HW124479   2.524   0.330   5.159  0.0462 -1.4418 -1.5094
 4281SOL    HW224480   2.435   0.399   5.250  1.5493 -3.3959  2.7962
 4282SOL     OW24481   3.237   3.849   4.610  0.0754 -0.2082  0.4564
 4282SOL    HW124482   3.182   3.872   4.685 -1.6562  1.5808 -1.3849
 4282SOL    HW224483   3.321   3.891   4.631 -0.1293  0.1322  0.5789
 4283SOL     OW24484   1.277   2.631   4.786 -0.6421  0.2638 -0.4257
 4283SOL    HW124485   1.335   2.646   4.712 -0.8912  1.3076 -0.4094
 4283SOL    HW224486   1.297   2.697   4.853  0.2904  0.3442 -0.7890
 4284SOL     OW24487   1.742   0.467   6.129 -0.5278 -0.1401 -0.3535
 4284SOL    HW124488   1.795   0.547   6.131  1.4163 -1.4346  0.4630
 4284SOL    HW224489   1.809   0.406   6.100 -0.1817 -0.8027  1.8998
 4285SOL     OW24490   0.848   3.300   5.786  0.5462  0.3036  0.5763
 4285SOL    HW124491   0.765   3.293   5.833  0.6026 -3.2703  0.1249
 4285SOL    HW224492   0.820   3.296   5.695  0.8313  0.0873  0.4994
 4286SOL     OW24493   1.509   1.043   3.219  0.1024 -0.2218  0.4801
 4286SOL    HW124494   1.482   0.983   3.151  0.3438 -0.8154  0.9098
 4286SOL    HW224495   1.603   1.049   3.202  0.4551 -2.8464  1.5791
 4287SOL     OW24496   1.845   3.223   9.202  0.0346 -0.0707  0.3196
 4287SOL    HW124497   1.824   3.133   9.225  0.5905 -0.1471  0.5286
 4287SOL    HW224498   1.779   3.254   9.140  0.3595  1.4222  0.7062
 4288SOL     OW24499   3.290   0.229   7.813  0.3810  0.1831 -0.2325
 4288SOL    HW124500   3.242   0.297   7.861 -1.2728 -2.5719  2.0091
 4288SOL    HW224501   3.333   0.284   7.748 -0.5451  0.9386 -0.2184
 4289SOL     OW24502   4.498   3.941   3.561 -0.2411 -0.0880 -0.0006
 4289SOL    HW124503   4.585   3.934   3.600 -0.7530 -0.2020  1.1362
 4289SOL    HW224504   4.479   4.034   3.571  1.8085  0.2824  0.4112
 4290SOL     OW24505   0.285   0.517   9.177  0.0887 -0.0545 -0.3077
 4290SOL    HW124506   0.207   0.556   9.137 -0.5045 -1.1732 -0.2652
 4290SOL    HW224507   0.304   0.575   9.250  2.5148  1.3765 -2.0801
 4291SOL     OW24508   3.519   3.434  17.202 -0.0153 -0.3134 -0.1731
 4291SOL    HW124509   3.562   3.351  17.224  1.0621  0.6265  1.2893
 4291SOL    HW224510   3.445   3.430  17.263  0.9949  1.6516  1.1836
 4292SOL     OW24511   0.570   2.893   6.346 -0.1153 -0.0147 -0.5930
 4292SOL    HW124512   0.539   2.965   6.291  0.8897  1.9916  1.5199
 4292SOL    HW224513   0.551   2.930   6.432  1.3107 -1.3370  0.2875
 4293SOL     OW24514   0.951   4.357   4.212  0.3420  0.1942  0.4267
 4293SOL    HW124515   0.922   4.366   4.121 -2.0617 -1.2448  1.0669
 4293SOL    HW224516   0.913   4.275   4.243 -2.5226  0.6104 -2.0411
 4294SOL     OW24517   0.878   4.302   5.179 -0.8294  0.7302 -0.1536
 4294SOL    HW124518   0.839   4.250   5.108 -0.4968  2.2592 -1.4732
 4294SOL    HW224519   0.837   4.389   5.179 -1.4146  0.4360  2.6631
 4295SOL     OW24520   0.969   0.064  12.317  0.5598 -0.0097 -0.2207
 4295SOL    HW124521   0.941   0.041  12.405  2.3968  0.6025  0.5183
 4295SOL    HW224522   0.937   0.155  12.316  1.7700  0.3996 -2.0366
 4296SOL     OW24523   0.695   0.913   2.194 -0.2226 -0.2063 -0.2010
 4296SOL    HW124524   0.664   0.823   2.182 -0.3181  0.0329 -1.7762
 4296SOL    HW224525   0.773   0.913   2.138 -0.1537 -2.5725 -0.1151
 4297SOL     OW24526   2.472   0.372   3.341 -0.0347  0.4406  0.2448
 4297SOL    HW124527   2.559   0.360   3.379  0.1908 -2.7672 -1.3138
 4297SOL    HW224528   2.431   0.387   3.426  0.9271 -1.6337  1.0698
 4298SOL     OW24529   0.433   3.083   5.070 -0.0693 -0.0636 -0.5584
 4298SOL    HW124530   0.496   3.111   5.003  0.3073 -1.5002 -0.8141
 4298SOL    HW224531   0.403   3.169   5.097  0.5357 -0.1109  0.2360
 4299SOL     OW24532   0.279   2.984   0.295  0.2943  0.0834 -0.2428
 4299SOL    HW124533   0.364   2.997   0.336  1.0730 -1.8621 -1.2376
 4299SOL    HW224534   0.223   2.946   0.363  1.6471 -1.9892 -0.3294
 4300SOL     OW24535   4.576   3.134   3.069  0.3081 -0.6021  0.2726
 4300SOL    HW124536   4.525   3.184   3.005 -1.7819 -2.6465  0.3441
 4300SOL    HW224537   4.592   3.050   3.026  0.1873 -0.5114  0.0511
 4301SOL     OW24538   0.574   2.976   8.861  0.0383  0.4792 -0.3361
 4301SOL    HW124539   0.524   2.907   8.904  1.4940  0.8264  1.9305
 4301SOL    HW224540   0.634   2.934   8.798 -0.0995  0.7856 -0.6707
 4302SOL     OW24541   3.719   0.914   3.637  0.1931 -0.1807 -0.1217
 4302SOL    HW124542   3.737   0.971   3.711 -2.3104 -0.0723  0.3719
 4302SOL    HW224543   3.730   0.980   3.568 -0.1396  0.9267  0.8908
 4303SOL     OW24544   1.317   1.528   4.932 -0.2426 -0.1307  0.1747
 4303SOL    HW124545   1.314   1.436   4.907  1.1175 -0.3574  0.8192
 4303SOL    HW224546   1.379   1.557   4.864 -2.9987  2.0565 -1.4439
 4304SOL     OW24547   3.194   1.719  10.733  0.1318  0.6704  0.3305
 4304SOL    HW124548   3.289   1.711  10.738  0.3465  1.9982 -1.5715
 4304SOL    HW224549   3.160   1.703  10.821 -0.8535 -0.5197 -0.2686
 4305SOL     OW24550   4.289   3.830   5.444 -0.1376 -0.2121 -0.2826
 4305SOL    HW124551   4.242   3.757   5.484  0.5392 -1.1288 -1.1694
 4305SOL    HW224552   4.223   3.899   5.452 -2.0501 -2.0603 -0.2142
 4306SOL     OW24553   4.455   1.370   8.674  0.7206  0.0093 -0.5532
 4306SOL    HW124554   4.406   1.444   8.639 -1.4911 -0.7591  0.9170
 4306SOL    HW224555   4.391   1.303   8.650 -0.3141  0.5772  0.6216
 4307SOL     OW24556   4.664   0.467   5.210  0.0312  0.0828 -0.2966
 4307SOL    HW124557   4.731   0.414   5.168  0.8868  0.6778  0.3016
 4307SOL    HW224558   4.713   0.509   5.281 -0.6662 -1.0904  0.8935
 4308SOL     OW24559   0.137   0.963  11.025  0.3551 -0.3149 -0.1973
 4308SOL    HW124560   0.159   0.969  10.932  1.3747  0.8902  0.1171
 4308SOL    HW224561   0.223   0.936  11.059 -0.1295 -2.4305 -0.6408
 4309SOL     OW24562   0.838   3.824   9.538 -0.0414 -0.1856 -0.0906
 4309SOL    HW124563   0.845   3.785   9.625  0.3487  0.7015  0.2783
 4309SOL    HW224564   0.812   3.914   9.556 -0.1746 -0.5399  1.5027
 4310SOL     OW24565   0.895   3.846   8.021  0.1345  0.2103  0.3420
 4310SOL    HW124566   0.892   3.937   8.048  0.9238 -0.0795  1.3802
 4310SOL    HW224567   0.898   3.797   8.103  0.9919 -0.9912 -0.3992
 4311SOL     OW24568   1.835   3.212  15.833 -0.0485 -0.4815  0.6417
 4311SOL    HW124569   1.918   3.205  15.786  0.1884  0.7390  0.8896
 4311SOL    HW224570   1.833   3.308  15.835  1.4569 -0.4326 -0.3926
 4312SOL     OW24571   0.788   3.922   7.501 -0.3191 -0.0578 -0.2259
 4312SOL    HW124572   0.695   3.927   7.525 -0.5844  1.3816 -1.5745
 4312SOL    HW224573   0.792   3.986   7.430 -0.9357  0.6095  0.3371
 4313SOL     OW24574   1.451   2.761   4.612  0.2993  0.6876 -0.1512
 4313SOL    HW124575   1.426   2.752   4.520  2.2282 -1.6717 -0.4415
 4313SOL    HW224576   1.541   2.730   4.606  0.6430  2.0389 -2.0789
 4314SOL     OW24577   1.117   0.423  11.947  0.2222 -0.1649 -0.0756
 4314SOL    HW124578   1.132   0.369  12.025 -0.4727 -0.4091 -0.1134
 4314SOL    HW224579   1.200   0.470  11.949 -0.7938  1.7151 -2.2786
 4315SOL     OW24580   0.824   3.462   9.189 -0.1229  0.6936  0.4044
 4315SOL    HW124581   0.780   3.383   9.221 -1.8805  1.6141  0.2466
 4315SOL    HW224582   0.806   3.530   9.253 -0.8519 -0.0393  0.9862
 4316SOL     OW24583   2.620   1.338   6.037 -0.0874 -0.2197  0.1414
 4316SOL    HW124584   2.657   1.272   5.978 -0.9207 -1.5105  1.0561
 4316SOL    HW224585   2.533   1.345   5.996 -0.5117 -1.7224  0.7927
 4317SOL     OW24586   3.449   3.086   4.410  0.5590  0.0022  0.2055
 4317SOL    HW124587   3.421   3.013   4.465 -0.6069 -1.5618 -2.4743
 4317SOL    HW224588   3.401   3.152   4.460 -0.7092  1.7949 -3.3627
 4318SOL     OW24589   0.358   0.830   3.878  0.3900 -0.1534 -0.1206
 4318SOL    HW124590   0.303   0.900   3.912  1.3943  0.7818 -0.4132
 4318SOL    HW224591   0.328   0.826   3.787  0.5648  1.1583 -0.2356
 4319SOL     OW24592   4.339   3.241   2.154  0.0589  0.5832 -0.1011
 4319SOL    HW124593   4.257   3.247   2.202 -0.9550 -1.9248 -1.5194
 4319SOL    HW224594   4.396   3.314   2.180 -0.4105  0.1392  2.1502
 4320SOL     OW24595   2.391   0.939   1.691 -0.2069  0.0961 -0.1172
 4320SOL    HW124596   2.359   1.005   1.629  0.1866 -1.8057 -2.3282
 4320SOL    HW224597   2.337   0.864   1.667 -2.8631  2.0670 -0.3036
 4321SOL     OW24598   4.152   2.980   4.889 -0.3824  0.0167  0.0682
 4321SOL    HW124599   4.172   2.904   4.944 -2.8028  0.4791  1.6007
 4321SOL    HW224600   4.096   2.933   4.828  0.4915  1.4014 -1.7909
 4322SOL     OW24601   0.588   4.087   7.240 -0.3268  0.1385 -0.3607
 4322SOL    HW124602   0.550   4.041   7.315  1.1049 -0.2169  0.1606
 4322SOL    HW224603   0.587   4.179   7.266 -0.2646  0.3686 -1.1624
 4323SOL     OW24604   0.399   3.997   1.706 -0.0994  0.4575 -0.0122
 4323SOL    HW124605   0.408   3.954   1.620  4.2260 -0.9223  1.1228
 4323SOL    HW224606   0.420   3.925   1.766  0.7038  3.1759  2.9484
 4324SOL     OW24607   4.559   1.340   1.329  0.2326 -1.0030 -0.5611
 4324SOL    HW124608   4.619   1.341   1.255  0.9678 -0.7972  0.0360
 4324SOL    HW224609   4.521   1.252   1.325  1.0315 -1.4389  1.3728
 4325SOL     OW24610   1.663   2.306   1.204 -0.0317  0.3453 -0.1495
 4325SOL    HW124611   1.719   2.312   1.282  0.4764 -2.8371 -0.2708
 4325SOL    HW224612   1.690   2.380   1.149  3.6971  0.2571  1.5335
 4326SOL     OW24613   0.794   0.180  12.091  0.2296  0.2172  0.3958
 4326SOL    HW124614   0.768   0.225  12.171  1.8437  1.0386  0.4429
 4326SOL    HW224615   0.794   0.086  12.112  0.5749  0.7062  2.6043
 4327SOL     OW24616   0.039   3.310   3.863  0.1341 -0.2618  0.1981
 4327SOL    HW124617   0.039   3.280   3.772 -4.8319  3.0490 -0.8396
 4327SOL    HW224618   4.715   3.248   3.905 -3.2687  2.5712 -0.4664
 4328SOL     OW24619   3.699   2.417   7.342 -0.2468  0.3225 -0.4736
 4328SOL    HW124620   3.732   2.486   7.399  1.3125 -0.1429 -0.8137
 4328SOL    HW224621   3.608   2.444   7.349 -0.2099  0.2145  0.3509
 4329SOL     OW24622   0.472   1.016   2.304 -0.4350 -0.3979 -0.5054
 4329SOL    HW124623   0.522   1.011   2.386 -0.1630 -0.2602 -0.6604
 4329SOL    HW224624   0.544   0.976   2.256 -0.4329 -1.1054  0.0874
 4330SOL     OW24625   3.122   2.120   8.128  0.3844  0.7452 -0.7069
 4330SOL    HW124626   3.116   2.207   8.167  2.1198  1.8010 -2.7952
 4330SOL    HW224627   3.135   2.074   8.212  2.5262  0.6471 -1.0882
 4331SOL     OW24628   1.973   3.602   1.460 -0.0111  0.0991 -0.3402
 4331SOL    HW124629   2.063   3.635   1.465  0.4273 -1.4182  1.7201
 4331SOL    HW224630   1.927   3.685   1.450  1.4503  0.8211 -1.0559
 4332SOL     OW24631   1.047   4.290   6.204  0.7513  0.2350  0.3447
 4332SOL    HW124632   1.048   4.210   6.256 -0.4053  0.5040  0.7781
 4332SOL    HW224633   0.955   4.314   6.216  0.4036 -1.8109  1.7143
 4333SOL     OW24634   0.842   1.700   5.274  0.2663  0.1956 -0.1301
 4333SOL    HW124635   0.791   1.741   5.344 -0.0936 -1.3090  0.4968
 4333SOL    HW224636   0.770   1.687   5.212 -1.0918 -0.6272  1.6114
 4334SOL     OW24637   3.012   1.110  12.130  0.3121  0.2658  0.2738
 4334SOL    HW124638   3.032   1.149  12.215  0.8156  1.4595 -0.3824
 4334SOL    HW224639   2.917   1.110  12.137  0.2205  1.5819 -0.8989
 4335SOL     OW24640   2.585   4.339  11.822 -0.1017 -0.0596 -0.5067
 4335SOL    HW124641   2.529   4.262  11.814  2.5943 -1.9350 -1.0995
 4335SOL    HW224642   2.587   4.355  11.917  0.4841 -0.7352 -0.4106
 4336SOL     OW24643   3.504   3.498   9.595 -0.0934 -0.3048  0.1574
 4336SOL    HW124644   3.476   3.564   9.658  2.1272  0.3676  0.4419
 4336SOL    HW224645   3.508   3.423   9.654  4.2654 -0.5483 -0.4497
 4337SOL     OW24646   2.951   4.576   9.136 -0.1256 -0.1479  0.1627
 4337SOL    HW124647   2.907   4.657   9.161  0.9524  0.4282  0.2097
 4337SOL    HW224648   2.874   4.519   9.134 -0.6790  0.6648 -1.7698
 4338SOL     OW24649   1.503   2.432   0.102 -0.2356  0.2599 -0.1265
 4338SOL    HW124650   1.554   2.354   0.083 -1.9129 -0.6438 -0.9729
 4338SOL    HW224651   1.520   2.480   0.020  0.5866 -0.5091 -0.4047
 4339SOL     OW24652   4.154   3.320   6.275 -0.2739 -0.2501  0.6010
 4339SOL    HW124653   4.246   3.347   6.281 -0.0748 -0.7315 -0.1934
 4339SOL    HW224654   4.140   3.297   6.367  0.6123 -1.2080  0.5069
 4340SOL     OW24655   1.932   1.867   3.435  1.0438 -0.1431  0.1143
 4340SOL    HW124656   1.964   1.804   3.370 -1.3293  0.7671 -1.9076
 4340SOL    HW224657   2.018   1.908   3.448 -0.5687  3.4884 -0.8641
 4341SOL     OW24658   3.533   0.923   5.723  0.1488 -0.0200 -0.0315
 4341SOL    HW124659   3.450   0.876   5.721  0.5736 -0.7875  0.6722
 4341SOL    HW224660   3.580   0.873   5.789  0.2766  2.7214  1.9182
 4342SOL     OW24661   1.141   1.137   8.074 -0.0069 -0.6314  0.1652
 4342SOL    HW124662   1.164   1.074   8.006  0.2539 -1.1595  0.7383
 4342SOL    HW224663   1.166   1.091   8.154  0.4779  0.3630  0.5904
 4343SOL     OW24664   1.572   2.840   5.443 -0.4516 -0.5479  0.2242
 4343SOL    HW124665   1.613   2.893   5.375  1.1620  0.8804  2.2983
 4343SOL    HW224666   1.537   2.758   5.408  1.1375 -1.1296 -0.0159
 4344SOL     OW24667   1.774   1.119  10.330  0.1335 -0.0261  0.2124
 4344SOL    HW124668   1.810   1.206  10.340  0.7299 -0.1910 -0.4760
 4344SOL    HW224669   1.849   1.067  10.301 -0.1534 -0.9948  1.1792
 4345SOL     OW24670   2.952   3.841   6.546 -0.1246 -0.5791  0.3448
 4345SOL    HW124671   3.047   3.827   6.544  0.2886  2.7709 -2.9925
 4345SOL    HW224672   2.941   3.932   6.521  1.9380 -0.0124  1.5150
 4346SOL     OW24673   0.686   3.920  10.835  0.1541 -0.1790 -0.1934
 4346SOL    HW124674   0.754   3.974  10.795 -1.0281  0.2781 -1.5670
 4346SOL    HW224675   0.743   3.889  10.906  0.3229  0.7938  0.0972
 4347SOL     OW24676   4.183   1.134   5.893 -0.3134  0.2081 -0.3765
 4347SOL    HW124677   4.180   1.164   5.984 -0.7942 -0.2298 -0.2493
 4347SOL    HW224678   4.096   1.095   5.887  1.4561 -3.9278  0.7892
 4348SOL     OW24679   4.040   2.666  12.366  0.2224  0.2885 -0.1631
 4348SOL    HW124680   4.079   2.618  12.439 -1.0924  0.0842  0.4098
 4348SOL    HW224681   3.995   2.736  12.414  0.2240  0.6366 -0.6636
 4349SOL     OW24682   2.389   2.321  17.551 -0.1873  0.3639 -0.0293
 4349SOL    HW124683   2.473   2.351  17.516 -1.0474  2.5896 -0.1926
 4349SOL    HW224684   2.354   2.400  17.592  0.5548  0.0110  1.2977
 4350SOL     OW24685   0.082   3.625   9.518  0.0909 -0.3940 -0.0379
 4350SOL    HW124686   0.048   3.547   9.560 -1.2645  0.6834  0.8796
 4350SOL    HW224687   0.170   3.602   9.549  0.5749  0.9998 -0.3659
 4351SOL     OW24688   1.072   1.795   4.514 -0.6510  0.0583  0.3894
 4351SOL    HW124689   1.107   1.759   4.596 -0.4851 -1.1551 -0.2180
 4351SOL    HW224690   1.034   1.713   4.483 -3.5412  0.8626  1.7492
 4352SOL     OW24691   2.629   3.039  15.158 -0.1945  0.4868 -0.2159
 4352SOL    HW124692   2.652   3.049  15.251 -0.9476 -0.6724  0.0965
 4352SOL    HW224693   2.590   3.124  15.141 -1.8178 -0.1677  0.2529
 4353SOL     OW24694   2.650   4.621  13.363  0.0647  0.1564  0.9297
 4353SOL    HW124695   2.616   4.539  13.400 -1.0740  0.7791  1.2542
 4353SOL    HW224696   2.614   4.624  13.275  1.8264  0.3430  0.2098
 4354SOL     OW24697   2.404   0.609   5.824  0.5887 -0.5888  0.1148
 4354SOL    HW124698   2.467   0.660   5.876 -2.2785  0.4916  2.4805
 4354SOL    HW224699   2.462   0.582   5.753  0.5430 -0.9007  0.1967
 4355SOL     OW24700   0.839   2.543   6.534  0.3942 -0.5458 -0.8193
 4355SOL    HW124701   0.746   2.527   6.546  0.9685 -1.4439  2.2508
 4355SOL    HW224702   0.850   2.638   6.530 -2.8957 -0.1646 -0.1981
 4356SOL     OW24703   4.661   4.615   3.567  0.0330  0.1820  0.1170
 4356SOL    HW124704   4.694   4.679   3.630  1.8760  0.7257 -1.4076
 4356SOL    HW224705   4.649   4.543   3.629 -1.1781  1.0391  0.8836
 4357SOL     OW24706   2.000   1.714  10.980 -0.0894  0.2009 -0.3959
 4357SOL    HW124707   2.052   1.657  11.036  2.7069  0.6749 -2.4820
 4357SOL    HW224708   1.927   1.659  10.954 -0.3848  0.5297 -0.2598
 4358SOL     OW24709   0.099   3.488  14.002 -0.1202 -0.2718  0.7875
 4358SOL    HW124710   0.115   3.572  14.044 -0.3302  0.4798 -0.6703
 4358SOL    HW224711   0.117   3.426  14.073  4.0123  0.0255 -0.0015
 4359SOL     OW24712   2.833   1.720  11.515 -0.0192 -0.1998 -0.0458
 4359SOL    HW124713   2.751   1.696  11.471  0.2695 -0.7894 -0.2600
 4359SOL    HW224714   2.894   1.743  11.445 -1.7319 -0.8510 -1.7414
 4360SOL     OW24715   2.429   3.130  15.422  0.2894 -0.3455 -0.0564
 4360SOL    HW124716   2.387   3.084  15.494 -0.1689  1.1309  0.6181
 4360SOL    HW224717   2.378   3.086  15.354  1.1034 -0.6638 -0.4647
 4361SOL     OW24718   4.109   4.399   7.289 -0.0387  0.5053  0.3587
 4361SOL    HW124719   4.085   4.317   7.332 -3.1252  1.6455  0.7642
 4361SOL    HW224720   4.133   4.371   7.201  0.0789  0.4054  0.4216
 4362SOL     OW24721   3.421   3.120   7.039  0.3594 -0.3885 -0.5092
 4362SOL    HW124722   3.488   3.136   6.971  2.1520  0.2064  1.3976
 4362SOL    HW224723   3.375   3.203   7.043 -0.3405 -0.8405  0.7674
 4363SOL     OW24724   0.664   0.557   3.798 -0.0010 -0.3042  0.3373
 4363SOL    HW124725   0.727   0.603   3.854 -1.1134 -2.3258  3.2468
 4363SOL    HW224726   0.697   0.468   3.783  0.5783  0.0509 -0.4916
 4364SOL     OW24727   4.441   3.343   0.170  0.6442  0.1170 -0.5308
 4364SOL    HW124728   4.513   3.302   0.219 -0.1247  1.1081  1.4455
 4364SOL    HW224729   4.422   3.279   0.101  1.2965  0.8404 -1.3856
 4365SOL     OW24730   0.039   4.170   6.757 -0.3024  0.9736  0.3309
 4365SOL    HW124731   4.712   4.232   6.796 -0.5396  1.1513 -0.3342
 4365SOL    HW224732   0.033   4.097   6.818  1.9006  0.2863 -0.2738
 4366SOL     OW24733   0.594   1.782   0.503 -0.2974 -0.2972  0.1731
 4366SOL    HW124734   0.527   1.845   0.529 -1.2793 -1.5704  0.7207
 4366SOL    HW224735   0.548   1.706   0.538  1.4142 -0.8754  1.1812
 4367SOL     OW24736   0.199   2.774  10.316 -0.2837 -0.3379 -0.1221
 4367SOL    HW124737   0.275   2.726  10.349 -0.3148  0.6320  1.3574
 4367SOL    HW224738   0.127   2.727  10.357 -0.9766 -0.7235 -1.7887
 4368SOL     OW24739   1.342   2.421  13.962  0.3928 -0.2160  0.5184
 4368SOL    HW124740   1.354   2.512  13.932 -1.7487 -0.3029 -0.5781
 4368SOL    HW224741   1.308   2.381  13.882  0.8308 -0.2914  0.3668
 4369SOL     OW24742   4.674   1.144   8.298 -0.3845  0.1419 -0.6590
 4369SOL    HW124743   4.617   1.187   8.235  1.2292  0.2477 -2.0409
 4369SOL    HW224744   4.611   1.078   8.326 -0.8114  0.7608 -0.1536
 4370SOL     OW24745   4.367   1.711  16.716 -0.6300 -1.0059 -1.0748
 4370SOL    HW124746   4.437   1.666  16.761 -1.4576  0.2618  1.4732
 4370SOL    HW224747   4.316   1.633  16.694 -1.2477 -0.8007 -0.3522
 4371SOL     OW24748   3.485   2.642   1.470 -0.1959 -0.3160  0.0359
 4371SOL    HW124749   3.421   2.648   1.399  2.0634 -0.2686 -1.9970
 4371SOL    HW224750   3.517   2.556   1.443  3.0627  0.3374  1.9286
 4372SOL     OW24751   3.290   0.527   2.507 -0.1548  0.0967 -0.1829
 4372SOL    HW124752   3.234   0.524   2.585  0.5490  0.3095  0.3252
 4372SOL    HW224753   3.271   0.439   2.473  0.8517 -1.5688  3.5590
 4373SOL     OW24754   4.195   0.959   5.291  0.0249  0.3321  0.0908
 4373SOL    HW124755   4.285   0.983   5.268  0.1880 -0.1446  0.2277
 4373SOL    HW224756   4.208   0.955   5.386 -0.2968 -2.2272  0.0131
 4374SOL     OW24757   3.835   4.578  10.780 -0.1528  0.5571  0.2809
 4374SOL    HW124758   3.750   4.536  10.765  1.0580 -1.2029 -1.7266
 4374SOL    HW224759   3.826   4.590  10.875 -0.4143  0.6809  0.2395
 4375SOL     OW24760   0.326   2.094   6.118 -0.5811 -0.3584  0.2371
 4375SOL    HW124761   0.373   2.175   6.100 -2.8987  1.1875  1.1836
 4375SOL    HW224762   0.383   2.029   6.076 -2.0402 -0.3873 -1.7314
 4376SOL     OW24763   0.626   3.242  17.072 -0.1983 -0.0447 -0.4336
 4376SOL    HW124764   0.623   3.311  17.006 -2.0117  1.2365  0.9728
 4376SOL    HW224765   0.684   3.178  17.032  1.4267  2.1140 -1.5565
 4377SOL     OW24766   0.020   0.687   7.841  0.1831 -0.4817  0.0105
 4377SOL    HW124767   0.115   0.703   7.839  0.3658 -1.3806  1.6665
 4377SOL    HW224768   4.722   0.747   7.907  0.6412  0.8044 -0.9387
 4378SOL     OW24769   2.053   0.252   4.114 -0.6263  0.4588 -0.0972
 4378SOL    HW124770   2.127   0.309   4.094 -1.1386  1.1617  0.0105
 4378SOL    HW224771   2.042   0.267   4.208  3.9041 -1.3320  0.7431
 4379SOL     OW24772   3.268   0.590  12.645 -0.5066 -0.0845  0.2362
 4379SOL    HW124773   3.237   0.674  12.680 -1.7259 -0.8552  0.9966
 4379SOL    HW224774   3.188   0.547  12.616 -0.9226 -0.4676  1.9699
 4380SOL     OW24775   0.253   0.377  10.246 -0.1750 -0.1789  0.1298
 4380SOL    HW124776   0.347   0.386  10.256 -0.3128  0.8485  0.5645
 4380SOL    HW224777   0.234   0.373  10.152  2.3171 -0.6435 -0.3388
 4381SOL     OW24778   0.625   0.881   5.518  0.3551  0.0513 -0.1151
 4381SOL    HW124779   0.642   0.787   5.509  0.7623  0.1002  0.1503
 4381SOL    HW224780   0.693   0.895   5.583  0.3337 -0.4862  0.0243
 4382SOL     OW24781   0.710   3.030  12.978  0.1078  0.4075  0.0445
 4382SOL    HW124782   0.790   3.013  12.928  0.8076  1.1682  0.9152
 4382SOL    HW224783   0.750   3.047  13.063  0.2480  1.2495 -0.1902
 4383SOL     OW24784   1.040   4.556  12.508  0.0636 -0.4177 -0.2200
 4383SOL    HW124785   1.112   4.557  12.570  0.4082 -0.6313 -0.6208
 4383SOL    HW224786   0.970   4.610  12.545 -1.2427 -1.9348 -0.4685
 4384SOL     OW24787   3.993   2.688   0.030  0.8070  0.2208 -0.2824
 4384SOL    HW124788   4.017   2.672  17.677 -1.0107 -0.4429 -0.6421
 4384SOL    HW224789   3.943   2.609   0.051  1.0594 -0.1017 -0.8848
 4385SOL     OW24790   4.558   4.372  16.314 -0.2534  0.8305 -0.3386
 4385SOL    HW124791   4.570   4.447  16.256  0.2917  1.3086  0.3937
 4385SOL    HW224792   4.624   4.395  16.380 -3.1180  2.1182  2.0886
 4386SOL     OW24793   1.074   0.691   9.089 -0.0284 -0.4268 -0.8275
 4386SOL    HW124794   1.017   0.657   9.158 -0.4043 -2.4197 -2.0936
 4386SOL    HW224795   1.158   0.657   9.119  0.6811  1.1211 -1.0850
 4387SOL     OW24796   4.628   3.153   0.216  0.3193  0.4117  0.2939
 4387SOL    HW124797   4.722   3.163   0.199  0.1178  1.4551 -0.2283
 4387SOL    HW224798   4.600   3.113   0.134 -0.9128 -0.8471  1.3383
 4388SOL     OW24799   3.595   0.713   7.131  0.1224 -0.2662 -0.2985
 4388SOL    HW124800   3.622   0.804   7.143  0.1430 -0.1418 -1.2485
 4388SOL    HW224801   3.646   0.693   7.052 -0.3933  1.4840 -1.0844
 4389SOL     OW24802   2.149   3.067  12.383 -0.7537  0.0366 -0.1138
 4389SOL    HW124803   2.071   3.015  12.404  0.1569 -0.8106  1.1642
 4389SOL    HW224804   2.110   3.129  12.321  0.5451  0.5280 -0.4403
 4390SOL     OW24805   1.819   3.418   7.698 -0.1525 -0.2234  0.3842
 4390SOL    HW124806   1.865   3.481   7.753 -1.6358  1.5388 -0.4172
 4390SOL    HW224807   1.854   3.335   7.731  2.2544 -0.2149 -2.0586
 4391SOL     OW24808   1.408   3.641   6.437  0.1772  0.3445  0.2338
 4391SOL    HW124809   1.419   3.550   6.464 -2.5959 -0.1211 -0.1655
 4391SOL    HW224810   1.445   3.682   6.515  0.1341  1.1354 -0.1608
 4392SOL     OW24811   3.558   0.995   4.250 -0.5838 -0.1148 -0.0819
 4392SOL    HW124812   3.617   1.009   4.176  0.8863  0.8759  1.2732
 4392SOL    HW224813   3.620   1.005   4.323 -1.6280 -2.2070  1.0809
 4393SOL     OW24814   2.689   0.824   3.189  0.2900 -0.2229 -0.0735
 4393SOL    HW124815   2.778   0.853   3.169 -0.4526  1.5773 -0.7121
 4393SOL    HW224816   2.635   0.871   3.125  4.2974  1.6066 -2.1062
 4394SOL     OW24817   3.025   0.343   2.075  0.3014  0.5728 -0.2923
 4394SOL    HW124818   3.079   0.271   2.108  0.2212  1.1065  0.9864
 4394SOL    HW224819   2.943   0.331   2.123 -0.6121  1.1701 -1.7151
 4395SOL     OW24820   0.985   0.429   4.169  0.3047  0.2158 -0.3383
 4395SOL    HW124821   1.048   0.383   4.224  0.1794  0.5921  0.1143
 4395SOL    HW224822   0.951   0.355   4.118  1.4357  0.2076 -1.0939
 4396SOL     OW24823   0.536   3.095   3.943 -0.1327  0.3213  0.3092
 4396SOL    HW124824   0.522   3.087   4.037 -1.7687 -1.6604 -0.0987
 4396SOL    HW224825   0.451   3.132   3.921 -1.1575 -0.8688  2.2687
 4397SOL     OW24826   0.105   0.089  15.552 -0.1368  0.4568  0.4553
 4397SOL    HW124827   0.063   0.151  15.492  1.0898  1.8039  0.9720
 4397SOL    HW224828   0.194   0.125  15.558 -0.7925  2.1858 -0.2619
 4398SOL     OW24829   1.090   4.600   4.168 -0.0402 -0.3623  0.4758
 4398SOL    HW124830   1.111   4.637   4.254  1.3604  0.4337 -0.2010
 4398SOL    HW224831   1.059   4.516   4.202  0.4525 -0.5676  0.4223
 4399SOL     OW24832   2.813   3.820  15.273 -0.6763 -0.5855 -0.3226
 4399SOL    HW124833   2.809   3.821  15.369 -1.0975 -1.1322 -0.3404
 4399SOL    HW224834   2.886   3.761  15.252  0.6112  1.4745 -1.6952
 4400SOL     OW24835   2.139   3.079   2.970  0.0350 -0.1985  0.3807
 4400SOL    HW124836   2.201   3.066   3.042 -1.8081 -0.6119  1.8755
 4400SOL    HW224837   2.140   2.987   2.945  0.1025  0.2516 -1.3402
 4401SOL     OW24838   2.432   0.424   8.366 -0.6041 -0.2418 -0.3419
 4401SOL    HW124839   2.435   0.343   8.316  0.3659  0.0559 -0.7723
 4401SOL    HW224840   2.457   0.404   8.456  0.1579  2.1304 -0.0157
 4402SOL     OW24841   2.526   2.340  15.419  0.0826 -0.5245  0.8372
 4402SOL    HW124842   2.544   2.255  15.378 -2.7277 -0.8608  0.2916
 4402SOL    HW224843   2.478   2.375  15.344  1.2323  0.0546  0.3790
 4403SOL     OW24844   2.087   1.041   3.240  0.2310  0.4089 -0.0273
 4403SOL    HW124845   2.125   1.049   3.152  1.6890  1.6573  0.7211
 4403SOL    HW224846   2.162   1.063   3.295 -1.4318  1.5552  1.7814
 4404SOL     OW24847   2.111   2.627   2.447 -0.2250  0.0627  0.0896
 4404SOL    HW124848   2.150   2.705   2.406 -2.8373  2.6811  2.5978
 4404SOL    HW224849   2.026   2.665   2.471 -0.3984 -1.0905  1.3096
 4405SOL     OW24850   3.243   1.009   2.715 -0.2280 -0.8714  0.5243
 4405SOL    HW124851   3.296   1.032   2.791  1.0936 -0.6129 -0.4790
 4405SOL    HW224852   3.311   0.963   2.666 -0.7776 -1.2211  0.0831
 4406SOL     OW24853   1.890   2.802   8.035  0.2152 -0.5991  0.3486
 4406SOL    HW124854   1.950   2.845   7.973  2.2060 -2.4198  1.0370
 4406SOL    HW224855   1.873   2.718   7.993 -0.0194 -0.6741  0.6005
 4407SOL     OW24856   2.313   3.162   1.586  0.1716 -0.2880 -0.0789
 4407SOL    HW124857   2.396   3.209   1.581  0.9389 -1.1923  4.2495
 4407SOL    HW224858   2.341   3.073   1.565  0.1415 -0.4933  0.7377
 4408SOL     OW24859   2.305   2.668   4.574  0.5029  0.4680  0.1423
 4408SOL    HW124860   2.272   2.638   4.658 -0.3842  1.4785  0.1513
 4408SOL    HW224861   2.287   2.760   4.593 -0.3362  0.1075  1.0684
 4409SOL     OW24862   2.121   4.104  17.292 -0.0230  0.1067 -0.0019
 4409SOL    HW124863   2.098   4.134  17.204  0.8329  0.7248 -0.0146
 4409SOL    HW224864   2.169   4.177  17.331 -0.8880  1.3096 -1.1794
 4410SOL     OW24865   3.136   2.620   8.691 -0.0024 -0.5606  0.2612
 4410SOL    HW124866   3.065   2.580   8.741  1.3024 -1.9513  0.9942
 4410SOL    HW224867   3.180   2.540   8.661 -0.3855  0.1425 -2.1085
 4411SOL     OW24868   3.482   1.226  14.114 -0.1841  0.3350 -0.1747
 4411SOL    HW124869   3.442   1.143  14.140  0.5150  0.2926  0.7767
 4411SOL    HW224870   3.554   1.193  14.060 -0.7446  2.0906 -1.9898
 4412SOL     OW24871   2.608   1.507   7.444  0.3836  0.4017  0.2580
 4412SOL    HW124872   2.702   1.515   7.461  0.4239  0.6863 -0.0835
 4412SOL    HW224873   2.571   1.451   7.511  1.0923  0.2945  0.5598
 4413SOL     OW24874   4.280   1.380   2.835  0.1970  0.3733 -0.5828
 4413SOL    HW124875   4.298   1.459   2.783  0.0702  0.6475 -0.2063
 4413SOL    HW224876   4.280   1.311   2.768 -2.1283 -1.9209  1.7831
 4414SOL     OW24877   4.306   1.571   3.635 -0.2185  0.2400  0.2100
 4414SOL    HW124878   4.231   1.616   3.596  1.8734  2.3414 -1.3202
 4414SOL    HW224879   4.348   1.645   3.679  1.5951 -0.9279  0.4109
 4415SOL     OW24880   3.835   0.204  13.427  0.6808  0.0120  0.2643
 4415SOL    HW124881   3.908   0.149  13.400  0.8564  1.0953 -1.4410
 4415SOL    HW224882   3.830   0.273  13.360 -0.1381  0.5066  0.8309
 4416SOL     OW24883   0.273   0.616   5.120  0.3498 -0.3765 -0.8793
 4416SOL    HW124884   0.224   0.539   5.090  0.3974 -1.4154  1.6617
 4416SOL    HW224885   0.252   0.600   5.212 -1.0381  0.8750 -0.9889
 4417SOL     OW24886   1.745   4.220   7.030 -0.0709  0.0744  0.2825
 4417SOL    HW124887   1.723   4.127   7.021  1.4657 -0.2450 -0.1552
 4417SOL    HW224888   1.840   4.216   7.019  0.0722 -0.7921  1.8172
 4418SOL     OW24889   0.076   0.767   5.837 -1.0526 -0.5448 -0.7973
 4418SOL    HW124890   0.119   0.682   5.827  1.4946  0.5698  0.6460
 4418SOL    HW224891   0.155   0.817   5.816 -1.1499  0.5892  1.5927
 4419SOL     OW24892   0.843   2.248   6.447 -0.6209  0.3899 -0.4283
 4419SOL    HW124893   0.881   2.315   6.389 -1.7176  1.0389 -0.4093
 4419SOL    HW224894   0.908   2.251   6.517  0.6496 -2.7297 -1.5185
 4420SOL     OW24895   2.833   4.524   4.151 -0.2220 -0.0847 -0.2529
 4420SOL    HW124896   2.867   4.470   4.080 -0.1135 -0.6370  0.2143
 4420SOL    HW224897   2.780   4.577   4.092  1.4746  0.1436 -1.5787
 4421SOL     OW24898   1.875   3.499   1.188 -0.0686  0.1305 -0.1341
 4421SOL    HW124899   1.862   3.517   1.281  0.6890  1.6847 -0.3214
 4421SOL    HW224900   1.961   3.457   1.189 -0.1112  0.0993  2.2550
 4422SOL     OW24901   3.785   0.499   5.436 -0.6828 -0.0784  0.1094
 4422SOL    HW124902   3.844   0.430   5.466  0.5870 -0.4956 -3.3110
 4422SOL    HW224903   3.773   0.468   5.346 -0.3939  0.8877 -0.2639
 4423SOL     OW24904   2.436   1.916  10.702  0.5054  0.1656 -0.0447
 4423SOL    HW124905   2.356   1.943  10.747 -1.3215  0.0847 -3.2190
 4423SOL    HW224906   2.398   1.834  10.671 -0.9921  0.5193  0.8493
 4424SOL     OW24907   2.947   4.085   8.392  0.2778  0.0009 -0.0470
 4424SOL    HW124908   2.914   4.173   8.377 -1.5279 -0.6359  0.1888
 4424SOL    HW224909   2.926   4.045   8.307  0.9119 -0.1926 -0.1097
 4425SOL     OW24910   4.225   0.503  11.409  0.1310 -0.2302  0.5702
 4425SOL    HW124911   4.319   0.506  11.425  0.1305 -0.5084  0.6214
 4425SOL    HW224912   4.222   0.427  11.350 -1.9576  1.3106 -1.3625
 4426SOL     OW24913   3.377   0.219  16.538  0.5073  0.1860 -0.9003
 4426SOL    HW124914   3.420   0.257  16.614  0.3808 -2.0220  0.2576
 4426SOL    HW224915   3.430   0.140  16.531  0.2038  0.0138 -1.2262
 4427SOL     OW24916   0.001   1.545   5.323 -0.0924 -0.0080 -0.1560
 4427SOL    HW124917   4.641   1.555   5.333 -0.1120  0.2464 -0.5895
 4427SOL    HW224918   0.009   1.488   5.247  1.8731  0.0912 -0.0179
 4428SOL     OW24919   0.617   0.567  15.107  0.4375 -0.3516  0.0889
 4428SOL    HW124920   0.696   0.611  15.074  0.0141  1.2045  1.1508
 4428SOL    HW224921   0.542   0.618  15.074 -0.2708 -0.6179  1.3175
 4429SOL     OW24922   3.254   2.048  11.376  0.0072 -0.0911  0.0610
 4429SOL    HW124923   3.171   2.057  11.422  1.4957  0.5842  2.6018
 4429SOL    HW224924   3.227   1.984  11.310  0.7849  0.9638 -1.2720
 4430SOL     OW24925   2.331   0.658   0.676  0.4133  0.0338 -0.3085
 4430SOL    HW124926   2.242   0.621   0.678  1.1040 -1.7635 -2.6990
 4430SOL    HW224927   2.344   0.646   0.770  0.7839  2.5634 -0.0332
 4431SOL     OW24928   0.007   1.550  14.071 -0.1276 -0.0128 -0.0090
 4431SOL    HW124929   4.706   1.639  14.063 -1.3424 -0.4583  0.6271
 4431SOL    HW224930   0.058   1.553  13.989  0.4064 -0.4603  0.3095
 4432SOL     OW24931   3.926   2.981   5.637 -0.2913 -0.1355  0.1400
 4432SOL    HW124932   3.901   2.987   5.545  0.9138 -0.9342 -0.2421
 4432SOL    HW224933   3.998   2.919   5.622 -1.2514 -0.7193 -2.1372
 4433SOL     OW24934   3.615   0.074   0.042 -0.2210 -0.2502 -0.2287
 4433SOL    HW124935   3.684   0.055  17.718  0.0368 -1.7413  0.5126
 4433SOL    HW224936   3.661   0.141   0.092 -0.6892 -0.4775  0.5106
 4434SOL     OW24937   2.252   2.010  15.155  0.0539  0.5885 -0.6190
 4434SOL    HW124938   2.243   2.070  15.230 -1.3778  0.3570 -0.5975
 4434SOL    HW224939   2.161   2.006  15.124 -0.3100  1.1375  0.3762
 4435SOL     OW24940   1.285   3.239   9.654  0.1484  0.0327  0.0389
 4435SOL    HW124941   1.296   3.154   9.696 -3.4996 -1.2965 -1.7246
 4435SOL    HW224942   1.377   3.258   9.634  0.0864 -0.5229 -0.7762
 4436SOL     OW24943   1.130   2.522   2.541  0.0381 -0.7218  0.0993
 4436SOL    HW124944   1.082   2.448   2.576 -1.5916  0.3951  0.1947
 4436SOL    HW224945   1.060   2.560   2.487 -0.7192  0.3185  1.8238
 4437SOL     OW24946   1.287   3.835   4.942  0.5226 -0.9242  0.5849
 4437SOL    HW124947   1.274   3.895   4.869 -0.3290 -0.8858  0.7576
 4437SOL    HW224948   1.289   3.753   4.893 -0.8898 -1.2122  0.9932
 4438SOL     OW24949   4.278   1.442  16.207 -0.0602  0.4569 -0.2610
 4438SOL    HW124950   4.320   1.500  16.143 -1.8756  1.6222 -0.4137
 4438SOL    HW224951   4.193   1.483  16.225 -0.2580 -0.3085  0.5752
 4439SOL     OW24952   3.634   0.102   3.074  0.0671  0.0734  0.0944
 4439SOL    HW124953   3.629   0.031   3.009  0.4247  0.1230  0.0126
 4439SOL    HW224954   3.697   0.153   3.023  0.2153  0.9550  1.1741
 4440SOL     OW24955   0.341   1.749   5.218  0.3056 -0.1415  0.8099
 4440SOL    HW124956   0.393   1.669   5.229 -0.4272 -1.0362 -2.2065
 4440SOL    HW224957   0.327   1.727   5.126  1.5850 -1.2623  0.8809
 4441SOL     OW24958   1.247   1.272   1.808 -0.1957 -0.0523 -0.1376
 4441SOL    HW124959   1.313   1.269   1.739 -0.7900  1.5037 -0.7716
 4441SOL    HW224960   1.313   1.273   1.878  1.3411  5.4307 -1.7009
 4442SOL     OW24961   2.530   2.822   8.200 -0.2094 -0.6765  0.5288
 4442SOL    HW124962   2.504   2.913   8.181  0.0998 -0.5573  0.6864
 4442SOL    HW224963   2.453   2.793   8.249  0.2918 -0.2950  1.5446
 4443SOL     OW24964   0.407   3.328   5.178 -0.4591  0.0585 -0.0923
 4443SOL    HW124965   0.333   3.368   5.225  1.3314  2.2287  0.8571
 4443SOL    HW224966   0.479   3.389   5.192  2.7722 -3.3044 -1.9007
 4444SOL     OW24967   3.043   3.374   2.944  0.3214  0.1240 -0.8342
 4444SOL    HW124968   2.949   3.355   2.934  0.1377 -0.0795  1.4106
 4444SOL    HW224969   3.053   3.415   3.029 -0.0285 -1.7361  0.1016
 4445SOL     OW24970   2.746   2.729  14.647  0.3584 -0.1672  0.5006
 4445SOL    HW124971   2.773   2.791  14.714  0.4793  0.7157 -0.3601
 4445SOL    HW224972   2.830   2.708  14.607  0.0193 -2.5530  1.0464
 4446SOL     OW24973   0.194   2.021   7.154 -0.4660  0.5425 -0.2428
 4446SOL    HW124974   0.254   1.950   7.132  0.0398 -0.2486  3.7114
 4446SOL    HW224975   0.249   2.094   7.125  0.4576  0.6519  1.7436
 4447SOL     OW24976   1.947   0.860  12.868 -0.3448  0.5300 -0.8363
 4447SOL    HW124977   2.037   0.880  12.840  1.0043 -1.4444  2.1188
 4447SOL    HW224978   1.932   0.922  12.939 -0.2731 -1.5972  1.0444
 4448SOL     OW24979   2.683   4.276   5.366  0.3504  0.3571  0.2760
 4448SOL    HW124980   2.596   4.314   5.353  0.6653  0.5759 -1.1891
 4448SOL    HW224981   2.723   4.346   5.416  0.3379 -0.4480  1.3948
 4449SOL     OW24982   1.229   3.915  11.424  0.1546 -0.4436 -0.4190
 4449SOL    HW124983   1.231   3.957  11.510 -2.7136 -2.4348  0.6404
 4449SOL    HW224984   1.308   3.863  11.433  1.6732  1.3994 -3.0276
 4450SOL     OW24985   4.564   1.170  16.546  0.7669  0.5269 -0.2500
 4450SOL    HW124986   4.535   1.217  16.468 -2.2061  1.3624  1.3522
 4450SOL    HW224987   4.577   1.238  16.612 -0.6517  1.3632 -0.8366
 4451SOL     OW24988   1.695   1.775  10.989  0.1083 -0.2022 -0.3891
 4451SOL    HW124989   1.719   1.764  10.897  1.0642 -1.6916  0.0374
 4451SOL    HW224990   1.667   1.686  11.010 -4.1359  1.3934  0.7767
 4452SOL     OW24991   2.187   2.644   9.440 -0.5756 -0.5418  0.7696
 4452SOL    HW124992   2.183   2.670   9.532  1.6865  1.1322  0.3994
 4452SOL    HW224993   2.194   2.548   9.444 -1.1495 -0.6831 -1.3679
 4453SOL     OW24994   3.434   0.061   9.598  0.2921 -0.5963 -0.2492
 4453SOL    HW124995   3.474   0.014   9.672 -0.3316  0.2403  0.6187
 4453SOL    HW224996   3.342   0.036   9.596 -0.2006  1.2177 -0.4356
 4454SOL     OW24997   1.573   2.333  10.628  0.2517 -0.1924  0.0088
 4454SOL    HW124998   1.619   2.286  10.698 -0.9527 -0.9222  0.3182
 4454SOL    HW224999   1.495   2.350  10.681  0.6332  1.0415  0.1594
 4455SOL     OW25000   4.402   1.278  10.990 -0.4265 -0.0514 -0.1978
 4455SOL    HW125001   4.459   1.213  11.031 -0.8371  0.7342  1.6190
 4455SOL    HW225002   4.424   1.365  11.025  2.3088 -0.8918  0.1853
 4456SOL     OW25003   1.272   0.771   6.843  0.3767 -0.1966 -0.0508
 4456SOL    HW125004   1.361   0.789   6.874  0.3534 -1.5564  0.8235
 4456SOL    HW225005   1.286   0.680   6.816  0.9384  0.0087 -0.4399
 4457SOL     OW25006   2.461   4.598  16.126 -0.3033  0.0543 -0.0110
 4457SOL    HW125007   2.501   4.654  16.192 -0.1646 -0.5237  0.3963
 4457SOL    HW225008   2.395   4.657  16.090 -0.6091 -0.2109  0.1144
 4458SOL     OW25009   4.671   4.209  12.188  0.2574 -0.5154 -0.5115
 4458SOL    HW125010   0.006   4.271  12.169  0.4795 -0.5481  0.1892
 4458SOL    HW225011   4.711   4.131  12.149  1.4070  0.0989 -0.5543
 4459SOL     OW25012   0.078   2.815   6.313  0.0095  0.3010  0.4388
 4459SOL    HW125013   0.000   2.850   6.270 -0.2750  0.2218  0.8966
 4459SOL    HW225014   0.091   2.882   6.380 -0.3986  1.3981 -0.5858
 4460SOL     OW25015   2.496   2.333   0.074  0.1242  0.4472 -0.7458
 4460SOL    HW125016   2.541   2.403   0.028  1.2617 -0.2614 -0.7058
 4460SOL    HW225017   2.560   2.262   0.076  0.8810  1.1714  0.5922
 4461SOL     OW25018   4.039   0.620   3.335  0.2562  1.0233 -0.2093
 4461SOL    HW125019   4.027   0.603   3.242 -0.3783 -1.5445  0.3489
 4461SOL    HW225020   4.041   0.716   3.338  0.9637  0.9322  2.5987
 4462SOL     OW25021   3.221   1.965   2.174 -0.0030  0.2324 -0.2841
 4462SOL    HW125022   3.304   1.992   2.213 -0.1000 -0.7410  0.6000
 4462SOL    HW225023   3.237   1.875   2.147  2.1432  0.1910  1.1509
 4463SOL     OW25024   0.645   1.820   0.903  0.1017  0.0419 -0.5923
 4463SOL    HW125025   0.727   1.866   0.922  0.0911  0.7036 -2.1023
 4463SOL    HW225026   0.624   1.785   0.989 -2.0121  0.6407 -0.8683
 4464SOL     OW25027   1.346   1.893   1.175  0.4588 -0.1488 -0.0503
 4464SOL    HW125028   1.379   1.935   1.095 -0.9049 -1.4963 -1.3180
 4464SOL    HW225029   1.253   1.914   1.168  0.6971  0.5519 -1.1894
 4465SOL     OW25030   1.867   0.749  17.255 -0.1908 -0.2624 -0.2475
 4465SOL    HW125031   1.908   0.700  17.184 -1.3487 -0.0156 -1.0762
 4465SOL    HW225032   1.799   0.798  17.210  0.9927  0.6580 -1.0398
 4466SOL     OW25033   2.379   1.677   6.675 -0.0099 -0.5233 -0.2930
 4466SOL    HW125034   2.334   1.743   6.728  0.8682  0.4895 -0.7893
 4466SOL    HW225035   2.309   1.657   6.613  0.5103 -0.8584 -0.7723
 4467SOL     OW25036   1.773   2.904   4.544  0.0941  0.3103  0.5296
 4467SOL    HW125037   1.844   2.953   4.502  1.4442 -2.5343 -0.5315
 4467SOL    HW225038   1.765   2.946   4.630 -1.6921  2.1076 -0.5260
 4468SOL     OW25039   2.935   2.117  11.249  0.5277  0.0028 -0.6231
 4468SOL    HW125040   2.950   2.174  11.324  0.6944  1.8731 -2.0827
 4468SOL    HW225041   2.985   2.156  11.178 -0.1177  1.6569 -0.1596
 4469SOL     OW25042   3.918   1.403   3.751 -0.0271  0.1341 -0.3111
 4469SOL    HW125043   3.841   1.443   3.791  0.6538 -0.5306  1.6309
 4469SOL    HW225044   3.899   1.421   3.658  3.4490 -0.5337 -1.1547
 4470SOL     OW25045   2.291   0.134   6.247 -0.2428 -0.6459 -0.0089
 4470SOL    HW125046   2.359   0.094   6.301 -1.1237 -3.5617 -1.0649
 4470SOL    HW225047   2.283   0.222   6.284 -0.4346  0.2157 -2.0961
 4471SOL     OW25048   1.726   1.779   0.743  0.1226 -0.5731 -0.2922
 4471SOL    HW125049   1.706   1.710   0.807 -1.9443  1.9224  1.7209
 4471SOL    HW225050   1.815   1.811   0.758  0.3755 -1.0168 -0.8423
 4472SOL     OW25051   1.883   3.456   0.908 -0.2923 -0.1751 -0.1559
 4472SOL    HW125052   1.850   3.539   0.874 -0.1048 -0.2598 -0.5470
 4472SOL    HW225053   1.844   3.455   0.995 -0.4701 -2.6126 -0.2458
 4473SOL     OW25054   2.976   3.294   2.376 -0.6315  0.4629 -0.4750
 4473SOL    HW125055   3.038   3.366   2.380  1.4208 -1.2071 -2.1797
 4473SOL    HW225056   2.959   3.283   2.282  2.8328  0.8679 -1.1528
 4474SOL     OW25057   0.397   0.615   9.840 -0.5043  0.3129 -0.0964
 4474SOL    HW125058   0.402   0.705   9.873 -3.3133  0.6138 -0.4964
 4474SOL    HW225059   0.400   0.628   9.745 -0.5607  3.4122  0.3325
 4475SOL     OW25060   4.299   0.287   5.712 -0.5101 -0.3405  0.2945
 4475SOL    HW125061   4.393   0.272   5.704 -0.3904  1.0189 -0.8537
 4475SOL    HW225062   4.273   0.195   5.722 -3.6975  0.8162  2.4705
 4476SOL     OW25063   1.671   4.702   8.149 -0.1513  0.3220 -0.3080
 4476SOL    HW125064   1.579   4.726   8.135  0.3409  0.5399 -3.1662
 4476SOL    HW225065   1.660   4.612   8.181 -1.2197  0.1028 -1.2903
 4477SOL     OW25066   2.627   2.714   3.444  0.0179 -0.1432  0.0428
 4477SOL    HW125067   2.701   2.752   3.491  0.1147 -0.9766  0.5542
 4477SOL    HW225068   2.667   2.629   3.429 -0.8834 -0.4948 -0.4080
 4478SOL     OW25069   0.755   0.170   8.809  0.8743  0.2292  0.3361
 4478SOL    HW125070   0.840   0.147   8.846  1.1122 -0.0856 -0.4009
 4478SOL    HW225071   0.722   0.235   8.872  0.6389  2.6920 -2.3555
 4479SOL     OW25072   1.196   2.677  14.937  0.1171 -0.7502  0.0501
 4479SOL    HW125073   1.286   2.710  14.948  1.2242 -3.6160 -0.5931
 4479SOL    HW225074   1.200   2.656  14.843 -1.7619 -1.4254  0.1332
 4480SOL     OW25075   1.254   3.626   8.700  0.0360 -0.5682 -0.3027
 4480SOL    HW125076   1.242   3.719   8.681  4.1601  0.0383 -0.0609
 4480SOL    HW225077   1.163   3.596   8.700  0.0020 -0.4142 -2.1502
 4481SOL     OW25078   1.234   2.166   3.005 -0.5150 -0.9554 -0.0937
 4481SOL    HW125079   1.246   2.151   3.098  1.9937  0.5926 -0.1694
 4481SOL    HW225080   1.177   2.095   2.975  2.0037 -3.0922  0.2190
 4482SOL     OW25081   4.122   3.853   6.270  0.3687 -0.1088  0.3553
 4482SOL    HW125082   4.158   3.793   6.335  1.0133  0.2948  0.3770
 4482SOL    HW225083   4.171   3.934   6.286  0.2674  0.0362 -0.0749
 4483SOL     OW25084   3.063   3.049   5.086  0.2408  0.0340 -0.8052
 4483SOL    HW125085   2.995   3.102   5.128  2.3252  1.1008  1.2034
 4483SOL    HW225086   3.064   3.083   4.996 -0.6451 -0.4569 -1.0126
 4484SOL     OW25087   0.500   0.428   6.416  0.0502 -0.5269  0.2021
 4484SOL    HW125088   0.408   0.453   6.410  0.3923  0.7198  0.1332
 4484SOL    HW225089   0.531   0.506   6.461  0.0629 -1.3404  1.6099
 4485SOL     OW25090   2.405   2.402   8.863  0.6830 -0.1455  0.2208
 4485SOL    HW125091   2.410   2.316   8.823 -1.5187  0.0704 -0.5286
 4485SOL    HW225092   2.337   2.408   8.930 -0.1878  1.2333 -0.7666
 4486SOL     OW25093   1.221   0.772   0.098  0.2988 -0.3074  0.1853
 4486SOL    HW125094   1.177   0.747   0.017 -1.5187  1.2042  0.7089
 4486SOL    HW225095   1.186   0.704   0.156 -0.1082 -1.5509 -1.4986
 4487SOL     OW25096   0.852   3.329  15.774  0.6546 -0.3288 -0.0014
 4487SOL    HW125097   0.891   3.319  15.861  1.9641  1.8047 -0.3275
 4487SOL    HW225098   0.771   3.375  15.793  2.2351  2.4095  0.1542
 4488SOL     OW25099   4.674   3.463  10.669 -0.0660  0.0239 -0.2311
 4488SOL    HW125100   4.629   3.491  10.589 -0.8212 -0.6469 -0.0398
 4488SOL    HW225101   4.603   3.444  10.730  1.5385 -0.8498  1.3562
 4489SOL     OW25102   2.837   2.314   7.993 -0.0992 -0.4406 -0.2354
 4489SOL    HW125103   2.827   2.374   7.919 -0.6036  1.0425  1.0257
 4489SOL    HW225104   2.770   2.352   8.050  0.1122 -0.1373 -0.1873
 4490SOL     OW25105   0.722   0.767   0.711 -0.5025  0.1766 -0.1618
 4490SOL    HW125106   0.650   0.749   0.771  0.4310 -0.7626  0.6763
 4490SOL    HW225107   0.701   0.710   0.637  0.5863  0.1696 -0.4677
 4491SOL     OW25108   0.568   4.337   7.345 -0.0911  0.2788 -0.1058
 4491SOL    HW125109   0.566   4.371   7.435 -0.5674  1.3284 -0.5112
 4491SOL    HW225110   0.541   4.415   7.296 -0.4433 -0.8535 -1.6993
 4492SOL     OW25111   3.760   0.422   1.944  0.2286 -0.0252  0.3925
 4492SOL    HW125112   3.815   0.402   1.868 -2.1460 -0.0665 -1.2939
 4492SOL    HW225113   3.835   0.446   1.999 -0.0456 -0.8656  1.1556
 4493SOL     OW25114   2.871   2.581   6.420  0.1847 -0.0173 -0.1530
 4493SOL    HW125115   2.888   2.507   6.363 -1.6409  0.4536 -1.3313
 4493SOL    HW225116   2.851   2.545   6.506  0.1177 -1.3880 -0.7540
 4494SOL     OW25117   3.529   3.547   2.114 -0.1999  0.5741 -0.2026
 4494SOL    HW125118   3.477   3.627   2.124 -1.5996 -0.7824  3.6518
 4494SOL    HW225119   3.517   3.534   2.021  0.9899  0.6816 -0.3775
 4495SOL     OW25120   0.416   2.207   8.366  0.5535  0.0344 -0.1533
 4495SOL    HW125121   0.484   2.160   8.319  0.4772  0.6791 -0.9031
 4495SOL    HW225122   0.344   2.144   8.372  2.9119 -2.5435  1.1506
 4496SOL     OW25123   3.228   0.254   4.645  0.2241  0.2873  0.0236
 4496SOL    HW125124   3.314   0.231   4.680  0.0856  0.7186  0.6524
 4496SOL    HW225125   3.178   0.177   4.672 -1.3590  0.2905 -2.8909
 4497SOL     OW25126   4.318   4.249  13.828  0.2784  0.0358  0.0553
 4497SOL    HW125127   4.289   4.228  13.739 -0.1925 -0.2815  0.2856
 4497SOL    HW225128   4.387   4.313  13.808 -0.7994  0.7402 -1.4252
 4498SOL     OW25129   1.386   2.347  10.834  0.2021 -0.2354  0.3755
 4498SOL    HW125130   1.364   2.436  10.862  1.6921  0.5939 -1.1481
 4498SOL    HW225131   1.302   2.300  10.831  0.1848 -0.1255 -0.7186
 4499SOL     OW25132   0.108   1.345  14.749  0.4213 -0.1658  0.2849
 4499SOL    HW125133   0.113   1.436  14.721  3.1569 -0.6927 -0.8891
 4499SOL    HW225134   0.182   1.337  14.808  0.4151 -0.7071  0.2207
 4500SOL     OW25135   3.127   3.682   6.314 -0.4691  0.2846 -0.0099
 4500SOL    HW125136   3.073   3.610   6.348 -0.2273 -0.9168 -2.1714
 4500SOL    HW225137   3.167   3.710   6.396  1.4217 -0.4485 -0.6786
 4501SOL     OW25138   0.017   2.598   5.672  0.4380 -0.0243  0.1468
 4501SOL    HW125139   4.672   2.627   5.718  0.6251  0.4608  0.1693
 4501SOL    HW225140   0.084   2.630   5.732 -0.5733  2.2184  0.0947
 4502SOL     OW25141   4.024   2.911   2.926  0.1265 -0.0333 -0.2764
 4502SOL    HW125142   3.964   2.984   2.912 -0.2169 -0.5108 -1.2933
 4502SOL    HW225143   4.069   2.941   3.004  0.3509 -0.1391 -0.3654
 4503SOL     OW25144   1.068   0.484   7.006  0.1340 -0.3199 -0.2648
 4503SOL    HW125145   1.085   0.577   6.988 -1.2637 -0.4185 -2.0748
 4503SOL    HW225146   1.154   0.455   7.036 -0.0911 -2.0637 -1.2946
 4504SOL     OW25147   2.815   2.071   4.636 -0.7171 -0.1476 -0.4026
 4504SOL    HW125148   2.747   2.016   4.597 -1.0501 -0.4766  0.6465
 4504SOL    HW225149   2.829   2.116   4.553  0.0879  0.8226  0.2606
 4505SOL     OW25150   1.386   3.272   4.035 -0.0820 -0.1883 -0.6635
 4505SOL    HW125151   1.390   3.260   3.940  2.1633 -0.9149 -0.4852
 4505SOL    HW225152   1.464   3.327   4.042 -0.3803  0.0510  0.8091
 4506SOL     OW25153   4.219   4.403  12.912  0.6102  0.6927 -0.1538
 4506SOL    HW125154   4.148   4.464  12.931  0.1884  0.4040 -0.7985
 4506SOL    HW225155   4.249   4.389  13.002 -2.0474  1.1716  0.7959
 4507SOL     OW25156   2.354   3.164   1.138  0.4140 -0.0278  0.1601
 4507SOL    HW125157   2.331   3.195   1.051  3.2192  2.3539  0.2865
 4507SOL    HW225158   2.397   3.241   1.174 -1.7248  1.4653 -0.4787
 4508SOL     OW25159   2.957   3.865   7.882  0.1569  0.5984 -0.7824
 4508SOL    HW125160   2.939   3.864   7.789 -2.4581  0.8092 -0.2647
 4508SOL    HW225161   3.007   3.947   7.884 -2.8375  2.3771  0.6716
 4509SOL     OW25162   4.318   1.102   2.676 -0.2363 -0.1897 -0.2675
 4509SOL    HW125163   4.270   1.036   2.726 -3.0581  1.1182 -1.2125
 4509SOL    HW225164   4.264   1.109   2.597  0.5322  0.5477 -0.7313
 4510SOL     OW25165   4.290   1.640   9.008  0.2759 -0.7514 -0.0977
 4510SOL    HW125166   4.345   1.572   9.047  0.4377 -0.9711 -0.7045
 4510SOL    HW225167   4.300   1.716   9.066  0.5247 -0.8034 -0.0703
 4511SOL     OW25168   2.605   1.994   6.814  0.4745  0.0008  0.0381
 4511SOL    HW125169   2.671   2.048   6.770 -0.0451  1.8758  1.5881
 4511SOL    HW225170   2.640   1.916   6.772  1.0393  0.1428  0.2438
 4512SOL     OW25171   0.320   1.648   1.650  0.6619  0.5880 -0.0772
 4512SOL    HW125172   0.380   1.625   1.579 -0.1788 -2.2456  0.1194
 4512SOL    HW225173   0.232   1.652   1.612  2.1931 -3.3858 -3.9968
 4513SOL     OW25174   3.888   2.641   8.596 -0.2389  0.0945  0.3884
 4513SOL    HW125175   3.967   2.590   8.578 -0.1582  0.8191 -1.3301
 4513SOL    HW225176   3.852   2.649   8.508 -0.4408  0.5084  0.5078
 4514SOL     OW25177   0.413   1.261   8.395 -0.4104  0.1818  0.2601
 4514SOL    HW125178   0.358   1.318   8.340 -0.5073  0.2634  0.4397
 4514SOL    HW225179   0.462   1.212   8.329  0.1894  0.2785  0.6427
 4515SOL     OW25180   2.725   2.135  15.024 -0.1235  0.1580 -0.3698
 4515SOL    HW125181   2.632   2.113  15.017  0.1176 -1.2850  0.8654
 4515SOL    HW225182   2.769   2.050  15.011  1.7304  0.9975  0.3547
 4516SOL     OW25183   4.428   4.600   5.682  0.0192 -0.1396  0.1909
 4516SOL    HW125184   4.350   4.546   5.673 -0.9432  1.0564  1.2920
 4516SOL    HW225185   4.440   4.620   5.589  1.3763 -1.6837  0.0294
 4517SOL     OW25186   2.778   4.642   6.759  0.8293 -0.9374  0.1560
 4517SOL    HW125187   2.872   4.656   6.768  0.3614  1.3496  1.4960
 4517SOL    HW225188   2.777   4.572   6.694  4.5401 -0.1369 -0.7373
 4518SOL     OW25189   4.187   0.521  14.261  0.3524 -0.5809 -0.3289
 4518SOL    HW125190   4.191   0.429  14.236  0.8420 -0.3340 -1.1602
 4518SOL    HW225191   4.260   0.552  14.207  0.4032  1.3604  0.8660
 4519SOL     OW25192   1.536   1.744  12.839 -0.0552  0.1958 -0.5496
 4519SOL    HW125193   1.534   1.687  12.763  3.6170 -1.9162  0.9468
 4519SOL    HW225194   1.478   1.813  12.808  0.4319  1.0005  0.3050
 4520SOL     OW25195   2.025   4.418   8.988  0.5652  0.3701 -0.1498
 4520SOL    HW125196   1.937   4.386   9.004  1.6350 -1.5145  1.8320
 4520SOL    HW225197   2.068   4.416   9.073  2.0505  0.2992 -0.9027
 4521SOL     OW25198   4.181   1.395   3.879 -0.1699  0.8989  0.3939
 4521SOL    HW125199   4.104   1.350   3.846  0.8376  0.1614 -0.9244
 4521SOL    HW225200   4.213   1.448   3.806 -2.8702  0.0050 -1.4208
 4522SOL     OW25201   1.164   3.398   2.182  0.0474 -0.1525  0.2097
 4522SOL    HW125202   1.168   3.445   2.265 -0.0604 -0.6977  0.5184
 4522SOL    HW225203   1.082   3.441   2.156  1.8646  2.0330 -1.9443
 4523SOL     OW25204   0.789   2.057   1.158  0.4163 -0.0461 -0.1970
 4523SOL    HW125205   0.770   2.095   1.072  0.3454 -1.8178 -0.9628
 4523SOL    HW225206   0.760   2.140   1.197 -0.1081 -0.6670  0.7535
 4524SOL     OW25207   1.353   2.409   4.081 -0.1945  0.0707  0.0820
 4524SOL    HW125208   1.312   2.482   4.033 -0.0026 -0.2666 -0.5915
 4524SOL    HW225209   1.276   2.353   4.090 -0.0705  0.0239  0.8789
 4525SOL     OW25210   3.324   0.870   6.700 -0.5080 -0.3233  0.6964
 4525SOL    HW125211   3.237   0.851   6.666  0.4105 -1.2287 -1.1433
 4525SOL    HW225212   3.328   0.958   6.663  0.8974 -0.2389  1.0564
 4526SOL     OW25213   1.708   1.731  14.896  0.0284  0.2416 -0.3091
 4526SOL    HW125214   1.688   1.771  14.811  1.1971 -2.6824 -1.9512
 4526SOL    HW225215   1.794   1.692  14.879 -0.6821 -1.7807  0.7588
 4527SOL     OW25216   4.135   3.721   4.069  0.1284 -0.1661  0.6429
 4527SOL    HW125217   4.113   3.795   4.013  1.2344  0.8264  1.5112
 4527SOL    HW225218   4.116   3.651   4.007  1.7252 -0.4082  0.4314
 4528SOL     OW25219   4.636   2.853   8.433 -0.2306 -0.1914  0.8423
 4528SOL    HW125220   4.679   2.770   8.454 -1.8809 -1.1341  0.4348
 4528SOL    HW225221   4.689   2.913   8.487  1.2483 -1.5491  0.9030
 4529SOL     OW25222   2.091   3.276  14.337  0.1546 -0.2969  0.5121
 4529SOL    HW125223   2.107   3.351  14.280 -0.4451 -1.7923 -1.6444
 4529SOL    HW225224   2.056   3.319  14.415  1.9773  1.1592  0.4973
 4530SOL     OW25225   4.247   3.287   9.000 -0.1125  0.1850  0.6696
 4530SOL    HW125226   4.323   3.272   8.944 -1.4477 -0.4744 -0.9364
 4530SOL    HW225227   4.281   3.355   9.059 -0.4455  1.3994 -0.5203
 4531SOL     OW25228   4.145   2.804   5.497  0.0367  0.2385  0.6900
 4531SOL    HW125229   4.169   2.846   5.414  0.2552  1.6237  1.4530
 4531SOL    HW225230   4.175   2.714   5.480 -1.0105 -0.2671  1.5466
 4532SOL     OW25231   1.124   1.683   6.655  0.6580  0.5841 -0.2803
 4532SOL    HW125232   1.075   1.757   6.618 -0.0600  1.0480  1.5876
 4532SOL    HW225233   1.109   1.690   6.749  0.4234 -0.6124 -0.2308
 4533SOL     OW25234   2.642   3.949   8.482 -0.7240  0.4645 -0.2170
 4533SOL    HW125235   2.570   3.991   8.435 -2.4060 -1.8566  0.3202
 4533SOL    HW225236   2.693   3.931   8.403 -1.7987 -4.7971  0.3016
 4534SOL     OW25237   3.635   4.265  10.273  0.0299  0.4612 -0.4346
 4534SOL    HW125238   3.615   4.312  10.192 -0.4782  4.1197  1.8041
 4534SOL    HW225239   3.674   4.336  10.325  0.1408  0.7663 -0.9272
 4535SOL     OW25240   1.247   1.006   6.008 -0.3207 -0.3003  0.4989
 4535SOL    HW125241   1.223   1.022   5.916 -0.3237 -4.8113 -0.2724
 4535SOL    HW225242   1.315   1.073   6.015 -0.6286  0.1621 -0.9040
 4536SOL     OW25243   1.179   1.334   2.300  0.7478 -0.2172  0.1938
 4536SOL    HW125244   1.094   1.325   2.342  0.4974  0.1913 -0.2170
 4536SOL    HW225245   1.224   1.251   2.312 -2.1768 -1.5400  2.0295
 4537SOL     OW25246   4.125   2.528   7.802  0.7278  0.1867  0.6280
 4537SOL    HW125247   4.194   2.528   7.868 -0.4699  1.3377  1.9101
 4537SOL    HW225248   4.143   2.452   7.747 -2.0814  0.5698 -0.8437
 4538SOL     OW25249   3.272   2.099   3.235 -0.3314  0.1000 -0.1081
 4538SOL    HW125250   3.181   2.129   3.225  0.1925  1.8750  0.4602
 4538SOL    HW225251   3.297   2.138   3.151  1.6489  0.8851  0.8601
 4539SOL     OW25252   0.470   1.530   0.519 -0.3298  0.1723 -0.2839
 4539SOL    HW125253   0.408   1.469   0.560 -0.6301  0.8858  0.3163
 4539SOL    HW225254   0.497   1.482   0.441 -0.4585 -1.5317  0.7030
 4540SOL     OW25255   2.876   2.407  17.121  0.2586 -0.0527  0.1335
 4540SOL    HW125256   2.834   2.326  17.092  0.0123  0.7764 -1.7990
 4540SOL    HW225257   2.823   2.473  17.077  1.0063 -0.1854 -0.9869
 4541SOL     OW25258   3.892   0.945   2.648  0.0276 -0.5439  0.0092
 4541SOL    HW125259   3.882   1.026   2.599 -0.4926  0.1577  1.2491
 4541SOL    HW225260   3.831   0.893   2.595 -1.7023  3.9995 -2.4236
 4542SOL     OW25261   1.319   4.116   4.303 -0.0828  0.5968 -0.5055
 4542SOL    HW125262   1.413   4.130   4.315 -0.4571  2.8357 -0.1698
 4542SOL    HW225263   1.279   4.203   4.306 -0.8479  0.2676 -1.1110
 4543SOL     OW25264   1.725   4.520   2.126  0.3507  0.3868  0.3515
 4543SOL    HW125265   1.727   4.449   2.190 -0.7605  0.0851  0.0587
 4543SOL    HW225266   1.647   4.502   2.073  0.3154  0.2835  0.4396
 4544SOL     OW25267   2.031   4.240   8.515 -0.4638 -0.1929  0.1789
 4544SOL    HW125268   2.009   4.187   8.591 -1.1307  0.2792  0.3090
 4544SOL    HW225269   2.057   4.323   8.554 -0.9075 -0.8557  1.8810
 4545SOL     OW25270   3.087   0.861   2.873  0.5589 -0.5570 -0.9412
 4545SOL    HW125271   3.138   0.914   2.812  0.4456  0.1404 -0.4293
 4545SOL    HW225272   3.149   0.790   2.889  0.1186 -0.3899  1.5264
 4546SOL     OW25273   2.626   2.292   6.628  0.3624  0.6678  0.2738
 4546SOL    HW125274   2.706   2.250   6.596 -1.0235 -1.1193 -0.8391
 4546SOL    HW225275   2.589   2.313   6.542 -2.6163 -2.9105  0.6688
 4547SOL     OW25276   3.672   0.742  17.055  0.2591 -0.0255  0.1790
 4547SOL    HW125277   3.688   0.767  17.146  0.7960  2.5168 -0.6195
 4547SOL    HW225278   3.755   0.771  17.017 -0.5291  1.0119 -0.7459
 4548SOL     OW25279   1.757   3.773   5.857 -0.7215  0.1934  0.0196
 4548SOL    HW125280   1.781   3.860   5.889  1.7835 -0.3327 -0.4429
 4548SOL    HW225281   1.740   3.722   5.936  0.2569 -1.3865 -0.7791
 4549SOL     OW25282   2.630   3.354   7.210  0.0651  0.2063  0.2529
 4549SOL    HW125283   2.696   3.424   7.222  2.4931 -1.6321 -2.4499
 4549SOL    HW225284   2.551   3.406   7.224 -0.5221 -0.4497 -0.6623
 4550SOL     OW25285   4.563   4.092   6.067 -0.5352 -0.3682  0.1101
 4550SOL    HW125286   4.527   4.180   6.081  1.6550  0.7670 -1.3547
 4550SOL    HW225287   4.529   4.073   5.980  0.6081  1.3992 -0.7060
 4551SOL     OW25288   4.586   4.608   6.568 -0.1239 -0.2999 -0.2566
 4551SOL    HW125289   4.543   4.691   6.550 -0.0371 -0.7383 -2.5488
 4551SOL    HW225290   4.521   4.539   6.556  0.7758 -1.3872  1.1643
 4552SOL     OW25291   3.232   2.873   1.119 -0.0723  0.4073 -0.1553
 4552SOL    HW125292   3.280   2.791   1.133 -0.2050  0.1058 -1.3870
 4552SOL    HW225293   3.303   2.933   1.097 -1.5199  2.7450  1.6222
 4553SOL     OW25294   4.429   3.929   8.670 -0.3439 -0.7864  0.5993
 4553SOL    HW125295   4.413   3.836   8.653  0.0590 -0.4710 -1.6163
 4553SOL    HW225296   4.438   3.923   8.765 -1.5323  1.5631  0.8542
 4554SOL     OW25297   3.412   0.185   3.906  0.0215  0.0461  0.3692
 4554SOL    HW125298   3.483   0.235   3.867  0.8485 -2.1628 -0.9584
 4554SOL    HW225299   3.427   0.195   4.000 -0.9062  0.1991  0.5036
 4555SOL     OW25300   0.171   1.278   2.255  0.2189  0.1005  0.1601
 4555SOL    HW125301   0.161   1.189   2.291  1.1999  0.4722  1.3560
 4555SOL    HW225302   0.087   1.287   2.210 -0.8633 -1.7338  1.7771
 4556SOL     OW25303   0.434   2.332   6.121  0.6162  0.2006  0.2991
 4556SOL    HW125304   0.520   2.328   6.164  1.6898  1.7394 -1.7152
 4556SOL    HW225305   0.454   2.397   6.054  1.0600 -1.4520 -1.1526
 4557SOL     OW25306   2.056   3.095   4.962 -0.0644 -0.0808 -0.2740
 4557SOL    HW125307   2.088   3.030   5.025 -1.4950 -1.5899 -1.1016
 4557SOL    HW225308   2.080   3.177   5.005 -1.7139 -0.5601  1.5933
 4558SOL     OW25309   0.289   3.299   9.382 -0.3121 -0.0932 -0.1021
 4558SOL    HW125310   0.318   3.388   9.365  0.9287 -0.8377 -1.8395
 4558SOL    HW225311   0.324   3.255   9.305  0.7214 -0.1769  0.4113
 4559SOL     OW25312   3.288   3.146   8.879  0.5707  0.0135 -0.3418
 4559SOL    HW125313   3.343   3.112   8.808 -1.9804 -0.2653 -2.2033
 4559SOL    HW225314   3.354   3.203   8.915 -0.4293 -0.6439  2.5061
 4560SOL     OW25315   2.577   1.875   5.272  0.0680  0.0268  0.3069
 4560SOL    HW125316   2.660   1.923   5.276 -0.4228  0.6691  2.5469
 4560SOL    HW225317   2.605   1.784   5.264  0.3280 -0.1258  3.0448
 4561SOL     OW25318   2.790   4.104   5.189  0.4072  0.6650 -0.1525
 4561SOL    HW125319   2.754   4.113   5.100 -0.7408  1.4108  0.3910
 4561SOL    HW225320   2.734   4.159   5.243  0.7831  2.1736 -1.3061
 4562SOL     OW25321   3.841   2.652   1.232  0.2232 -0.4696  0.7225
 4562SOL    HW125322   3.796   2.623   1.312  0.0595  1.4076  1.3127
 4562SOL    HW225323   3.876   2.735   1.262  0.2177  0.6237 -2.3105
 4563SOL     OW25324   2.923   0.496   7.891 -0.4281  0.1844  0.0782
 4563SOL    HW125325   3.015   0.507   7.869 -0.0656 -0.3806  1.3396
 4563SOL    HW225326   2.927   0.410   7.932  1.5857  0.2155 -0.0757
 4564SOL     OW25327   3.699   0.789   7.750 -0.8506  0.4041 -0.0777
 4564SOL    HW125328   3.720   0.872   7.791 -0.9420  1.6775 -2.6306
 4564SOL    HW225329   3.710   0.737   7.830 -2.8850  1.5834  0.9668
 4565SOL     OW25330   3.426   1.004  12.775  0.3629  0.3883  0.5507
 4565SOL    HW125331   3.358   1.063  12.807 -1.6394 -1.2666 -0.6352
 4565SOL    HW225332   3.477   1.047  12.706 -1.1955 -1.4939 -1.7398
 4566SOL     OW25333   2.884   3.706   6.889  0.8538  0.1043  0.0145
 4566SOL    HW125334   2.892   3.625   6.939 -0.3901 -1.3307 -2.1053
 4566SOL    HW225335   2.876   3.670   6.801 -1.7259 -0.0938  0.3574
 4567SOL     OW25336   3.059   4.682   1.205  0.1618 -0.4326 -0.0770
 4567SOL    HW125337   3.130   0.007   1.229  0.5370 -1.4374  1.3450
 4567SOL    HW225338   2.996   0.010   1.171  1.2913 -2.0222 -5.2024
 4568SOL     OW25339   0.159   3.328   9.053  0.4197  0.0436  0.0412
 4568SOL    HW125340   0.216   3.264   9.096  0.6016  0.8661  1.0235
 4568SOL    HW225341   0.230   3.358   8.996  2.3351 -2.5988  1.0457
 4569SOL     OW25342   0.164   0.765   3.561 -0.6512 -0.2253  0.3876
 4569SOL    HW125343   0.169   0.701   3.490  2.0567 -1.2100  1.4651
 4569SOL    HW225344   0.236   0.739   3.618 -0.7782  0.0278  0.6613
 4570SOL     OW25345   4.065   3.652  16.600  0.0399  0.0365 -0.2016
 4570SOL    HW125346   4.095   3.725  16.655  0.5036 -1.4045  1.4407
 4570SOL    HW225347   4.112   3.659  16.517 -0.0526  0.8506 -0.1826
 4571SOL     OW25348   1.162   0.799   3.795  0.6488 -0.2427  0.0984
 4571SOL    HW125349   1.157   0.758   3.708 -0.7270  0.6925 -0.2570
 4571SOL    HW225350   1.180   0.727   3.856 -2.7327 -0.5538  0.6940
 4572SOL     OW25351   4.387   3.307  12.358 -0.0828 -0.2608 -0.0247
 4572SOL    HW125352   4.417   3.327  12.447  1.4266  2.9875 -1.2879
 4572SOL    HW225353   4.450   3.239  12.336  0.7890  0.1883  1.0646
 4573SOL     OW25354   1.735   1.722   6.145 -0.1938 -0.4623 -0.3598
 4573SOL    HW125355   1.682   1.709   6.067  0.3612  1.5281 -1.0729
 4573SOL    HW225356   1.822   1.689   6.123  0.0313  1.1810 -1.9277
 4574SOL     OW25357   4.008   1.016   5.550  0.5255 -0.1986  0.2225
 4574SOL    HW125358   3.983   0.924   5.555  0.6810 -0.2212  0.5951
 4574SOL    HW225359   3.986   1.045   5.639  2.5506 -0.6124  0.8651
 4575SOL     OW25360   2.462   2.069  17.502 -0.2529 -0.2232 -0.1121
 4575SOL    HW125361   2.432   2.056  17.412 -0.1736  2.1319 -0.4911
 4575SOL    HW225362   2.437   2.161  17.512 -1.2547 -0.8232  3.0145
 4576SOL     OW25363   0.882   2.953   7.004  0.1225  0.1221 -0.3601
 4576SOL    HW125364   0.969   2.950   6.964  1.3143 -0.0088  2.2055
 4576SOL    HW225365   0.840   3.015   6.944 -0.3282  1.0592  0.9349
 4577SOL     OW25366   0.731   0.582   5.037 -0.0828  0.7188  0.1199
 4577SOL    HW125367   0.759   0.526   5.110  0.2650  0.2118 -0.3962
 4577SOL    HW225368   0.651   0.615   5.078 -0.9959  0.1609 -1.2143
 4578SOL     OW25369   1.202   3.906   8.616  0.4550 -0.1989 -0.5302
 4578SOL    HW125370   1.189   3.917   8.521 -0.1419 -1.3283 -0.5786
 4578SOL    HW225371   1.117   3.927   8.654  0.3440 -1.4534 -0.0872
 4579SOL     OW25372   4.734   2.964   7.651 -0.1960 -0.1816  0.2242
 4579SOL    HW125373   4.684   2.962   7.569  2.8822  0.2228 -1.6530
 4579SOL    HW225374   4.660   2.963   7.712 -2.3434 -2.4554 -2.3782
 4580SOL     OW25375   2.977   1.144   4.486 -0.1796  0.0262  0.1566
 4580SOL    HW125376   2.887   1.153   4.518  0.4286  1.9070  1.3540
 4580SOL    HW225377   3.029   1.203   4.540  0.4168  0.4023 -0.8330
 4581SOL     OW25378   3.983   0.661   3.757  0.5042  0.0936  0.9284
 4581SOL    HW125379   3.917   0.654   3.688  1.6410  0.7064 -0.2135
 4581SOL    HW225380   4.047   0.729   3.735  2.4174 -1.7173  0.8894
 4582SOL     OW25381   2.151   1.321   4.976  0.5621  0.3618  0.4549
 4582SOL    HW125382   2.075   1.293   4.926  0.1021  1.3494  0.5934
 4582SOL    HW225383   2.211   1.335   4.903  0.3198  2.1134  0.5857
 4583SOL     OW25384   2.740   4.124   0.513  0.2991 -0.5916  0.4681
 4583SOL    HW125385   2.753   4.055   0.578 -1.8611  0.2424  1.8121
 4583SOL    HW225386   2.816   4.180   0.524 -1.0266  0.8011  2.5265
 4584SOL     OW25387   1.731   4.669   4.774  0.6025  0.0554 -0.0840
 4584SOL    HW125388   1.747   4.575   4.785  1.0854 -0.0587 -1.7173
 4584SOL    HW225389   1.783   4.709   4.844  2.2597  0.0840 -1.3208
 4585SOL     OW25390   1.435   4.042   5.455 -0.1130 -0.3995  0.1471
 4585SOL    HW125391   1.492   4.033   5.532 -0.9658 -0.3567  0.7861
 4585SOL    HW225392   1.437   3.953   5.422 -0.6752  0.0344 -1.0828
 4586SOL     OW25393   0.529   0.427   8.806  0.2080  0.3569  0.2368
 4586SOL    HW125394   0.446   0.472   8.788  0.2913 -0.3804 -1.9167
 4586SOL    HW225395   0.510   0.392   8.893  1.1536  0.0304  0.3028
 4587SOL     OW25396   2.793   1.521   8.823 -0.1667 -0.4929  0.3797
 4587SOL    HW125397   2.817   1.582   8.892  0.7865 -1.6965  1.1091
 4587SOL    HW225398   2.821   1.564   8.742  0.3839 -0.0468  0.8140
 4588SOL     OW25399   0.735   0.123  15.340 -0.5025  0.1050 -0.1455
 4588SOL    HW125400   0.748   0.043  15.390  1.0132 -1.0383 -2.3662
 4588SOL    HW225401   0.642   0.125  15.318 -0.8320 -1.3217  1.1147
 4589SOL     OW25402   4.497   4.363   7.208  0.4538  0.1204 -0.0732
 4589SOL    HW125403   4.499   4.402   7.296 -0.1756  1.3320 -0.5980
 4589SOL    HW225404   4.420   4.411   7.177  1.1443  0.4587 -1.2280
 4590SOL     OW25405   2.661   3.217   8.782  0.2425  0.2747 -0.1627
 4590SOL    HW125406   2.705   3.218   8.697  1.6998 -0.5945  0.5841
 4590SOL    HW225407   2.575   3.185   8.754  0.3070  0.0303 -0.0795
 4591SOL     OW25408   3.422   4.656  13.003  0.1072 -0.6555 -0.7934
 4591SOL    HW125409   3.379   4.733  12.966 -0.0007  0.1727  1.0356
 4591SOL    HW225410   3.419   4.590  12.934 -0.0519 -0.2297 -1.1917
 4592SOL     OW25411   0.818   1.963   4.411 -0.2309 -0.7920 -0.6900
 4592SOL    HW125412   0.837   2.049   4.447 -1.1372 -0.0612 -1.9965
 4592SOL    HW225413   0.864   1.906   4.473  0.1945 -1.7315 -1.8640
 4593SOL     OW25414   4.682   4.137   5.588 -0.4798 -0.4188 -0.2527
 4593SOL    HW125415   4.613   4.204   5.583 -2.3800 -2.3163  0.4935
 4593SOL    HW225416   4.631   4.056   5.584  0.0205 -0.7465 -0.0096
 4594SOL     OW25417   1.750   2.716   3.850  0.2051 -0.0660  0.2458
 4594SOL    HW125418   1.742   2.778   3.923 -0.8605  1.5009 -1.1907
 4594SOL    HW225419   1.830   2.664   3.855 -1.4053 -2.5151  0.5565
 4595SOL     OW25420   2.070   2.350   5.435  0.1295 -0.1011  0.3036
 4595SOL    HW125421   2.057   2.442   5.458  1.3600  0.1566 -0.0520
 4595SOL    HW225422   2.064   2.319   5.525 -0.6087 -0.8963 -0.0140
 4596SOL     OW25423   3.409   3.822  13.680 -0.1322 -0.2345 -0.3100
 4596SOL    HW125424   3.420   3.915  13.660 -0.0205 -0.0530  0.5811
 4596SOL    HW225425   3.496   3.788  13.661  0.4218  1.1310 -0.2504
 4597SOL     OW25426   3.829   0.857   6.840  0.2172 -0.3009 -0.2233
 4597SOL    HW125427   3.846   0.860   6.746 -0.6208  0.3960 -0.3562
 4597SOL    HW225428   3.778   0.937   6.850 -0.0761 -0.5751  0.4396
 4598SOL     OW25429   3.909   4.417   5.819 -0.3423 -0.7996 -0.3568
 4598SOL    HW125430   3.845   4.466   5.871 -0.4238  0.2172 -1.4087
 4598SOL    HW225431   3.927   4.465   5.738 -1.3057 -0.5054 -0.3932
 4599SOL     OW25432   2.176   4.235   3.014 -0.5060  0.4494 -0.2237
 4599SOL    HW125433   2.135   4.295   2.952 -3.1646  0.9742  2.0646
 4599SOL    HW225434   2.193   4.164   2.953 -0.1292  0.2884  0.0653
 4600SOL     OW25435   2.719   1.237   0.812 -0.0093  0.3669 -0.2905
 4600SOL    HW125436   2.702   1.187   0.732  0.4689 -1.4422  0.7393
 4600SOL    HW225437   2.719   1.326   0.777 -0.5228  0.4620 -0.0584
 4601SOL     OW25438   0.697   3.188   5.113 -0.3784 -0.2275  0.0297
 4601SOL    HW125439   0.763   3.247   5.149 -0.6127  0.5756 -0.8427
 4601SOL    HW225440   0.698   3.127   5.187 -0.8012  1.7015  1.6031
 4602SOL     OW25441   1.927   4.380   5.613  0.1717 -0.3959  0.0892
 4602SOL    HW125442   1.922   4.471   5.641 -3.1050 -0.7715  0.7384
 4602SOL    HW225443   1.859   4.332   5.661  0.5780 -0.6834  0.3759
 4603SOL     OW25444   0.017   0.057   1.595 -0.5196  0.0825 -0.6222
 4603SOL    HW125445   0.058   0.129   1.643 -0.2319  0.8608 -2.0334
 4603SOL    HW225446   0.090   0.036   1.538  0.6671  0.0488  0.9203
 4604SOL     OW25447   0.697   2.559  10.947  0.4596 -0.3740 -0.0739
 4604SOL    HW125448   0.602   2.548  10.944  0.2199  1.9802 -0.9942
 4604SOL    HW225449   0.706   2.595  11.036  1.2894  0.0606 -0.3334
 4605SOL     OW25450   0.979   1.439  12.522  0.2160 -0.3003 -0.1976
 4605SOL    HW125451   0.987   1.534  12.517 -1.1249 -0.2336 -0.9206
 4605SOL    HW225452   1.060   1.416  12.476  0.5499  2.6718 -1.1105
 4606SOL     OW25453   2.318   0.103   6.640 -0.1489 -0.5474 -0.3239
 4606SOL    HW125454   2.289   0.053   6.716  1.7970 -0.6789  0.3133
 4606SOL    HW225455   2.323   0.192   6.673  0.2546 -0.5380 -0.4080
 4607SOL     OW25456   3.850   4.297   0.445  0.4191  0.0593 -0.3095
 4607SOL    HW125457   3.802   4.229   0.397  1.2775  0.8426 -2.2832
 4607SOL    HW225458   3.792   4.370   0.424 -2.0411 -0.2800  5.3484
 4608SOL     OW25459   1.832   2.083   6.452 -0.5135 -0.0537 -0.1368
 4608SOL    HW125460   1.774   2.054   6.382 -2.8353 -0.8697  2.1399
 4608SOL    HW225461   1.919   2.055   6.423 -0.9265  1.2700 -2.6659
 4609SOL     OW25462   2.700   2.768  17.481  0.0601  0.3808 -0.3357
 4609SOL    HW125463   2.764   2.777  17.552 -1.3927 -2.0070  1.2546
 4609SOL    HW225464   2.763   2.794  17.413  1.9135  2.6590  2.2766
 4610SOL     OW25465   2.240   0.784   7.489  0.0838 -0.1060  0.3608
 4610SOL    HW125466   2.196   0.867   7.505  0.5014  0.4431 -1.3437
 4610SOL    HW225467   2.255   0.799   7.396 -3.7154 -0.2051 -0.2568
 4611SOL     OW25468   1.217   3.733   5.470  0.1394  0.0371  0.3075
 4611SOL    HW125469   1.188   3.764   5.385  0.5713 -0.7572 -0.1297
 4611SOL    HW225470   1.310   3.752   5.480  0.1484 -1.1121  2.4355
 4612SOL     OW25471   2.117   2.112   5.962  0.5063 -0.6573 -0.3661
 4612SOL    HW125472   2.171   2.092   5.885  0.2580 -3.2157  0.1200
 4612SOL    HW225473   2.027   2.105   5.930  0.4464 -0.1184 -0.3098
 4613SOL     OW25474   1.897   4.482   4.350 -0.4525  0.2739  0.0504
 4613SOL    HW125475   1.915   4.408   4.408  1.1524 -1.7313 -3.0339
 4613SOL    HW225476   1.803   4.492   4.365 -0.7872 -1.5818 -0.7336
 4614SOL     OW25477   4.670   0.284   5.477  0.2271 -0.6916 -0.6032
 4614SOL    HW125478   4.638   0.268   5.388  1.3404  1.1112 -1.3195
 4614SOL    HW225479   0.018   0.237   5.481  0.6203 -0.0415 -1.1185
 4615SOL     OW25480   3.888   4.511  10.230  0.1043 -0.1007 -0.0427
 4615SOL    HW125481   3.967   4.541  10.276 -1.0748  0.0152  1.9023
 4615SOL    HW225482   3.833   4.511  10.308 -0.0851 -0.8583 -0.1709
 4616SOL     OW25483   4.599   1.413   2.027  0.4199 -0.6869 -0.4295
 4616SOL    HW125484   4.538   1.364   2.083  1.1705 -2.6430 -1.3096
 4616SOL    HW225485   4.537   1.413   1.954 -0.6585  1.7576  0.5034
 4617SOL     OW25486   0.821   2.022   0.350 -0.2166  0.4291 -0.2716
 4617SOL    HW125487   0.740   2.028   0.300 -0.7157  1.5874  0.6610
 4617SOL    HW225488   0.863   2.106   0.328  2.6539 -1.5272 -2.1970
 4618SOL     OW25489   0.539   0.185  17.375 -0.1586 -0.5458 -0.6434
 4618SOL    HW125490   0.553   0.279  17.376 -4.1896  0.0289  0.3925
 4618SOL    HW225491   0.447   0.181  17.347  0.0379  1.8294 -1.6083
 4619SOL     OW25492   3.432   0.430  12.443 -0.3020 -0.2768 -0.3930
 4619SOL    HW125493   3.501   0.491  12.467 -0.9506  0.0543  0.6236
 4619SOL    HW225494   3.357   0.463  12.493 -1.4037 -2.7301 -0.4022
 4620SOL     OW25495   2.511   1.726   7.640 -0.4739  0.5478 -0.2394
 4620SOL    HW125496   2.500   1.756   7.730 -1.1016 -0.0289 -0.1163
 4620SOL    HW225497   2.603   1.703   7.629 -0.9579 -0.8089 -1.4958
 4621SOL     OW25498   0.164   2.583   1.538  0.5480 -0.0388  0.3257
 4621SOL    HW125499   0.116   2.502   1.522 -0.5471  0.6301  0.2657
 4621SOL    HW225500   0.120   2.619   1.615  1.6995 -1.7725  1.8233
 4622SOL     OW25501   3.163   3.486   6.102  0.0310  0.4171 -0.4728
 4622SOL    HW125502   3.169   3.570   6.147 -0.0161  1.5298 -2.5344
 4622SOL    HW225503   3.142   3.427   6.174  2.0757 -0.0464 -0.2756
 4623SOL     OW25504   2.714   0.582   6.571 -0.0910  0.0149 -0.1225
 4623SOL    HW125505   2.790   0.627   6.607  1.1265 -1.0797 -1.3194
 4623SOL    HW225506   2.705   0.633   6.491  0.1287  2.7729  1.6162
 4624SOL     OW25507   3.161   1.361   8.299 -0.5078  0.4600  0.4814
 4624SOL    HW125508   3.201   1.448   8.298 -0.3096  0.3465 -0.8393
 4624SOL    HW225509   3.114   1.363   8.216  2.5247  1.7365 -1.2247
 4625SOL     OW25510   4.238   3.569   4.440 -0.5338 -0.2846  0.4537
 4625SOL    HW125511   4.195   3.489   4.409 -0.3439 -0.2975  0.2236
 4625SOL    HW225512   4.204   3.575   4.529  0.5516 -0.5346  0.8817
 4626SOL     OW25513   1.033   0.871  16.257  0.4037  0.0864  0.0987
 4626SOL    HW125514   1.088   0.804  16.298 -0.3043  0.4684  1.6498
 4626SOL    HW225515   1.087   0.950  16.264  0.8063 -0.0357 -1.5959
 4627SOL     OW25516   4.296   2.017   6.505 -0.2353  0.3052  0.2414
 4627SOL    HW125517   4.281   1.951   6.573  0.6978 -2.1118 -1.8843
 4627SOL    HW225518   4.289   2.099   6.553  1.3941 -0.5025  1.8998
 4628SOL     OW25519   0.680   0.434  15.367 -0.3765 -0.2506  0.6827
 4628SOL    HW125520   0.774   0.428  15.383 -0.0248 -0.8200 -1.6688
 4628SOL    HW225521   0.676   0.468  15.278  0.5650  1.7202  1.3912
 4629SOL     OW25522   4.380   1.477   3.234  0.2879 -0.2921 -0.6418
 4629SOL    HW125523   4.428   1.471   3.316  2.2277  1.4490 -1.6356
 4629SOL    HW225524   4.396   1.571   3.224  1.9796 -0.4488  0.5937
 4630SOL     OW25525   2.177   3.528  10.586 -0.8542 -0.5103 -0.1543
 4630SOL    HW125526   2.134   3.471  10.650 -1.3499  1.5403  1.3468
 4630SOL    HW225527   2.202   3.596  10.648 -0.2059 -0.7910 -0.1045
 4631SOL     OW25528   0.875   3.006  10.172  0.6981  0.2170  0.1273
 4631SOL    HW125529   0.921   3.080  10.211  0.5041  1.4375 -1.9714
 4631SOL    HW225530   0.939   2.936  10.181 -0.6012 -1.0115 -0.1788
 4632SOL     OW25531   1.657   4.022  16.980  0.0998  0.2049 -0.0009
 4632SOL    HW125532   1.694   3.967  16.911 -0.6393  1.2153 -1.1979
 4632SOL    HW225533   1.564   4.015  16.960  0.2562  0.5568 -0.8276
 4633SOL     OW25534   0.186   2.916   7.146 -0.1732  0.3684  0.0488
 4633SOL    HW125535   0.178   3.010   7.161 -0.0063  0.6202 -1.4704
 4633SOL    HW225536   0.092   2.897   7.143 -0.5048  2.2605 -1.2427
 4634SOL     OW25537   0.038   1.924   3.415  0.0899 -0.2861 -0.1680
 4634SOL    HW125538   0.028   1.848   3.473  1.0325 -1.2204 -1.2371
 4634SOL    HW225539   4.681   1.953   3.411 -0.2533 -1.2550  0.5614
 4635SOL     OW25540   0.471   2.721   8.854 -0.3510 -0.6706  0.2713
 4635SOL    HW125541   0.393   2.668   8.834  0.8166 -2.8052  1.3449
 4635SOL    HW225542   0.534   2.675   8.799  1.5606 -1.2596  2.9675
 4636SOL     OW25543   4.138   1.127   2.446  0.4382  0.4094 -0.3569
 4636SOL    HW125544   4.097   1.115   2.360 -1.7524 -1.4990  0.9503
 4636SOL    HW225545   4.056   1.153   2.488  1.5522  0.5308  1.7487
 4637SOL     OW25546   2.079   4.459   7.934  0.3082  0.3061  0.3015
 4637SOL    HW125547   1.994   4.456   7.890  0.4744  2.7278 -0.1765
 4637SOL    HW225548   2.143   4.486   7.868  0.0043  0.7760  0.1990
 4638SOL     OW25549   4.268   2.670   4.774  0.8338 -0.2599  0.7457
 4638SOL    HW125550   4.203   2.701   4.838  1.1282 -0.8679  1.3420
 4638SOL    HW225551   4.358   2.680   4.804 -0.1231  0.3791  3.3871
 4639SOL     OW25552   1.958   0.818   5.897 -0.5661 -0.5897 -0.0588
 4639SOL    HW125553   1.869   0.850   5.882 -0.9604 -1.6933 -0.0848
 4639SOL    HW225554   2.008   0.886   5.854 -0.2133 -0.5614  0.3995
 4640SOL     OW25555   2.014   2.571  10.528  0.1352 -0.2644  0.1232
 4640SOL    HW125556   2.074   2.585  10.602 -1.0220  2.2547  0.5981
 4640SOL    HW225557   1.977   2.487  10.553 -0.2778 -0.1899 -0.2411
 4641SOL     OW25558   0.407   0.932  14.293  0.2631 -0.0840 -0.2919
 4641SOL    HW125559   0.320   0.909  14.324  0.6547 -0.9865  0.1416
 4641SOL    HW225560   0.433   0.997  14.358 -1.4481  1.4973 -1.2025
 4642SOL     OW25561   2.098   4.278  13.711  0.4571 -0.0731  0.2429
 4642SOL    HW125562   2.071   4.233  13.791  0.0425  2.6423  1.5996
 4642SOL    HW225563   2.016   4.313  13.679  1.1065  0.4343 -0.8641
 4643SOL     OW25564   1.027   3.717   6.949  0.0512  0.2365 -0.2740
 4643SOL    HW125565   0.939   3.686   6.932  0.3438 -1.2568  0.8804
 4643SOL    HW225566   1.077   3.665   6.886 -0.4439 -0.8334  0.2276
 4644SOL     OW25567   3.194   0.720   0.848  0.2834 -0.5318  0.9214
 4644SOL    HW125568   3.209   0.682   0.934  0.5570  0.1419  1.1694
 4644SOL    HW225569   3.225   0.810   0.857  2.7208 -1.1834 -0.9703
 4645SOL     OW25570   3.051   1.195   2.638 -0.0192  0.4721  0.0633
 4645SOL    HW125571   3.111   1.126   2.663 -0.2171  1.0328  2.1352
 4645SOL    HW225572   3.013   1.165   2.556 -1.4238  2.2964  0.0327
 4646SOL     OW25573   0.174   3.095   3.183 -0.2272 -0.3719  0.3521
 4646SOL    HW125574   0.180   3.144   3.265 -0.5530 -1.7834  1.2347
 4646SOL    HW225575   0.112   3.150   3.135  2.1249  1.1568 -0.8829
 4647SOL     OW25576   2.045   0.819  13.716 -0.2478 -0.3175 -0.2256
 4647SOL    HW125577   1.992   0.892  13.747 -0.1360  0.1904 -1.2262
 4647SOL    HW225578   2.113   0.858  13.660 -0.3891  2.4836  1.5410
 4648SOL     OW25579   2.519   1.556   8.880 -0.4180  0.3277  0.1956
 4648SOL    HW125580   2.613   1.535   8.880 -0.3938  0.4346 -1.3549
 4648SOL    HW225581   2.519   1.627   8.816 -0.0721 -0.5589 -0.7912
 4649SOL     OW25582   2.559   3.494   8.216 -0.5391  0.1935 -0.0270
 4649SOL    HW125583   2.610   3.496   8.297  1.0800 -1.8255 -1.0223
 4649SOL    HW225584   2.494   3.427   8.237 -0.0168 -0.6752 -1.1774
 4650SOL     OW25585   4.328   3.294  13.677  0.0603 -0.1826  0.3377
 4650SOL    HW125586   4.329   3.331  13.589 -0.6256 -1.9659 -0.4172
 4650SOL    HW225587   4.422   3.288  13.697  0.4191 -1.1674 -1.7163
 4651SOL     OW25588   2.913   1.895   2.675  0.4138 -0.1090 -0.1671
 4651SOL    HW125589   2.856   1.972   2.675 -0.2537 -0.6039  0.0453
 4651SOL    HW225590   2.954   1.915   2.590  0.2344 -0.6368 -0.3787
 4652SOL     OW25591   4.509   0.717   2.270  0.4512  0.0705 -0.7258
 4652SOL    HW125592   4.430   0.664   2.280  0.4262  0.8961  3.6207
 4652SOL    HW225593   4.510   0.747   2.361  2.3406 -4.2228  0.6558
 4653SOL     OW25594   1.212   3.241   6.408  0.5139 -0.2835 -0.2865
 4653SOL    HW125595   1.235   3.210   6.495 -0.7656  0.4069  0.2811
 4653SOL    HW225596   1.231   3.165   6.351 -1.7982 -1.5082  0.5964
 4654SOL     OW25597   3.247   4.410  13.009 -0.4763  0.2997  0.7082
 4654SOL    HW125598   3.325   4.425  13.063 -0.4264  2.0299  0.1452
 4654SOL    HW225599   3.182   4.457  13.060  0.2263 -0.2639  2.1414
 4655SOL     OW25600   0.898   4.002   1.435  0.6898 -0.2655 -0.8399
 4655SOL    HW125601   0.928   3.915   1.461  1.9823  0.8711  1.4523
 4655SOL    HW225602   0.842   4.026   1.509  0.4336 -2.0228 -0.4703
 4656SOL     OW25603   1.643   1.295  11.782 -0.3411 -0.1572 -0.1345
 4656SOL    HW125604   1.623   1.207  11.749 -1.3722  0.3748 -0.9570
 4656SOL    HW225605   1.637   1.341  11.698  1.3184 -1.2225 -0.8451
 4657SOL     OW25606   3.847   2.689   6.111  0.2366  0.0368  0.1712
 4657SOL    HW125607   3.907   2.619   6.090  0.3330  0.4494 -0.9560
 4657SOL    HW225608   3.879   2.750   6.044  2.9405 -0.9925  0.5781
 4658SOL     OW25609   1.998   0.719  13.989  0.4241  0.3046  0.0457
 4658SOL    HW125610   2.063   0.653  13.967  0.2235 -0.2996  1.2870
 4658SOL    HW225611   1.996   0.764  13.904  1.2629 -0.4721 -0.3837
 4659SOL     OW25612   2.922   2.066   5.053 -0.2592  0.7423 -0.0783
 4659SOL    HW125613   2.940   2.009   5.128 -0.2334 -0.9658 -1.3972
 4659SOL    HW225614   2.997   2.125   5.061 -0.9953  1.7354 -0.4773
 4660SOL     OW25615   2.293   4.163  14.870  0.3903  0.7393  0.7202
 4660SOL    HW125616   2.345   4.107  14.928 -0.7870 -0.0091  1.0799
 4660SOL    HW225617   2.210   4.115  14.863 -0.6249  2.6513 -0.3517
 4661SOL     OW25618   0.200   4.090   4.562  0.0222 -0.2437 -0.2704
 4661SOL    HW125619   0.256   4.015   4.580 -3.4326 -2.6772  0.3864
 4661SOL    HW225620   0.162   4.113   4.646 -1.6597 -0.9940 -0.8232
 4662SOL     OW25621   1.962   3.755   5.680 -0.5774  0.0669 -0.4758
 4662SOL    HW125622   1.869   3.749   5.702 -0.8489 -2.7600 -2.3699
 4662SOL    HW225623   1.989   3.723   5.766  0.4005 -2.3419 -1.6690
 4663SOL     OW25624   4.552   4.569   6.211  0.2478  0.0540 -0.2508
 4663SOL    HW125625   4.551   4.519   6.292  1.9059 -1.3763 -1.1143
 4663SOL    HW225626   4.645   4.585   6.197  0.2949 -1.3476 -1.5130
 4664SOL     OW25627   3.679   2.828   4.064 -0.0239 -0.7146  0.4703
 4664SOL    HW125628   3.676   2.848   3.970  0.2042 -0.2797  0.5554
 4664SOL    HW225629   3.774   2.836   4.076 -0.1023  0.9156  0.0644
 4665SOL     OW25630   1.591   0.348   8.945 -0.6168 -0.2674  0.7774
 4665SOL    HW125631   1.495   0.349   8.945 -0.6318 -0.8659 -0.5727
 4665SOL    HW225632   1.611   0.271   8.891 -1.2852  0.8538 -1.0892
 4666SOL     OW25633   1.187   1.592   1.159 -0.2262 -0.3561  0.2266
 4666SOL    HW125634   1.168   1.512   1.110 -1.7267 -1.3073  2.3366
 4666SOL    HW225635   1.213   1.640   1.081 -0.7912  0.6670  0.6705
 4667SOL     OW25636   0.172   2.294   3.520  0.3416 -0.0638  0.5652
 4667SOL    HW125637   0.174   2.348   3.599  2.9452 -1.0981  1.1840
 4667SOL    HW225638   0.162   2.352   3.444 -0.6290 -0.4939  0.3603
 4668SOL     OW25639   3.825   0.958   4.355 -0.3411  0.0121 -0.3143
 4668SOL    HW125640   3.890   1.017   4.317 -1.5934  0.8126 -1.2072
 4668SOL    HW225641   3.851   0.963   4.447  0.6237 -0.0352 -0.5827
 4669SOL     OW25642   1.340   3.191   3.123 -0.2006 -0.2509  0.2569
 4669SOL    HW125643   1.284   3.124   3.082  0.0453 -0.5219  0.3638
 4669SOL    HW225644   1.320   3.262   3.062 -3.0823  1.2250  2.9415
 4670SOL     OW25645   0.364   2.099   6.452  0.0706  0.2662  0.0645
 4670SOL    HW125646   0.449   2.110   6.409  0.3310 -0.5306  0.3798
 4670SOL    HW225647   0.315   2.172   6.415 -0.6216  0.9210  2.2499
 4671SOL     OW25648   0.221   2.880  10.069 -0.2770 -0.2779 -0.5351
 4671SOL    HW125649   0.301   2.858  10.022 -0.9878  0.2215 -1.9971
 4671SOL    HW225650   0.231   2.817  10.140  0.4071  0.5213  0.0689
 4672SOL     OW25651   3.059   3.048   4.809  0.0178  0.4226 -0.2073
 4672SOL    HW125652   3.144   3.045   4.766 -0.4400  3.0436 -1.2971
 4672SOL    HW225653   3.003   2.989   4.758 -0.7983  2.8624 -2.1286
 4673SOL     OW25654   1.483   0.590   6.208  0.8222 -0.5810 -0.4360
 4673SOL    HW125655   1.533   0.670   6.227 -1.0058  0.4764 -0.1543
 4673SOL    HW225656   1.561   0.540   6.181  1.4457  1.0541 -1.6634
 4674SOL     OW25657   1.389   2.078   4.270 -0.1522  0.0208  0.7053
 4674SOL    HW125658   1.350   2.123   4.195  2.9828  0.7389 -0.4895
 4674SOL    HW225659   1.458   2.024   4.232 -0.0346  1.3789 -1.0308
 4675SOL     OW25660   2.669   0.536   7.339  0.2891  0.8158  0.4184
 4675SOL    HW125661   2.595   0.563   7.393 -0.3160 -0.4957  0.2598
 4675SOL    HW225662   2.674   0.619   7.291  1.8726  1.3472  1.5222
 4676SOL     OW25663   4.415   3.688   3.533 -0.2606  0.1226 -0.5250
 4676SOL    HW125664   4.440   3.777   3.559  0.4230  0.0129 -0.7917
 4676SOL    HW225665   4.472   3.625   3.578  2.3529  1.6590 -1.6774
 4677SOL     OW25666   2.831   2.582   6.945  0.5598  0.1481  0.8093
 4677SOL    HW125667   2.881   2.524   7.002  1.6441  2.4140  2.1984
 4677SOL    HW225668   2.750   2.594   6.995 -0.6857 -1.8182 -0.7974
 4678SOL     OW25669   0.631   4.032   8.182 -0.1726  0.1994  0.0477
 4678SOL    HW125670   0.614   3.961   8.120 -0.9917 -0.4228  0.9919
 4678SOL    HW225671   0.542   4.062   8.195 -0.1658 -0.4362  1.6485
 4679SOL     OW25672   0.337   1.412   4.819  0.3464 -0.2600  0.3567
 4679SOL    HW125673   0.351   1.378   4.731  0.7950 -1.9161  1.0533
 4679SOL    HW225674   0.370   1.337   4.870  1.4276  0.2019  0.3292
 4680SOL     OW25675   0.761   4.114   0.151  0.2279 -0.2893  0.2052
 4680SOL    HW125676   0.704   4.124   0.074  0.6098 -0.6398 -0.1242
 4680SOL    HW225677   0.808   4.197   0.148  0.0624 -0.1803  0.5878
 4681SOL     OW25678   1.205   1.870   8.225  0.1118  0.7293  0.4188
 4681SOL    HW125679   1.184   1.958   8.193  2.3271  0.6931 -1.1256
 4681SOL    HW225680   1.131   1.852   8.283 -0.1815 -1.4890 -0.6417
 4682SOL     OW25681   2.054   3.217   4.703 -0.0593  0.3595  0.4968
 4682SOL    HW125682   2.056   3.190   4.795 -1.5232 -0.8011  0.2047
 4682SOL    HW225683   1.971   3.179   4.674  1.2922 -1.3872 -1.0811
 4683SOL     OW25684   3.421   4.277   4.665 -0.0979  0.3873  0.0229
 4683SOL    HW125685   3.464   4.362   4.658  0.6715 -0.1368 -1.5632
 4683SOL    HW225686   3.334   4.304   4.634 -0.4417 -0.3552  0.3335
 4684SOL     OW25687   0.897   0.539   2.046 -0.3671  0.1016 -0.0770
 4684SOL    HW125688   0.930   0.476   1.982  3.2463  1.4397  0.4388
 4684SOL    HW225689   0.848   0.481   2.104  0.6146  0.1390  0.7972
 4685SOL     OW25690   1.169   1.982  12.238 -0.5055 -0.4101  0.7011
 4685SOL    HW125691   1.143   1.912  12.297  1.3999 -1.8827 -0.1808
 4685SOL    HW225692   1.253   1.952  12.202 -1.0826  0.2081 -1.1844
 4686SOL     OW25693   3.486   2.004   3.342  0.1981 -0.4224 -0.3131
 4686SOL    HW125694   3.398   2.033   3.317  0.4827  0.1741 -0.6161
 4686SOL    HW225695   3.537   2.080   3.371  0.9323 -0.7706 -0.7177
 4687SOL     OW25696   1.618   4.192   8.166 -0.1705  0.0277 -0.0085
 4687SOL    HW125697   1.604   4.099   8.148  0.3254  0.0845 -0.6629
 4687SOL    HW225698   1.643   4.192   8.259 -0.9527 -0.9972  0.2129
 4688SOL     OW25699   4.400   3.744   5.215 -0.2177  0.2453  0.9048
 4688SOL    HW125700   4.367   3.786   5.295 -0.7543 -1.2955  1.5037
 4688SOL    HW225701   4.369   3.656   5.237  0.4721  0.2327  1.8243
 4689SOL     OW25702   0.503   2.404   3.497  0.4293 -0.1976  0.3455
 4689SOL    HW125703   0.492   2.499   3.495  0.3027 -0.1598  2.5505
 4689SOL    HW225704   0.476   2.380   3.586 -0.1845  0.4488  0.3354
 4690SOL     OW25705   0.594   3.499   1.733  0.0687 -0.1324 -0.5968
 4690SOL    HW125706   0.644   3.450   1.667 -0.7758 -2.2811  0.3539
 4690SOL    HW225707   0.505   3.464   1.738  0.4566 -1.3679 -2.1409
 4691SOL     OW25708   1.367   4.139   8.738 -0.1128 -0.3737  0.1924
 4691SOL    HW125709   1.280   4.176   8.722  1.9584  3.3877 -2.2083
 4691SOL    HW225710   1.344   4.051   8.710 -1.3634  0.0123  0.0093
 4692SOL     OW25711   1.186   0.549   8.203 -0.0891  0.9180 -0.4565
 4692SOL    HW125712   1.279   0.535   8.187 -0.1745  0.1849 -0.3500
 4692SOL    HW225713   1.187   0.618   8.269 -3.3317 -1.2098  1.8646
 4693SOL     OW25714   3.068   1.573   5.543 -0.5655  0.2913 -0.1413
 4693SOL    HW125715   3.088   1.572   5.450  0.9391 -1.7264  0.2138
 4693SOL    HW225716   3.149   1.594   5.589 -0.2479 -0.2479 -0.4644
 4694SOL     OW25717   3.398   2.425   4.954 -0.7156  0.0063  0.0189
 4694SOL    HW125718   3.310   2.401   4.981 -0.5012 -1.0234 -0.1932
 4694SOL    HW225719   3.404   2.506   5.005  1.3442 -0.0514 -0.1328
 4695SOL     OW25720   3.715   0.159  16.684 -0.1393 -0.0755 -0.2066
 4695SOL    HW125721   3.674   0.231  16.731  0.9010 -0.2959  1.0470
 4695SOL    HW225722   3.643   0.114  16.640 -0.4595  0.8687 -0.6290
 4696SOL     OW25723   0.878   2.297  17.628  0.2648 -0.0277 -0.0488
 4696SOL    HW125724   0.907   2.268  17.714 -0.2647  0.3711  0.2564
 4696SOL    HW225725   0.830   2.378  17.643 -4.2737 -3.0605  1.6770
 4697SOL     OW25726   3.285   0.781   5.711  0.6899  0.0655  0.0912
 4697SOL    HW125727   3.271   0.734   5.792 -0.7722  1.8360  0.8634
 4697SOL    HW225728   3.232   0.728   5.651  0.6330 -2.4757  2.4045
 4698SOL     OW25729   3.649   4.298   8.942  0.4213  0.1426 -0.5920
 4698SOL    HW125730   3.674   4.265   8.855 -3.9123 -0.7313 -1.4704
 4698SOL    HW225731   3.732   4.314   8.988  0.0425 -1.1360  0.5285
 4699SOL     OW25732   4.293   0.951   7.731  0.3681  0.1648 -0.2693
 4699SOL    HW125733   4.336   0.997   7.659  0.5871 -0.7759 -0.7372
 4699SOL    HW225734   4.228   0.895   7.689 -0.9859  0.5043  1.3494
 4700SOL     OW25735   2.165   0.418   3.730  0.4678  0.2615  0.0004
 4700SOL    HW125736   2.190   0.480   3.662  1.8353 -0.5198 -0.2116
 4700SOL    HW225737   2.144   0.348   3.668 -3.2922  0.7109  0.7461
 4701SOL     OW25738   2.556   1.177   8.121 -0.6301  0.0913 -0.0787
 4701SOL    HW125739   2.465   1.202   8.140 -0.5781  0.0204  0.2581
 4701SOL    HW225740   2.556   1.225   8.039  2.3848  0.1461 -0.0556
 4702SOL     OW25741   1.640   0.366   0.931  0.1086  0.0972  0.5514
 4702SOL    HW125742   1.649   0.373   0.836 -1.0332 -1.7112  0.3246
 4702SOL    HW225743   1.589   0.285   0.932  1.4508 -0.7379  1.6842
 4703SOL     OW25744   4.175   3.916   4.507 -0.0602 -0.0421  0.1998
 4703SOL    HW125745   4.129   3.900   4.424  0.9183 -1.4241 -0.0791
 4703SOL    HW225746   4.244   3.851   4.498  1.1673  1.3932 -0.8189
 4704SOL     OW25747   0.879   3.129   8.035  0.2040  0.1932 -0.3862
 4704SOL    HW125748   0.822   3.205   8.023 -0.1002 -0.1038 -0.8456
 4704SOL    HW225749   0.935   3.144   7.959 -0.4161 -0.8828 -1.0553
 4705SOL     OW25750   3.987   3.073   1.438  0.4793 -0.0963  0.6099
 4705SOL    HW125751   4.010   2.989   1.399  0.8755  0.3881 -0.2241
 4705SOL    HW225752   4.020   3.073   1.527 -0.9334 -0.8454  1.1314
 4706SOL     OW25753   1.384   0.805  11.494  0.3157  0.7736  0.0156
 4706SOL    HW125754   1.308   0.862  11.506  0.7136  1.5058 -0.8960
 4706SOL    HW225755   1.362   0.743  11.563  1.2548 -1.0536 -1.3441
 4707SOL     OW25756   0.488   1.226   1.627  0.2790  0.3185  0.3063
 4707SOL    HW125757   0.436   1.199   1.702 -0.2170  0.5014  0.0311
 4707SOL    HW225758   0.575   1.198   1.656  1.0053  2.1173 -0.1284
 4708SOL     OW25759   3.870   0.693   1.525 -0.1121  0.1375  0.0040
 4708SOL    HW125760   3.791   0.712   1.575 -0.0247  0.4530  0.0178
 4708SOL    HW225761   3.845   0.603   1.501  0.1714  0.4562 -1.4900
 4709SOL     OW25762   2.816   2.882  14.852 -0.4516 -0.0257 -0.4250
 4709SOL    HW125763   2.871   2.849  14.923  0.0007  2.0389  0.1804
 4709SOL    HW225764   2.834   2.976  14.854  0.5635 -0.2785  1.7818
 4710SOL     OW25765   2.891   2.337   5.213 -0.0396  0.2196 -0.2675
 4710SOL    HW125766   2.911   2.430   5.213 -0.1506  0.2501 -0.9935
 4710SOL    HW225767   2.880   2.311   5.121 -1.4750  0.6762 -0.2219
 4711SOL     OW25768   0.306   1.391  12.495 -0.8267  0.1570 -0.3034
 4711SOL    HW125769   0.237   1.370  12.433 -1.8911  1.3465  0.4715
 4711SOL    HW225770   0.370   1.321  12.487 -0.0127  0.8983 -0.3367
 4712SOL     OW25771   2.468   1.667  15.359 -0.2765  0.2676  0.2911
 4712SOL    HW125772   2.546   1.714  15.330 -0.4930  1.2465  1.2929
 4712SOL    HW225773   2.496   1.638  15.446  1.1548  1.2030  0.1382
 4713SOL     OW25774   0.142   3.006   6.495  0.0612 -0.4149 -0.1706
 4713SOL    HW125775   0.205   3.069   6.460  1.3993 -1.5039  0.2318
 4713SOL    HW225776   0.089   3.069   6.543  1.1298 -0.1958  0.7250
 4714SOL     OW25777   3.472   0.098  15.769 -0.2015  0.1027  0.4660
 4714SOL    HW125778   3.406   0.076  15.703  1.0575 -1.0964 -0.3777
 4714SOL    HW225779   3.552   0.114  15.720 -0.0298 -1.5156  0.2197
 4715SOL     OW25780   3.767   2.609   6.598  0.1014  0.4693 -0.0526
 4715SOL    HW125781   3.798   2.667   6.667  0.3096 -0.9013  0.9973
 4715SOL    HW225782   3.761   2.668   6.522 -0.9276 -1.2502 -1.3259
 4716SOL     OW25783   0.438   2.949   4.817 -0.2962  0.1207  0.4885
 4716SOL    HW125784   0.508   2.884   4.823  2.0437  2.7173  1.3091
 4716SOL    HW225785   0.389   2.946   4.899  0.6924  3.4604  1.1951
 4717SOL     OW25786   4.098   0.322  14.494 -0.1136  0.0708 -0.3910
 4717SOL    HW125787   4.105   0.396  14.554  1.6839 -1.5224  1.3533
 4717SOL    HW225788   4.153   0.344  14.419  3.1791 -0.7653  1.8129
 4718SOL     OW25789   1.946   2.276   7.546 -0.4020  0.1663 -0.5129
 4718SOL    HW125790   1.866   2.224   7.544  1.2223 -2.3287  0.1329
 4718SOL    HW225791   2.013   2.209   7.540  0.2145  0.6582  0.8192
 4719SOL     OW25792   3.485   3.410  13.035 -0.3305 -0.2921 -0.1332
 4719SOL    HW125793   3.509   3.474  12.968  1.8543  0.0752  1.0169
 4719SOL    HW225794   3.496   3.326  12.991 -2.5019 -1.2291  1.0903
 4720SOL     OW25795   0.507   0.696   5.207  1.1234 -0.2814 -0.1046
 4720SOL    HW125796   0.422   0.660   5.185 -0.0545  0.1436  3.7122
 4720SOL    HW225797   0.481   0.782   5.241  1.6164  0.0929 -0.6537
 4721SOL     OW25798   2.567   1.357   6.632  0.0594 -0.3919 -0.2374
 4721SOL    HW125799   2.518   1.378   6.712  0.1380 -1.2850  0.0498
 4721SOL    HW225800   2.592   1.440   6.592  0.8365  0.0109  1.0768
 4722SOL     OW25801   0.145   3.198   9.587 -0.2778  0.0333  0.4128
 4722SOL    HW125802   0.208   3.243   9.530 -0.6613 -0.7127 -0.5955
 4722SOL    HW225803   0.087   3.266   9.623  0.3608  1.3667 -1.0642
 4723SOL     OW25804   0.716   4.418   7.620 -0.3127  0.4265  0.0762
 4723SOL    HW125805   0.691   4.478   7.549  0.0692  0.2386 -0.2184
 4723SOL    HW225806   0.811   4.419   7.607 -0.3228  1.1014  0.0751
 4724SOL     OW25807   1.571   4.008   3.270  0.2790  0.4464  0.0295
 4724SOL    HW125808   1.521   4.024   3.350 -1.4191  0.5697 -1.0614
 4724SOL    HW225809   1.620   3.930   3.294  0.2992  0.7023  0.8302
 4725SOL     OW25810   2.462   1.403   6.898  0.4033 -0.0103  0.6126
 4725SOL    HW125811   2.506   1.440   6.975  1.5036  1.8282 -0.9233
 4725SOL    HW225812   2.395   1.354   6.946  1.7284 -0.4913  1.9857
 4726SOL     OW25813   4.286   3.303   6.879 -0.1785  0.0386 -0.1034
 4726SOL    HW125814   4.282   3.222   6.829 -1.7585  0.8638 -1.3265
 4726SOL    HW225815   4.355   3.346   6.828 -0.3278 -0.2506 -0.5449
 4727SOL     OW25816   1.013   4.534   9.540 -0.3213  0.2439 -0.1097
 4727SOL    HW125817   1.059   4.614   9.516 -0.8607  0.6290  0.1464
 4727SOL    HW225818   1.064   4.498   9.613 -3.1069  1.6604  2.4983
 4728SOL     OW25819   4.486   0.543   0.796  0.5209 -0.5793 -0.1195
 4728SOL    HW125820   4.550   0.596   0.844 -1.2030  0.0267  1.5217
 4728SOL    HW225821   4.434   0.613   0.758  0.7467 -0.8957 -1.0220
 4729SOL     OW25822   0.645   2.557   1.123  0.1779 -0.3871 -0.9751
 4729SOL    HW125823   0.717   2.602   1.080  0.7759 -0.4185 -0.0141
 4729SOL    HW225824   0.632   2.623   1.191 -0.0349 -1.5379  0.1035
 4730SOL     OW25825   3.627   2.215  11.646  0.3705 -0.1568 -0.2068
 4730SOL    HW125826   3.681   2.210  11.724 -0.6571 -0.3844  0.4914
 4730SOL    HW225827   3.567   2.285  11.670  0.1731 -0.4083  0.0292
 4731SOL     OW25828   2.729   2.773   8.384 -0.1210  0.1173  0.7436
 4731SOL    HW125829   2.716   2.679   8.388 -0.1002  0.1213  0.9148
 4731SOL    HW225830   2.669   2.795   8.313  0.0804 -1.8797 -0.0395
 4732SOL     OW25831   3.326   0.930   5.394 -0.1224  0.1283  0.5616
 4732SOL    HW125832   3.280   0.860   5.440 -1.1449  0.5883  0.2322
 4732SOL    HW225833   3.265   1.003   5.386 -2.0718 -1.7105 -1.2794
 4733SOL     OW25834   3.606   1.646   4.322 -0.1018  0.5280  0.0276
 4733SOL    HW125835   3.535   1.674   4.380  0.9225  1.8939  0.6052
 4733SOL    HW225836   3.577   1.560   4.292  1.1196  0.4244 -0.8778
 4734SOL     OW25837   1.739   3.862   6.295  0.2149  0.1174 -0.5111
 4734SOL    HW125838   1.736   3.768   6.281 -1.1458  0.0045  0.4622
 4734SOL    HW225839   1.802   3.881   6.226  0.8582  0.9127  0.2888
 4735SOL     OW25840   0.944   1.416   8.935  0.1366 -0.1564  0.1288
 4735SOL    HW125841   0.850   1.405   8.949  0.6366 -1.0137  2.8238
 4735SOL    HW225842   0.965   1.329   8.901  0.4874  0.1629 -0.4780
 4736SOL     OW25843   0.466   0.718   9.243 -0.5491  0.0349  0.5478
 4736SOL    HW125844   0.544   0.773   9.235 -0.4034 -0.1567  0.6395
 4736SOL    HW225845   0.502   0.642   9.290 -1.2867 -1.0018 -0.5608
 4737SOL     OW25846   0.030   3.867   3.370 -0.0995  0.0522  0.5649
 4737SOL    HW125847   0.026   3.907   3.457 -0.7568  0.9906  0.1091
 4737SOL    HW225848   4.678   3.835   3.346  0.8574 -0.3400 -2.3372
 4738SOL     OW25849   0.821   4.223   3.964  0.3716  0.6036 -0.4791
 4738SOL    HW125850   0.888   4.290   3.952  0.6596  0.2538 -0.7854
 4738SOL    HW225851   0.745   4.282   3.965  0.0355  0.1726 -0.6342
 4739SOL     OW25852   1.964   1.876  16.693  0.2513 -0.3086  0.1896
 4739SOL    HW125853   2.040   1.926  16.663  0.5158 -1.0528 -0.3701
 4739SOL    HW225854   1.921   1.848  16.612 -0.2572  1.6581 -0.2187
 4740SOL     OW25855   3.234   0.211  14.709  0.6674  0.2204 -0.2806
 4740SOL    HW125856   3.297   0.157  14.661  0.1904 -2.4935  2.1212
 4740SOL    HW225857   3.232   0.161  14.791  0.2145  0.3912 -0.1902
 4741SOL     OW25858   1.103   0.609   9.426 -0.5468  0.4210  0.0326
 4741SOL    HW125859   1.194   0.635   9.441 -0.6275  0.8291 -0.1831
 4741SOL    HW225860   1.055   0.687   9.454  0.8013  1.3093 -0.1421
 4742SOL     OW25861   0.396   3.368   2.991  0.1924 -0.1274 -0.0802
 4742SOL    HW125862   0.425   3.314   2.916 -0.5738  1.1233 -1.2762
 4742SOL    HW225863   0.317   3.315   3.005  0.4346 -0.5225 -0.1796
 4743SOL     OW25864   3.271   1.618   9.453  0.3150 -0.5945  0.2782
 4743SOL    HW125865   3.342   1.677   9.478 -1.5493  1.4531  0.6728
 4743SOL    HW225866   3.214   1.609   9.529  0.4981  0.0370  0.4917
 4744SOL     OW25867   3.916   0.768   1.819  0.0613  0.1319  0.4081
 4744SOL    HW125868   3.896   0.860   1.802 -0.7093  0.0192  0.7072
 4744SOL    HW225869   3.827   0.733   1.808 -0.5435  1.7780 -0.0475
 4745SOL     OW25870   2.336   1.871  17.011  0.2725  0.1755  0.2966
 4745SOL    HW125871   2.351   1.776  17.007 -0.6117  0.0332  0.3902
 4745SOL    HW225872   2.243   1.871  16.988  0.1175  1.8159  0.9344
 4746SOL     OW25873   1.528   1.579  13.774 -0.3502 -0.1291 -0.0179
 4746SOL    HW125874   1.568   1.661  13.804  0.9813 -0.8661  0.2343
 4746SOL    HW225875   1.603   1.524  13.752 -0.9258 -0.8153 -0.2680
 4747SOL     OW25876   3.215   3.288   6.668 -0.4500  0.2805 -0.3553
 4747SOL    HW125877   3.170   3.267   6.750 -1.4335  0.1261 -0.9323
 4747SOL    HW225878   3.297   3.239   6.666  0.4468  1.7747  0.1768
 4748SOL     OW25879   2.532   2.155  10.419  0.4420 -0.4841 -0.1588
 4748SOL    HW125880   2.478   2.221  10.462  1.2799  0.6011 -0.7662
 4748SOL    HW225881   2.515   2.076  10.470 -1.1702  2.1709  3.3971
 4749SOL     OW25882   3.345   4.007   9.320 -0.4057 -0.0125 -0.0148
 4749SOL    HW125883   3.365   3.915   9.306  1.7615  0.0551  2.6699
 4749SOL    HW225884   3.360   4.053   9.237 -0.8822 -2.9413 -1.6912
 4750SOL     OW25885   4.252   0.443   5.460 -1.0144  0.3370 -0.1027
 4750SOL    HW125886   4.219   0.406   5.542 -1.8150  2.1161  0.3973
 4750SOL    HW225887   4.260   0.538   5.471  3.8345 -0.2522  1.5112
 4751SOL     OW25888   1.070   4.651  15.324  0.4770  0.5627 -0.6595
 4751SOL    HW125889   1.107   4.718  15.382  0.1992  0.6211 -0.5540
 4751SOL    HW225890   1.103   4.675  15.237 -1.4347  0.7194 -1.3247
 4752SOL     OW25891   0.567   0.194   3.619 -0.1722  0.7062 -0.5824
 4752SOL    HW125892   0.490   0.243   3.646 -0.1701 -0.2490  1.1270
 4752SOL    HW225893   0.609   0.251   3.554 -0.9941  1.0360 -0.8202
 4753SOL     OW25894   2.349   0.226   0.155 -0.0196 -0.1054  0.6207
 4753SOL    HW125895   2.294   0.153   0.127  0.0473  0.4348 -0.9123
 4753SOL    HW225896   2.290   0.301   0.160  1.8111  1.4433 -0.8863
 4754SOL     OW25897   3.668   0.692   2.718 -0.1460  0.3099  0.7130
 4754SOL    HW125898   3.601   0.745   2.761 -1.9220 -2.5028  1.3397
 4754SOL    HW225899   3.686   0.749   2.642  0.8691  1.2383  1.6446
 4755SOL     OW25900   0.220   2.004   2.287  0.0562 -0.0488  0.3148
 4755SOL    HW125901   0.196   2.002   2.195  1.6433 -0.6890 -0.0862
 4755SOL    HW225902   0.138   2.025   2.331 -0.7436 -0.0906 -1.1753
 4756SOL     OW25903   0.886   2.196   8.376 -0.3628 -0.0527  0.0749
 4756SOL    HW125904   0.888   2.125   8.311  1.0919  1.3702 -1.4517
 4756SOL    HW225905   0.905   2.143   8.453 -0.0692  1.4245  1.0236
 4757SOL     OW25906   1.895   4.668   5.055 -0.2313  0.1182 -0.3562
 4757SOL    HW125907   1.978   4.629   5.030  0.2159  0.2156  0.9555
 4757SOL    HW225908   1.917   0.023   5.032  1.2543  0.3092  1.7754
 4758SOL     OW25909   0.146   0.253   1.734  0.0375  0.2862 -0.0680
 4758SOL    HW125910   0.180   0.297   1.656  1.2884 -0.0539  0.2947
 4758SOL    HW225911   0.156   0.331   1.788 -2.1143 -0.6812  1.7225
 4759SOL     OW25912   3.430   4.627   4.502 -0.4034 -0.4394  0.4852
 4759SOL    HW125913   3.404   4.598   4.414  0.8818  1.9523 -0.6971
 4759SOL    HW225914   3.344   4.617   4.543 -1.4243  1.1229 -1.2514
 4760SOL     OW25915   1.838   3.787  17.165 -0.0251 -0.1564 -0.1514
 4760SOL    HW125916   1.899   3.784  17.239 -0.0587 -0.5076 -0.1409
 4760SOL    HW225917   1.871   3.865  17.120  1.5870 -2.0172 -2.2229
 4761SOL     OW25918   4.004   1.700   4.740  0.1030 -0.2080 -0.4266
 4761SOL    HW125919   3.964   1.779   4.704  2.6335  0.5313 -1.6128
 4761SOL    HW225920   4.025   1.652   4.659  1.3335 -0.2404 -0.0848
 4762SOL     OW25921   3.131   0.468   4.490  0.1446 -0.0420 -0.3155
 4762SOL    HW125922   3.177   0.525   4.551 -1.1229  0.6200  0.0184
 4762SOL    HW225923   3.156   0.380   4.519 -0.1936  0.8978  2.8490
 4763SOL     OW25924   0.314   0.878   2.730 -0.4241  0.7662  0.4995
 4763SOL    HW125925   0.303   0.957   2.677 -0.4716  0.1331 -0.4503
 4763SOL    HW225926   0.253   0.893   2.801 -0.3561  4.1983 -0.1477
 4764SOL     OW25927   0.595   1.051   7.380  0.5464 -0.0232 -0.2567
 4764SOL    HW125928   0.656   1.026   7.450 -0.7154 -1.4628  0.3223
 4764SOL    HW225929   0.612   1.145   7.376 -1.4214  0.4920  3.1628
 4765SOL     OW25930   4.053   4.026   4.870  0.0543 -0.3002  0.2452
 4765SOL    HW125931   4.143   4.052   4.888  0.3474 -2.1686  1.5024
 4765SOL    HW225932   4.036   4.074   4.789  0.2065 -0.0763  0.3469
 4766SOL     OW25933   2.301   0.868   5.071  0.3945 -0.1661  0.0216
 4766SOL    HW125934   2.309   0.789   5.018 -1.5043  0.7527 -1.6421
 4766SOL    HW225935   2.295   0.827   5.158  2.1268 -0.2628  0.1025
 4767SOL     OW25936   3.363   4.374   8.015 -0.5371 -0.1184 -0.1201
 4767SOL    HW125937   3.273   4.403   7.997  0.3973  2.6284 -0.4271
 4767SOL    HW225938   3.336   4.304   8.074  1.0240 -0.0427  0.6836
 4768SOL     OW25939   4.379   1.565  11.040  0.1747  0.0916  0.4387
 4768SOL    HW125940   4.304   1.614  11.074 -0.1601  0.5449 -0.9298
 4768SOL    HW225941   4.386   1.613  10.957  0.7010  1.1711  1.1138
 4769SOL     OW25942   2.085   0.018   6.448  0.4887 -0.5330  0.4057
 4769SOL    HW125943   2.173   0.038   6.415  0.5570  0.4318  1.1663
 4769SOL    HW225944   2.038   0.029   6.365  1.6130  0.7917 -0.0478
 4770SOL     OW25945   3.467   3.408   1.476 -0.1073  0.0167  0.7914
 4770SOL    HW125946   3.513   3.329   1.504 -0.7010  0.6765  3.5995
 4770SOL    HW225947   3.375   3.385   1.466 -0.6322  2.2891  0.3717
 4771SOL     OW25948   3.479   3.747  13.019  0.1419  0.2769  0.4281
 4771SOL    HW125949   3.574   3.741  13.033  0.2840  2.6930  0.5223
 4771SOL    HW225950   3.474   3.711  12.931  1.6499  1.4261 -0.1351
 4772SOL     OW25951   1.110   1.156   4.671 -0.1081  0.4264  0.2451
 4772SOL    HW125952   1.088   1.139   4.580 -1.1858  0.4899  0.4990
 4772SOL    HW225953   1.054   1.226   4.703 -1.5275  1.2761 -4.1092
 4773SOL     OW25954   3.030   4.499   5.953 -0.2295  0.8972  0.2500
 4773SOL    HW125955   3.112   4.452   5.966 -0.3118  0.6240 -0.2020
 4773SOL    HW225956   2.968   4.460   6.015 -0.4110 -1.2463 -1.3061
 4774SOL     OW25957   4.161   3.250   2.518 -0.0361 -0.2848  0.4456
 4774SOL    HW125958   4.103   3.261   2.593  0.2663 -3.0597  1.0962
 4774SOL    HW225959   4.193   3.161   2.531 -0.2777 -0.6139 -1.2468
 4775SOL     OW25960   1.472   4.078   1.237  0.1701 -0.6010 -0.3494
 4775SOL    HW125961   1.563   4.095   1.213  0.1536  0.3645  0.2702
 4775SOL    HW225962   1.469   3.987   1.208 -2.8680 -1.3387  2.2177
 4776SOL     OW25963   4.078   0.127   5.233  0.0455  0.0525 -0.2266
 4776SOL    HW125964   4.081   0.199   5.171  1.7575 -2.6205 -3.2103
 4776SOL    HW225965   4.060   0.054   5.173 -2.4304  2.0257 -1.8720
 4777SOL     OW25966   3.690   0.853   5.337  0.2256  0.1823  0.1807
 4777SOL    HW125967   3.772   0.829   5.380  1.4041  1.7897 -1.1377
 4777SOL    HW225968   3.670   0.943   5.363 -0.4366  0.1686 -0.2867
 4778SOL     OW25969   1.143   4.379   5.036  0.1891  0.5254 -0.2970
 4778SOL    HW125970   1.194   4.301   5.059  1.0353  0.6134 -1.9085
 4778SOL    HW225971   1.064   4.360   5.087 -0.5642  1.0239 -1.2992
 4779SOL     OW25972   0.936   3.325  13.067  0.0204 -0.0902  0.1238
 4779SOL    HW125973   0.976   3.263  13.128 -1.4772 -1.2321 -0.0658
 4779SOL    HW225974   1.003   3.324  12.999  0.6138  0.2923  0.6981
 4780SOL     OW25975   2.796   2.963   4.344 -0.6240  0.2947  0.4915
 4780SOL    HW125976   2.718   3.015   4.362 -0.1602  1.3220 -0.4595
 4780SOL    HW225977   2.773   2.880   4.387 -1.7497  0.8019  0.8442
 4781SOL     OW25978   2.083   2.456   5.896  0.0450  0.2514 -0.1436
 4781SOL    HW125979   2.109   2.403   5.971 -1.6936 -1.0737 -0.4645
 4781SOL    HW225980   2.002   2.493   5.930 -0.3289 -1.3111  0.6835
 4782SOL     OW25981   1.311   0.969  15.059 -0.1330 -0.0785 -0.7897
 4782SOL    HW125982   1.404   0.947  15.046  0.6840  1.9324  1.5199
 4782SOL    HW225983   1.289   1.016  14.979 -1.0668  2.7778  1.1265
 4783SOL     OW25984   3.564   1.649   7.646  0.1306  0.2685 -0.4305
 4783SOL    HW125985   3.550   1.728   7.698 -0.5797 -0.3342  0.3101
 4783SOL    HW225986   3.606   1.680   7.566 -0.9580  0.4057 -0.9499
 4784SOL     OW25987   4.254   2.390   0.801  0.6123  0.0203  0.4390
 4784SOL    HW125988   4.338   2.360   0.836  0.2432 -0.3669  0.9963
 4784SOL    HW225989   4.279   2.464   0.745 -1.5524  0.4927  0.1051
 4785SOL     OW25990   0.905   2.869   4.408 -0.8397  0.6416 -0.4486
 4785SOL    HW125991   0.832   2.808   4.419 -0.5673  0.2717 -0.6888
 4785SOL    HW225992   0.917   2.908   4.494 -1.8225  0.6908 -0.3357
 4786SOL     OW25993   3.692   4.167  13.741 -0.1802  1.0283  0.3227
 4786SOL    HW125994   3.721   4.132  13.825  1.1602  1.8214  0.1899
 4786SOL    HW225995   3.722   4.098  13.681  0.0943  1.0399  0.4485
 4787SOL     OW25996   3.405   3.550   7.554 -0.2526  0.3937  0.2121
 4787SOL    HW125997   3.439   3.472   7.511 -3.2451 -1.1042  0.6114
 4787SOL    HW225998   3.316   3.524   7.577  1.3382 -1.3676  4.3813
 4788SOL     OW25999   1.472   2.643  13.864  0.0944  0.1062 -0.0959
 4788SOL    HW126000   1.419   2.710  13.821 -1.5049 -0.5083  0.9112
 4788SOL    HW226001   1.545   2.638  13.802 -0.0119 -1.6075 -0.0811
 4789SOL     OW26002   1.131   4.247   2.778 -0.0322  0.4150 -0.0749
 4789SOL    HW126003   1.184   4.316   2.737  0.8553 -1.3708 -1.9127
 4789SOL    HW226004   1.057   4.302   2.804 -0.4314 -0.2156  0.1182
 4790SOL     OW26005   0.193   3.518   2.346  0.0781  0.2675 -0.1260
 4790SOL    HW126006   0.209   3.447   2.408 -1.2174  0.5304  0.5238
 4790SOL    HW226007   0.099   3.500   2.350 -0.4035  2.6010 -1.0459
 4791SOL     OW26008   4.054   1.773   2.296  0.5002  0.3537 -0.6968
 4791SOL    HW126009   4.059   1.810   2.384  1.1494  0.6903 -0.8725
 4791SOL    HW226010   3.965   1.801   2.272  0.9545  0.4506 -2.2824
 4792SOL     OW26011   2.595   3.181   6.924  0.7364 -0.2188  0.0214
 4792SOL    HW126012   2.631   3.269   6.932  1.4738 -0.2946 -2.5180
 4792SOL    HW226013   2.614   3.169   6.831 -0.7379 -0.7561 -0.2134
 4793SOL     OW26014   0.718   2.649   0.783  0.2966 -0.9304  0.0056
 4793SOL    HW126015   0.720   2.706   0.706  2.0645 -0.6845  0.2342
 4793SOL    HW226016   0.758   2.715   0.840  0.3788 -0.9165 -0.0672
 4794SOL     OW26017   0.850   0.435   9.395 -0.1584 -0.1087  0.2643
 4794SOL    HW126018   0.808   0.446   9.480 -2.2413 -0.9694 -0.6686
 4794SOL    HW226019   0.908   0.510   9.380 -1.1082  0.6258  0.2441
 4795SOL     OW26020   2.376   4.629   2.119 -0.0799 -0.3064  0.1564
 4795SOL    HW126021   2.465   4.615   2.087 -0.6851 -0.4524 -1.4656
 4795SOL    HW226022   2.365   4.723   2.100 -1.5694 -0.2639  1.2826
 4796SOL     OW26023   3.568   1.438   2.245  0.2199 -0.0105  0.4442
 4796SOL    HW126024   3.607   1.418   2.160  0.0743 -0.5611  0.5089
 4796SOL    HW226025   3.552   1.532   2.247 -0.3244 -0.0909 -0.1842
 4797SOL     OW26026   4.428   1.756   3.261  0.2203  0.2090 -0.2524
 4797SOL    HW126027   4.419   1.844   3.223 -0.4722  0.1751 -0.1659
 4797SOL    HW226028   4.402   1.770   3.352  1.5589 -2.2938  0.4934
 4798SOL     OW26029   2.222   4.624   4.559 -0.0811 -0.1338 -0.0733
 4798SOL    HW126030   2.193   4.555   4.618 -0.3100  1.3440  1.5204
 4798SOL    HW226031   2.182   4.694   4.610 -0.1960  0.5267 -1.0687
 4799SOL     OW26032   4.598   3.227   8.101  0.5016  0.0624  0.2461
 4799SOL    HW126033   4.610   3.133   8.114 -1.8914 -0.4877 -1.5619
 4799SOL    HW226034   4.680   3.246   8.055  1.5202 -2.2683  1.1078
 4800SOL     OW26035   2.979   0.327   7.013  0.4352 -0.0779  0.0419
 4800SOL    HW126036   2.899   0.296   6.971  0.0865 -1.9472  2.1364
 4800SOL    HW226037   2.941   0.348   7.098  0.3216 -1.0513  0.2228
 4801SOL     OW26038   2.846   4.549   6.499  0.7752 -0.4180 -0.0970
 4801SOL    HW126039   2.913   4.613   6.477 -2.4317  2.9326 -0.0334
 4801SOL    HW226040   2.809   4.523   6.415  1.9818 -1.3414 -0.3398
 4802SOL     OW26041   4.724   2.157  10.000 -0.1069  0.4441  0.6206
 4802SOL    HW126042   0.047   2.142   9.925  0.8676  0.0616  1.4417
 4802SOL    HW226043   0.008   2.250  10.014  0.4863  0.6550 -1.5586
 4803SOL     OW26044   4.534   3.471   2.097 -0.4970 -0.9167 -0.3581
 4803SOL    HW126045   4.542   3.530   2.023 -0.5527  1.9239  1.8977
 4803SOL    HW226046   4.609   3.413   2.078  1.5835  1.6328  0.0774
 4804SOL     OW26047   3.677   1.117  11.172  0.2010 -0.3580  0.0033
 4804SOL    HW126048   3.622   1.146  11.099 -0.0395  1.5837  0.9485
 4804SOL    HW226049   3.736   1.067  11.116 -0.5611 -1.0806 -0.1467
 4805SOL     OW26050   4.650   1.895   5.524 -0.9273 -0.0876  0.0762
 4805SOL    HW126051   4.715   1.881   5.455 -0.7089  0.6743  0.1279
 4805SOL    HW226052   4.643   1.805   5.556 -2.6276 -0.0398 -0.1701
 4806SOL     OW26053   3.083   3.018   3.627  0.8408  0.4280  0.2785
 4806SOL    HW126054   3.014   3.023   3.694 -0.0890 -1.1761 -0.5705
 4806SOL    HW226055   3.148   3.084   3.651 -1.5800  2.2968  1.7568
 4807SOL     OW26056   3.191   2.326   2.330 -0.1876  0.0403  0.3890
 4807SOL    HW126057   3.167   2.301   2.241 -3.3674  2.4597  0.5644
 4807SOL    HW226058   3.282   2.350   2.312 -0.1806 -2.0226 -2.3580
 4808SOL     OW26059   2.147   2.641   8.477  0.7971  0.3291 -0.1320
 4808SOL    HW126060   2.087   2.658   8.404 -1.0803 -0.4017  1.2208
 4808SOL    HW226061   2.192   2.564   8.441  0.5547  0.2203 -0.2025
 4809SOL     OW26062   1.602   4.449   9.680 -0.7870  0.0976 -0.8873
 4809SOL    HW126063   1.554   4.489   9.607  0.2616  2.1847 -0.4407
 4809SOL    HW226064   1.582   4.355   9.676 -1.8125  0.4217 -4.0022
 4810SOL     OW26065   3.688   4.155   9.292  0.4448  0.1182  0.4405
 4810SOL    HW126066   3.734   4.147   9.208  1.0602 -2.8281  1.0314
 4810SOL    HW226067   3.758   4.203   9.336 -0.2905  1.5701  0.0228
 4811SOL     OW26068   1.457   1.264   2.027  0.2181  0.4136 -0.0955
 4811SOL    HW126069   1.441   1.180   1.985  2.2415  0.0890 -0.1963
 4811SOL    HW226070   1.552   1.264   2.040 -0.3460  0.9157  4.1069
 4812SOL     OW26071   1.142   3.711   0.619  0.1888 -0.5516 -0.0744
 4812SOL    HW126072   1.095   3.652   0.559 -1.0872  2.4872 -2.0875
 4812SOL    HW226073   1.149   3.790   0.564 -3.2562 -0.4739 -0.4159
 4813SOL     OW26074   1.007   2.062   6.922  1.0491  0.2713  0.5447
 4813SOL    HW126075   0.953   2.042   6.846 -0.1727 -1.2034  1.8043
 4813SOL    HW226076   0.964   2.143   6.951  1.8040  1.1070 -0.6827
 4814SOL     OW26077   2.081   2.342  15.625  0.1253  0.6662 -0.0692
 4814SOL    HW126078   2.020   2.300  15.687  1.8073 -0.3553  0.8907
 4814SOL    HW226079   2.071   2.280  15.553  0.3905 -1.7127  1.9115
 4815SOL     OW26080   2.222   2.426   6.704 -0.1503 -0.2081  0.2221
 4815SOL    HW126081   2.249   2.511   6.740  0.9565 -0.1615 -0.6845
 4815SOL    HW226082   2.289   2.371   6.746 -1.0611 -1.0838  0.5133
 4816SOL     OW26083   4.429   1.036   4.811 -0.6130  0.0234 -0.4085
 4816SOL    HW126084   4.437   0.996   4.898 -5.0192 -0.3663 -0.1728
 4816SOL    HW226085   4.463   1.124   4.823  3.3630 -1.4306 -1.1548
 4817SOL     OW26086   2.989   2.739   3.893  0.6904  0.4286  0.2155
 4817SOL    HW126087   3.058   2.739   3.958  1.5823  1.0305 -0.7402
 4817SOL    HW226088   2.974   2.833   3.882  1.7049  0.5512 -0.1233
 4818SOL     OW26089   3.703   1.713   3.079 -0.1208  0.8193 -0.5991
 4818SOL    HW126090   3.795   1.690   3.063 -0.8416 -1.6948 -1.0467
 4818SOL    HW226091   3.677   1.756   2.998  0.7061 -2.2955 -2.5096
 4819SOL     OW26092   3.351   4.654   1.987 -0.2629  0.4126 -0.1349
 4819SOL    HW126093   3.435   4.668   1.942  0.1921  3.1225  1.5490
 4819SOL    HW226094   3.299   4.606   1.923  0.0266 -0.9096  0.6073
 4820SOL     OW26095   2.537   0.632   8.910  0.1573 -0.2817  0.2291
 4820SOL    HW126096   2.599   0.562   8.930  1.3411  0.8640  0.5712
 4820SOL    HW226097   2.524   0.614   8.817 -1.3030 -0.3459  0.4408
 4821SOL     OW26098   3.232   4.116   0.588 -0.1302  0.2159 -0.1079
 4821SOL    HW126099   3.318   4.147   0.560  0.8773 -1.6344  0.9646
 4821SOL    HW226100   3.208   4.179   0.657  0.7178 -0.3530  0.6973
 4822SOL     OW26101   2.250   1.825   7.953 -0.7563 -0.5554  0.4080
 4822SOL    HW126102   2.231   1.771   7.876 -1.0586 -1.6750  1.2796
 4822SOL    HW226103   2.184   1.894   7.954 -0.4380 -0.2344 -0.3420
 4823SOL     OW26104   0.794   4.615   7.860  0.5332  0.0610 -0.5815
 4823SOL    HW126105   0.772   4.607   7.767 -1.8793 -0.0133 -0.0012
 4823SOL    HW226106   0.724   4.678   7.878  0.1409 -0.7065  0.6135
 4824SOL     OW26107   2.532   3.752   5.782  0.2114  0.4609 -0.3472
 4824SOL    HW126108   2.514   3.782   5.871 -1.9791  0.3267 -0.7567
 4824SOL    HW226109   2.622   3.783   5.777  0.3048 -0.0597 -1.9892
 4825SOL     OW26110   0.034   0.928   4.367 -0.1814  0.5823  0.3384
 4825SOL    HW126111   0.099   0.981   4.414  0.6307 -1.4858  1.5428
 4825SOL    HW226112   4.697   0.912   4.429 -0.5004 -1.1730 -0.4834
 4826SOL     OW26113   0.310   0.807  14.980 -0.6300 -0.0199 -0.5578
 4826SOL    HW126114   0.342   0.718  14.965  0.1819  0.4072 -1.3753
 4826SOL    HW226115   0.350   0.819  15.066  1.1328 -2.0027 -1.0920
 4827SOL     OW26116   4.135   2.096  10.057 -0.8635  0.4365  0.2073
 4827SOL    HW126117   4.196   2.086   9.984 -1.6904  0.0427 -0.4366
 4827SOL    HW226118   4.103   2.006  10.059 -0.7216  0.4279  1.9424
 4828SOL     OW26119   2.564   1.736  10.341  0.4867  0.5858  0.0692
 4828SOL    HW126120   2.496   1.718  10.406 -0.3301  0.6227 -0.7744
 4828SOL    HW226121   2.631   1.771  10.399 -0.1595  0.9073  0.6209
 4829SOL     OW26122   2.697   3.436   6.870  0.0757 -0.0698 -0.6763
 4829SOL    HW126123   2.712   3.468   6.781  0.7383 -0.4378 -0.6939
 4829SOL    HW226124   2.787   3.437   6.901 -0.3560  0.3604  0.5717
 4830SOL     OW26125   3.431   2.334   3.588  0.3376  0.6217  0.2764
 4830SOL    HW126126   3.497   2.306   3.525  0.2843 -4.1253  2.3272
 4830SOL    HW226127   3.378   2.259   3.616  1.0999 -0.5040 -1.3238
 4831SOL     OW26128   1.373   1.912   3.569 -0.1595 -0.0020  0.9467
 4831SOL    HW126129   1.406   1.842   3.513 -0.9125 -0.5477  1.1984
 4831SOL    HW226130   1.449   1.971   3.569  0.1162 -0.3610  0.8570
 4832SOL     OW26131   0.088   0.665  16.346  0.1078  0.4858  0.0614
 4832SOL    HW126132   0.052   0.652  16.433 -0.3202 -2.7656 -0.6189
 4832SOL    HW226133   0.047   0.592  16.299 -0.8649  0.8030  0.4143
 4833SOL     OW26134   4.120   4.135   0.951  0.5444 -0.3456  0.0784
 4833SOL    HW126135   4.179   4.062   0.971  1.6511  0.4160 -0.3430
 4833SOL    HW226136   4.044   4.082   0.970  0.7323  0.0032  1.7664
 4834SOL     OW26137   2.420   3.677  14.876 -0.4142  0.1540 -0.1565
 4834SOL    HW126138   2.349   3.620  14.906 -0.4001 -0.4838 -1.3605
 4834SOL    HW226139   2.488   3.665  14.943 -1.0345 -0.7502  0.3148
 4835SOL     OW26140   2.575   2.865   7.333 -0.0485  0.0057  0.2691
 4835SOL    HW126141   2.585   2.886   7.241 -2.6234  3.2463  0.6939
 4835SOL    HW226142   2.549   2.948   7.373 -1.1953 -0.2214 -0.0011
 4836SOL     OW26143   4.479   3.142   7.201 -0.6109 -0.3768 -0.0367
 4836SOL    HW126144   4.542   3.130   7.130 -1.1331 -2.8311 -0.1019
 4836SOL    HW226145   4.542   3.156   7.272 -1.0418 -0.2514  0.3197
 4837SOL     OW26146   1.308   4.095   2.531  0.1601 -0.2207 -0.3532
 4837SOL    HW126147   1.285   4.120   2.441  4.2739 -1.6580 -1.7666
 4837SOL    HW226148   1.248   4.154   2.577 -1.3391 -0.9041 -1.4264
 4838SOL     OW26149   0.820   4.626   0.302  0.0286 -0.0475  0.6815
 4838SOL    HW126150   0.907   4.616   0.340  0.2741 -0.4787 -0.0054
 4838SOL    HW226151   0.822   4.560   0.234  0.1695  0.4461  0.2015
 4839SOL     OW26152   3.182   1.320   7.069  0.4485  0.0365  0.5057
 4839SOL    HW126153   3.099   1.362   7.092  0.3838 -0.0279  0.3891
 4839SOL    HW226154   3.199   1.268   7.148 -2.4402  0.4707  1.3918
 4840SOL     OW26155   2.018   3.262  17.269 -0.6330 -0.6734 -0.2204
 4840SOL    HW126156   2.088   3.200  17.248 -0.2429 -0.3358  0.0684
 4840SOL    HW226157   2.068   3.302  17.341 -0.0740 -1.6344 -0.0731
 4841SOL     OW26158   4.309   0.471   1.729 -0.6887 -0.4725  0.3980
 4841SOL    HW126159   4.247   0.538   1.757 -0.3213  0.7576 -1.7199
 4841SOL    HW226160   4.249   0.417   1.679  1.1521 -1.2519 -0.9400
 4842SOL     OW26161   4.242   0.237   3.602  0.3660 -0.4739 -0.6681
 4842SOL    HW126162   4.254   0.303   3.533 -2.0914  0.3940 -0.2536
 4842SOL    HW226163   4.292   0.160   3.576  0.8608  0.0381 -1.2616
 4843SOL     OW26164   0.412   0.455   4.603 -0.3751 -0.1724 -0.3702
 4843SOL    HW126165   0.319   0.441   4.587 -0.1877 -0.9524 -0.8106
 4843SOL    HW226166   0.440   0.512   4.531  1.2657  0.0081  0.4151
 4844SOL     OW26167   3.431   3.040   5.739  0.2652  0.6782 -0.2459
 4844SOL    HW126168   3.492   3.111   5.760 -0.4388  1.0802  0.3984
 4844SOL    HW226169   3.463   2.969   5.795  0.3710 -0.5703 -1.8900
 4845SOL     OW26170   3.300   3.482  13.222  0.0412  0.6104  0.0968
 4845SOL    HW126171   3.349   3.444  13.149 -1.4277 -0.4866 -0.3115
 4845SOL    HW226172   3.318   3.417  13.290 -2.5529  0.0907  0.2604
 4846SOL     OW26173   2.233   2.241   3.409  0.3167 -0.6874  0.2771
 4846SOL    HW126174   2.186   2.241   3.326  0.0258  2.4984  0.4346
 4846SOL    HW226175   2.310   2.288   3.375 -0.2833 -0.3079 -0.5599
 4847SOL     OW26176   1.408   2.486   2.480  0.2369 -0.4346 -0.4566
 4847SOL    HW126177   1.423   2.576   2.507  4.1118 -1.2381  0.1381
 4847SOL    HW226178   1.319   2.464   2.507 -0.3723 -0.4139 -2.4318
 4848SOL     OW26179   3.967   1.969   7.461  0.8818  0.2389  0.4355
 4848SOL    HW126180   4.025   1.906   7.418  1.2473  0.0848  1.1584
 4848SOL    HW226181   4.018   2.050   7.467  2.3230 -0.4745 -1.9781
 4849SOL     OW26182   4.071   1.718   3.552 -0.1843 -0.0581 -0.2981
 4849SOL    HW126183   4.094   1.747   3.464  2.0872  0.8450  0.6017
 4849SOL    HW226184   4.011   1.645   3.535 -0.6194  0.5805 -1.4630
 4850SOL     OW26185   1.558   3.585   7.848  0.1961 -0.4956  0.1042
 4850SOL    HW126186   1.645   3.596   7.809  0.5655 -0.0103  1.0775
 4850SOL    HW226187   1.562   3.495   7.879  0.0879 -0.3569  0.5147
 4851SOL     OW26188   0.497   4.499   8.622  0.4964  0.3462  0.1246
 4851SOL    HW126189   0.459   4.426   8.670  1.5205 -0.7087 -0.6708
 4851SOL    HW226190   0.476   4.482   8.530 -0.7244  1.2008  0.2427
 4852SOL     OW26191   1.739   3.524   8.118  0.1117  0.2493  0.1862
 4852SOL    HW126192   1.667   3.586   8.105  0.5275  0.9914  1.5178
 4852SOL    HW226193   1.724   3.500   8.209 -0.7461 -2.3078 -0.6260
 4853SOL     OW26194   4.323   0.373   6.902 -0.1340  0.2288 -0.2820
 4853SOL    HW126195   4.233   0.380   6.934 -0.0168  1.9499 -0.3019
 4853SOL    HW226196   4.339   0.290   6.946 -0.3088  0.9965  1.2238
 4854SOL     OW26197   2.910   3.551  10.446 -0.0263 -0.1510  0.4099
 4854SOL    HW126198   2.830   3.588  10.482 -0.4936 -2.9560  2.3037
 4854SOL    HW226199   2.977   3.571  10.511 -1.5331  1.4168  1.4803
 4855SOL     OW26200   4.161   2.575   3.608  0.4087  0.4191 -0.3868
 4855SOL    HW126201   4.255   2.568   3.624  0.2472 -0.4369  0.1392
 4855SOL    HW226202   4.136   2.642   3.671 -0.4967  0.7752 -1.1156
 4856SOL     OW26203   1.101   4.135  15.625  0.0896  0.0215  0.3920
 4856SOL    HW126204   1.193   4.110  15.621  0.4649  1.4134  0.3211
 4856SOL    HW226205   1.056   4.053  15.603  1.3381 -0.3070 -0.9182
 4857SOL     OW26206   1.735   3.284  16.806  0.4770 -0.0466  0.1617
 4857SOL    HW126207   1.716   3.295  16.899  0.7598 -0.9519  0.3223
 4857SOL    HW226208   1.663   3.227  16.780  1.2882 -0.7210 -0.5949
 4858SOL     OW26209   0.653   4.494   6.910 -0.1293  0.2221  0.0736
 4858SOL    HW126210   0.601   4.477   6.832 -0.5829  0.6341  0.2868
 4858SOL    HW226211   0.583   4.506   6.974  0.6504  0.6545  0.8479
 4859SOL     OW26212   1.336   4.090   2.844  0.1805  0.3809  0.2045
 4859SOL    HW126213   1.266   4.153   2.825  0.6490  0.2785 -1.8583
 4859SOL    HW226214   1.295   4.005   2.856  1.9859 -0.6113 -0.6281
 4860SOL     OW26215   3.342   3.796  10.093 -0.0191  0.1888 -0.5682
 4860SOL    HW126216   3.252   3.799  10.060  0.1925 -0.4210 -1.1938
 4860SOL    HW226217   3.362   3.706  10.068 -0.2285 -0.6202  2.1171
 4861SOL     OW26218   2.380   1.440   7.805 -0.3436 -0.0807 -0.1389
 4861SOL    HW126219   2.299   1.489   7.817 -1.6155 -1.8232 -1.5941
 4861SOL    HW226220   2.420   1.443   7.892 -1.8400  2.3480  0.4389
 4862SOL     OW26221   2.645   2.724   4.167  0.0012  0.1582  0.5987
 4862SOL    HW126222   2.656   2.726   4.262 -2.8586 -1.1622  0.9561
 4862SOL    HW226223   2.566   2.670   4.164 -0.4319  0.7659  1.2139
 4863SOL     OW26224   1.674   4.689   4.086 -0.0270 -0.0806 -0.9548
 4863SOL    HW126225   1.731   0.003   4.027 -0.0002  2.4620  1.1577
 4863SOL    HW226226   1.709   4.600   4.081  1.0401  0.2402  0.6935
 4864SOL     OW26227   1.504   4.568   9.313  0.4333  0.1519 -0.3550
 4864SOL    HW126228   1.493   4.624   9.390  1.9018 -0.7926  0.5351
 4864SOL    HW226229   1.466   4.490   9.354  2.3207 -0.3470  0.4312
 4865SOL     OW26230   4.574   0.729   3.884 -0.0166 -0.4021  0.5475
 4865SOL    HW126231   4.593   0.796   3.950 -0.1977  0.3004 -0.1135
 4865SOL    HW226232   4.483   0.700   3.890 -0.4234  0.8202  0.3768
 4866SOL     OW26233   3.232   3.610   9.278 -0.4574  0.2820 -0.0220
 4866SOL    HW126234   3.304   3.548   9.269 -1.7258 -1.5294  2.4714
 4866SOL    HW226235   3.272   3.675   9.336  2.6020 -0.5365 -1.2245
 4867SOL     OW26236   0.513   3.549   3.331  0.1693  0.8375 -0.6878
 4867SOL    HW126237   0.449   3.479   3.345  0.5488  0.2772 -1.7959
 4867SOL    HW226238   0.453   3.622   3.312  0.0520  0.2694 -2.4342
 4868SOL     OW26239   4.332   2.457  15.195  0.0726  0.0034 -0.1664
 4868SOL    HW126240   4.356   2.366  15.215  1.0264  0.5380  1.1328
 4868SOL    HW226241   4.354   2.493  15.281  0.3286 -1.4859  0.3910
 4869SOL     OW26242   3.946   2.340   6.033 -0.3285  0.0640 -0.8024
 4869SOL    HW126243   4.018   2.352   5.971 -0.0860 -0.2795 -0.5893
 4869SOL    HW226244   3.895   2.269   5.994 -1.2091  1.2248 -1.7572
 4870SOL     OW26245   2.940   4.140  13.266 -0.0636 -0.3720  0.5876
 4870SOL    HW126246   3.024   4.141  13.220  0.7293 -0.3284  2.0142
 4870SOL    HW226247   2.898   4.191  13.197 -0.8379 -1.8961 -0.0508
 4871SOL     OW26248   2.665   2.351   2.509 -0.4717 -0.0976 -0.3640
 4871SOL    HW126249   2.700   2.405   2.580  0.6267 -1.7487  0.3722
 4871SOL    HW226250   2.651   2.415   2.440  1.5281 -0.8484 -1.4563
 4872SOL     OW26251   1.892   1.395   3.978 -0.0810  0.0109 -0.3309
 4872SOL    HW126252   1.912   1.479   4.019 -0.8978  0.7202 -1.3899
 4872SOL    HW226253   1.808   1.369   4.016  0.7340  1.4062  2.3846
 4873SOL     OW26254   1.098   2.477   8.774  0.0107 -0.5681 -0.2680
 4873SOL    HW126255   1.194   2.476   8.775  0.0084 -0.4706  0.3846
 4873SOL    HW226256   1.074   2.512   8.688 -0.9596  1.1947  0.7307
 4874SOL     OW26257   2.219   1.508   5.946  0.4181 -0.6823  0.1689
 4874SOL    HW126258   2.172   1.506   5.863  0.0565  0.3602  0.3480
 4874SOL    HW226259   2.266   1.425   5.945 -0.4664 -1.1537 -3.5060
 4875SOL     OW26260   0.463   3.243   4.687 -0.0791 -0.0653 -0.1148
 4875SOL    HW126261   0.556   3.250   4.664 -0.4736 -0.7657 -1.9192
 4875SOL    HW226262   0.450   3.149   4.678  0.0946 -0.0913 -0.1086
 4876SOL     OW26263   0.346   0.307  10.854 -0.8374  0.2125  0.5556
 4876SOL    HW126264   0.314   0.397  10.849  0.5270  0.8754  4.0104
 4876SOL    HW226265   0.391   0.309  10.769  1.0951  1.5599  1.6117
 4877SOL     OW26266   0.294   3.533   8.700  0.1194  0.0690 -0.2537
 4877SOL    HW126267   0.346   3.501   8.774 -0.3126 -2.4429 -1.0485
 4877SOL    HW226268   0.221   3.472   8.697 -1.6525  2.1222  1.2173
 4878SOL     OW26269   1.203   4.604   2.918  0.0521 -0.5165  0.0444
 4878SOL    HW126270   1.116   4.581   2.949 -1.2751  1.6956 -2.0180
 4878SOL    HW226271   1.241   4.516   2.920  1.0888 -0.0720 -0.2410
 4879SOL     OW26272   2.282   2.091  10.885  0.7641 -0.2384  0.0281
 4879SOL    HW126273   2.210   2.033  10.861  0.9092 -0.0499 -0.8530
 4879SOL    HW226274   2.306   2.049  10.968 -0.0387 -0.0719  0.3409
 4880SOL     OW26275   0.176   3.488   3.218 -0.0735  0.3941 -0.0818
 4880SOL    HW126276   0.119   3.410   3.223  0.1718  0.3708  2.0723
 4880SOL    HW226277   0.246   3.459   3.160 -1.9474  0.3159 -2.3225
 4881SOL     OW26278   2.496   2.912  17.110 -0.0379  0.5666 -0.7140
 4881SOL    HW126279   2.573   2.869  17.146  0.1576 -1.3990 -3.4287
 4881SOL    HW226280   2.419   2.856  17.111  0.8796 -0.6471  0.6932
 4882SOL     OW26281   1.036   4.429   3.903 -0.0479 -0.2105  0.2898
 4882SOL    HW126282   1.110   4.412   3.962  0.0407  0.2517  0.3173
 4882SOL    HW226283   1.064   4.506   3.854 -0.7504 -1.3295 -1.8617
 4883SOL     OW26284   1.409   1.877  14.945 -0.5637 -0.1574 -0.0310
 4883SOL    HW126285   1.451   1.806  14.994  1.5856 -0.8381 -2.8162
 4883SOL    HW226286   1.410   1.938  15.019 -0.4955 -0.4478  0.2047
 4884SOL     OW26287   2.112   3.005   8.500 -0.4056  0.0409 -0.3405
 4884SOL    HW126288   2.033   2.984   8.450  1.2421 -0.9337 -2.5406
 4884SOL    HW226289   2.108   3.101   8.499  0.8224  0.0871 -0.3534
 4885SOL     OW26290   1.783   4.572  11.613 -0.4576  0.4093  0.2542
 4885SOL    HW126291   1.840   4.649  11.617  1.6937 -1.2855  2.6890
 4885SOL    HW226292   1.717   4.603  11.552 -0.4347 -0.3085 -0.1268
 4886SOL     OW26293   4.421   4.647   4.350  0.0396 -0.0091  0.7358
 4886SOL    HW126294   4.367   4.708   4.400 -0.9299  0.5976 -1.0714
 4886SOL    HW226295   4.358   4.586   4.312 -0.0229 -0.5964  1.7669
 4887SOL     OW26296   0.754   1.578  16.785 -0.4176 -0.4331  0.8538
 4887SOL    HW126297   0.822   1.641  16.761 -2.2548  0.4133 -2.1452
 4887SOL    HW226298   0.754   1.513  16.714 -0.6632  0.7884 -0.2679
 4888SOL     OW26299   3.845   4.465   7.196  0.1171 -0.5302 -0.3456
 4888SOL    HW126300   3.925   4.461   7.249  0.8014 -0.6175 -1.3889
 4888SOL    HW226301   3.782   4.498   7.260  0.3124 -0.1518 -0.3433
 4889SOL     OW26302   1.778   3.582   0.654 -0.0678 -0.2521 -0.1746
 4889SOL    HW126303   1.812   3.563   0.567  0.6676  1.7795 -0.3356
 4889SOL    HW226304   1.713   3.514   0.670  0.7872 -1.6200 -2.5287
 4890SOL     OW26305   2.602   2.494   8.192 -0.1401 -0.1057  0.6267
 4890SOL    HW126306   2.622   2.546   8.114 -2.1349 -4.2093 -2.5867
 4890SOL    HW226307   2.550   2.426   8.151 -0.1365  0.0755  0.3202
 4891SOL     OW26308   3.470   2.063   3.021 -0.3167  0.3961  0.3665
 4891SOL    HW126309   3.533   2.033   3.087  0.8347 -0.3643 -1.0650
 4891SOL    HW226310   3.400   1.999   3.030 -1.0194  1.1597  0.3316
 4892SOL     OW26311   2.902   4.643   2.482  0.0176  0.0111 -0.2905
 4892SOL    HW126312   2.813   4.611   2.494 -0.3991  0.9844 -0.7933
 4892SOL    HW226313   2.907   4.686   2.567 -1.1153  1.1054 -0.7774
 4893SOL     OW26314   2.885   0.649  14.425 -0.0140 -0.0309 -0.0326
 4893SOL    HW126315   2.843   0.691  14.500  0.0661  0.3857 -0.2220
 4893SOL    HW226316   2.837   0.567  14.421  1.0581 -0.7000  0.6658
 4894SOL     OW26317   1.185   0.833   3.091  0.4654 -0.2486 -0.1503
 4894SOL    HW126318   1.109   0.777   3.109  0.0156  0.4616  0.1866
 4894SOL    HW226319   1.177   0.834   2.995 -0.4720 -2.2837 -0.0790
 4895SOL     OW26320   1.820   3.518   0.368  0.3596 -0.1743 -0.7562
 4895SOL    HW126321   1.753   3.450   0.375 -0.8815  0.8330 -2.9118
 4895SOL    HW226322   1.880   3.475   0.307 -1.4362 -1.4818 -1.5722
 4896SOL     OW26323   0.074   1.272   7.508 -0.1472 -0.0897 -0.5782
 4896SOL    HW126324   0.040   1.315   7.429  0.6659  0.7369 -0.4844
 4896SOL    HW226325   0.154   1.237   7.469  0.1968  0.4428 -0.3628
 4897SOL     OW26326   0.717   2.519   4.259  0.1577 -0.6649  0.5163
 4897SOL    HW126327   0.794   2.487   4.212  1.0472  1.3837  0.5682
 4897SOL    HW226328   0.689   2.436   4.297  0.2542 -0.5322  0.8807
 4898SOL     OW26329   2.117   1.503  16.919  0.1336 -0.5148 -0.0026
 4898SOL    HW126330   2.101   1.597  16.925 -0.2263 -0.4064 -2.3685
 4898SOL    HW226331   2.089   1.481  16.830 -0.4591  1.6035 -0.3259
 4899SOL     OW26332   2.568   2.603   7.461  0.1586 -0.1128 -0.3601
 4899SOL    HW126333   2.607   2.611   7.548  1.8497 -2.4115 -0.9050
 4899SOL    HW226334   2.569   2.695   7.436  1.1084  0.3842  1.5321
 4900SOL     OW26335   3.024   1.666   2.372  0.2962  0.5937  0.2345
 4900SOL    HW126336   2.960   1.650   2.441 -1.5231 -1.6413 -1.9498
 4900SOL    HW226337   3.064   1.750   2.393  1.6809 -0.1570  0.5958
 4901SOL     OW26338   2.012   2.729   7.090  0.7200 -0.2689  0.9303
 4901SOL    HW126339   2.042   2.804   7.039 -1.3599  0.6717  1.0788
 4901SOL    HW226340   1.976   2.778   7.164 -0.0978  0.8179 -0.2020
 4902SOL     OW26341   4.025   0.941   9.201  0.6806  0.8021 -0.3031
 4902SOL    HW126342   3.992   0.853   9.216  2.1815  0.3923  0.6362
 4902SOL    HW226343   3.947   0.994   9.185 -0.1809 -0.9080 -1.7300
 4903SOL     OW26344   0.449   2.937   6.595 -0.1665  0.2550 -0.0319
 4903SOL    HW126345   0.449   3.021   6.640  0.0168  0.2246  0.0218
 4903SOL    HW226346   0.451   2.867   6.661  0.1855 -0.5245 -0.8703
 4904SOL     OW26347   3.454   1.907  16.913  0.5691 -0.3501  0.4140
 4904SOL    HW126348   3.430   1.841  16.848 -2.5398  0.0625  1.1513
 4904SOL    HW226349   3.369   1.951  16.917 -0.2349 -1.5959 -2.7499
 4905SOL     OW26350   0.925   4.521   1.050  0.2956  0.1118  0.1331
 4905SOL    HW126351   0.961   4.499   0.964 -2.7971 -1.4477 -0.7766
 4905SOL    HW226352   0.928   4.431   1.084 -0.2364 -0.8623 -2.3716
 4906SOL     OW26353   1.638   0.363  15.558 -0.4372  0.4091  0.3815
 4906SOL    HW126354   1.632   0.386  15.651  2.4235  0.9055  0.4339
 4906SOL    HW226355   1.717   0.411  15.534 -0.5695 -0.8441 -2.4970
 4907SOL     OW26356   2.480   1.903   2.275  0.0476  0.1640 -0.3209
 4907SOL    HW126357   2.413   1.963   2.242  0.6297  0.1123 -1.5671
 4907SOL    HW226358   2.509   1.861   2.194 -2.6500 -0.8347 -0.7737
 4908SOL     OW26359   0.180   0.340   1.141 -0.1226  0.3969  0.0968
 4908SOL    HW126360   0.199   0.423   1.097 -2.1169  1.3352  1.0228
 4908SOL    HW226361   0.258   0.293   1.112  0.1320  2.0092 -1.7855
 4909SOL     OW26362   1.696   2.654   4.516  0.2502 -0.2797 -0.0359
 4909SOL    HW126363   1.749   2.731   4.537 -0.5568 -0.0010  0.9223
 4909SOL    HW226364   1.741   2.621   4.437  0.9428 -1.4668  0.8454
 4910SOL     OW26365   2.241   4.193   7.708  0.3126  0.1135  0.3962
 4910SOL    HW126366   2.172   4.145   7.754  1.5900 -1.2984  0.8335
 4910SOL    HW226367   2.278   4.117   7.663 -1.4542 -0.4674 -0.0823
 4911SOL     OW26368   0.169   2.052   5.748  0.5661 -0.2828  0.2853
 4911SOL    HW126369   0.264   2.041   5.749  0.5181 -0.4900  1.9138
 4911SOL    HW226370   0.162   2.124   5.685 -0.3995 -0.3020  0.3708
 4912SOL     OW26371   1.580   4.410   7.740  0.0247 -0.2940  0.5092
 4912SOL    HW126372   1.500   4.450   7.775  0.1312  0.7109 -0.3850
 4912SOL    HW226373   1.622   4.381   7.821  2.9140 -0.8505 -1.1948
 4913SOL     OW26374   2.715   0.345   6.107  0.2887  0.0494 -0.5476
 4913SOL    HW126375   2.798   0.315   6.145 -1.7615  0.3606  4.1313
 4913SOL    HW226376   2.709   0.276   6.040  0.0297 -1.1128  0.6720
 4914SOL     OW26377   2.378   2.374  15.662 -0.3950 -0.0315  0.2939
 4914SOL    HW126378   2.410   2.356  15.574 -0.7349 -0.2140  0.2069
 4914SOL    HW226379   2.301   2.423  15.636  0.9599  0.2613 -3.1841
 4915SOL     OW26380   0.065   4.528   0.961  0.2154  0.2821  0.0466
 4915SOL    HW126381   0.121   4.488   1.027  0.3362 -0.4311 -0.4994
 4915SOL    HW226382   0.001   4.585   1.005  2.1559  3.4631 -1.2108
 4916SOL     OW26383   4.064   0.762   7.622  0.1285 -0.1878  0.2950
 4916SOL    HW126384   4.013   0.800   7.693  0.8026 -2.2668  1.8748
 4916SOL    HW226385   3.996   0.712   7.577 -0.4462  0.8512 -0.0180
 4917SOL     OW26386   3.620   2.949   6.898 -0.2520  0.3772  0.2200
 4917SOL    HW126387   3.639   3.041   6.878 -0.2914  0.5360  0.8942
 4917SOL    HW226388   3.680   2.903   6.840 -0.9347  0.0724 -0.2313
 4918SOL     OW26389   4.136   1.207  13.057 -0.0904  0.2410  0.1124
 4918SOL    HW126390   4.091   1.283  13.094 -1.8410 -0.6779 -0.0850
 4918SOL    HW226391   4.122   1.147  13.131  1.5012 -3.2359 -2.4232
 4919SOL     OW26392   1.592   3.811   4.660  0.3023  0.5200 -0.2376
 4919SOL    HW126393   1.513   3.777   4.703  0.3428  0.5831 -0.1141
 4919SOL    HW226394   1.624   3.872   4.726 -1.9596  2.0859 -0.5673
 4920SOL     OW26395   1.767   3.102   1.846  0.1898 -0.3174  0.7166
 4920SOL    HW126396   1.787   3.010   1.866 -0.5619 -0.4897  0.6802
 4920SOL    HW226397   1.694   3.120   1.904  0.4933  0.6272  0.8079
 4921SOL     OW26398   1.887   3.829   5.077 -0.2257  0.0589 -0.0532
 4921SOL    HW126399   1.839   3.826   4.994  0.4068 -1.0880 -0.3805
 4921SOL    HW226400   1.967   3.880   5.061 -0.9422  1.1314 -0.1893
 4922SOL     OW26401   0.733   4.406   8.759 -0.6302  0.3719  0.5561
 4922SOL    HW126402   0.812   4.420   8.810  0.5441 -1.1480 -0.8344
 4922SOL    HW226403   0.735   4.473   8.691  0.7504  1.0936  1.3082
 4923SOL     OW26404   3.168   4.368   7.198  0.0254  0.4598 -0.7720
 4923SOL    HW126405   3.182   4.400   7.109  1.3234 -0.2385 -0.8193
 4923SOL    HW226406   3.222   4.436   7.238 -0.0380 -0.0961  0.2856
 4924SOL     OW26407   0.589   2.888   5.470  0.2252  0.1973 -0.4941
 4924SOL    HW126408   0.565   2.980   5.465 -1.0301 -0.3154 -3.7277
 4924SOL    HW226409   0.517   2.853   5.522 -0.4264 -0.1913 -1.6669
 4925SOL     OW26410   3.586   1.534   5.872  0.2304 -0.1593  0.2588
 4925SOL    HW126411   3.552   1.624   5.873  0.9669  0.1202 -0.1027
 4925SOL    HW226412   3.571   1.511   5.964  0.4004  0.5594  0.4701
 4926SOL     OW26413   1.565   4.517  10.544 -0.2006  0.0466  0.6746
 4926SOL    HW126414   1.520   4.511  10.459 -2.5207  3.2052  1.6891
 4926SOL    HW226415   1.656   4.501  10.518 -0.7442  0.0574 -1.2377
 4927SOL     OW26416   2.414   1.262  10.071 -0.0643 -0.0778 -0.5213
 4927SOL    HW126417   2.460   1.338  10.035 -0.0393  0.6588  1.0769
 4927SOL    HW226418   2.476   1.234  10.139 -1.0687 -1.2431 -0.0809
 4928SOL     OW26419   1.952   4.622  15.622  0.1368  0.0528  0.4296
 4928SOL    HW126420   1.925   4.630  15.714  0.0334 -0.8985  0.4811
 4928SOL    HW226421   2.044   4.601  15.636  0.1398  1.1027  2.0561
 4929SOL     OW26422   3.042   2.762   2.654  0.0702  0.5213 -0.2046
 4929SOL    HW126423   2.947   2.769   2.657  0.1530  0.1812  2.9007
 4929SOL    HW226424   3.050   2.707   2.576 -1.0261 -0.8100  0.6266
 4930SOL     OW26425   1.346   4.018   1.565  0.8278 -0.3323 -0.2964
 4930SOL    HW126426   1.337   4.073   1.488 -0.3514  0.5719  0.5010
 4930SOL    HW226427   1.412   4.064   1.617 -1.2214  2.1853  0.0352
 4931SOL     OW26428   1.027   0.722   7.346  0.1784 -0.1372  0.0167
 4931SOL    HW126429   1.115   0.683   7.353 -0.6673 -2.2040 -0.7082
 4931SOL    HW226430   1.032   0.794   7.408  1.5389  0.4832 -0.8190
 4932SOL     OW26431   2.120   2.856   7.778 -0.6794  0.0595 -0.5706
 4932SOL    HW126432   2.169   2.779   7.807 -1.0638 -0.1721 -0.5364
 4932SOL    HW226433   2.159   2.865   7.690 -1.2521  0.9030 -0.7345
 4933SOL     OW26434   4.623   2.676  14.202 -0.8192  0.1299 -0.3753
 4933SOL    HW126435   4.674   2.596  14.185  0.5641  0.8253  0.5100
 4933SOL    HW226436   4.619   2.671  14.298 -1.2798  0.6596 -0.3693
 4934SOL     OW26437   0.633   2.074   6.376 -0.2885  0.2530 -0.2372
 4934SOL    HW126438   0.636   2.112   6.288  1.2202 -1.6913 -1.0232
 4934SOL    HW226439   0.703   2.128   6.413  0.4161  0.7395 -2.2681
 4935SOL     OW26440   2.913   4.635   1.446  0.1447 -0.6569  0.0487
 4935SOL    HW126441   2.977   4.661   1.379 -0.1668  0.1342  0.0603
 4935SOL    HW226442   2.930   4.710   1.503  1.5556  0.2193 -1.5285
 4936SOL     OW26443   0.031   2.975  13.355  0.9367  0.0271  0.6615
 4936SOL    HW126444   4.725   3.022  13.427 -2.2635  2.9979 -3.1381
 4936SOL    HW226445   0.005   2.885  13.376 -0.5289  0.5822  1.1653
 4937SOL     OW26446   2.030   3.089   7.940 -0.5345 -0.0404  0.7427
 4937SOL    HW126447   2.085   3.165   7.918 -2.4630  0.8487 -0.8995
 4937SOL    HW226448   2.079   3.024   7.889 -1.7208  0.0228 -0.4784
 4938SOL     OW26449   0.313   2.742   6.453 -0.0459  0.0515  0.3233
 4938SOL    HW126450   0.238   2.760   6.396 -1.1464  0.1857  1.8407
 4938SOL    HW226451   0.346   2.824   6.489  1.3513 -1.5403  2.6437
 4939SOL     OW26452   4.237   0.270  14.176  0.7211 -0.8142  0.4256
 4939SOL    HW126453   4.326   0.248  14.146  0.0542 -0.1575 -2.0487
 4939SOL    HW226454   4.200   0.182  14.170 -2.4342  0.4756  1.2674
 4940SOL     OW26455   3.473   0.273   7.024  0.7727 -0.4235  0.1933
 4940SOL    HW126456   3.472   0.179   7.036  0.2282 -0.2957  1.1246
 4940SOL    HW226457   3.438   0.310   7.106  1.5620  1.1521 -0.1673
 4941SOL     OW26458   2.900   1.820  11.272 -0.1758  0.2144  0.3274
 4941SOL    HW126459   2.914   1.913  11.289 -0.9918  0.1279  1.4518
 4941SOL    HW226460   2.867   1.809  11.183 -0.3026  1.1709  0.2595
 4942SOL     OW26461   2.477   4.358   6.513 -0.6707 -0.6469  0.3862
 4942SOL    HW126462   2.471   4.409   6.594  0.1326  2.0320 -1.2443
 4942SOL    HW226463   2.399   4.302   6.507 -1.7190  0.8221  0.1704
 4943SOL     OW26464   3.131   2.648   9.339  0.6213  0.1843  0.2737
 4943SOL    HW126465   3.037   2.662   9.348  0.6619  0.1044  0.8163
 4943SOL    HW226466   3.150   2.742   9.335 -2.5751  0.8230  0.0006
 4944SOL     OW26467   1.587   4.386   7.199 -0.0302 -0.2111  0.4686
 4944SOL    HW126468   1.650   4.332   7.151 -1.5456 -2.6001  1.2090
 4944SOL    HW226469   1.635   4.395   7.281 -0.8076  1.9301  0.6979
 4945SOL     OW26470   0.587   1.519   1.606 -0.2536  0.3754 -0.0705
 4945SOL    HW126471   0.640   1.555   1.678 -0.5036 -2.4856  1.5212
 4945SOL    HW226472   0.534   1.453   1.651  0.5647 -0.9325 -1.0256
 4946SOL     OW26473   4.666   1.002   5.411 -0.3847 -0.2637  0.2914
 4946SOL    HW126474   4.627   0.994   5.498  1.4412 -0.4537  1.0880
 4946SOL    HW226475   4.726   1.076   5.407 -1.0267  0.2090 -0.9193
 4947SOL     OW26476   0.413   2.517  10.950  0.0477 -0.1727  0.3187
 4947SOL    HW126477   0.361   2.597  10.942 -0.5736 -0.5358  0.7013
 4947SOL    HW226478   0.390   2.475  11.033  0.6658  0.0179  0.5889
 4948SOL     OW26479   0.161   2.541  11.844  0.2238  0.4824  0.0494
 4948SOL    HW126480   0.233   2.480  11.861 -1.1345 -0.8691  0.9061
 4948SOL    HW226481   0.178   2.563  11.752  0.8385  0.2087  0.0937
 4949SOL     OW26482   0.393   1.967   9.798 -0.5265 -0.4592 -0.0418
 4949SOL    HW126483   0.415   1.927   9.882 -1.3553 -2.4412 -0.7747
 4949SOL    HW226484   0.472   2.017   9.777 -0.4802 -0.9038 -0.9279
 4950SOL     OW26485   0.707   3.424   6.525 -0.0648 -0.2545 -0.4025
 4950SOL    HW126486   0.716   3.517   6.544 -1.1190 -0.4202  0.9120
 4950SOL    HW226487   0.793   3.401   6.490  0.3010 -2.0264  1.6867
 4951SOL     OW26488   4.262   1.626   7.197  0.2332 -0.2433  0.3613
 4951SOL    HW126489   4.260   1.596   7.106 -1.0031  0.0939  0.2876
 4951SOL    HW226490   4.271   1.539   7.236  1.3940 -0.2505  0.1004
 4952SOL     OW26491   0.605   3.595   5.833  1.1841 -0.3833  0.2245
 4952SOL    HW126492   0.593   3.625   5.923  1.7902 -2.2223  0.9283
 4952SOL    HW226493   0.551   3.655   5.781  1.4680  1.1199  1.6762
 4953SOL     OW26494   3.524   1.608   2.617  0.4118  0.9195  0.1357
 4953SOL    HW126495   3.432   1.589   2.632  0.8105 -1.0187  0.1134
 4953SOL    HW226496   3.527   1.632   2.524 -0.4425  0.0027 -0.1218
 4954SOL     OW26497   0.436   2.659   4.475  0.1199  0.2998 -0.2554
 4954SOL    HW126498   0.398   2.571   4.477  1.8564 -0.3983  2.2414
 4954SOL    HW226499   0.361   2.714   4.499 -0.7097 -0.0049 -2.0784
 4955SOL     OW26500   1.611   4.252   6.765 -0.6152 -0.1400  0.1372
 4955SOL    HW126501   1.562   4.323   6.807 -1.2100 -0.5653  0.1581
 4955SOL    HW226502   1.688   4.251   6.822 -0.6234 -0.9132  0.1370
 4956SOL     OW26503   3.778   4.393  13.334  0.2841 -0.1405 -0.3674
 4956SOL    HW126504   3.802   4.462  13.272 -1.6433  1.8291  1.0929
 4956SOL    HW226505   3.693   4.425  13.362 -0.4899 -1.2201 -1.4492
 4957SOL     OW26506   1.919   3.463  16.846 -0.4465 -0.5880 -0.6402
 4957SOL    HW126507   1.876   3.382  16.820 -0.1840 -0.8821 -0.1550
 4957SOL    HW226508   1.920   3.455  16.942  1.7881  2.9513 -0.4014
 4958SOL     OW26509   3.494   1.022   8.236 -0.5286  0.2738 -0.2402
 4958SOL    HW126510   3.468   1.114   8.226 -2.4067  0.0283  2.5748
 4958SOL    HW226511   3.426   0.990   8.295 -0.6679  1.1964  0.0993
 4959SOL     OW26512   0.477   1.641   8.421 -0.8547 -0.2064 -0.1850
 4959SOL    HW126513   0.452   1.610   8.508  1.3189  2.0143  1.2336
 4959SOL    HW226514   0.404   1.606   8.370 -0.3586 -0.9839 -0.3753
 4960SOL     OW26515   1.117   0.442   0.857 -0.3467 -0.1389  0.2949
 4960SOL    HW126516   1.056   0.424   0.929 -1.5910 -0.4802 -0.8370
 4960SOL    HW226517   1.086   0.528   0.830  0.4682  0.5194  1.4480
 4961SOL     OW26518   0.425   1.833   5.502  0.3788 -0.1593  0.2943
 4961SOL    HW126519   0.334   1.818   5.528  0.8265  0.1712  2.0589
 4961SOL    HW226520   0.428   1.829   5.406  0.4607 -0.1455  0.2969
 4962SOL     OW26521   2.355   3.397  14.623  1.0068 -0.5372  0.6490
 4962SOL    HW126522   2.326   3.328  14.563  1.9755 -1.0536  0.7768
 4962SOL    HW226523   2.389   3.467  14.567 -0.3874  0.4674  1.0475
 4963SOL     OW26524   4.263   2.244   6.223  0.1880 -0.2620 -0.3669
 4963SOL    HW126525   4.264   2.272   6.131 -0.7437 -3.4784 -1.3497
 4963SOL    HW226526   4.214   2.163   6.214 -0.5133  0.2734 -1.3191
 4964SOL     OW26527   4.391   0.653   0.111 -0.0560 -0.1509  0.2282
 4964SOL    HW126528   4.412   0.574   0.062 -1.1799  1.0652 -2.2300
 4964SOL    HW226529   4.331   0.692   0.047 -1.0761 -0.1017  1.2127
 4965SOL     OW26530   1.362   0.169   8.452 -0.2833  1.0183  0.2999
 4965SOL    HW126531   1.334   0.078   8.462  1.4008  0.4241 -0.3805
 4965SOL    HW226532   1.284   0.207   8.413 -1.5443 -1.7082  0.1282
 4966SOL     OW26533   3.556   1.340   6.205  0.6619 -0.0952 -0.3783
 4966SOL    HW126534   3.523   1.428   6.186  0.1474  0.4813  3.1782
 4966SOL    HW226535   3.573   1.338   6.300 -2.0422  0.4068  0.1126
 4967SOL     OW26536   4.249   3.920   8.153 -0.2315  0.3186 -0.1749
 4967SOL    HW126537   4.222   3.896   8.241  1.8930  0.1503  0.4462
 4967SOL    HW226538   4.345   3.928   8.159 -0.3009  0.9564  0.1386
 4968SOL     OW26539   0.508   3.476   3.923  0.3864 -0.4095  0.0442
 4968SOL    HW126540   0.465   3.437   3.999  1.3826 -1.5967 -0.0016
 4968SOL    HW226541   0.580   3.415   3.909  0.5433 -0.3819  0.7828
 4969SOL     OW26542   2.009   4.197   4.410 -0.1745 -0.1306 -0.1296
 4969SOL    HW126543   1.993   4.107   4.438 -2.6819  1.0907  2.3337
 4969SOL    HW226544   2.096   4.206   4.451 -0.5202  3.1338 -0.1053
 4970SOL     OW26545   3.447   1.038   3.584 -0.2659 -0.1068 -0.0414
 4970SOL    HW126546   3.512   1.109   3.583 -1.6519  1.1727  0.7637
 4970SOL    HW226547   3.493   0.961   3.550  1.5146  1.0875 -0.3190
 4971SOL     OW26548   4.179   0.940   7.360  0.5746  0.4131  0.0965
 4971SOL    HW126549   4.104   0.901   7.405 -0.8471  3.0401  0.0094
 4971SOL    HW226550   4.131   1.019   7.335  1.2782  0.5114 -0.9389
 4972SOL     OW26551   1.450   4.538  14.350 -0.2980 -0.0675  0.3856
 4972SOL    HW126552   1.405   4.543  14.265 -0.5056  0.1456  0.5091
 4972SOL    HW226553   1.525   4.596  14.334 -1.4165  1.2393 -0.1234
 4973SOL     OW26554   1.168   1.963   0.745 -0.5139  0.5704 -0.3973
 4973SOL    HW126555   1.118   2.002   0.673 -1.8434 -2.3841 -1.0516
 4973SOL    HW226556   1.103   1.938   0.810  0.4624  2.5109  1.3584
 4974SOL     OW26557   2.311   2.261  14.058  0.1748  0.3448 -0.2659
 4974SOL    HW126558   2.297   2.173  14.022 -2.7437  0.5157  0.4758
 4974SOL    HW226559   2.378   2.242  14.123  1.1766 -0.4802 -1.5245
 4975SOL     OW26560   3.447   2.168  14.692  1.0237  0.2154  0.3677
 4975SOL    HW126561   3.434   2.079  14.726 -0.7772  1.0937  1.9630
 4975SOL    HW226562   3.420   2.210  14.774 -1.9348 -1.0136  0.0168
 4976SOL     OW26563   0.835   2.566   2.447  0.4005 -0.2396 -0.1227
 4976SOL    HW126564   0.858   2.569   2.354 -1.6704 -1.1482 -0.6666
 4976SOL    HW226565   0.749   2.524   2.440 -0.5892  1.5945  0.9807
 4977SOL     OW26566   4.500   1.023   9.038  0.2091 -0.1369 -0.8568
 4977SOL    HW126567   4.411   0.992   9.056 -0.4656  1.6359 -1.1634
 4977SOL    HW226568   4.493   1.115   9.065  1.2120  0.0795 -1.3783
 4978SOL     OW26569   2.918   2.235   6.805 -0.3688  0.1814 -0.0990
 4978SOL    HW126570   2.852   2.273   6.863 -1.6679 -1.3111 -0.6053
 4978SOL    HW226571   2.999   2.239   6.856  0.6023 -1.7703 -1.4724
 4979SOL     OW26572   1.079   2.981   5.331 -0.5641 -0.8138  0.3055
 4979SOL    HW126573   1.080   2.985   5.427  0.7856  1.2818  0.2139
 4979SOL    HW226574   0.989   3.007   5.315 -1.0897 -2.7481  0.1679
 4980SOL     OW26575   0.299   3.838   6.763  0.2353 -0.3825  0.1470
 4980SOL    HW126576   0.222   3.781   6.768 -1.8210  2.6586  3.0361
 4980SOL    HW226577   0.298   3.903   6.833  0.6419  0.7939 -0.9361
 4981SOL     OW26578   1.157   0.110   6.225  0.6671  0.8911  0.7238
 4981SOL    HW126579   1.095   0.142   6.291 -0.7660  1.0015 -0.6996
 4981SOL    HW226580   1.104   0.056   6.167 -0.8831  2.5827  0.5733
 4982SOL     OW26581   2.357   0.283  14.878 -0.0640 -0.2954 -0.5346
 4982SOL    HW126582   2.389   0.290  14.788 -1.2387  0.0325 -0.9358
 4982SOL    HW226583   2.352   0.191  14.906  0.7107  0.2662  1.3933
 4983SOL     OW26584   1.142   0.784  17.256 -0.3713  0.0947  0.2032
 4983SOL    HW126585   1.197   0.753  17.184  0.3864  2.1774 -0.1012
 4983SOL    HW226586   1.096   0.708  17.291 -0.4912  0.1118  0.0834
 4984SOL     OW26587   0.325   2.859   4.220  0.0400  0.1966 -0.9098
 4984SOL    HW126588   0.288   2.786   4.270 -3.1141  1.1224 -1.9020
 4984SOL    HW226589   0.275   2.845   4.140  0.7842  0.8715 -1.4836
 4985SOL     OW26590   3.407   4.321   6.696  0.2271  0.2867  0.1651
 4985SOL    HW126591   3.364   4.310   6.611 -1.7100 -0.6974  1.2529
 4985SOL    HW226592   3.332   4.309   6.754  0.5683  0.7158  0.6929
 4986SOL     OW26593   2.182   0.496  13.667  0.4473 -0.1099  0.6551
 4986SOL    HW126594   2.253   0.432  13.671 -0.4990 -1.1456  0.7658
 4986SOL    HW226595   2.123   0.448  13.609  1.0451 -0.6112  0.4602
 4987SOL     OW26596   2.456   1.995   6.447  0.1426 -0.0437 -0.0346
 4987SOL    HW126597   2.393   1.931   6.414  1.3515 -1.3879  0.2887
 4987SOL    HW226598   2.417   2.016   6.532  3.4295 -0.2974  1.5272
 4988SOL     OW26599   0.297   1.397  13.850 -0.3741  0.0811 -0.0849
 4988SOL    HW126600   0.390   1.395  13.872 -0.2842  0.7011 -0.3941
 4988SOL    HW226601   0.269   1.313  13.886  0.8490 -0.3353 -0.1099
 4989SOL     OW26602   3.723   4.206   1.783  0.6195 -0.4553 -0.1443
 4989SOL    HW126603   3.698   4.118   1.811 -0.7873  0.2593  0.8905
 4989SOL    HW226604   3.642   4.254   1.763  1.5808  1.1775 -0.0970
 4990SOL     OW26605   1.700   2.913   2.619 -0.5856  0.2567  0.3393
 4990SOL    HW126606   1.697   3.008   2.633 -0.4952 -0.0393  2.3646
 4990SOL    HW226607   1.737   2.885   2.703 -1.2519 -1.5982  0.0194
 4991SOL     OW26608   3.436   4.064   7.119  0.2676  0.3066 -0.3526
 4991SOL    HW126609   3.510   4.124   7.133 -0.4346  0.4835  2.5491
 4991SOL    HW226610   3.398   4.082   7.205 -0.1045  0.5228 -0.5618
 4992SOL     OW26611   2.312   0.801   3.020 -0.8818  0.4843 -0.1385
 4992SOL    HW126612   2.335   0.730   3.080  3.5160  1.6908 -0.4206
 4992SOL    HW226613   2.298   0.755   2.938  0.6024  0.3291 -0.2910
 4993SOL     OW26614   3.937   0.146  12.726 -0.2398  0.2079 -0.2480
 4993SOL    HW126615   3.848   0.127  12.698  0.1487 -0.3927 -1.0502
 4993SOL    HW226616   3.995   0.136  12.651 -1.6289 -1.5365 -1.0741
 4994SOL     OW26617   3.259   2.457  15.120 -0.3348  0.8856  0.1343
 4994SOL    HW126618   3.339   2.453  15.173  0.3336 -1.8527 -1.0584
 4994SOL    HW226619   3.189   2.432  15.180  1.5673  1.9664  2.8197
 4995SOL     OW26620   4.002   4.540   3.820  0.1267 -0.2989 -0.4718
 4995SOL    HW126621   4.034   4.614   3.769  1.6648 -0.7432 -0.1566
 4995SOL    HW226622   4.071   4.534   3.886  0.3805  0.1655 -0.6986
 4996SOL     OW26623   1.409   0.480   4.099  0.1754  0.3934  0.2327
 4996SOL    HW126624   1.379   0.398   4.137  0.9798  0.1167  0.2688
 4996SOL    HW226625   1.489   0.454   4.054 -0.0181  1.6960 -0.8572
 4997SOL     OW26626   1.399   0.009   8.056 -0.3852 -0.5511 -0.2506
 4997SOL    HW126627   1.333   4.727   7.989 -0.6380  0.0926 -0.1591
 4997SOL    HW226628   1.401   0.104   8.067  1.2117 -0.5381 -0.6620
 4998SOL     OW26629   4.023   2.087  15.901  0.3287 -0.1681  0.2366
 4998SOL    HW126630   3.974   2.149  15.954  1.3279  1.0044 -0.2305
 4998SOL    HW226631   3.978   2.088  15.816 -1.7113  0.3305  1.3244
 4999SOL     OW26632   2.458   3.760   7.775 -0.7313 -0.0418 -0.2087
 4999SOL    HW126633   2.489   3.834   7.723 -2.7574  0.3401 -0.8509
 4999SOL    HW226634   2.442   3.803   7.859  0.9432 -1.1366  0.6878
 5000SOL     OW26635   1.781   2.691  16.400  0.4789 -0.0537  0.1041
 5000SOL    HW126636   1.814   2.777  16.427  1.6426  0.3119 -2.5620
 5000SOL    HW226637   1.831   2.666  16.323 -2.0137 -0.3287 -1.4200
 5001SOL     OW26638   4.650   4.169  17.080 -0.0392  0.0464 -0.1659
 5001SOL    HW126639   4.650   4.255  17.037 -0.1733  0.5821  0.8762
 5001SOL    HW226640   4.702   4.182  17.159  2.5644 -1.9525 -1.5725
 5002SOL     OW26641   1.850   4.588   2.768  0.0081  0.0716 -0.4924
 5002SOL    HW126642   1.839   4.681   2.751 -1.5677 -0.1978 -0.9043
 5002SOL    HW226643   1.761   4.566   2.796 -0.0401  0.1527 -0.5835
 5003SOL     OW26644   0.410   0.621   9.576 -0.4425  0.5232  0.0870
 5003SOL    HW126645   0.339   0.645   9.517  0.1212  1.0371 -0.3934
 5003SOL    HW226646   0.402   0.526   9.571  0.8182  0.4448 -0.5998
 5004SOL     OW26647   0.028   0.522   3.855  0.5628 -0.0459  0.4545
 5004SOL    HW126648   4.709   0.597   3.831 -0.7512 -0.6946  1.3705
 5004SOL    HW226649   0.109   0.557   3.892  1.6280 -2.3046  0.2820
 5005SOL     OW26650   3.184   1.266   3.908 -0.0130  0.4365  0.0043
 5005SOL    HW126651   3.148   1.331   3.848 -0.9908 -0.2687 -0.1608
 5005SOL    HW226652   3.191   1.187   3.854 -0.9328 -0.1074  0.6719
 5006SOL     OW26653   0.274   4.549  10.275  0.1296 -0.1244 -0.1814
 5006SOL    HW126654   0.186   4.549  10.237  0.2336  1.4004 -0.4368
 5006SOL    HW226655   0.278   4.631  10.323  0.2441 -2.0844  3.1400
 5007SOL     OW26656   0.175   1.646  13.842  0.9258  0.1305 -0.2772
 5007SOL    HW126657   0.218   1.560  13.844  0.1789 -0.2947 -1.9615
 5007SOL    HW226658   0.226   1.704  13.898  0.6286 -2.0140  2.2179
 5008SOL     OW26659   4.526   0.304   1.802  0.0474  0.2122  0.1492
 5008SOL    HW126660   4.459   0.371   1.791 -2.4261 -2.2553  0.2553
 5008SOL    HW226661   4.489   0.230   1.754 -0.1102  0.5619 -0.2699
 5009SOL     OW26662   3.425   1.861   5.449 -0.3851 -0.1331 -0.2573
 5009SOL    HW126663   3.335   1.892   5.448 -1.0010 -1.9497 -0.9904
 5009SOL    HW226664   3.470   1.942   5.472  0.9806 -1.1095  0.4956
 5010SOL     OW26665   2.394   4.525   5.009  0.0492  0.4065  0.4518
 5010SOL    HW126666   2.377   4.551   5.100  1.4238  0.5033  0.6750
 5010SOL    HW226667   2.464   4.588   4.991  1.2935 -0.5759  1.8164
 5011SOL     OW26668   2.696   4.468   7.668  0.0795 -0.2389  0.2126
 5011SOL    HW126669   2.641   4.533   7.625 -0.6068 -1.9496 -1.5109
 5011SOL    HW226670   2.637   4.405   7.708 -1.2253  0.4217 -0.6460
 5012SOL     OW26671   3.880   1.175  11.595  0.1890  0.4241  0.2045
 5012SOL    HW126672   3.906   1.129  11.515 -0.8128 -0.0414  0.1432
 5012SOL    HW226673   3.785   1.178  11.581 -0.1087  0.4947  2.2803
 5013SOL     OW26674   2.165   2.332  12.746  0.4242  0.8375 -0.1144
 5013SOL    HW126675   2.180   2.366  12.658 -0.4814  0.3749 -0.4505
 5013SOL    HW226676   2.254   2.327  12.780 -0.1458  0.9425  1.4450
 5014SOL     OW26677   0.265   3.440  14.956  0.4254  0.0034  0.3374
 5014SOL    HW126678   0.200   3.440  14.886 -0.3310  1.4487  1.0595
 5014SOL    HW226679   0.254   3.517  15.011  0.7350 -0.4929  1.0982
 5015SOL     OW26680   1.699   2.127  17.622 -0.6540  0.2620  0.3864
 5015SOL    HW126681   1.788   2.095  17.608 -0.3136  0.8895  1.1559
 5015SOL    HW226682   1.721   2.213  17.658 -0.8362  0.4645  0.0044
 5016SOL     OW26683   4.347   3.411   8.514 -0.4520 -0.2634 -0.0084
 5016SOL    HW126684   4.425   3.379   8.559  1.3013  4.4969  0.2987
 5016SOL    HW226685   4.371   3.363   8.434  0.4259 -1.0054  0.7086
 5017SOL     OW26686   4.555   3.172   5.467 -0.3520  0.0845 -0.0807
 5017SOL    HW126687   4.555   3.264   5.495  1.2919  0.8431 -2.5879
 5017SOL    HW226688   4.510   3.185   5.383 -0.6284 -2.1733 -0.2675
 5018SOL     OW26689   2.071   3.743   8.032  0.4735  0.6255 -0.0658
 5018SOL    HW126690   2.006   3.811   8.050 -3.2429 -2.6510 -1.1153
 5018SOL    HW226691   2.091   3.689   8.107  2.3909  0.9508 -0.3554
 5019SOL     OW26692   1.125   4.423   3.420 -0.7462 -0.4890 -0.1236
 5019SOL    HW126693   1.214   4.389   3.417 -0.4198  0.2409  1.4942
 5019SOL    HW226694   1.099   4.386   3.504  0.9017 -1.3061  0.0301
 5020SOL     OW26695   0.985   1.202  12.675  0.0574  0.5422  0.2080
 5020SOL    HW126696   1.013   1.262  12.744  0.9047  1.7385 -1.1632
 5020SOL    HW226697   1.021   1.248  12.599  0.4126  2.0850  1.3234
 5021SOL     OW26698   1.610   3.027   3.955  0.4015  0.3215 -0.5496
 5021SOL    HW126699   1.651   3.108   3.924 -0.1593  1.6972  2.2731
 5021SOL    HW226700   1.689   2.985   3.989  1.5666  2.0366 -1.1167
 5022SOL     OW26701   4.335   3.858   6.561 -0.9084  0.0024 -0.3126
 5022SOL    HW126702   4.289   3.884   6.641  2.3601  2.3472  0.7824
 5022SOL    HW226703   4.387   3.936   6.546  1.4762 -1.2919  1.3492
 5023SOL     OW26704   3.322   3.391   2.205 -0.2412 -0.1275  0.1709
 5023SOL    HW126705   3.295   3.328   2.138  2.5452  1.3602 -2.3348
 5023SOL    HW226706   3.405   3.423   2.170 -0.8430  0.5604 -0.6419
 5024SOL     OW26707   2.978   0.080   6.654  0.3145 -0.3679  0.3459
 5024SOL    HW126708   2.996   0.037   6.570  0.8325  0.1285  0.2025
 5024SOL    HW226709   3.060   0.063   6.700  0.0873  0.2401  0.9605
 5025SOL     OW26710   2.158   3.060  11.321  0.0438  0.5246 -0.0813
 5025SOL    HW126711   2.125   3.011  11.396 -2.6620  2.2448 -0.1548
 5025SOL    HW226712   2.249   3.028  11.320 -0.0851  0.0985  1.3908
 5026SOL     OW26713   3.016   2.334  12.908 -0.1297  0.1714 -0.7015
 5026SOL    HW126714   2.980   2.398  12.969 -0.5919 -0.9410  0.1899
 5026SOL    HW226715   3.056   2.284  12.979 -1.2959 -0.6497 -0.6217
 5027SOL     OW26716   3.370   0.465   2.216 -0.1123  0.3254  0.4190
 5027SOL    HW126717   3.332   0.380   2.195 -0.4807  0.6225 -0.1307
 5027SOL    HW226718   3.465   0.456   2.224  0.2085  0.2004 -3.4328
 5028SOL     OW26719   4.114   1.198   4.970 -0.5353 -0.2154 -0.9801
 5028SOL    HW126720   4.053   1.263   4.934  0.2128 -0.3940 -2.5839
 5028SOL    HW226721   4.054   1.146   5.023 -0.2089  4.0483  3.4714
 5029SOL     OW26722   1.569   0.291   4.704  0.3425  0.3904  0.0947
 5029SOL    HW126723   1.493   0.346   4.722  2.2468  2.5253  1.5722
 5029SOL    HW226724   1.609   0.300   4.791  0.9538 -0.5744 -0.0900
 5030SOL     OW26725   1.407   1.452   5.540 -0.2637 -0.3359  0.1831
 5030SOL    HW126726   1.409   1.531   5.486 -0.1540 -1.0471 -0.8715
 5030SOL    HW226727   1.426   1.497   5.622 -2.3067 -0.5938  0.8097
 5031SOL     OW26728   1.909   0.088   6.234  0.2417  0.7253  0.2592
 5031SOL    HW126729   1.887   0.165   6.182 -0.2586  2.3200  2.8596
 5031SOL    HW226730   1.831   0.034   6.223  0.6704 -0.0147  0.8463
 5032SOL     OW26731   4.465   0.363   8.224 -0.6683 -0.0226 -0.2669
 5032SOL    HW126732   4.403   0.436   8.218 -1.6317 -0.7715  0.4774
 5032SOL    HW226733   4.533   0.380   8.158 -0.6196 -2.3357 -0.8255
 5033SOL     OW26734   4.586   4.406   2.796  0.2187  0.0283  0.3177
 5033SOL    HW126735   4.630   4.461   2.860 -0.6595  0.2758  0.7088
 5033SOL    HW226736   4.592   4.465   2.721 -1.2466  0.2031  0.3433
 5034SOL     OW26737   4.684   3.322   6.046 -0.2896 -0.2865  0.6608
 5034SOL    HW126738   4.673   3.398   5.989  4.1286 -1.9956 -2.4583
 5034SOL    HW226739   4.674   3.258   5.975 -0.5072  0.7449 -0.2567
 5035SOL     OW26740   2.164   4.167   8.009 -0.9883  0.2695  0.0818
 5035SOL    HW126741   2.158   4.194   8.100  1.4816 -1.8765  0.8718
 5035SOL    HW226742   2.142   4.249   7.964 -1.1692 -1.1768 -2.4464
 5036SOL     OW26743   4.163   4.396   1.037 -0.8018  0.5424  0.2106
 5036SOL    HW126744   4.158   4.313   0.989 -0.4119  0.3610  0.4880
 5036SOL    HW226745   4.214   4.369   1.113 -0.1000  1.1625 -0.0395
 5037SOL     OW26746   1.779   1.851  14.668  0.2158  0.0673  0.2387
 5037SOL    HW126747   1.870   1.876  14.684  0.4046 -0.1334 -0.5043
 5037SOL    HW226748   1.751   1.888  14.584  1.1460 -0.1357 -0.1599
 5038SOL     OW26749   2.254   1.038  15.768  0.6647 -0.0602  0.1027
 5038SOL    HW126750   2.235   0.966  15.828  2.3888 -1.0136 -0.4701
 5038SOL    HW226751   2.291   0.994  15.691  0.1447  1.3106 -0.9192
 5039SOL     OW26752   2.473   0.201  14.342 -0.0238 -0.2427 -0.2895
 5039SOL    HW126753   2.378   0.189  14.346  0.2145 -2.0564  0.0031
 5039SOL    HW226754   2.482   0.222  14.249  1.7170  2.9176  0.6138
 5040SOL     OW26755   4.608   3.086   2.786  0.7218 -0.1882 -0.2502
 5040SOL    HW126756   4.603   3.181   2.773  1.2761  0.0312  1.1514
 5040SOL    HW226757   4.526   3.051   2.751  1.2257 -0.4679 -1.1671
 5041SOL     OW26758   0.753   3.247   1.519 -0.1029 -0.9135  0.5951
 5041SOL    HW126759   0.811   3.171   1.509  0.4322 -0.1434 -1.9789
 5041SOL    HW226760   0.676   3.222   1.469 -0.4653 -1.9283  1.6496
 5042SOL     OW26761   0.098   4.515   6.568  0.0425 -0.4371  0.1875
 5042SOL    HW126762   0.013   4.555   6.551  0.5057  0.7029  0.5573
 5042SOL    HW226763   0.141   4.571   6.633 -0.4554 -1.7208  1.6127
 5043SOL     OW26764   3.235   1.935   1.659 -0.2316 -0.0069 -0.2121
 5043SOL    HW126765   3.151   1.927   1.703  0.2263  0.4748  0.7595
 5043SOL    HW226766   3.227   2.017   1.611 -1.3688 -0.5399 -0.9188
 5044SOL     OW26767   2.507   3.363  14.848  0.2034  0.0585 -0.2302
 5044SOL    HW126768   2.455   3.384  14.771 -0.6027  4.4363  1.4571
 5044SOL    HW226769   2.546   3.285  14.811  2.4577  0.9820  0.1685
 5045SOL     OW26770   1.258   1.190  11.651 -0.4377  0.5476 -0.5806
 5045SOL    HW126771   1.256   1.228  11.739  2.2168  1.0794 -0.7519
 5045SOL    HW226772   1.213   1.250  11.591  1.5782  1.9730 -0.6841
 5046SOL     OW26773   0.738   0.445   1.483 -0.3650 -0.1865  0.2247
 5046SOL    HW126774   0.802   0.494   1.430  0.6003 -1.2349  0.4185
 5046SOL    HW226775   0.761   0.478   1.570 -0.3305  3.1339 -1.0156
 5047SOL     OW26776   0.584   0.452   6.172  0.3193 -0.0344 -0.2394
 5047SOL    HW126777   0.545   0.427   6.256 -0.9605 -1.1458 -1.1692
 5047SOL    HW226778   0.605   0.542   6.199 -1.5981 -0.2182  1.9018
 5048SOL     OW26779   2.873   3.908   1.783 -0.1820 -0.1317  0.2499
 5048SOL    HW126780   2.850   3.861   1.703 -0.2146 -0.8672  0.6823
 5048SOL    HW226781   2.882   3.834   1.844 -0.7629 -0.7531 -0.4102
 5049SOL     OW26782   3.862   3.455  15.891  0.1003 -0.9893  0.2060
 5049SOL    HW126783   3.922   3.390  15.854  0.6748  0.2683 -1.0629
 5049SOL    HW226784   3.893   3.465  15.982 -3.5127  0.9598  1.2130
 5050SOL     OW26785   3.742   1.686   1.931 -0.6069  0.1890  0.4221
 5050SOL    HW126786   3.761   1.701   2.023 -1.2466  0.4706  0.5070
 5050SOL    HW226787   3.775   1.764   1.884 -0.7939  1.0370  1.6940
 5051SOL     OW26788   3.151   2.578  12.898 -0.3115  0.1521  0.1915
 5051SOL    HW126789   3.104   2.496  12.884 -1.4571  1.0810 -1.3164
 5051SOL    HW226790   3.158   2.576  12.994 -1.5006  1.2038  0.3061
 5052SOL     OW26791   4.177   4.518   4.037  0.2081  0.6140 -0.2337
 5052SOL    HW126792   4.095   4.499   4.082  0.5710  0.5225  0.3859
 5052SOL    HW226793   4.244   4.465   4.079  0.8466 -0.2485 -2.3422
 5053SOL     OW26794   4.002   2.648   1.892  0.3580  0.1516  0.1592
 5053SOL    HW126795   3.960   2.562   1.898  1.4685 -0.3886  0.1611
 5053SOL    HW226796   3.930   2.701   1.926  1.0851  0.8785  0.5695
 5054SOL     OW26797   2.844   2.578   8.641 -0.6456 -0.0856  0.2094
 5054SOL    HW126798   2.897   2.540   8.571 -1.4461  1.1127 -1.0421
 5054SOL    HW226799   2.757   2.562   8.605 -0.5792  1.3404 -0.5977
 5055SOL     OW26800   3.790   3.667   2.210  0.1670 -0.1390  0.1008
 5055SOL    HW126801   3.716   3.608   2.197 -1.8526  2.3339  0.4575
 5055SOL    HW226802   3.760   3.703   2.293  0.7405 -0.3327  0.3964
 5056SOL     OW26803   3.483   3.964   9.813 -0.3562  0.4751 -0.3952
 5056SOL    HW126804   3.568   3.924   9.831 -0.1597  1.8405  1.6513
 5056SOL    HW226805   3.454   4.002   9.896 -1.4629 -1.0213 -0.0823
 5057SOL     OW26806   4.201   0.211   6.218  0.3557 -0.0606  0.4449
 5057SOL    HW126807   4.135   0.167   6.273  0.3108  0.3243  0.6983
 5057SOL    HW226808   4.282   0.215   6.269  0.0827 -1.2698  0.9746
 5058SOL     OW26809   2.318   3.218  17.680 -0.4456 -0.4103  0.1601
 5058SOL    HW126810   2.308   3.233  17.586  0.1802 -0.1681  0.1368
 5058SOL    HW226811   2.394   3.160  17.682 -0.4072 -0.4076 -0.8556
 5059SOL     OW26812   0.191   3.664   5.983 -0.3274 -0.4364 -0.3950
 5059SOL    HW126813   0.125   3.733   5.990 -0.9081 -0.9653 -0.6100
 5059SOL    HW226814   0.189   3.638   6.075 -1.9722  2.8646  0.4907
 5060SOL     OW26815   2.316   1.389   4.685  0.1551  0.1429  0.1405
 5060SOL    HW126816   2.355   1.305   4.709  1.2513  0.9988  1.3466
 5060SOL    HW226817   2.380   1.408   4.617 -0.7729  1.3082 -0.4115
 5061SOL     OW26818   0.369   3.187   9.160 -0.0295 -0.6191  0.2317
 5061SOL    HW126819   0.436   3.233   9.110 -0.0074  1.5134  2.2356
 5061SOL    HW226820   0.422   3.114   9.193 -2.6476 -1.6994  2.0532
 5062SOL     OW26821   1.160   3.792   3.061  0.0077 -0.6293 -0.0516
 5062SOL    HW126822   1.245   3.749   3.066  0.1322 -0.4298 -0.4107
 5062SOL    HW226823   1.149   3.797   2.966  0.9944 -0.2024 -0.1392
 5063SOL     OW26824   0.086   4.507   5.651  0.2100 -0.3520 -0.6265
 5063SOL    HW126825   0.094   4.552   5.568 -0.5179  2.1110  0.6538
 5063SOL    HW226826   0.090   4.416   5.620 -1.0375 -0.0513 -1.6645
 5064SOL     OW26827   3.604   1.378   4.227 -0.3581  0.4365  1.0153
 5064SOL    HW126828   3.679   1.368   4.168  0.5369  1.7604  1.9515
 5064SOL    HW226829   3.537   1.340   4.170  0.5583 -0.9220  0.8527
 5065SOL     OW26830   3.707   2.919   8.798  0.3328  0.1220 -0.0190
 5065SOL    HW126831   3.784   2.868   8.773  0.9730 -0.6970  3.5253
 5065SOL    HW226832   3.667   2.853   8.854 -0.8211 -0.2583 -1.3186
 5066SOL     OW26833   0.565   0.915   1.873 -0.2310 -0.2247 -0.1680
 5066SOL    HW126834   0.561   0.841   1.933  2.4624 -0.1838  0.0583
 5066SOL    HW226835   0.473   0.938   1.862 -0.3401  0.6209  2.5828
 5067SOL     OW26836   3.175   4.326  17.417 -0.5367  0.2599 -0.0856
 5067SOL    HW126837   3.182   4.274  17.336 -2.4272 -1.3374  0.8000
 5067SOL    HW226838   3.265   4.358  17.414 -0.7283  0.6083 -2.1332
 5068SOL     OW26839   2.367   4.389   4.191  0.3770  0.3637  0.3189
 5068SOL    HW126840   2.339   4.480   4.206  0.9186  0.9002 -1.7901
 5068SOL    HW226841   2.402   4.386   4.102  0.5134 -3.1002  0.4932
 5069SOL     OW26842   2.232   3.755   3.135 -0.3084  0.1531  0.2435
 5069SOL    HW126843   2.168   3.687   3.116 -1.4670  1.5409 -0.7991
 5069SOL    HW226844   2.277   3.747   3.050 -2.4873 -3.1021 -0.6128
 5070SOL     OW26845   1.151   3.150  12.113 -0.5241 -0.3345 -0.2861
 5070SOL    HW126846   1.226   3.117  12.065 -1.3791 -0.9937 -1.1760
 5070SOL    HW226847   1.175   3.120  12.201  0.7276  3.9611  0.8286
 5071SOL     OW26848   2.155   2.033   2.744  0.4470  0.5967 -0.5250
 5071SOL    HW126849   2.244   2.046   2.711  0.7051 -0.3981 -0.2291
 5071SOL    HW226850   2.100   2.082   2.683 -1.0819  1.6324  1.6799
 5072SOL     OW26851   2.321   2.429   9.706  0.9804 -0.2921 -0.7778
 5072SOL    HW126852   2.268   2.403   9.631 -1.9183  0.2385  1.1160
 5072SOL    HW226853   2.310   2.524   9.702 -2.1706 -0.7158 -1.8614
 5073SOL     OW26854   4.595   1.529  15.510 -0.6897 -0.1510  0.0070
 5073SOL    HW126855   4.638   1.600  15.463 -1.8097 -0.3289 -1.2841
 5073SOL    HW226856   4.554   1.475  15.443  1.2901 -2.5555  0.7021
 5074SOL     OW26857   1.843   0.796   7.660  0.5616  0.2410 -0.1125
 5074SOL    HW126858   1.886   0.881   7.671 -1.3874  1.1939 -0.0331
 5074SOL    HW226859   1.765   0.803   7.715 -0.3222 -1.4626 -1.1505
 5075SOL     OW26860   0.610   0.747   1.532  0.6207 -0.1436 -0.6716
 5075SOL    HW126861   0.673   0.681   1.560 -0.2050  0.2522  2.0326
 5075SOL    HW226862   0.633   0.823   1.584  2.4292 -0.7371 -0.6132
 5076SOL     OW26863   4.378   4.661   5.445 -0.3348  0.1846 -0.4498
 5076SOL    HW126864   4.308   4.727   5.446 -1.8944 -1.4728  1.3151
 5076SOL    HW226865   4.409   4.661   5.355  0.4686 -0.6093 -0.1667
 5077SOL     OW26866   0.708   2.815   0.571  0.9636 -0.1026 -0.3157
 5077SOL    HW126867   0.634   2.871   0.551  1.8397  0.5160 -1.8044
 5077SOL    HW226868   0.780   2.857   0.524  1.2214 -0.1942 -0.0004
 5078SOL     OW26869   0.521   3.658   9.095  0.0672 -0.1896 -0.1548
 5078SOL    HW126870   0.533   3.746   9.130 -1.9992 -1.2768  3.3053
 5078SOL    HW226871   0.543   3.604   9.172  1.4575 -1.3473 -1.3595
 5079SOL     OW26872   3.135   0.739  11.889 -0.5759 -0.8329 -0.1656
 5079SOL    HW126873   3.163   0.822  11.926 -0.8743 -1.0052  0.4451
 5079SOL    HW226874   3.062   0.713  11.946 -1.2668  0.9893 -0.2412
 5080SOL     OW26875   4.319   2.130  15.879  0.3336  0.4915  0.4523
 5080SOL    HW126876   4.316   2.152  15.786 -1.5433  1.5887  0.7543
 5080SOL    HW226877   4.278   2.044  15.888  1.1223 -0.1349 -2.0632
 5081SOL     OW26878   0.687   4.703   2.959 -0.0509 -0.1431  0.1612
 5081SOL    HW126879   0.620   4.635   2.960 -1.2905  1.0605 -0.6518
 5081SOL    HW226880   0.639   0.043   2.923  0.5837  0.7689  1.2086
 5082SOL     OW26881   3.626   2.472   8.276  0.0614  0.6080  0.0190
 5082SOL    HW126882   3.703   2.523   8.250  0.4881 -1.0355 -1.8790
 5082SOL    HW226883   3.556   2.504   8.219  1.2135  3.1575  0.0291
 5083SOL     OW26884   3.631   0.883  17.290  0.4790  0.7378 -0.1569
 5083SOL    HW126885   3.565   0.945  17.321 -0.6842 -0.3469 -0.4201
 5083SOL    HW226886   3.638   0.821  17.363 -0.7344 -2.0130 -2.3637
 5084SOL     OW26887   1.988   0.402   7.421  0.2963  0.6562 -0.1994
 5084SOL    HW126888   2.055   0.361   7.366  1.4370  0.1703  1.5495
 5084SOL    HW226889   1.999   0.373   7.511 -1.2153 -0.3914 -0.3545
 5085SOL     OW26890   0.953   1.779  11.354 -0.5901 -0.3854  0.6109
 5085SOL    HW126891   0.943   1.720  11.429  2.1772  2.9886  3.6296
 5085SOL    HW226892   1.007   1.849  11.392  1.8060 -0.9584 -1.6820
 5086SOL     OW26893   1.462   4.287   5.018  0.2383 -0.0618 -0.2536
 5086SOL    HW126894   1.523   4.352   5.052  1.5279 -1.0370 -0.6900
 5086SOL    HW226895   1.452   4.226   5.090  1.4508 -0.2708 -0.2718
 5087SOL     OW26896   2.178   3.889   9.716  0.3463  0.5908 -0.8626
 5087SOL    HW126897   2.237   3.843   9.776 -0.9246  0.5824  0.3751
 5087SOL    HW226898   2.222   3.888   9.631 -0.4592  0.7857 -1.2828
 5088SOL     OW26899   3.827   2.299   8.777 -0.4877  0.4774  0.5738
 5088SOL    HW126900   3.873   2.274   8.697 -0.9764  2.0835 -0.2160
 5088SOL    HW226901   3.735   2.279   8.760 -0.9512 -1.1317  4.9948
 5089SOL     OW26902   1.495   0.283   3.237 -0.2264 -0.5221 -0.8040
 5089SOL    HW126903   1.488   0.377   3.252  2.6084 -0.3494 -0.5613
 5089SOL    HW226904   1.487   0.242   3.323 -1.7441 -1.0581 -1.1984
 5090SOL     OW26905   1.714   4.662  15.420  0.3561 -0.0830  0.1936
 5090SOL    HW126906   1.792   4.647  15.474  2.2706 -1.5261 -2.9070
 5090SOL    HW226907   1.752   4.654  15.332  1.3631 -0.1692  0.6289
 5091SOL     OW26908   2.266   3.449  15.291 -0.2854 -0.5372  0.1393
 5091SOL    HW126909   2.304   3.365  15.318 -0.3028  0.7682  4.2377
 5091SOL    HW226910   2.171   3.440  15.302 -0.7174  0.1057 -3.0050
 5092SOL     OW26911   1.279   4.128   7.343 -0.1862 -0.2972  0.1394
 5092SOL    HW126912   1.238   4.045   7.318  3.0792 -1.4718 -1.2899
 5092SOL    HW226913   1.371   4.106   7.357 -0.6099 -2.6927 -0.9798
 5093SOL     OW26914   4.365   1.716   4.729 -0.2199  0.2769 -0.1049
 5093SOL    HW126915   4.309   1.639   4.739 -0.3516  0.4762  0.6562
 5093SOL    HW226916   4.447   1.680   4.761 -1.6587 -4.2088 -1.4957
 5094SOL     OW26917   0.983   1.150   8.859  0.3539 -0.3007  0.4589
 5094SOL    HW126918   0.997   1.058   8.883 -1.4465  0.0315  2.8091
 5094SOL    HW226919   0.916   1.141   8.791  0.3400  0.9045  0.3227
 5095SOL     OW26920   0.742   3.169   4.624 -0.0066 -0.1631  0.1099
 5095SOL    HW126921   0.790   3.194   4.545 -0.8307 -1.0127 -0.6548
 5095SOL    HW226922   0.783   3.225   4.689 -0.9470  1.1665 -0.4486
 5096SOL     OW26923   0.004   2.244   2.195 -0.3431  0.3757  0.5759
 5096SOL    HW126924   4.698   2.176   2.248  0.7444 -0.3097  0.5408
 5096SOL    HW226925   0.047   2.293   2.265 -0.1795 -1.1003  1.5031
 5097SOL     OW26926   2.481   1.903   7.061 -0.3563  0.0169  0.1119
 5097SOL    HW126927   2.541   1.833   7.034  0.6321  0.3519  1.4469
 5097SOL    HW226928   2.507   1.966   6.993 -0.4342 -2.4471 -2.2175
 5098SOL     OW26929   3.620   3.726   8.604 -0.1617 -0.4835 -0.3609
 5098SOL    HW126930   3.540   3.742   8.553  0.2048 -1.0403 -1.1157
 5098SOL    HW226931   3.687   3.759   8.544 -0.4542  0.7209 -0.0253
 5099SOL     OW26932   0.356   1.218   1.152  0.1777 -0.4242  0.1640
 5099SOL    HW126933   0.318   1.160   1.086 -1.1612 -1.1348  1.5896
 5099SOL    HW226934   0.450   1.209   1.136 -0.0170  0.9055 -1.7429
 5100SOL     OW26935   0.198   0.140   7.874 -0.6523 -0.6917 -0.3476
 5100SOL    HW126936   0.135   0.212   7.867 -0.7004 -0.6610  0.4378
 5100SOL    HW226937   0.140   0.064   7.874 -0.5679 -0.7557 -0.1588
 5101SOL     OW26938   2.656   1.740  13.464 -0.5467  0.0605 -0.3316
 5101SOL    HW126939   2.659   1.684  13.386 -0.7070  0.9156 -0.9425
 5101SOL    HW226940   2.565   1.727  13.491  0.0046 -1.3738  0.8509
 5102SOL     OW26941   3.876   0.524   7.583  0.4002  0.0558  0.2116
 5102SOL    HW126942   3.837   0.550   7.666 -0.2540 -0.5856  0.1099
 5102SOL    HW226943   3.915   0.444   7.618  0.8739  0.4446  0.5539
 5103SOL     OW26944   1.809   2.988   0.135 -0.1957 -0.1121  0.0950
 5103SOL    HW126945   1.770   2.940   0.062 -1.4386  0.1830  0.5590
 5103SOL    HW226946   1.848   2.910   0.175 -2.6387 -2.0760 -1.3709
 5104SOL     OW26947   1.263   1.898  11.485 -0.0856 -0.0034 -0.3781
 5104SOL    HW126948   1.345   1.850  11.471 -0.5296 -0.5192 -1.2611
 5104SOL    HW226949   1.244   1.859  11.570 -1.1284  0.8856 -0.2060
 5105SOL     OW26950   2.910   2.269   3.957  0.2356 -0.4527 -0.1876
 5105SOL    HW126951   2.902   2.359   3.988  0.4532 -0.3670 -0.3843
 5105SOL    HW226952   2.997   2.270   3.918 -0.5314  0.8233 -1.8335
 5106SOL     OW26953   0.151   4.454   2.228  0.4292 -0.2179 -0.3706
 5106SOL    HW126954   0.073   4.499   2.198 -0.1932 -0.6409  0.6220
 5106SOL    HW226955   0.190   4.419   2.147 -0.8560 -2.7744  0.1059
 5107SOL     OW26956   1.926   2.467   1.516 -0.0829  0.6120 -0.0814
 5107SOL    HW126957   1.868   2.523   1.567 -1.4261 -0.9555  0.1260
 5107SOL    HW226958   2.005   2.498   1.561  0.6557 -1.3815  0.0006
 5108SOL     OW26959   2.461   0.006   9.913  0.0419  0.4569  1.0234
 5108SOL    HW126960   2.404   0.080   9.935  0.4990  1.9095 -2.6639
 5108SOL    HW226961   2.398   4.678   9.877  1.3153 -1.1752  1.6901
 5109SOL     OW26962   4.120   2.103   8.414 -0.4111  0.5244 -0.4828
 5109SOL    HW126963   4.043   2.046   8.421  0.8228 -1.1769 -0.7090
 5109SOL    HW226964   4.181   2.049   8.364 -0.5006  0.9792 -1.0784
 5110SOL     OW26965   4.039   4.371   4.995 -0.3319  0.0860  0.5794
 5110SOL    HW126966   3.965   4.336   5.044 -1.0701  0.8758  0.0398
 5110SOL    HW226967   4.006   4.394   4.909  0.0945  0.7222  0.5819
 5111SOL     OW26968   0.979   4.265   4.554 -0.8638  0.6245 -0.0574
 5111SOL    HW126969   0.979   4.211   4.475  0.5643  3.4101 -1.9462
 5111SOL    HW226970   0.885   4.282   4.561 -0.7018  1.4997  0.0123
 5112SOL     OW26971   3.156   1.073   1.100 -0.2064 -0.0810 -0.3746
 5112SOL    HW126972   3.101   1.000   1.128  0.2421  0.7151  2.6454
 5112SOL    HW226973   3.202   1.024   1.032  0.1721  1.7670 -1.4643
 5113SOL     OW26974   3.364   1.949  17.371 -0.1321 -0.3396 -0.4329
 5113SOL    HW126975   3.357   2.028  17.424  2.2483 -0.3582 -0.0935
 5113SOL    HW226976   3.424   1.982  17.304  0.4554 -0.3616  0.0879
 5114SOL     OW26977   1.914   1.174  14.317 -0.2437  0.4188 -0.1598
 5114SOL    HW126978   1.951   1.138  14.236  0.1652  0.6511 -0.0762
 5114SOL    HW226979   1.989   1.224  14.348 -1.0083  1.4385  0.0730
 5115SOL     OW26980   3.638   4.309   8.645  0.1113  0.8702 -0.1341
 5115SOL    HW126981   3.704   4.239   8.642  0.9104  1.6206 -0.2729
 5115SOL    HW226982   3.563   4.255   8.667  0.3293  1.0849  1.1585
 5116SOL     OW26983   3.190   1.394   2.002  0.7336 -0.6089  0.9717
 5116SOL    HW126984   3.218   1.349   1.923 -1.9981  2.6886 -1.8445
 5116SOL    HW226985   3.237   1.339   2.065  0.0493 -0.3100  1.7524
 5117SOL     OW26986   2.307   0.749   4.555  0.0760  0.0640 -0.4242
 5117SOL    HW126987   2.221   0.735   4.515 -0.1295  1.8432 -0.5908
 5117SOL    HW226988   2.356   0.685   4.504 -1.9862 -2.0119  0.1965
 5118SOL     OW26989   3.545   3.476   4.052 -0.1484  0.1189  0.1947
 5118SOL    HW126990   3.490   3.552   4.070  0.9015  0.6831  0.9776
 5118SOL    HW226991   3.556   3.437   4.138  0.0805 -0.4186 -0.0793
 5119SOL     OW26992   4.478   2.940  16.107  0.6004 -0.5752 -0.4766
 5119SOL    HW126993   4.549   2.972  16.163  0.8182  0.8080 -1.5499
 5119SOL    HW226994   4.403   2.993  16.133  0.5751 -0.5510 -0.5996
 5120SOL     OW26995   2.819   3.069   6.456  0.1716 -0.5939  0.1954
 5120SOL    HW126996   2.820   3.049   6.549 -3.8147  2.6720  0.9168
 5120SOL    HW226997   2.824   2.985   6.410  2.3648  0.7197 -2.0216
 5121SOL     OW26998   1.144   0.486   9.716  0.2889 -0.0444 -0.0739
 5121SOL    HW126999   1.197   0.564   9.704 -1.4064  1.1915  0.4677
 5121SOL    HW227000   1.056   0.523   9.718  0.7696  1.0789 -0.0072
 5122SOL     OW27001   0.625   1.208   1.121 -0.0047 -0.1154  0.0301
 5122SOL    HW127002   0.629   1.159   1.039  1.9585 -0.5504  0.3822
 5122SOL    HW227003   0.645   1.297   1.093 -2.5046 -0.0936 -1.6839
 5123SOL     OW27004   2.681   2.474   4.531  0.4509  0.1480  0.3756
 5123SOL    HW127005   2.757   2.416   4.521 -0.5021 -1.2593  1.2014
 5123SOL    HW227006   2.619   2.401   4.539  0.4068 -0.0038 -1.3794
 5124SOL     OW27007   3.630   0.140   3.359  0.3712  0.2137  0.1553
 5124SOL    HW127008   3.637   0.082   3.284 -0.6755  0.0541  0.1811
 5124SOL    HW227009   3.715   0.184   3.358  0.9897 -1.0376 -2.0654
 5125SOL     OW27010   0.353   0.499   7.641  0.1673  0.0675 -0.3738
 5125SOL    HW127011   0.321   0.569   7.584  0.1338 -0.0380 -0.4851
 5125SOL    HW227012   0.369   0.553   7.718 -0.1212 -0.4078  0.0161
 5126SOL     OW27013   3.812   4.389  12.943  0.3352  0.5223  0.0632
 5126SOL    HW127014   3.750   4.351  13.005  0.0568 -2.5186 -2.0804
 5126SOL    HW227015   3.762   4.463  12.909 -0.7708 -0.1015  0.3321
 5127SOL     OW27016   3.833   4.607  13.162 -0.1159 -0.3601 -0.2162
 5127SOL    HW127017   3.784   4.669  13.109 -2.3066 -0.2478  1.9259
 5127SOL    HW227018   3.899   4.583  13.097  0.4349 -1.0497  0.5811
 5128SOL     OW27019   2.208   1.914   8.556 -0.3305 -0.1644 -0.5499
 5128SOL    HW127020   2.241   1.969   8.486  0.3101  0.7484  0.4739
 5128SOL    HW227021   2.115   1.911   8.534 -0.1938  2.4519 -1.4324
 5129SOL     OW27022   3.332   1.647   9.858 -0.1792 -0.2250 -0.7974
 5129SOL    HW127023   3.337   1.742   9.854 -0.2537 -0.2666 -1.7714
 5129SOL    HW227024   3.271   1.626   9.787 -1.3973  1.0697 -0.1324
 5130SOL     OW27025   3.140   1.325   1.541 -0.2591  0.0600 -0.0997
 5130SOL    HW127026   3.221   1.344   1.494 -0.6407  0.6040 -0.5359
 5130SOL    HW227027   3.163   1.341   1.632  0.0213  1.5273 -0.4389
 5131SOL     OW27028   3.839   2.140  13.240  0.3291  0.3091 -0.1150
 5131SOL    HW127029   3.892   2.173  13.167  1.2117 -0.5446  0.1231
 5131SOL    HW227030   3.806   2.221  13.278 -0.4126  0.2641 -0.6717
 5132SOL     OW27031   4.672   4.542   3.043 -0.4647  0.0191  0.1017
 5132SOL    HW127032   4.688   4.600   3.117 -2.1438 -0.6999  1.0202
 5132SOL    HW227033   0.023   4.501   3.036  0.1479  1.2819  0.2779
 5133SOL     OW27034   3.392   4.540  10.844  0.0588 -0.0947 -0.5213
 5133SOL    HW127035   3.370   4.616  10.897  1.2053 -0.6392  0.7515
 5133SOL    HW227036   3.393   4.469  10.909 -0.7800  2.7092  2.6010
 5134SOL     OW27037   2.803   0.336   0.086 -0.1118  0.4184  0.0664
 5134SOL    HW127038   2.716   0.301   0.070  0.0286 -0.0660  0.3534
 5134SOL    HW227039   2.779   0.392   0.160 -0.3027 -0.8128  0.9420
 5135SOL     OW27040   0.795   2.605  11.362 -0.9300 -0.0886 -0.0531
 5135SOL    HW127041   0.722   2.633  11.307  0.1227  1.7316 -0.5472
 5135SOL    HW227042   0.755   2.533  11.410 -0.7429 -0.2713 -0.1709
 5136SOL     OW27043   1.929   4.137  14.242  0.4654 -0.4300  0.2000
 5136SOL    HW127044   1.886   4.124  14.157 -0.9957 -0.0050  0.8679
 5136SOL    HW227045   1.872   4.193  14.295  0.5003  1.5842 -1.8512
 5137SOL     OW27046   2.676   3.221   2.457  0.3766  0.5148  0.4925
 5137SOL    HW127047   2.613   3.157   2.491 -0.0462  0.3246 -0.6339
 5137SOL    HW227048   2.711   3.173   2.383 -1.3348  1.1732 -0.7439
 5138SOL     OW27049   1.982   4.572  17.670 -0.4749 -0.7118  0.0669
 5138SOL    HW127050   2.055   4.510  17.670  0.0226 -0.1304  0.3294
 5138SOL    HW227051   1.929   4.527  17.736 -1.3920 -0.7833 -0.7142
 5139SOL     OW27052   2.876   0.281   5.344 -0.2518  0.1120 -0.2309
 5139SOL    HW127053   2.925   0.208   5.307 -0.8457  0.3299 -1.4506
 5139SOL    HW227054   2.787   0.244   5.353 -0.8461  1.6791  0.4007
 5140SOL     OW27055   1.619   0.021  15.059 -0.2708  0.4686 -0.1179
 5140SOL    HW127056   1.705   0.002  15.096 -1.2031 -1.3825  1.0730
 5140SOL    HW227057   1.612   4.668  15.023  1.1993  0.3123 -0.0102
 5141SOL     OW27058   3.398   1.275   5.814 -0.1289 -0.2108 -0.0860
 5141SOL    HW127059   3.488   1.289   5.783 -0.4903 -2.4870 -2.1781
 5141SOL    HW227060   3.365   1.218   5.744 -0.4938 -0.0466 -0.0442
 5142SOL     OW27061   4.160   0.321   4.578 -0.2294  0.1237 -0.0403
 5142SOL    HW127062   4.097   0.282   4.516 -3.2321  0.6292  2.7233
 5142SOL    HW227063   4.157   0.409   4.541 -1.1531  0.6709  1.3673
 5143SOL     OW27064   4.719   2.044   5.251 -0.3038 -0.4570 -0.4366
 5143SOL    HW127065   4.724   1.950   5.234 -3.0817 -0.8664  1.1641
 5143SOL    HW227066   0.000   2.087   5.167  0.8560 -1.7890 -0.9089
 5144SOL     OW27067   2.522   2.188  14.231 -0.7150 -0.1587 -0.3410
 5144SOL    HW127068   2.535   2.188  14.326 -1.3264 -1.8696 -0.2619
 5144SOL    HW227069   2.573   2.263  14.200  3.6527 -2.6444  0.8462
 5145SOL     OW27070   0.684   2.362   5.596  0.1248 -0.9268 -0.4716
 5145SOL    HW127071   0.638   2.403   5.670 -0.8347  1.2323 -2.2689
 5145SOL    HW227072   0.775   2.373   5.625 -0.6038  2.4854  0.5311
 5146SOL     OW27073   1.370   0.700   9.492  0.1160 -0.1859  0.8091
 5146SOL    HW127074   1.387   0.707   9.586  0.4944  0.1587  0.7166
 5146SOL    HW227075   1.346   0.790   9.471 -0.5574  0.1614  3.0473
 5147SOL     OW27076   1.239   2.116   7.336 -0.2604 -0.2074  0.5778
 5147SOL    HW127077   1.229   2.206   7.308  1.0846 -0.5091 -0.8761
 5147SOL    HW227078   1.152   2.077   7.327  0.1179 -1.0136  0.4196
 5148SOL     OW27079   0.058   2.858   1.569  0.4742  0.3309  0.5553
 5148SOL    HW127080   0.149   2.853   1.541  0.0631 -3.0269 -0.1559
 5148SOL    HW227081   0.073   2.912   1.647  2.4400  1.0729 -0.3480
 5149SOL     OW27082   2.368   2.318   5.575 -0.1439  0.0465  0.1621
 5149SOL    HW127083   2.323   2.323   5.491 -0.2658  0.8847  0.2763
 5149SOL    HW227084   2.459   2.297   5.551  0.0173 -0.3553  1.1248
 5150SOL     OW27085   3.541   3.347   7.731 -0.2544  0.6423 -0.4589
 5150SOL    HW127086   3.459   3.301   7.714 -0.6534  0.6154  1.4970
 5150SOL    HW227087   3.505   3.408   7.795  1.2210  0.7747  0.2619
 5151SOL     OW27088   1.318   2.080   2.649  0.3046 -0.4165 -0.3296
 5151SOL    HW127089   1.336   2.049   2.561  0.7310 -0.4802 -0.2205
 5151SOL    HW227090   1.233   2.040   2.669  1.3607 -2.0083  1.0829
 5152SOL     OW27091   4.511   0.878  14.759  0.2384  0.0912  0.3597
 5152SOL    HW127092   4.569   0.878  14.834 -0.5306 -0.1446  0.9553
 5152SOL    HW227093   4.486   0.969  14.745  1.6864  0.2471 -1.2263
 5153SOL     OW27094   0.918   0.795   2.788  0.2867  0.3556 -0.2729
 5153SOL    HW127095   0.889   0.791   2.697  1.3390  1.4381 -0.6514
 5153SOL    HW227096   0.933   0.890   2.792  0.6474  0.2856  0.0391
 5154SOL     OW27097   0.121   2.760   3.346  0.1223 -0.2867 -0.1672
 5154SOL    HW127098   0.026   2.756   3.356  0.1851  0.5915  0.7831
 5154SOL    HW227099   0.148   2.804   3.426  0.4583  1.0219 -1.0031
 5155SOL     OW27100   4.216   1.974   1.695  0.3287 -0.2648 -0.0251
 5155SOL    HW127101   4.188   1.969   1.787  0.5977  2.1577  0.1835
 5155SOL    HW227102   4.136   1.956   1.647  0.2445  0.4859 -0.1579
 5156SOL     OW27103   2.005   1.117   9.156 -0.0320  0.5224  0.4510
 5156SOL    HW127104   1.955   1.080   9.083 -0.3300  0.5966  0.6176
 5156SOL    HW227105   2.064   1.176   9.110  0.3765 -1.0521 -1.0570
 5157SOL     OW27106   3.194   2.650  17.627  0.1112 -0.5261 -0.3527
 5157SOL    HW127107   3.214   2.728  17.679 -1.0261  0.5124 -1.4893
 5157SOL    HW227108   3.280   2.627  17.590 -0.1861 -0.8389 -0.8491
 5158SOL     OW27109   1.210   4.563  12.696 -0.2701  0.5489  0.0457
 5158SOL    HW127110   1.291   4.605  12.722  0.0960  0.1187 -0.4056
 5158SOL    HW227111   1.231   4.472  12.717 -1.4327  0.2553 -0.0266
 5159SOL     OW27112   4.043   0.275  12.951 -0.1399 -0.8675 -0.1915
 5159SOL    HW127113   3.983   0.237  12.887  0.0766  0.6160 -1.2570
 5159SOL    HW227114   4.122   0.222  12.937  1.0360  0.6940  0.5057
 5160SOL     OW27115   0.805   4.454   5.510  0.4572 -0.5950 -0.6271
 5160SOL    HW127116   0.808   4.506   5.430  0.6251  0.7965  0.2921
 5160SOL    HW227117   0.793   4.529   5.568 -1.0555 -0.9255 -0.5005
 5161SOL     OW27118   4.166   0.999   8.390 -0.2371  0.2265 -0.3007
 5161SOL    HW127119   4.102   1.049   8.339 -1.5283 -0.6669  0.4656
 5161SOL    HW227120   4.103   0.940   8.430 -0.9232  0.9793 -0.2771
 5162SOL     OW27121   4.124   0.082   4.046  0.0156  0.1358 -0.1857
 5162SOL    HW127122   4.143   4.725   4.060 -1.0276  0.0763  0.8476
 5162SOL    HW227123   4.210   0.122   4.037 -0.6662  1.6306 -0.0828
 5163SOL     OW27124   1.022   0.801  15.983  0.1151  0.0865 -0.4632
 5163SOL    HW127125   0.984   0.881  16.019 -1.3521 -0.7000 -0.2665
 5163SOL    HW227126   1.021   0.745  16.061  1.7969  1.2441  0.3887
 5164SOL     OW27127   2.114   4.436   3.998 -0.5251 -1.0380  0.4916
 5164SOL    HW127128   2.140   4.490   4.073 -0.0229  0.0988 -0.4906
 5164SOL    HW227129   2.190   4.419   3.943  0.6704  1.3090  1.3945
 5165SOL     OW27130   0.613   2.395   2.426  0.3342 -0.4807 -0.9937
 5165SOL    HW127131   0.638   2.339   2.499 -1.7540 -0.8822 -0.5949
 5165SOL    HW227132   0.544   2.346   2.382  1.1018 -2.1999 -0.2846
 5166SOL     OW27133   2.759   2.332   2.938 -0.2205  0.2618  0.4175
 5166SOL    HW127134   2.727   2.242   2.938  1.3270 -0.3030  1.4696
 5166SOL    HW227135   2.738   2.358   2.849  0.1671  0.1257  0.2851
 5167SOL     OW27136   3.155   4.545   2.635  0.0622  0.5221 -0.2425
 5167SOL    HW127137   3.072   4.516   2.597 -1.0579  0.4811  2.2372
 5167SOL    HW227138   3.125   4.556   2.725  3.1904 -0.9463  0.9650
 5168SOL     OW27139   3.868   4.325   9.104 -0.6634 -0.0040  0.4717
 5168SOL    HW127140   3.953   4.342   9.063 -0.6390 -0.9348  0.1294
 5168SOL    HW227141   3.893   4.350   9.192  0.3965  1.9124 -0.3763
 5169SOL     OW27142   3.852   4.262   5.214 -0.9383 -0.1940  0.3042
 5169SOL    HW127143   3.759   4.243   5.208 -1.1305  0.4710  1.2360
 5169SOL    HW227144   3.888   4.184   5.170 -1.7563 -1.3278  1.6407
 5170SOL     OW27145   0.242   2.928  15.335 -0.2664 -0.0403  0.4790
 5170SOL    HW127146   0.284   2.870  15.272  0.2070  1.7500 -0.8407
 5170SOL    HW227147   0.318   2.982  15.357 -0.3173  0.4722 -0.5795
 5171SOL     OW27148   4.371   3.457  12.616  0.0818 -0.6271 -0.3784
 5171SOL    HW127149   4.281   3.425  12.602 -0.8602  1.4342  1.0614
 5171SOL    HW227150   4.362   3.546  12.582  1.1140  0.8121  3.1202
 5172SOL     OW27151   2.947   3.560   0.016 -0.5076 -0.1007 -0.5913
 5172SOL    HW127152   2.977   3.611   0.092  0.3358  0.5627 -1.3640
 5172SOL    HW227153   2.940   3.628  17.687  0.0660  0.0157 -0.5291
 5173SOL     OW27154   2.567   1.211  10.312  0.1228 -1.1681 -0.4292
 5173SOL    HW127155   2.653   1.170  10.307  0.6164 -0.2038  0.0374
 5173SOL    HW227156   2.580   1.306  10.309 -3.5361 -0.6486  0.0697
 5174SOL     OW27157   0.444   2.482   8.439  0.7107  0.0053 -0.0036
 5174SOL    HW127158   0.440   2.386   8.429  1.6549 -0.0647  0.3245
 5174SOL    HW227159   0.403   2.516   8.359 -1.8183 -0.5147  1.0812
 5175SOL     OW27160   0.750   1.470   5.749 -0.0229 -0.9522 -0.9874
 5175SOL    HW127161   0.827   1.483   5.695  0.9126  0.8540  0.7623
 5175SOL    HW227162   0.780   1.515   5.829  1.8559 -0.8878 -1.7299
 5176SOL     OW27163   4.203   0.776   6.282 -0.2340 -0.2360  0.2233
 5176SOL    HW127164   4.115   0.753   6.252  0.1119  0.0262 -0.9758
 5176SOL    HW227165   4.178   0.791   6.373 -2.6274 -0.9508 -0.3140
 5177SOL     OW27166   2.566   3.535   4.012  0.0392  0.3644 -0.4516
 5177SOL    HW127167   2.581   3.615   3.961 -3.4119 -0.2966 -2.5174
 5177SOL    HW227168   2.483   3.508   3.973  0.1408 -1.7353  0.7965
 5178SOL     OW27169   0.900   0.870   1.961 -0.9551 -0.0189  0.1328
 5178SOL    HW127170   0.893   0.775   1.966  0.0374 -0.2378 -2.3882
 5178SOL    HW227171   0.890   0.883   1.866  0.5991 -1.9173 -0.2859
 5179SOL     OW27172   0.328   2.735   3.913  0.2037  0.1988 -0.1254
 5179SOL    HW127173   0.420   2.740   3.886  0.9582  0.4852  2.4582
 5179SOL    HW227174   0.333   2.667   3.980  1.2920  0.8246  0.4311
 5180SOL     OW27175   3.334   0.953   1.462 -0.1664  0.5939 -0.5437
 5180SOL    HW127176   3.390   1.025   1.433 -0.0168 -0.3947 -2.6742
 5180SOL    HW227177   3.326   0.969   1.556  1.2874 -0.9257 -0.1611
 5181SOL     OW27178   4.053   3.312  17.316 -0.1299  0.7504  0.5385
 5181SOL    HW127179   3.967   3.324  17.275 -0.3499  0.5484  0.9369
 5181SOL    HW227180   4.113   3.329  17.243  1.8774 -1.1243  1.7465
 5182SOL     OW27181   3.871   0.488  14.808  0.1790 -0.0017 -0.2860
 5182SOL    HW127182   3.912   0.499  14.723  0.0393 -0.7074 -0.4504
 5182SOL    HW227183   3.921   0.417  14.849  0.1639  1.4874  2.3144
 5183SOL     OW27184   1.537   2.673   5.734  0.3456  0.1550 -0.2577
 5183SOL    HW127185   1.473   2.617   5.691  0.6245  0.2262 -0.7640
 5183SOL    HW227186   1.605   2.662   5.667  1.2708 -0.9462  0.8604
 5184SOL     OW27187   3.874   3.836  10.171  0.6652  0.2405  0.2230
 5184SOL    HW127188   3.812   3.908  10.182  2.1876  1.8481 -1.7036
 5184SOL    HW227189   3.959   3.880  10.168  0.2458  1.0042 -0.4310
 5185SOL     OW27190   1.424   3.261   3.763 -0.3956 -0.4426  0.1552
 5185SOL    HW127191   1.466   3.276   3.678 -0.2227  0.2474  0.3665
 5185SOL    HW227192   1.353   3.325   3.761  1.0075  1.0881 -0.1533
 5186SOL     OW27193   3.359   1.252   2.180 -0.4595  0.2480  0.1340
 5186SOL    HW127194   3.412   1.327   2.207  0.6192 -0.1891 -0.7844
 5186SOL    HW227195   3.336   1.213   2.265  0.5853 -2.5721 -0.8825
 5187SOL     OW27196   0.509   0.216   1.170 -0.3290  0.2499  0.1202
 5187SOL    HW127197   0.566   0.174   1.106  1.1547  1.9820  0.2983
 5187SOL    HW227198   0.535   0.177   1.254  0.5042 -1.9209 -1.1561
 5188SOL     OW27199   3.021   4.224   2.991 -0.7651  0.0349  0.1010
 5188SOL    HW127200   3.098   4.181   3.026 -3.6270 -4.0423  1.4544
 5188SOL    HW227201   2.955   4.166   3.030  1.2091 -0.8289  2.1840
 5189SOL     OW27202   3.136   1.585   1.816  0.3672  0.6459 -0.1685
 5189SOL    HW127203   3.096   1.521   1.875 -1.8055  2.6328  0.5377
 5189SOL    HW227204   3.065   1.613   1.758 -0.2834  0.0726  0.3511
 5190SOL     OW27205   2.516   0.131   2.611 -0.4010  0.1202 -0.3200
 5190SOL    HW127206   2.433   0.148   2.656 -0.1920 -0.5458  0.3210
 5190SOL    HW227207   2.506   0.188   2.535 -1.4126  1.7555  1.0180
 5191SOL     OW27208   4.276   3.249  10.568 -0.3090 -0.5411 -0.2581
 5191SOL    HW127209   4.244   3.279  10.483  1.3692 -0.5058 -0.8742
 5191SOL    HW227210   4.335   3.320  10.592 -1.3739 -0.6336  2.7499
 5192SOL     OW27211   3.360   4.639   6.412  0.2520  0.0765  0.2879
 5192SOL    HW127212   3.416   4.678   6.345 -1.0007 -0.9496 -1.3488
 5192SOL    HW227213   3.375   4.545   6.401  0.4254  0.0718  0.5445
 5193SOL     OW27214   4.099   4.635   0.934  0.2942 -0.4681  0.2987
 5193SOL    HW127215   4.119   4.615   0.842  1.1432 -1.5314  0.7269
 5193SOL    HW227216   4.112   4.554   0.982  0.0575 -1.5043 -1.3673
 5194SOL     OW27217   1.577   4.103  11.174  0.3461  0.4192  0.4854
 5194SOL    HW127218   1.619   4.123  11.090 -0.0164 -2.8304 -0.4899
 5194SOL    HW227219   1.649   4.055  11.216  0.1306  0.1291  0.5247
 5195SOL     OW27220   1.051   2.106   0.546 -0.8564  0.5303 -0.6760
 5195SOL    HW127221   0.977   2.146   0.591  0.9195  2.3384  0.6033
 5195SOL    HW227222   1.043   2.143   0.458  0.0257  2.2011 -0.0469
 5196SOL     OW27223   0.087   0.981   7.493 -0.3077 -0.7493 -0.2922
 5196SOL    HW127224   0.074   0.999   7.586 -1.1323  0.6519 -0.6850
 5196SOL    HW227225   0.181   0.962   7.491 -0.1450  0.0145  0.2621
 5197SOL     OW27226   3.447   2.719   1.747 -0.1056 -0.6938  0.0265
 5197SOL    HW127227   3.446   2.694   1.655 -1.6565  0.2588 -0.2069
 5197SOL    HW227228   3.358   2.753   1.752  0.3312  0.2727  1.1030
 5198SOL     OW27229   2.649   4.295  13.686  0.8337  0.6857 -0.3581
 5198SOL    HW127230   2.674   4.300  13.778  0.3798  0.2373 -0.2033
 5198SOL    HW227231   2.732   4.268  13.647 -0.2308 -3.4097  0.1480
 5199SOL     OW27232   1.748   2.206   4.120 -0.3366 -0.3808  0.6296
 5199SOL    HW127233   1.687   2.278   4.136  0.7704  0.7950 -0.4988
 5199SOL    HW227234   1.823   2.237   4.171  0.3701 -1.1409  0.0549
 5200SOL     OW27235   2.331   2.240   4.322  0.2893  0.0112 -0.0574
 5200SOL    HW127236   2.288   2.307   4.375 -0.1139  1.3061 -2.0012
 5200SOL    HW227237   2.266   2.173   4.305 -1.5924  2.1493 -1.2196
 5201SOL     OW27238   4.734   3.832   5.898  0.1223 -0.0845  0.1127
 5201SOL    HW127239   4.650   3.821   5.853 -0.3715 -3.8034  1.9254
 5201SOL    HW227240   0.065   3.840   5.829  0.7066  1.5430  0.8587
 5202SOL     OW27241   3.282   4.422  12.323  0.4172 -0.1958 -0.1033
 5202SOL    HW127242   3.209   4.481  12.305 -1.0757 -2.1572 -0.5078
 5202SOL    HW227243   3.319   4.415  12.235  0.8153 -0.9469  0.1137
 5203SOL     OW27244   1.197   4.586   4.850  0.0824  0.4658 -0.4317
 5203SOL    HW127245   1.173   4.522   4.916  2.4145 -2.1413 -2.1133
 5203SOL    HW227246   1.172   4.539   4.770  0.8795  1.4964 -1.2942
 5204SOL     OW27247   0.715   0.738   3.139  0.3567  0.3002  0.2578
 5204SOL    HW127248   0.730   0.780   3.223 -1.9010 -0.1974  0.9239
 5204SOL    HW227249   0.657   0.803   3.098 -1.6660 -2.1489 -0.7935
 5205SOL     OW27250   0.005   3.369   6.911  0.0942 -0.9721 -0.3035
 5205SOL    HW127251   0.030   3.342   7.000  0.7654  0.9473  0.1043
 5205SOL    HW227252   0.067   3.318   6.859  0.6983  0.4550 -0.9900
 5206SOL     OW27253   4.414   0.728   0.626  0.2884 -0.4958  0.0469
 5206SOL    HW127254   4.337   0.766   0.585 -0.5028 -0.8237  1.2221
 5206SOL    HW227255   4.456   0.693   0.548 -0.0603  0.8997 -0.7759
 5207SOL     OW27256   3.484   2.046   2.716  0.1108  0.5823  0.3055
 5207SOL    HW127257   3.398   2.008   2.700  1.0426 -0.8700 -1.2734
 5207SOL    HW227258   3.468   2.092   2.798 -1.7997  0.6270 -0.0936
 5208SOL     OW27259   2.835   0.727   1.890 -0.0431  0.8404 -0.2841
 5208SOL    HW127260   2.858   0.635   1.875 -0.1295  0.7019  0.4353
 5208SOL    HW227261   2.880   0.742   1.972  0.2758 -1.8264  0.0319
 5209SOL     OW27262   3.003   2.204   8.796  0.6216 -0.1045  0.3674
 5209SOL    HW127263   2.988   2.294   8.825 -2.2964 -0.0575 -1.3141
 5209SOL    HW227264   3.092   2.207   8.763 -0.1997 -1.3450 -1.9791
 5210SOL     OW27265   4.067   4.363  16.645  0.1288  0.6771  0.1155
 5210SOL    HW127266   4.097   4.350  16.735  1.4020 -0.3644 -0.4571
 5210SOL    HW227267   3.990   4.307  16.648 -1.1322  2.3164 -1.6799
 5211SOL     OW27268   4.529   2.408   1.411  0.1725 -0.3619  0.0352
 5211SOL    HW127269   4.619   2.424   1.381  0.0982  1.3011  0.6673
 5211SOL    HW227270   4.515   2.314   1.401 -0.5897 -0.1499 -0.8811
 5212SOL     OW27271   4.378   0.966   6.117  0.2792 -0.0739  0.0581
 5212SOL    HW127272   4.456   0.926   6.078  0.8181  1.4519 -0.4463
 5212SOL    HW227273   4.325   0.894   6.149 -2.4979  1.2270 -1.6999
 5213SOL     OW27274   0.409   4.515   7.140 -0.5105 -0.1017 -0.1979
 5213SOL    HW127275   0.346   4.508   7.068  0.5661 -1.9302 -0.9793
 5213SOL    HW227276   0.352   4.558   7.203  2.3055  1.3184  1.3576
 5214SOL     OW27277   0.347   0.624   7.883 -0.3073 -0.2367  0.3180
 5214SOL    HW127278   0.296   0.587   7.954  0.5354 -1.2318  0.3988
 5214SOL    HW227279   0.353   0.713   7.918  2.0366 -0.4591  0.4456
 5215SOL     OW27280   4.147   0.491  10.170  0.1301 -0.6323 -0.2626
 5215SOL    HW127281   4.136   0.431  10.244 -0.0886  0.0505  0.2613
 5215SOL    HW227282   4.172   0.430  10.101 -1.1081 -1.8992  0.3999
 5216SOL     OW27283   2.662   3.223  17.079  0.1967 -0.3416 -0.3909
 5216SOL    HW127284   2.687   3.300  17.130 -0.4033 -1.6874  1.9342
 5216SOL    HW227285   2.597   3.190  17.141 -1.0349  2.6210 -0.0911
 5217SOL     OW27286   4.401   0.167   9.282  0.0592 -0.4527 -0.3640
 5217SOL    HW127287   4.384   0.180   9.189  0.0817 -1.8734 -0.5769
 5217SOL    HW227288   4.484   0.122   9.268  0.0538 -0.9852  1.2820
 5218SOL     OW27289   4.730   4.579   7.400  0.4719  0.0153 -0.0051
 5218SOL    HW127290   4.652   4.534   7.432  0.9612 -1.0325 -0.2606
 5218SOL    HW227291   4.693   4.611   7.318 -0.9606 -1.8808 -0.1083
 5219SOL     OW27292   3.706   4.318   6.489  0.0170 -0.5949  0.1209
 5219SOL    HW127293   3.658   4.268   6.423 -0.7862 -0.7537  0.8214
 5219SOL    HW227294   3.755   4.377   6.432  2.0258 -1.7010  0.7030
 5220SOL     OW27295   0.632   2.853  10.215  0.2095  0.0521  0.2647
 5220SOL    HW127296   0.611   2.936  10.258 -0.5454 -0.7335  1.3889
 5220SOL    HW227297   0.727   2.868  10.214  0.1895 -0.0549 -2.9725
 5221SOL     OW27298   3.327   4.325  15.359 -0.4440 -0.4554 -0.2517
 5221SOL    HW127299   3.249   4.335  15.303 -0.3593 -0.6153 -0.3989
 5221SOL    HW227300   3.339   4.409  15.403 -0.5759 -0.2452 -0.6161
 5222SOL     OW27301   0.538   0.806   1.144  0.0473 -0.4577  0.1863
 5222SOL    HW127302   0.503   0.853   1.219 -0.5546 -1.1572  0.3354
 5222SOL    HW227303   0.632   0.822   1.151 -0.1836  1.2384 -0.5930
 5223SOL     OW27304   3.573   4.206  10.529 -0.3574 -0.1292  0.7089
 5223SOL    HW127305   3.504   4.139  10.537  1.8440 -2.0506  3.4466
 5223SOL    HW227306   3.579   4.223  10.435 -0.6659  1.3914  0.9662
 5224SOL     OW27307   2.451   1.131   8.488  0.0087 -0.5625 -0.0016
 5224SOL    HW127308   2.397   1.210   8.475 -0.4825 -0.8125  0.4805
 5224SOL    HW227309   2.376   1.071   8.493  0.3817 -1.2578 -3.2370
 5225SOL     OW27310   1.643   3.578   5.152  0.4714  0.3847 -0.1826
 5225SOL    HW127311   1.575   3.524   5.109  1.2197  0.6116 -1.6539
 5225SOL    HW227312   1.643   3.660   5.102  3.6663  0.3434 -0.2234
 5226SOL     OW27313   1.916   4.625   6.641  0.2575  0.5072 -0.0549
 5226SOL    HW127314   1.984   4.689   6.619  0.1922  0.1707 -1.2442
 5226SOL    HW227315   1.929   4.556   6.576  1.1977  0.8470 -0.2341
 5227SOL     OW27316   1.781   0.213   8.147  0.4739  0.1564 -0.4867
 5227SOL    HW127317   1.752   0.126   8.174 -1.6722  0.5243 -1.5362
 5227SOL    HW227318   1.789   0.254   8.233 -1.3328 -0.5760  0.0358
 5228SOL     OW27319   2.935   2.914   8.496 -1.0071 -0.7391 -0.5441
 5228SOL    HW127320   2.923   2.888   8.587  1.0133 -0.1281 -0.0889
 5228SOL    HW227321   2.865   2.859   8.462 -2.2108  1.5238 -1.6659
 5229SOL     OW27322   1.415   1.380  13.923  0.2732  0.3529  0.4909
 5229SOL    HW127323   1.436   1.451  13.862  0.2387  0.7287  0.9184
 5229SOL    HW227324   1.434   1.302  13.870 -2.5322  0.1563 -0.2434
 5230SOL     OW27325   3.184   3.362  16.457  0.3238  0.9801  0.6719
 5230SOL    HW127326   3.182   3.374  16.362  1.0512  1.5086  0.7231
 5230SOL    HW227327   3.134   3.435  16.492  0.4223  1.3011  0.1468
 5231SOL     OW27328   2.997   1.908   1.752 -0.3921  0.4527  0.3907
 5231SOL    HW127329   2.915   1.952   1.774  0.1125  2.2160 -1.2458
 5231SOL    HW227330   2.960   1.827   1.717 -0.5039  0.3925  0.6425
 5232SOL     OW27331   4.427   3.285   2.880  0.1662 -0.2356  0.0806
 5232SOL    HW127332   4.432   3.355   2.816  0.3120  1.0435  1.5000
 5232SOL    HW227333   4.344   3.315   2.915  0.4438 -0.2939  0.8023
 5233SOL     OW27334   1.954   1.055  13.467  0.5343  0.0216 -0.6628
 5233SOL    HW127335   1.884   1.014  13.417  0.2443 -0.5139  0.1776
 5233SOL    HW227336   1.914   1.137  13.495  0.2538 -1.4438  3.2199
 5234SOL     OW27337   2.735   3.604   7.217 -0.1645 -0.6491  0.6119
 5234SOL    HW127338   2.672   3.643   7.157  1.0046  0.7050  0.2419
 5234SOL    HW227339   2.785   3.684   7.235 -0.6366 -0.2046 -0.0565
 5235SOL     OW27340   3.926   4.360   7.898  0.1612 -1.0077 -0.2041
 5235SOL    HW127341   3.846   4.373   7.948  0.1636 -0.3035 -0.3931
 5235SOL    HW227342   3.992   4.389   7.961  0.6814 -2.8047  0.0885
 5236SOL     OW27343   3.430   3.931   3.237  0.6194 -0.4261  0.1480
 5236SOL    HW127344   3.422   3.911   3.330  1.9372  1.5601  0.7067
 5236SOL    HW227345   3.511   3.888   3.208  1.3226  0.0578  1.3948
 5237SOL     OW27346   3.583   3.636  17.010 -0.5743  0.5667  0.2047
 5237SOL    HW127347   3.654   3.598  16.958 -0.1576  1.8469 -0.1820
 5237SOL    HW227348   3.560   3.567  17.073  1.9525 -1.2772 -0.8984
 5238SOL     OW27349   2.854   0.512   8.554 -0.1823 -0.7855 -0.3256
 5238SOL    HW127350   2.837   0.552   8.640 -0.1139 -0.8880 -0.2647
 5238SOL    HW227351   2.943   0.480   8.570 -0.3024 -0.2614  1.4465
 5239SOL     OW27352   1.788   1.049   8.005 -0.0268  0.2887  0.3896
 5239SOL    HW127353   1.807   1.089   7.920  0.7431 -1.6107 -0.3385
 5239SOL    HW227354   1.866   0.993   8.010 -0.2528  0.0590  1.4170
 5240SOL     OW27355   3.393   4.686   5.971  0.4584 -0.1766 -0.0355
 5240SOL    HW127356   3.298   4.699   5.972  0.5867  0.8050  0.6162
 5240SOL    HW227357   3.404   4.678   5.877 -0.5873  0.2678 -0.1927
 5241SOL     OW27358   2.209   1.766   1.885  0.2989  0.0886  0.0738
 5241SOL    HW127359   2.117   1.738   1.877 -0.7894  3.6664 -0.0966
 5241SOL    HW227360   2.212   1.790   1.977 -0.8072 -1.5293  0.5300
 5242SOL     OW27361   3.211   0.625   5.914  0.4845 -0.2259  0.2159
 5242SOL    HW127362   3.267   0.549   5.902  0.8606  0.2259 -0.9281
 5242SOL    HW227363   3.247   0.667   5.992  1.6993 -1.3007  0.2314
 5243SOL     OW27364   1.135   4.623   9.254  0.1300  0.0199 -0.3816
 5243SOL    HW127365   1.093   4.684   9.194 -0.6182 -0.2028 -0.0927
 5243SOL    HW227366   1.169   4.687   9.316 -0.1148  1.1057 -1.3761
 5244SOL     OW27367   4.607   3.297  13.443 -0.0360 -0.0792  0.1263
 5244SOL    HW127368   4.630   3.389  13.429  1.7600 -0.1720  2.5022
 5244SOL    HW227369   4.584   3.299  13.535 -1.3028  2.8699 -0.2513
 5245SOL     OW27370   0.809   2.412  10.177  0.1676 -0.0482 -1.0027
 5245SOL    HW127371   0.789   2.407  10.271 -1.5954 -2.1298 -1.4709
 5245SOL    HW227372   0.863   2.490  10.171  1.0008 -0.4409  1.4048
 5246SOL     OW27373   3.495   1.237   0.806 -0.4360 -0.3006 -0.6182
 5246SOL    HW127374   3.403   1.242   0.832 -0.1403  2.3373 -0.0229
 5246SOL    HW227375   3.516   1.310   0.748 -0.7965 -0.3466 -0.8112
 5247SOL     OW27376   4.148   0.570   8.721  0.1152 -0.5399  0.3994
 5247SOL    HW127377   4.146   0.640   8.786 -2.7739  0.3972 -0.7167
 5247SOL    HW227378   4.059   0.578   8.686 -0.5222  1.4020  2.4756
 5248SOL     OW27379   0.036   2.556   7.096  0.0745 -0.5557 -0.8212
 5248SOL    HW127380   0.118   2.510   7.077  1.7173  1.9822  0.2120
 5248SOL    HW227381   0.023   2.614   7.022  1.1754 -0.9269 -1.3014
 5249SOL     OW27382   3.138   1.771   5.065  0.5010  0.4462 -0.1846
 5249SOL    HW127383   3.185   1.689   5.050  1.4674  0.8560  0.5857
 5249SOL    HW227384   3.174   1.831   5.000 -1.8122  0.6428 -1.2597
 5250SOL     OW27385   2.931   2.795  15.082  0.5397 -0.3848  0.4608
 5250SOL    HW127386   3.005   2.751  15.040 -0.3465  1.0959 -2.6307
 5250SOL    HW227387   2.945   2.775  15.175 -1.3766 -1.9110  0.4278
 5251SOL     OW27388   0.103   0.097  16.382  0.2303  0.1548 -0.2583
 5251SOL    HW127389   0.194   0.111  16.357 -0.1949  2.3593 -0.5857
 5251SOL    HW227390   0.066   0.066  16.300  0.4077 -0.5555 -0.0748
 5252SOL     OW27391   3.788   3.536   3.024 -0.2853 -0.0672  0.5364
 5252SOL    HW127392   3.786   3.451   2.981 -0.9212  0.7640 -1.0727
 5252SOL    HW227393   3.731   3.591   2.971 -0.3343  0.4083  1.0713
 5253SOL     OW27394   2.054   0.900   4.945 -0.6211 -0.2344  0.9003
 5253SOL    HW127395   2.083   0.875   4.858  0.4960 -0.6820  1.4081
 5253SOL    HW227396   2.133   0.889   4.997  0.9371  2.3058 -0.9440
 5254SOL     OW27397   3.893   4.698   2.520 -0.1487 -0.0096 -0.4352
 5254SOL    HW127398   3.815   4.668   2.473  1.1709 -1.4884 -1.7038
 5254SOL    HW227399   3.892   0.057   2.504  1.5642  0.3101  1.4167
 5255SOL     OW27400   0.030   3.307  10.405  0.4674  0.1539 -0.0074
 5255SOL    HW127401   0.041   3.295  10.499 -1.0722 -1.3732 -0.0224
 5255SOL    HW227402   0.034   3.214  10.383 -1.4389  0.2448 -0.8110
 5256SOL     OW27403   0.826   2.936   1.815 -0.2474 -0.2894 -0.4084
 5256SOL    HW127404   0.912   2.902   1.841 -0.7536 -0.2726  1.2785
 5256SOL    HW227405   0.853   3.022   1.784  2.8867 -0.9838  0.2756
 5257SOL     OW27406   2.866   1.601   7.808 -0.1289  0.0231  0.1658
 5257SOL    HW127407   2.825   1.578   7.891 -2.3409 -1.9360 -1.4424
 5257SOL    HW227408   2.956   1.617   7.837 -0.1769 -0.9839  0.8638
 5258SOL     OW27409   0.612   3.805  11.557  0.2274 -0.0502  0.4698
 5258SOL    HW127410   0.652   3.829  11.640 -1.2903 -2.5809  1.9293
 5258SOL    HW227411   0.542   3.751  11.594  1.0167 -0.7799  0.9010
 5259SOL     OW27412   3.934   3.213   3.215  0.1150 -0.3572 -0.1035
 5259SOL    HW127413   4.009   3.250   3.170 -0.2974 -0.4839 -0.8952
 5259SOL    HW227414   3.973   3.187   3.298 -1.9577  0.6110  1.1808
 5260SOL     OW27415   0.822   0.436  14.658 -0.5584  0.0371 -0.1304
 5260SOL    HW127416   0.800   0.487  14.580  1.6548  2.9381  1.1464
 5260SOL    HW227417   0.736   0.402  14.681 -0.8952  0.3563 -0.9019
 5261SOL     OW27418   2.543   2.964  16.008  0.2171 -0.9692 -0.4850
 5261SOL    HW127419   2.494   3.028  16.059  1.9232  0.6714 -0.8746
 5261SOL    HW227420   2.586   2.913  16.077  0.2313  1.9105  1.6473
 5262SOL     OW27421   0.907   0.359  16.584  0.0553  0.0169 -0.0107
 5262SOL    HW127422   0.960   0.307  16.644 -0.0409 -1.4438 -1.1869
 5262SOL    HW227423   0.822   0.347  16.626  0.5762 -0.5399  0.8876
 5263SOL     OW27424   3.598   3.207   6.831 -0.4618  0.6209  0.0395
 5263SOL    HW127425   3.682   3.252   6.818  0.4555 -1.2730 -0.7294
 5263SOL    HW227426   3.558   3.232   6.748 -0.0690 -1.0075 -0.6470
 5264SOL     OW27427   2.706   3.492  12.179  0.7246  0.4166  0.0759
 5264SOL    HW127428   2.616   3.509  12.206  0.1238 -3.5209  0.6718
 5264SOL    HW227429   2.700   3.490  12.084 -1.9374 -0.9150  0.2643
 5265SOL     OW27430   2.223   0.808   7.794  0.4567  0.0023  0.2391
 5265SOL    HW127431   2.314   0.828   7.814  0.5777  1.4221 -1.6920
 5265SOL    HW227432   2.229   0.754   7.715 -0.2428 -0.5874  0.5926
 5266SOL     OW27433   3.120   2.265   6.054 -0.1095 -0.2400  0.0417
 5266SOL    HW127434   3.179   2.222   5.991 -1.4890 -1.4181 -0.4408
 5266SOL    HW227435   3.173   2.338   6.085  0.7285 -0.6371 -0.4483
 5267SOL     OW27436   1.051   2.422   3.008  0.1753  0.0659  0.3189
 5267SOL    HW127437   1.122   2.371   2.968  0.1108 -0.0629  0.3674
 5267SOL    HW227438   0.991   2.362   3.051 -0.7604 -0.6097 -1.9292
 5268SOL     OW27439   0.527   1.612  12.675  0.1734  0.3265  0.1052
 5268SOL    HW127440   0.444   1.581  12.710 -0.5131  2.3935  0.3266
 5268SOL    HW227441   0.586   1.537  12.682  0.7049  0.8304  1.1539
 5269SOL     OW27442   0.244   0.379  15.758  0.4680  0.2053 -0.1765
 5269SOL    HW127443   0.213   0.467  15.778  0.0291  0.3375 -1.4292
 5269SOL    HW227444   0.262   0.340  15.844  0.9093  0.0429 -0.3439
 5270SOL     OW27445   4.225   0.743  16.712  0.3507 -0.2946  0.2459
 5270SOL    HW127446   4.246   0.763  16.803  0.4796  1.3009 -0.1342
 5270SOL    HW227447   4.254   0.817  16.659 -0.7799 -0.1374 -0.1494
 5271SOL     OW27448   2.757   2.653  12.868 -0.0151 -0.1106  0.1066
 5271SOL    HW127449   2.712   2.696  12.940 -2.9483 -1.8834 -0.6479
 5271SOL    HW227450   2.827   2.607  12.913 -1.2173 -0.2557  1.8223
 5272SOL     OW27451   0.012   1.102  12.912  0.0042 -0.0121 -0.4954
 5272SOL    HW127452   4.712   1.085  12.824  1.4507 -2.3074 -0.6233
 5272SOL    HW227453   4.714   1.190  12.931 -0.3892 -0.5744  1.4494
 5273SOL     OW27454   3.932   3.879   3.192  0.6807  0.1076 -0.2325
 5273SOL    HW127455   3.984   3.873   3.272  0.2434  4.3407  0.3898
 5273SOL    HW227456   3.944   3.967   3.155  0.5223 -0.6890 -2.1380
 5274SOL     OW27457   3.507   2.435   5.983 -1.0680 -0.7965  0.2553
 5274SOL    HW127458   3.458   2.511   6.015  1.8616  1.1848  0.0667
 5274SOL    HW227459   3.568   2.414   6.053  0.3583  0.9310 -0.4686
 5275SOL     OW27460   0.433   4.108   3.583  0.6461 -0.3011  0.4935
 5275SOL    HW127461   0.470   4.043   3.642 -2.1358 -1.5118  0.9100
 5275SOL    HW227462   0.495   4.181   3.589  0.9497 -0.7953  3.2327
 5276SOL     OW27463   3.152   1.301  16.596  0.6268  0.4857  0.5968
 5276SOL    HW127464   3.058   1.294  16.615  0.4449  0.4507 -0.3008
 5276SOL    HW227465   3.144   1.302  16.501  2.4290  2.4467  0.4611
 5277SOL     OW27466   2.983   3.265   5.964  0.0899  0.7202 -0.4361
 5277SOL    HW127467   3.059   3.224   5.924  0.5561  1.9170 -0.7617
 5277SOL    HW227468   3.014   3.351   5.990  1.9238  0.3066 -1.2862
 5278SOL     OW27469   4.165   0.265   6.530 -0.3415 -0.5341  0.3863
 5278SOL    HW127470   4.098   0.333   6.534 -1.9106 -2.2105  2.4396
 5278SOL    HW227471   4.109   0.196   6.494 -0.8347  0.2684 -0.3874
 5279SOL     OW27472   1.385   4.590   1.500  0.3031 -0.3629 -0.2618
 5279SOL    HW127473   1.296   4.570   1.530  1.2443  1.1289  3.4947
 5279SOL    HW227474   1.378   4.608   1.406 -1.1043  0.0526 -0.0864
 5280SOL     OW27475   0.590   0.966   3.104  0.2966 -0.5712 -0.0956
 5280SOL    HW127476   0.496   0.980   3.109  0.3327 -1.2104  2.4800
 5280SOL    HW227477   0.612   0.959   3.197 -0.3430  0.8526  0.1714
 5281SOL     OW27478   2.998   1.698  11.742  0.4440 -0.3340 -0.1772
 5281SOL    HW127479   3.081   1.713  11.696  1.3380 -0.9240  1.2575
 5281SOL    HW227480   2.938   1.692  11.667  0.5464  1.4898 -0.4204
 5282SOL     OW27481   0.130   1.015   2.301  0.0983 -0.5450 -0.0902
 5282SOL    HW127482   0.216   0.995   2.266  1.3176  2.7316  1.0158
 5282SOL    HW227483   0.122   0.943   2.363 -2.3682  0.4547  0.7629
 5283SOL     OW27484   4.347   1.146   1.303 -0.1042 -0.2066 -0.6164
 5283SOL    HW127485   4.292   1.113   1.232 -1.3895  3.6152 -1.4280
 5283SOL    HW227486   4.342   1.079   1.372 -2.5210  1.4754  0.8542
 5284SOL     OW27487   2.919   1.083   8.226  0.2705 -0.2780 -0.0973
 5284SOL    HW127488   2.924   1.042   8.312 -4.1218 -1.7423 -0.5295
 5284SOL    HW227489   2.866   1.158   8.252  0.0945  0.1954 -1.8445
 5285SOL     OW27490   0.156   2.631   2.860 -0.3887  0.1929 -0.2223
 5285SOL    HW127491   0.239   2.586   2.873  0.0742  1.2344  0.3871
 5285SOL    HW227492   0.174   2.710   2.910 -1.1910 -0.2060  0.7108
 5286SOL     OW27493   0.444   2.388   2.148 -0.3269  0.2614  0.2587
 5286SOL    HW127494   0.383   2.397   2.075 -0.0165  0.8179  0.0632
 5286SOL    HW227495   0.518   2.429   2.103 -0.5337 -0.3527 -0.6449
 5287SOL     OW27496   3.445   2.770   4.154  0.1080  0.1327 -0.6220
 5287SOL    HW127497   3.535   2.786   4.128  0.4048 -0.8298 -0.2017
 5287SOL    HW227498   3.411   2.856   4.132  0.2462 -0.0378 -1.5244
 5288SOL     OW27499   1.780   2.355  12.570  0.0940  0.2041  0.5537
 5288SOL    HW127500   1.825   2.438  12.554 -0.7819  0.4618 -0.5301
 5288SOL    HW227501   1.787   2.324  12.480 -0.6842  1.2482  0.1419
 5289SOL     OW27502   2.027   2.600   6.313 -0.0766  0.1853 -0.2325
 5289SOL    HW127503   2.091   2.550   6.363  0.1532 -2.4022 -3.1032
 5289SOL    HW227504   1.994   2.648   6.389  2.5978 -0.0023  1.0467
 5290SOL     OW27505   4.131   2.123   2.117 -0.1544  0.5263  0.1653
 5290SOL    HW127506   4.106   2.214   2.104  1.8858  1.1337  0.4677
 5290SOL    HW227507   4.133   2.117   2.212  0.8505  0.2018  0.1205
 5291SOL     OW27508   0.404   0.615   2.881  0.0010 -0.1070  0.1944
 5291SOL    HW127509   0.341   0.545   2.860  0.0469  0.6359 -2.4036
 5291SOL    HW227510   0.461   0.633   2.806 -1.6160  1.0570 -0.7663
 5292SOL     OW27511   0.981   3.513   2.573  0.5436  0.0690  0.3492
 5292SOL    HW127512   0.889   3.521   2.599 -0.0401  0.1727 -1.7490
 5292SOL    HW227513   1.009   3.497   2.663  0.0574  1.1089  0.6903
 5293SOL     OW27514   2.950   4.421  12.540  0.3909  0.5648 -0.2778
 5293SOL    HW127515   2.868   4.372  12.536 -0.0908  1.2184  1.6089
 5293SOL    HW227516   3.013   4.354  12.567  0.2290  0.4679 -0.1412
 5294SOL     OW27517   1.873   3.523   7.419 -0.0032 -0.1643 -0.0752
 5294SOL    HW127518   1.854   3.616   7.431  0.4880 -0.2447  1.3222
 5294SOL    HW227519   1.877   3.485   7.507  0.2014 -1.3313 -0.5951
 5295SOL     OW27520   3.158   4.020   1.773 -0.2882  0.4197 -0.1792
 5295SOL    HW127521   3.179   3.958   1.704 -2.7326 -0.6627  0.0631
 5295SOL    HW227522   3.067   3.993   1.789 -0.7725  1.7088 -0.7076
 5296SOL     OW27523   1.019   1.034   0.397  0.3628 -0.2492 -0.3268
 5296SOL    HW127524   1.017   1.084   0.478  0.5166 -1.0827  0.1878
 5296SOL    HW227525   1.101   1.067   0.361  1.2167  0.3033  2.1400
 5297SOL     OW27526   1.130   0.228   7.069 -0.5871 -0.1034  0.1811
 5297SOL    HW127527   1.202   0.212   7.009  0.3587  0.4685  1.1571
 5297SOL    HW227528   1.079   0.303   7.037  1.0206  1.3719  1.0859
 5298SOL     OW27529   3.989   3.890   3.857  0.1745 -0.4181 -0.4909
 5298SOL    HW127530   4.043   3.893   3.777  0.9197  2.4877  0.1175
 5298SOL    HW227531   3.968   3.983   3.867  2.4623  0.4147 -3.4035
 5299SOL     OW27532   2.200   1.361   2.518 -0.2564 -0.3013 -0.5966
 5299SOL    HW127533   2.120   1.326   2.479 -0.7798 -0.1010  0.2971
 5299SOL    HW227534   2.242   1.410   2.448 -0.9991 -0.0958 -0.8940
 5300SOL     OW27535   2.052   0.639   2.666  0.1974 -0.2088  0.2257
 5300SOL    HW127536   2.109   0.562   2.665  1.7858  0.9544  1.4771
 5300SOL    HW227537   2.014   0.630   2.753 -0.3226 -2.6769 -0.2622
 5301SOL     OW27538   1.606   2.878  17.676  0.5915 -0.0572  0.1571
 5301SOL    HW127539   1.584   2.946  17.612 -1.9648 -0.0675  1.0030
 5301SOL    HW227540   1.518   2.857  17.708  0.2069  0.2551 -0.6825
 5302SOL     OW27541   2.431   1.539   5.270 -0.3431 -0.1099 -0.1255
 5302SOL    HW127542   2.406   1.457   5.227 -0.6390  0.3806 -0.8740
 5302SOL    HW227543   2.418   1.598   5.196 -0.7635 -2.1402 -1.6538
 5303SOL     OW27544   1.866   4.141   3.852 -0.1021 -0.2721  0.4145
 5303SOL    HW127545   1.941   4.137   3.912  0.4247  0.6950 -0.1980
 5303SOL    HW227546   1.791   4.160   3.909  0.6352  1.4687  0.7848
 5304SOL     OW27547   1.721   0.088   8.505 -0.1843  0.2097 -0.1973
 5304SOL    HW127548   1.658   0.023   8.536 -1.2957  1.6436  0.5606
 5304SOL    HW227549   1.796   0.028   8.500 -0.8568 -0.7758  1.8531
 5305SOL     OW27550   4.111   2.232   7.344 -0.6730 -0.1697  0.1357
 5305SOL    HW127551   4.112   2.327   7.360 -0.1082 -0.1780  0.1467
 5305SOL    HW227552   4.185   2.209   7.399 -0.8680  0.8953  0.8426
 5306SOL     OW27553   1.364   2.303   7.683 -0.0721 -0.1646 -0.3486
 5306SOL    HW127554   1.306   2.283   7.757  1.5986 -0.8239  0.7998
 5306SOL    HW227555   1.345   2.396   7.672 -1.1475 -0.5559 -1.7690
 5307SOL     OW27556   0.046   3.608   1.706  0.7158 -0.6481 -0.1566
 5307SOL    HW127557   0.124   3.615   1.760 -0.2680 -2.0848  1.4543
 5307SOL    HW227558   0.057   3.690   1.659  0.7871  0.4706  1.8503
 5308SOL     OW27559   3.252   2.648   8.354 -0.3786  0.1911  0.2654
 5308SOL    HW127560   3.307   2.610   8.423  0.6735 -1.1600 -1.3389
 5308SOL    HW227561   3.247   2.737   8.389  3.2983  1.8941 -3.5214
 5309SOL     OW27562   0.550   3.888   5.498 -0.0846 -0.7986  0.6703
 5309SOL    HW127563   0.624   3.837   5.465  1.1903  0.9714  0.7664
 5309SOL    HW227564   0.599   3.965   5.528 -0.3534 -0.0772 -0.7390
 5310SOL     OW27565   1.996   1.195   5.691 -0.2268  0.2659  0.2246
 5310SOL    HW127566   2.012   1.118   5.745 -0.2349  0.8680  1.0945
 5310SOL    HW227567   1.916   1.165   5.648 -0.7785  0.1723  1.3088
 5311SOL     OW27568   0.201   2.208   2.569 -0.2337 -0.8867  0.2111
 5311SOL    HW127569   0.230   2.227   2.480 -2.1303  2.2210  0.2545
 5311SOL    HW227570   0.280   2.170   2.608  0.3854 -0.5100 -0.6656
 5312SOL     OW27571   1.637   4.108  12.611 -0.4672  0.0728  0.6160
 5312SOL    HW127572   1.643   4.176  12.678 -2.1915 -0.2628  1.0938
 5312SOL    HW227573   1.610   4.030  12.659 -0.1865 -1.1574 -1.2193
 5313SOL     OW27574   3.280   3.543   3.034 -0.3998 -0.0125  0.0832
 5313SOL    HW127575   3.281   3.482   3.108 -0.8336 -1.4470 -1.0746
 5313SOL    HW227576   3.228   3.620   3.057 -1.8811 -0.3900 -1.9924
 5314SOL     OW27577   3.152   4.524   3.288 -0.0555 -0.8609 -0.1603
 5314SOL    HW127578   3.090   4.480   3.230 -2.1064  1.7320  0.0577
 5314SOL    HW227579   3.158   4.613   3.254 -2.3103  0.4496  2.8887
 5315SOL     OW27580   3.987   2.006   5.193 -0.1206  0.1470 -0.0977
 5315SOL    HW127581   4.041   2.072   5.150 -1.6396  1.0233 -0.6360
 5315SOL    HW227582   4.000   1.925   5.144 -2.4734 -0.0076 -0.4763
 5316SOL     OW27583   0.932   3.805   5.169 -0.0040 -0.4497 -0.4415
 5316SOL    HW127584   0.897   3.881   5.123 -1.2292  0.3576  1.8093
 5316SOL    HW227585   0.911   3.743   5.099 -1.5195 -0.0184 -0.3728
 5317SOL     OW27586   4.720   1.226   3.136  0.0491 -0.2348 -0.0279
 5317SOL    HW127587   4.625   1.217   3.124  0.3045  0.4157 -2.4019
 5317SOL    HW227588   0.003   1.243   3.229 -1.9636 -1.7734  0.6569
 5318SOL     OW27589   4.213   0.840  12.511  0.4239  0.0703 -0.4116
 5318SOL    HW127590   4.251   0.920  12.548  1.0251 -0.1105 -0.6306
 5318SOL    HW227591   4.119   0.856  12.504  0.0594 -1.4664  0.7088
 5319SOL     OW27592   2.544   3.836  15.187  0.4774  0.3610 -0.5333
 5319SOL    HW127593   2.497   3.784  15.252 -0.3404 -0.1147 -1.4859
 5319SOL    HW227594   2.633   3.823  15.219 -0.7329 -1.1197  2.2413
 5320SOL     OW27595   0.738   0.181   6.570 -0.1960  0.0421 -0.3795
 5320SOL    HW127596   0.665   0.146   6.518  0.0190 -0.9431 -0.0252
 5320SOL    HW227597   0.738   0.117   6.641 -3.6074  3.0431  2.3386
 5321SOL     OW27598   2.758   3.185  14.963 -0.4059 -0.3354 -0.1374
 5321SOL    HW127599   2.740   3.145  15.048  4.2168 -0.1274  0.9614
 5321SOL    HW227600   2.761   3.278  14.985  0.7917  0.4625 -3.6476
 5322SOL     OW27601   3.071   3.908  10.932 -0.4828  0.2296 -0.0299
 5322SOL    HW127602   3.167   3.905  10.941 -0.3632  4.9295  0.2906
 5322SOL    HW227603   3.055   3.881  10.841  2.4101 -0.6137 -0.3217
 5323SOL     OW27604   4.301   2.843   9.064  0.2072  0.0546 -0.3041
 5323SOL    HW127605   4.376   2.855   9.006  2.0509 -0.4076  1.9885
 5323SOL    HW227606   4.228   2.867   9.008  0.0157  1.6836  0.6488
 5324SOL     OW27607   0.765   4.728  14.374 -0.0174  0.1816  0.0596
 5324SOL    HW127608   0.754   4.654  14.315 -1.8444  0.7417 -0.2909
 5324SOL    HW227609   0.802   0.062  14.319 -2.6090  2.8693  1.6655
 5325SOL     OW27610   0.593   1.796   2.454  1.0926  0.3550  0.1026
 5325SOL    HW127611   0.641   1.863   2.406 -1.5053  1.0933 -1.4342
 5325SOL    HW227612   0.625   1.816   2.542  2.0063 -0.2955 -0.0792
 5326SOL     OW27613   4.465   4.480   7.469  0.3657 -0.2277  0.0373
 5326SOL    HW127614   4.413   4.416   7.516  0.8945 -0.0492  0.8717
 5326SOL    HW227615   4.399   4.542   7.439  1.1083 -0.2854 -1.7276
 5327SOL     OW27616   4.566   3.177  11.328 -0.1984  0.4027  1.0272
 5327SOL    HW127617   4.481   3.186  11.370 -1.4201 -0.4589 -1.2781
 5327SOL    HW227618   4.607   3.101  11.370  0.3586 -1.6412 -3.1532
 5328SOL     OW27619   3.351   0.223  17.252  0.8933  0.1703  0.8251
 5328SOL    HW127620   3.277   0.163  17.247 -0.1366  1.4626  0.4212
 5328SOL    HW227621   3.411   0.178  17.312  2.9050 -1.2279 -2.1923
 5329SOL     OW27622   3.426   0.801   9.279 -0.6356  0.3335  0.0241
 5329SOL    HW127623   3.505   0.825   9.327 -0.3451  0.4227 -0.5062
 5329SOL    HW227624   3.365   0.864   9.318 -1.2350  0.6743 -1.4553
 5330SOL     OW27625   4.330   0.585  12.577 -0.1346 -0.3413  0.3118
 5330SOL    HW127626   4.268   0.545  12.638  1.4303 -1.8832  0.8892
 5330SOL    HW227627   4.287   0.669  12.560 -1.3018 -0.7414  1.2555
 5331SOL     OW27628   0.759   0.234  12.367 -0.1792  0.2867 -0.0388
 5331SOL    HW127629   0.727   0.300  12.429  1.5031 -1.0073  2.1860
 5331SOL    HW227630   0.708   0.156  12.389 -0.9585  0.7511 -0.1747
 5332SOL     OW27631   4.130   0.678  17.700 -0.3441 -0.2608 -0.2563
 5332SOL    HW127632   4.158   0.644  17.615 -1.3078  0.8068 -0.9976
 5332SOL    HW227633   4.047   0.721  17.678  0.1559 -0.3497 -2.3397
 5333SOL     OW27634   4.622   2.679   2.135  0.3311  0.0535  0.1414
 5333SOL    HW127635   4.557   2.612   2.155 -0.0431 -0.4581 -2.8317
 5333SOL    HW227636   4.676   2.648   2.062  0.8851  0.6755  0.2810
 5334SOL     OW27637   2.094   0.082   4.688  0.1433  0.1100 -0.3207
 5334SOL    HW127638   2.008   0.054   4.658 -0.4344  0.6132  0.8344
 5334SOL    HW227639   2.091   0.174   4.664  0.9955 -0.1902 -1.5491
 5335SOL     OW27640   4.713   2.342   1.068  0.1904 -0.2719 -0.0280
 5335SOL    HW127641   0.026   2.264   1.097  0.7773  1.2298  3.0896
 5335SOL    HW227642   4.708   2.399   1.145  0.8240 -0.2206 -0.0240
 5336SOL     OW27643   3.554   4.577   2.167  0.4914 -0.0417  0.7846
 5336SOL    HW127644   3.468   4.581   2.125 -0.0894 -2.0201  1.7935
 5336SOL    HW227645   3.576   4.486   2.146  0.5495  0.2298 -0.3142
 5337SOL     OW27646   2.422   3.948   3.182 -0.0303 -0.1823 -0.0755
 5337SOL    HW127647   2.421   3.987   3.095  0.4089  2.3846  1.0613
 5337SOL    HW227648   2.357   3.878   3.173 -0.8246  0.4329  0.7779
 5338SOL     OW27649   3.508   1.424   9.360 -0.2090  0.1489  0.0458
 5338SOL    HW127650   3.414   1.405   9.354 -0.0752 -0.0218 -1.5155
 5338SOL    HW227651   3.505   1.519   9.374  1.0592  0.2529 -0.3460
 5339SOL     OW27652   1.351   1.628   7.558  0.2044 -0.3098  0.2580
 5339SOL    HW127653   1.389   1.542   7.578 -0.6916 -0.7855 -0.0457
 5339SOL    HW227654   1.337   1.668   7.644  2.3386  0.5947  0.1797
 5340SOL     OW27655   1.339   4.415   4.388  0.6137  0.2924  0.0262
 5340SOL    HW127656   1.409   4.364   4.428  1.0278  1.0277  0.2275
 5340SOL    HW227657   1.389   4.475   4.333 -0.0615  1.2318  0.4398
 5341SOL     OW27658   1.898   3.827   9.761  0.0265  0.0361 -0.6402
 5341SOL    HW127659   1.982   3.865   9.735 -1.2159  2.4838 -1.1162
 5341SOL    HW227660   1.918   3.783   9.843  0.7415 -1.6892 -1.7498
 5342SOL     OW27661   0.910   1.944   2.076  0.1109  0.0153 -0.0793
 5342SOL    HW127662   0.824   1.966   2.040  0.1825  1.1403  0.4118
 5342SOL    HW227663   0.881   1.956   2.166 -2.3506 -2.4700 -0.5408
 5343SOL     OW27664   1.758   4.657   2.452 -0.1445  0.0837  0.3848
 5343SOL    HW127665   1.824   4.715   2.415 -0.5261  0.1384 -0.2046
 5343SOL    HW227666   1.808   4.594   2.504  1.8614  1.4994  0.1811
 5344SOL     OW27667   3.889   1.185   5.753 -0.1934 -0.1413 -0.3216
 5344SOL    HW127668   3.806   1.186   5.705  0.8944  0.4086 -2.1962
 5344SOL    HW227669   3.901   1.279   5.769  1.3272 -0.2885 -0.6613
 5345SOL     OW27670   3.755   0.278   9.711 -0.1410  0.3148 -0.3730
 5345SOL    HW127671   3.743   0.216   9.783  0.4023  0.5215 -0.1015
 5345SOL    HW227672   3.765   0.356   9.766  0.3914 -1.1481  1.5654
 5346SOL     OW27673   0.877   2.209   3.048 -0.8251 -0.2791  0.1769
 5346SOL    HW127674   0.854   2.125   3.008  1.8481 -1.1528  0.4363
 5346SOL    HW227675   0.795   2.232   3.092  1.0497  1.3266  2.8171
 5347SOL     OW27676   4.559   3.209   8.560  0.4574  0.1258 -0.7247
 5347SOL    HW127677   4.622   3.138   8.549  0.0208  0.0444 -2.7604
 5347SOL    HW227678   4.588   3.271   8.493  0.2063  1.0699  0.0355
 5348SOL     OW27679   0.555   0.365  13.922  0.4969 -0.7884 -0.1136
 5348SOL    HW127680   0.645   0.389  13.942  0.0202  0.4430  0.5412
 5348SOL    HW227681   0.563   0.404  13.835 -0.3760 -1.4923 -0.5121
 5349SOL     OW27682   3.472   2.731   6.499  0.8407 -0.2170  0.1652
 5349SOL    HW127683   3.565   2.708   6.494  1.1904  1.0614  0.7375
 5349SOL    HW227684   3.469   2.827   6.496  0.7048 -0.1983  0.7965
 5350SOL     OW27685   4.148   3.644   9.357 -0.0109  0.2352 -0.1251
 5350SOL    HW127686   4.200   3.598   9.424 -2.4264  0.0891  1.6514
 5350SOL    HW227687   4.206   3.652   9.281  0.2139  1.5476  0.1902
 5351SOL     OW27688   2.913   3.788   1.044  0.4606  0.3456 -0.1212
 5351SOL    HW127689   2.909   3.692   1.047 -0.6999  0.3584 -1.2193
 5351SOL    HW227690   3.006   3.805   1.061  0.3863  0.1835  0.4364
 5352SOL     OW27691   3.265   3.539   6.529 -0.7792 -0.3435  0.0728
 5352SOL    HW127692   3.313   3.487   6.464 -0.9857  0.5779 -0.8301
 5352SOL    HW227693   3.234   3.469   6.586 -3.3825  0.5979 -0.1501
 5353SOL     OW27694   0.908   0.524  16.006  0.5430 -0.1500  0.7419
 5353SOL    HW127695   0.861   0.441  16.004  0.3924 -0.1481  4.7481
 5353SOL    HW227696   0.982   0.503  16.062  0.5023 -1.3511  0.3386
 5354SOL     OW27697   0.006   0.254  11.053  0.1858 -0.0220  0.0055
 5354SOL    HW127698   4.729   0.315  11.126  0.2656  1.0993 -0.9327
 5354SOL    HW227699   4.652   0.252  11.017  0.8222  0.0173 -1.5701
 5355SOL     OW27700   2.286   1.100   1.487  0.2846  0.1611  0.5909
 5355SOL    HW127701   2.346   1.107   1.412 -1.1689 -0.0245 -0.5965
 5355SOL    HW227702   2.213   1.150   1.450 -0.4963 -1.3495  0.1005
 5356SOL     OW27703   2.076   3.789   2.660  0.0403 -0.4451  0.4726
 5356SOL    HW127704   2.077   3.708   2.610 -1.9401  0.8580 -1.6908
 5356SOL    HW227705   2.166   3.819   2.677  0.9844 -1.3006 -3.0484
 5357SOL     OW27706   1.873   4.215   2.750  0.2361  0.1606  0.2149
 5357SOL    HW127707   1.778   4.218   2.742  0.4967 -1.5737 -3.5292
 5357SOL    HW227708   1.889   4.129   2.789  0.5121 -0.3332 -0.9720
 5358SOL     OW27709   4.558   2.955   3.492  0.3965 -0.1788 -0.3160
 5358SOL    HW127710   4.512   3.008   3.427  0.9013  0.3107 -0.2714
 5358SOL    HW227711   4.495   2.973   3.561  0.3622  0.4337 -0.5028
 5359SOL     OW27712   3.144   3.912   4.887 -0.5381  0.0901 -0.4219
 5359SOL    HW127713   3.133   3.918   4.981 -1.6699 -2.7672 -0.3827
 5359SOL    HW227714   3.128   4.002   4.859 -0.8104 -0.1390 -1.0047
 5360SOL     OW27715   3.410   3.995  10.537  0.0162  0.5339 -0.1049
 5360SOL    HW127716   3.409   3.939  10.459  1.8849  0.7490 -0.2981
 5360SOL    HW227717   3.367   3.936  10.599 -0.2718 -0.1910 -0.9869
 5361SOL     OW27718   4.193   4.494  15.297 -0.4821 -0.0249  0.1898
 5361SOL    HW127719   4.238   4.414  15.270  0.3229 -0.0027  1.4875
 5361SOL    HW227720   4.127   4.458  15.356  0.5534 -2.1542  0.0717
 5362SOL     OW27721   0.922   4.648   2.208  0.1615 -0.0937 -0.0128
 5362SOL    HW127722   0.956   4.566   2.173 -0.7035 -0.5411  0.1970
 5362SOL    HW227723   0.979   4.712   2.165  2.1049  0.3578  3.2716
 5363SOL     OW27724   4.623   0.562   7.622 -0.4757  0.3540  0.4329
 5363SOL    HW127725   4.664   0.622   7.684 -1.8932  0.0224  1.6973
 5363SOL    HW227726   4.534   0.565   7.657 -0.2161  2.0712  0.9778
 5364SOL     OW27727   2.405   2.951   5.255  0.0606  0.0424  0.2216
 5364SOL    HW127728   2.341   2.911   5.196  2.8897 -2.6380 -0.9940
 5364SOL    HW227729   2.485   2.902   5.238  0.1179  0.0706  0.4126
 5365SOL     OW27730   4.322   4.544   8.114 -0.0473  0.0361  0.2682
 5365SOL    HW127731   4.374   4.614   8.154  1.3770 -1.2964  0.7542
 5365SOL    HW227732   4.377   4.471   8.143  1.2916  0.7393 -0.4936
 5366SOL     OW27733   3.394   3.380   9.209  0.4095 -0.0565  0.1995
 5366SOL    HW127734   3.481   3.391   9.247  0.3319  1.1353  0.0106
 5366SOL    HW227735   3.414   3.381   9.116  0.9251  1.6483  0.3383
 5367SOL     OW27736   0.179   1.819   7.412 -0.6577  0.1499  0.6185
 5367SOL    HW127737   0.119   1.749   7.386  0.5969 -0.7072  0.0306
 5367SOL    HW227738   0.232   1.841   7.335 -3.4518  2.2836 -0.6763
 5368SOL     OW27739   1.291   0.297  15.963 -0.2944  0.0413 -1.0006
 5368SOL    HW127740   1.301   0.362  15.893  2.3158  1.5844  0.8273
 5368SOL    HW227741   1.340   0.348  16.027 -0.1867 -0.4434 -0.7023
 5369SOL     OW27742   0.783   3.919   0.336  0.4071  0.0845  0.1626
 5369SOL    HW127743   0.791   3.981   0.264 -1.1640  0.8748  0.6659
 5369SOL    HW227744   0.735   3.849   0.293  1.5077 -0.3437 -0.3793
 5370SOL     OW27745   1.381   2.609   6.520  0.4226  0.1250  0.1998
 5370SOL    HW127746   1.322   2.625   6.593  1.4236  0.1989  0.9855
 5370SOL    HW227747   1.312   2.597   6.454  3.1742  0.9702 -2.8299
 5371SOL     OW27748   0.908   4.724   3.550 -0.2933 -0.0911  0.2821
 5371SOL    HW127749   0.955   4.715   3.468 -0.4820 -1.3772  0.3127
 5371SOL    HW227750   0.901   0.085   3.556 -0.0119  0.0030 -0.9436
 5372SOL     OW27751   1.118   3.479   9.669 -0.4902  0.2443 -0.1411
 5372SOL    HW127752   1.183   3.408   9.677 -1.0761 -0.2023  0.6511
 5372SOL    HW227753   1.034   3.438   9.688 -0.4006 -0.7507 -1.8292
 5373SOL     OW27754   2.448   0.662   2.500  0.2536  0.2188  0.3654
 5373SOL    HW127755   2.359   0.647   2.467  1.1451 -1.8502 -1.1122
 5373SOL    HW227756   2.486   0.733   2.448 -0.9041 -2.4497 -4.0545
 5374SOL     OW27757   1.519   3.367   1.254 -0.5372  0.2656  0.1232
 5374SOL    HW127758   1.459   3.416   1.310  1.2680  2.4988  0.0765
 5374SOL    HW227759   1.577   3.341   1.325 -0.2809  0.7855  0.1005
 5375SOL     OW27760   3.631   4.598  12.500  0.2240 -0.0671  0.1026
 5375SOL    HW127761   3.689   4.549  12.441  0.9545  0.6287  0.2473
 5375SOL    HW227762   3.620   4.673  12.441 -0.0843  1.5581  2.2324
 5376SOL     OW27763   1.598   2.952  17.269  0.3332  0.2321  0.2508
 5376SOL    HW127764   1.596   3.012  17.344 -1.6368  0.8686 -0.3434
 5376SOL    HW227765   1.689   2.961  17.239 -0.1502 -1.0131 -1.5752
 5377SOL     OW27766   1.342   3.210   7.134 -0.1178  0.5748  0.5375
 5377SOL    HW127767   1.270   3.147   7.130 -0.4284  0.9612  0.0571
 5377SOL    HW227768   1.413   3.147   7.149 -0.8320 -0.1226  0.9840
 5378SOL     OW27769   4.021   2.767   3.436 -0.2441 -0.5612 -0.2526
 5378SOL    HW127770   4.028   2.702   3.506 -0.4555 -0.4990 -0.1739
 5378SOL    HW227771   3.959   2.824   3.481 -0.0438  0.3865 -1.1896
 5379SOL     OW27772   2.343   3.421   7.276  0.1120  0.3662  0.2945
 5379SOL    HW127773   2.332   3.502   7.327  1.1471  0.0729  0.9872
 5379SOL    HW227774   2.254   3.386   7.274  0.4310 -0.4556  0.5557
 5380SOL     OW27775   3.755   3.724   5.634  0.2765  0.4008  0.0593
 5380SOL    HW127776   3.690   3.756   5.697  0.6660  0.9632  0.1765
 5380SOL    HW227777   3.705   3.663   5.580 -3.2543  2.3782  1.0504
 5381SOL     OW27778   3.871   1.176   5.365 -0.9333 -0.4729 -0.4144
 5381SOL    HW127779   3.775   1.172   5.369 -1.0061 -0.8569 -2.3547
 5381SOL    HW227780   3.893   1.153   5.455  1.8158  2.0233 -0.4562
 5382SOL     OW27781   3.210   0.704   8.008 -0.0483 -0.9427 -0.5933
 5382SOL    HW127782   3.173   0.720   8.095  0.7011 -0.9584 -0.2734
 5382SOL    HW227783   3.192   0.788   7.966  2.4174 -1.5222 -2.7619
 5383SOL     OW27784   1.574   2.932   7.806  0.5432  0.1465 -0.4911
 5383SOL    HW127785   1.500   2.877   7.780  2.1136 -0.7170 -3.0569
 5383SOL    HW227786   1.567   2.911   7.899 -0.5705 -2.9625 -1.2932
 5384SOL     OW27787   0.619   0.580   0.537 -0.4301 -0.2563 -0.3000
 5384SOL    HW127788   0.572   0.526   0.601 -0.7311 -2.1205 -2.0840
 5384SOL    HW227789   0.568   0.567   0.458  1.6081  1.0058 -1.8296
 5385SOL     OW27790   0.041   3.645  17.226  0.0908  0.1365 -0.3490
 5385SOL    HW127791   4.727   3.710  17.278 -2.7475 -0.9355 -1.7029
 5385SOL    HW227792   0.066   3.588  17.299 -3.6359  0.2504  1.0418
 5386SOL     OW27793   2.727   3.482  15.468  0.4202 -0.2156 -0.1624
 5386SOL    HW127794   2.721   3.388  15.481  1.9423 -0.1014  1.2987
 5386SOL    HW227795   2.637   3.502  15.494  1.3757 -0.3027  3.2095
 5387SOL     OW27796   3.510   4.447  12.826  0.0513 -0.4397 -0.0724
 5387SOL    HW127797   3.583   4.474  12.771 -1.7892  1.1110 -1.7807
 5387SOL    HW227798   3.439   4.450  12.762  0.0794 -1.1938 -0.1464
 5388SOL     OW27799   1.367   3.121  10.480 -0.2516  0.6243  0.4307
 5388SOL    HW127800   1.329   3.208  10.467 -0.8752 -0.2085 -3.4090
 5388SOL    HW227801   1.351   3.125  10.574  0.8141  1.3318  0.5917
 5389SOL     OW27802   3.024   0.136  10.739  0.7604  0.6599  0.4271
 5389SOL    HW127803   2.996   0.213  10.689  0.0132  0.3390  0.3435
 5389SOL    HW227804   2.989   0.148  10.827 -3.4118 -1.1533 -0.9537
 5390SOL     OW27805   2.727   3.456   4.647 -0.5471 -0.6027 -0.1017
 5390SOL    HW127806   2.791   3.481   4.580  0.2510 -1.1958  0.4371
 5390SOL    HW227807   2.643   3.469   4.603 -0.8821 -0.1862  0.6627
 5391SOL     OW27808   3.326   4.673  13.254 -0.2775 -0.0835  0.1592
 5391SOL    HW127809   3.347   4.665  13.161  1.3866 -1.3403  0.6212
 5391SOL    HW227810   3.415   4.672  13.290  0.4144  0.0907 -1.5717
 5392SOL     OW27811   0.084   4.196   9.663 -0.0857  0.0835  0.1778
 5392SOL    HW127812   0.104   4.126   9.724 -1.1140 -0.3393  0.0238
 5392SOL    HW227813   0.026   4.144   9.608 -0.3049  1.6517 -1.1016
 5393SOL     OW27814   0.457   2.803  17.077  0.4675  0.0098 -0.0222
 5393SOL    HW127815   0.541   2.791  17.121  1.2524  1.4653 -1.0939
 5393SOL    HW227816   0.452   2.732  17.013  0.4416 -2.6551  2.9429
 5394SOL     OW27817   0.884   3.123   6.603  0.0144  0.4911 -0.1488
 5394SOL    HW127818   0.947   3.193   6.587 -0.0507  0.3954 -0.8241
 5394SOL    HW227819   0.875   3.132   6.698  1.4198  0.2242  0.0130
 5395SOL     OW27820   2.215   2.711   6.766 -0.2953  0.0669 -0.0480
 5395SOL    HW127821   2.167   2.737   6.688 -0.1135  0.6709  0.0376
 5395SOL    HW227822   2.155   2.753   6.828 -0.7688 -0.6140 -0.0497
 5396SOL     OW27823   1.478   3.398   3.507 -0.3474 -0.8980  0.1291
 5396SOL    HW127824   1.500   3.488   3.484  3.4769 -1.2690  2.2914
 5396SOL    HW227825   1.560   3.355   3.485  0.5849  1.2612 -0.6413
 5397SOL     OW27826   4.128   1.170   8.812  0.2323 -0.1448 -1.0057
 5397SOL    HW127827   4.131   1.264   8.831  0.4530 -0.4638  0.5010
 5397SOL    HW227828   4.177   1.171   8.729 -0.8720  0.5073 -1.6605
 5398SOL     OW27829   0.587   3.900   7.042 -0.0666  0.0324 -0.2399
 5398SOL    HW127830   0.679   3.913   7.018 -0.0903 -0.7012 -0.7492
 5398SOL    HW227831   0.596   3.947   7.125 -3.3669  2.2693 -1.1838
 5399SOL     OW27832   1.037   0.497   5.780 -0.0532 -0.2151  0.3577
 5399SOL    HW127833   1.110   0.444   5.812  1.5474 -0.0128 -2.9315
 5399SOL    HW227834   1.000   0.535   5.859 -0.7462 -0.3956  0.1168
 5400SOL     OW27835   1.950   4.082   3.136 -0.1741  0.5093  0.5353
 5400SOL    HW127836   1.878   4.146   3.131 -0.2389  0.4540  0.7584
 5400SOL    HW227837   2.027   4.140   3.139  1.0954 -1.2324  1.5479
 5401SOL     OW27838   1.590   3.871   8.993 -0.2282 -0.3748 -0.2274
 5401SOL    HW127839   1.598   3.903   8.903 -0.4652  2.2730  0.6850
 5401SOL    HW227840   1.500   3.892   9.018 -0.4596 -2.5644  0.7857
 5402SOL     OW27841   1.775   2.622   6.947  0.4857 -0.0926  0.3149
 5402SOL    HW127842   1.840   2.576   6.894 -0.1236 -1.3710  0.6861
 5402SOL    HW227843   1.832   2.659   7.015 -0.9573 -0.1093  1.5449
 5403SOL     OW27844   3.306   0.672   8.535  0.4159  0.2073  0.3623
 5403SOL    HW127845   3.215   0.676   8.503  0.8587  2.1011 -0.6677
 5403SOL    HW227846   3.298   0.659   8.629  1.2767 -1.1790  0.2378
 5404SOL     OW27847   2.094   0.979   2.321  0.2226 -0.6797 -0.2582
 5404SOL    HW127848   2.174   1.030   2.308 -0.6911  0.5881 -0.8476
 5404SOL    HW227849   2.114   0.922   2.396 -0.8131 -0.1351  0.4345
 5405SOL     OW27850   0.091   3.352   8.689  0.1449  0.4740 -0.0162
 5405SOL    HW127851   0.163   3.304   8.647 -0.2028  0.6250 -0.7726
 5405SOL    HW227852   0.057   3.279   8.741 -0.0408  0.6160  0.0585
 5406SOL     OW27853   1.509   1.224   2.772 -0.1753 -0.3179  0.6315
 5406SOL    HW127854   1.533   1.269   2.853 -1.4895  3.3627 -1.0263
 5406SOL    HW227855   1.594   1.196   2.738 -1.6630 -1.0920 -2.4799
 5407SOL     OW27856   3.619   4.423  15.078  0.8236 -0.0237 -0.2202
 5407SOL    HW127857   3.545   4.377  15.040  0.3495 -0.6986  1.5359
 5407SOL    HW227858   3.629   4.497  15.018  1.8714  0.2472  0.2755
 5408SOL     OW27859   4.070   3.976   9.972 -0.6380 -0.2910  0.1105
 5408SOL    HW127860   4.013   4.053   9.963 -2.1535 -1.2078  2.0418
 5408SOL    HW227861   4.090   3.987  10.065  1.1015  0.1756 -0.3139
 5409SOL     OW27862   0.069   3.321   7.174  0.3321 -0.2294  0.1534
 5409SOL    HW127863   0.120   3.395   7.142 -0.9292 -0.1188 -1.6047
 5409SOL    HW227864   0.139   3.267   7.210 -0.9516 -1.9609  0.0480
 5410SOL     OW27865   2.801   2.283   7.074 -0.1590 -0.1452  0.2291
 5410SOL    HW127866   2.804   2.195   7.111  1.9635  0.1558  0.7681
 5410SOL    HW227867   2.833   2.341   7.142 -3.1095  1.4948  0.2207
 5411SOL     OW27868   1.486   1.205  10.296 -0.1325 -0.0533  0.3311
 5411SOL    HW127869   1.558   1.157  10.254  0.6320  2.0259 -0.7578
 5411SOL    HW227870   1.526   1.289  10.315  1.9666 -0.5764 -1.7689
 5412SOL     OW27871   3.186   0.283   5.771 -0.6280 -0.4583  0.7341
 5412SOL    HW127872   3.239   0.222   5.719  1.1274  2.2534 -0.6638
 5412SOL    HW227873   3.131   0.320   5.702 -1.7126 -1.3253  1.1434
 5413SOL     OW27874   4.699   3.727   7.441  0.5734 -0.3132  0.1792
 5413SOL    HW127875   4.651   3.645   7.453 -1.8126  1.1209  0.4085
 5413SOL    HW227876   4.675   3.771   7.522  0.4729 -0.2133  0.0941
 5414SOL     OW27877   3.189   1.296  10.012  0.8640 -0.3152  0.1514
 5414SOL    HW127878   3.263   1.346  10.046 -0.5067  0.4466  2.0223
 5414SOL    HW227879   3.119   1.359   9.999  1.4164  0.4897  1.0536
 5415SOL     OW27880   3.787   0.233   6.206 -0.8166 -0.4022 -0.2692
 5415SOL    HW127881   3.873   0.232   6.248 -0.8298  1.7545 -0.1841
 5415SOL    HW227882   3.774   0.323   6.175  1.3112 -0.2998 -0.8234
 5416SOL     OW27883   0.171   2.989   2.786  0.6764 -0.2389  0.1145
 5416SOL    HW127884   0.255   2.956   2.754  0.8792 -0.2784  0.6744
 5416SOL    HW227885   0.124   3.014   2.707 -0.8761  0.5723  1.2793
 5417SOL     OW27886   0.209   0.527   5.829  0.2948  0.5749 -0.2703
 5417SOL    HW127887   0.285   0.495   5.877  1.5382 -0.3718 -2.8528
 5417SOL    HW227888   0.137   0.469   5.853 -0.4222  1.0758 -1.2087
 5418SOL     OW27889   0.279   2.597   2.271  0.0289 -0.2581  0.3342
 5418SOL    HW127890   0.198   2.549   2.291  0.7598 -1.6118  0.0793
 5418SOL    HW227891   0.342   2.534   2.236 -0.4431  0.0291 -1.0314
 5419SOL     OW27892   0.466   2.939  11.652 -0.4240 -0.3531 -0.4209
 5419SOL    HW127893   0.386   2.899  11.620 -0.5936  2.1833 -3.1696
 5419SOL    HW227894   0.506   2.966  11.570  0.1072  2.3744  0.7271
 5420SOL     OW27895   1.951   4.184  11.933 -0.1057  0.1716 -0.2199
 5420SOL    HW127896   2.036   4.222  11.955 -0.3711  1.0952 -0.7534
 5420SOL    HW227897   1.919   4.245  11.866 -1.9465  0.8742  1.2637
 5421SOL     OW27898   2.884   4.323   7.553  0.0906 -0.0454  0.2109
 5421SOL    HW127899   2.874   4.259   7.623 -1.4715  1.2683  1.1893
 5421SOL    HW227900   2.825   4.393   7.579 -0.7982 -0.1649 -1.5214
 5422SOL     OW27901   0.963   2.756   3.282  0.2042  0.0072  0.2451
 5422SOL    HW127902   1.012   2.674   3.275  0.4608  0.1647  0.2200
 5422SOL    HW227903   0.923   2.740   3.368  1.4665 -0.6880  0.7061
 5423SOL     OW27904   0.245   3.961   0.522  0.0953 -0.2621 -0.0367
 5423SOL    HW127905   0.290   3.998   0.446 -0.8893 -0.6989 -0.8234
 5423SOL    HW227906   0.170   3.921   0.480  0.2901  2.0874 -2.5899
 5424SOL     OW27907   1.123   4.116   5.810  0.3095 -0.2564  0.3124
 5424SOL    HW127908   1.201   4.153   5.853 -0.7380  2.6983 -0.3359
 5424SOL    HW227909   1.114   4.181   5.741 -0.0249 -1.4414 -0.7626
 5425SOL     OW27910   2.779   4.549   9.620  0.2774  0.3772  0.5459
 5425SOL    HW127911   2.826   4.632   9.618  2.3019 -0.7829 -0.8376
 5425SOL    HW227912   2.770   4.532   9.714 -0.2824 -0.2865  0.3742
 5426SOL     OW27913   1.112   2.948   6.869 -0.8587  0.0169 -0.2067
 5426SOL    HW127914   1.208   2.941   6.871 -0.9116 -0.6997 -0.0249
 5426SOL    HW227915   1.109   2.962   6.774 -1.7687  1.2362  0.0121
 5427SOL     OW27916   2.059   1.519   4.704  0.5693  0.4634 -0.0381
 5427SOL    HW127917   2.142   1.470   4.698 -0.8254 -2.0042  0.8279
 5427SOL    HW227918   2.061   1.560   4.618 -0.6284 -1.2678 -0.8934
 5428SOL     OW27919   0.077   2.351   1.440 -0.4581 -0.2384  0.9049
 5428SOL    HW127920   0.107   2.330   1.351 -0.7190 -2.2252  1.2963
 5428SOL    HW227921   0.143   2.310   1.495 -0.2112  0.7280  1.3190
 5429SOL     OW27922   2.655   2.584   2.937  0.1961  0.3673  0.3960
 5429SOL    HW127923   2.737   2.590   2.986  0.0420 -0.9828  0.8162
 5429SOL    HW227924   2.618   2.500   2.965 -0.6571  0.3257 -0.8488
 5430SOL     OW27925   1.952   4.337  10.235  0.2168  0.4778  0.7140
 5430SOL    HW127926   2.029   4.283  10.253 -0.4083  0.3045  2.9062
 5430SOL    HW227927   1.880   4.279  10.260  0.3039  1.1777  2.6115
 5431SOL     OW27928   3.879   4.144  10.045  0.0549 -0.1469  0.1745
 5431SOL    HW127929   3.867   4.234  10.014 -3.8163 -1.0523 -0.8995
 5431SOL    HW227930   3.789   4.119  10.066 -0.7027  1.1744 -1.5118
 5432SOL     OW27931   3.975   3.562   7.847 -0.0286 -0.0106 -0.1268
 5432SOL    HW127932   3.926   3.515   7.779  0.6078 -3.6014  1.8988
 5432SOL    HW227933   3.937   3.531   7.929 -1.9845  2.2946 -0.1747
 5433SOL     OW27934   4.052   0.933   3.107 -0.1243  0.4551  0.6334
 5433SOL    HW127935   4.103   1.007   3.075 -1.4995  0.3683 -1.7320
 5433SOL    HW227936   4.088   0.926   3.195 -1.0006 -3.4801  0.6951
 5434SOL     OW27937   2.269   4.598   9.783 -0.5422 -0.1235  0.0076
 5434SOL    HW127938   2.290   4.556   9.700  0.9170 -1.2121  0.9169
 5434SOL    HW227939   2.174   4.587   9.782 -0.4973 -0.6953  1.1215
 5435SOL     OW27940   3.112   1.893  14.188 -0.2180 -0.1416 -0.3729
 5435SOL    HW127941   3.105   1.974  14.238 -3.3684  1.1288 -2.8632
 5435SOL    HW227942   3.207   1.879  14.187 -0.0810  0.8703 -0.8227
 5436SOL     OW27943   1.698   2.275   8.830 -0.3611 -0.0118 -0.5307
 5436SOL    HW127944   1.660   2.362   8.826 -1.6119 -0.5762 -0.7594
 5436SOL    HW227945   1.673   2.238   8.745 -1.0279 -0.4516 -0.1375
 5437SOL     OW27946   2.870   3.300   7.706  0.2928 -0.3166 -0.0728
 5437SOL    HW127947   2.807   3.371   7.720  0.7487  0.0998 -0.1557
 5437SOL    HW227948   2.921   3.334   7.633  1.0285 -1.8020 -0.2553
 5438SOL     OW27949   0.312   4.032   4.080  0.0027 -0.7215  0.1468
 5438SOL    HW127950   0.358   4.072   4.155  0.3559 -0.5281 -0.1685
 5438SOL    HW227951   0.381   3.970   4.057  1.6113  0.7032  1.0237
 5439SOL     OW27952   0.885   2.756   2.643 -0.2643  0.1060 -0.1951
 5439SOL    HW127953   0.832   2.699   2.698 -1.0901 -0.5463 -1.6630
 5439SOL    HW227954   0.895   2.689   2.575 -3.4313 -0.5279 -0.0054
 5440SOL     OW27955   2.050   3.380  13.328  0.7614  0.1357  0.2238
 5440SOL    HW127956   2.064   3.401  13.236  3.5149  1.0158  0.8265
 5440SOL    HW227957   2.017   3.290  13.329 -0.2848  0.5203  0.5558
 5441SOL     OW27958   1.445   2.963   4.774 -0.2790  0.1531 -0.0439
 5441SOL    HW127959   1.387   2.932   4.844 -0.2884 -2.0231 -1.0076
 5441SOL    HW227960   1.452   2.883   4.721  0.2333  0.2871 -0.1781
 5442SOL     OW27961   1.214   1.541   3.286  0.1082  0.1425 -0.0846
 5442SOL    HW127962   1.152   1.489   3.338  2.1984 -1.6324  0.6241
 5442SOL    HW227963   1.281   1.566   3.349  0.0578  0.9168 -0.3338
 5443SOL     OW27964   1.176   1.563   5.843 -0.2146 -0.1570  0.0300
 5443SOL    HW127965   1.268   1.560   5.816 -0.4067 -3.0900 -0.2700
 5443SOL    HW227966   1.180   1.517   5.927  0.1898  1.4706  0.9061
 5444SOL     OW27967   2.983   0.176   8.533 -0.1950  0.1418 -0.4841
 5444SOL    HW127968   3.036   0.236   8.481  0.4596 -0.9251 -1.0457
 5444SOL    HW227969   3.049   0.127   8.581 -0.7535 -0.7613 -0.6267
 5445SOL     OW27970   1.575   0.761   1.912  0.0958 -0.0278  0.3854
 5445SOL    HW127971   1.635   0.688   1.901  1.5516  1.3677 -0.8022
 5445SOL    HW227972   1.516   0.761   1.836  0.9695  1.3678 -0.2928
 5446SOL     OW27973   1.430   3.589   2.082  0.7203  0.2637  0.3810
 5446SOL    HW127974   1.427   3.683   2.063  2.5223  0.1205 -0.6187
 5446SOL    HW227975   1.487   3.582   2.159 -1.7121  0.5733  2.2237
 5447SOL     OW27976   1.993   0.262  15.443  0.0170 -0.1459 -0.0786
 5447SOL    HW127977   2.066   0.317  15.415  0.9789 -0.6101  1.5670
 5447SOL    HW227978   1.926   0.316  15.401  0.5533  0.7372  0.2105
 5448SOL     OW27979   4.485   0.624   5.085 -0.0591  0.2099 -0.2083
 5448SOL    HW127980   4.499   0.707   5.130  0.3197 -0.4031  0.8052
 5448SOL    HW227981   4.559   0.576   5.120  0.7254  1.9896  0.5814
 5449SOL     OW27982   2.886   2.322   5.843  0.2866 -0.1922 -0.3716
 5449SOL    HW127983   2.972   2.305   5.882 -0.1485 -0.9708  0.2364
 5449SOL    HW227984   2.850   2.398   5.888 -0.0406 -0.8625  0.4866
 5450SOL     OW27985   4.578   0.791   8.169  0.1424  0.5754  0.2935
 5450SOL    HW127986   4.541   0.817   8.084 -2.3088  0.8748  1.4472
 5450SOL    HW227987   4.667   0.820   8.152  0.5949 -1.0249 -0.0471
 5451SOL     OW27988   2.990   4.209   2.336  0.2703  0.0779  0.2923
 5451SOL    HW127989   3.019   4.139   2.394 -1.4469  0.4964  1.6563
 5451SOL    HW227990   2.921   4.259   2.380  0.0187 -2.2480  2.5170
 5452SOL     OW27991   1.195   3.400   3.853  0.1743  0.3697  0.2192
 5452SOL    HW127992   1.101   3.396   3.871  0.1044 -0.3542 -0.3161
 5452SOL    HW227993   1.205   3.469   3.787  1.9108  0.0888  0.1932
 5453SOL     OW27994   4.619   2.386  16.401 -0.1908  0.1415 -0.5635
 5453SOL    HW127995   4.707   2.414  16.427 -0.9795 -0.6393  3.0042
 5453SOL    HW227996   4.644   2.303  16.361  0.3412 -1.1587  2.3955
 5454SOL     OW27997   3.633   1.368  14.336 -0.1363  0.4020  0.4335
 5454SOL    HW127998   3.563   1.305  14.323 -1.0458  1.0902  1.9698
 5454SOL    HW227999   3.700   1.330  14.280 -1.5757 -1.7476  0.1836
 5455SOL     OW28000   1.512   0.630   8.490  0.1989  0.3605 -0.4544
 5455SOL    HW128001   1.559   0.566   8.544 -0.9992  1.0839  1.4317
 5455SOL    HW228002   1.583   0.661   8.434 -0.0517  2.9937  0.6792
 5456SOL     OW28003   3.785   1.054   9.139  0.0251 -0.2532  0.4750
 5456SOL    HW128004   3.743   1.023   9.059 -2.2924  2.2265  0.7510
 5456SOL    HW228005   3.735   1.135   9.145 -0.2504 -0.2911 -1.3363
 5457SOL     OW28006   2.995   2.370   8.475  0.0106 -0.2327 -0.1723
 5457SOL    HW128007   3.064   2.329   8.527 -0.7474 -0.1474  0.9069
 5457SOL    HW228008   3.042   2.402   8.398 -0.9507 -1.2627 -1.1812
 5458SOL     OW28009   1.994   3.910   4.812  0.5425 -0.1161 -0.7603
 5458SOL    HW128010   2.064   3.940   4.753  1.3682 -0.0860  0.2281
 5458SOL    HW228011   1.993   3.816   4.792 -0.2040 -0.5840  1.4095
 5459SOL     OW28012   4.499   3.259   7.529  0.0465 -0.0665  0.0407
 5459SOL    HW128013   4.429   3.307   7.573  0.8786  1.8016 -0.6661
 5459SOL    HW228014   4.516   3.322   7.459  0.8088 -1.3372 -0.9190
 5460SOL     OW28015   4.079   2.900   2.257  0.5322  0.2789  0.2299
 5460SOL    HW128016   3.989   2.894   2.290  0.3782  0.8173 -0.0894
 5460SOL    HW228017   4.114   2.947   2.333  1.3731 -0.7854  0.4940
 5461SOL     OW28018   0.013   3.234  11.127 -0.0465  0.1584  0.3011
 5461SOL    HW128019   4.715   3.174  11.061  0.4750  1.9858 -1.6289
 5461SOL    HW228020   4.671   3.230  11.184  1.5220 -2.6362  2.2732
 5462SOL     OW28021   0.056   0.555   9.591 -0.4417 -0.2463 -0.1829
 5462SOL    HW128022   4.696   0.569   9.583 -1.1144 -3.6017  2.0677
 5462SOL    HW228023   0.062   0.483   9.654 -0.5030 -0.8526 -0.8785
 5463SOL     OW28024   1.649   2.999  15.272 -0.4762 -0.5234  0.2174
 5463SOL    HW128025   1.587   2.931  15.246  0.9165 -2.1602  1.2236
 5463SOL    HW228026   1.608   3.033  15.351  0.3166  1.3884 -0.1879
 5464SOL     OW28027   4.173   1.887  17.052  0.1453 -0.4857  0.1364
 5464SOL    HW128028   4.087   1.929  17.049  0.9979  1.4863  3.0726
 5464SOL    HW228029   4.155   1.802  17.091  1.2223 -1.4037 -1.3629
 5465SOL     OW28030   4.627   1.394   9.502  0.5875  0.3048 -0.4848
 5465SOL    HW128031   4.563   1.344   9.552 -0.8401 -0.2708 -2.9307
 5465SOL    HW228032   4.679   1.428   9.575  2.5331  1.1965 -2.2811
 5466SOL     OW28033   0.001   1.365   5.803 -0.0343  0.2789 -0.1381
 5466SOL    HW128034   4.651   1.324   5.795  0.4409 -0.9186  0.9851
 5466SOL    HW228035   0.042   1.310   5.870 -0.5055  0.9843  0.7309
 5467SOL     OW28036   3.911   2.062   3.933 -0.0934  0.2474 -0.2942
 5467SOL    HW128037   3.962   2.002   3.879 -1.4195  0.7216 -2.0620
 5467SOL    HW228038   3.862   1.995   3.980 -0.5981  0.5696 -0.3665
 5468SOL     OW28039   2.761   2.454   1.709 -0.3458 -0.0616 -0.1961
 5468SOL    HW128040   2.721   2.367   1.713  1.8482 -1.0290  0.4962
 5468SOL    HW228041   2.721   2.483   1.627 -1.5949 -2.2573 -0.3689
 5469SOL     OW28042   2.857   2.600   5.243  0.0002 -0.0774  0.0896
 5469SOL    HW128043   2.906   2.649   5.310  1.1926  0.0489 -0.8858
 5469SOL    HW228044   2.844   2.655   5.166 -1.1979 -0.3557  0.0982
 5470SOL     OW28045   1.160   0.247   8.691 -0.3167 -0.0793 -0.1236
 5470SOL    HW128046   1.184   0.155   8.701 -1.0574 -0.3577 -0.8937
 5470SOL    HW228047   1.079   0.238   8.640 -0.8163  3.4093  0.0481
 5471SOL     OW28048   4.411   1.841   3.524 -0.3709  0.5625 -0.1749
 5471SOL    HW128049   4.432   1.926   3.484 -3.5083  1.3963 -0.0342
 5471SOL    HW228050   4.386   1.869   3.612 -1.2621  0.0111 -0.2605
 5472SOL     OW28051   0.686   2.199  10.053  0.5239 -0.5669 -0.6154
 5472SOL    HW128052   0.722   2.269  10.107  0.1887 -0.1954 -0.8634
 5472SOL    HW228053   0.717   2.237   9.971  0.3236 -0.8063 -0.8026
 5473SOL     OW28054   2.235   2.450   6.408 -0.1279  0.2134  0.2149
 5473SOL    HW128055   2.233   2.370   6.355 -0.5217 -0.5981  1.4569
 5473SOL    HW228056   2.236   2.405   6.492  0.3380 -0.2516 -0.0331
 5474SOL     OW28057   0.801   1.791   7.646 -0.1772 -0.4864  0.4053
 5474SOL    HW128058   0.827   1.858   7.583  0.7303 -0.2704  1.0141
 5474SOL    HW228059   0.827   1.711   7.601 -1.6068 -0.7187 -0.0221
 5475SOL     OW28060   4.080   2.538   6.241  0.1533  0.1665  0.3773
 5475SOL    HW128061   4.024   2.467   6.208  1.0170 -0.3064 -0.0553
 5475SOL    HW228062   4.043   2.539   6.329 -0.6621 -0.1720  0.0365
 5476SOL     OW28063   3.028   4.156   2.079 -0.2026 -0.0488 -0.3978
 5476SOL    HW128064   3.113   4.199   2.075  1.9833 -4.4342 -0.9031
 5476SOL    HW228065   3.014   4.155   2.173 -1.7852 -1.5548 -0.6478
 5477SOL     OW28066   3.131   0.086   6.948 -0.1526  0.3840  0.4191
 5477SOL    HW128067   3.178   0.100   6.866  0.6733 -3.0388  0.3029
 5477SOL    HW228068   3.074   0.159   6.969 -1.9673  0.1105 -3.7063
 5478SOL     OW28069   1.076   3.707   7.884 -0.2279  0.4618  0.6023
 5478SOL    HW128070   1.044   3.743   7.801 -1.5208 -0.1402  0.8368
 5478SOL    HW228071   1.007   3.748   7.936 -0.2861  0.6542  0.3700
 5479SOL     OW28072   3.344   4.367   6.397  0.2687 -0.4103 -0.4067
 5479SOL    HW128073   3.411   4.310   6.359  1.3756  1.7812 -1.7389
 5479SOL    HW228074   3.282   4.295   6.406  0.6195 -0.3358  2.6161
 5480SOL     OW28075   2.397   2.670  17.058 -0.8797 -0.6568  0.1615
 5480SOL    HW128076   2.397   2.576  17.041  0.5761  0.1969 -4.5666
 5480SOL    HW228077   2.418   2.715  16.976 -1.8910  0.7095  0.6552
 5481SOL     OW28078   0.743   4.485   4.465  0.1778 -0.9348 -0.6104
 5481SOL    HW128079   0.715   4.398   4.495 -2.3541  0.3347  0.7917
 5481SOL    HW228080   0.819   4.472   4.409 -1.3760 -4.3932 -1.9618
 5482SOL     OW28081   2.363   3.316   4.321 -0.0690  0.0486  0.1637
 5482SOL    HW128082   2.306   3.256   4.369  0.5577 -0.4126  0.3305
 5482SOL    HW228083   2.377   3.273   4.236 -2.9688 -0.7938  0.0967
 5483SOL     OW28084   0.216   4.604   6.255 -0.1889 -0.1984  0.1903
 5483SOL    HW128085   0.193   4.663   6.327  0.5225  0.8342 -0.4335
 5483SOL    HW228086   0.153   4.622   6.184  1.6790 -2.0691 -1.9310
 5484SOL     OW28087   3.349   4.558   4.245 -0.4257  0.2481 -0.1398
 5484SOL    HW128088   3.325   4.620   4.176 -2.0519  1.7107  1.7492
 5484SOL    HW228089   3.269   4.505   4.237 -0.7434  0.9869 -1.7540
 5485SOL     OW28090   4.598   0.179   4.705 -0.1944 -0.1600  0.0030
 5485SOL    HW128091   4.575   0.213   4.618  2.0385  0.1632 -0.4675
 5485SOL    HW228092   4.511   0.182   4.745  0.2148  0.2475  0.8684
 5486SOL     OW28093   0.667   0.168   1.432  0.0603 -0.4875 -0.0977
 5486SOL    HW128094   0.732   0.097   1.434  0.7715  0.1790  0.5420
 5486SOL    HW228095   0.704   0.240   1.383 -0.5860  2.5329  3.8653
 5487SOL     OW28096   4.325   4.700   9.791 -0.3298 -0.2612  0.1171
 5487SOL    HW128097   4.351   4.713   9.700 -0.5263  0.0532  0.1049
 5487SOL    HW228098   4.259   4.631   9.786 -2.4276  1.7483 -0.0120
 5488SOL     OW28099   3.461   4.011   7.475 -0.0464  0.1697 -0.2239
 5488SOL    HW128100   3.369   4.036   7.481  0.8463  2.7633  2.5818
 5488SOL    HW228101   3.493   4.094   7.440 -0.5501  0.2662 -0.4630
 5489SOL     OW28102   0.244   4.059   0.815  0.1715  0.0840 -0.3569
 5489SOL    HW128103   0.212   4.048   0.726 -1.4286  0.7884  0.1144
 5489SOL    HW228104   0.333   4.084   0.792  0.1750 -0.3711 -0.8052
 5490SOL     OW28105   2.175   0.225   3.536  0.1527 -0.7107  0.2876
 5490SOL    HW128106   2.261   0.184   3.538  0.3548 -0.2482  1.1309
 5490SOL    HW228107   2.134   0.147   3.572 -1.8673  0.8886  1.4791
 5491SOL     OW28108   2.322   0.307   3.104  0.3426 -0.8272 -0.7506
 5491SOL    HW128109   2.366   0.346   3.179 -3.9983  1.0911  0.8094
 5491SOL    HW228110   2.248   0.366   3.115  0.5383 -0.7049 -0.0845
 5492SOL     OW28111   1.265   0.495   8.561 -0.1447 -0.0108  0.6438
 5492SOL    HW128112   1.352   0.529   8.540 -0.8563  1.4918  0.1482
 5492SOL    HW228113   1.266   0.400   8.552  0.3421  0.2594 -2.2910
 5493SOL     OW28114   2.677   4.125   6.630  0.2399 -0.1227  0.2119
 5493SOL    HW128115   2.676   4.152   6.722 -0.2415 -1.3542  0.5685
 5493SOL    HW228116   2.630   4.194   6.584  2.1496  1.6776  0.9174
 5494SOL     OW28117   2.006   1.029   7.725  0.1798  0.0953  0.1661
 5494SOL    HW128118   2.042   1.118   7.732  1.2588 -0.1746 -1.8651
 5494SOL    HW228119   2.072   0.987   7.780 -1.2831 -0.2421  1.6601
 5495SOL     OW28120   2.240   0.364   7.779  0.3255 -0.6686 -0.1078
 5495SOL    HW128121   2.221   0.429   7.847 -2.5868 -0.8015 -0.8050
 5495SOL    HW228122   2.149   0.358   7.752 -0.3841  0.5214  1.9722
 5496SOL     OW28123   0.357   4.453   1.570 -0.8135 -0.2428 -0.1914
 5496SOL    HW128124   0.417   4.406   1.626 -1.0216  0.4146  0.5884
 5496SOL    HW228125   0.408   4.523   1.528  0.5154 -0.9976  0.1662
 5497SOL     OW28126   0.958   3.276   6.168  0.3294 -0.2821 -0.3361
 5497SOL    HW128127   0.924   3.205   6.222 -0.5074 -1.1027 -1.9396
 5497SOL    HW228128   0.979   3.235   6.084  2.3743  0.4660 -0.1823
 5498SOL     OW28129   3.622   4.227  13.095  0.0903 -0.5314  0.1763
 5498SOL    HW128130   3.560   4.272  13.152  0.5017  0.7367 -0.3769
 5498SOL    HW228131   3.656   4.160  13.154  1.6322  1.8991  2.0461
 5499SOL     OW28132   3.466   3.984   8.007  0.2821  0.2026 -0.2955
 5499SOL    HW128133   3.449   3.890   8.007  1.2173  0.0329  0.5308
 5499SOL    HW228134   3.462   4.007   7.914  0.2162 -1.4974 -0.7012
 5500SOL     OW28135   3.669   4.606  15.605  0.5020  0.3067  0.5854
 5500SOL    HW128136   3.692   4.699  15.600  1.1433 -0.0119 -2.3356
 5500SOL    HW228137   3.699   4.589  15.694 -3.4774 -1.2702  1.6164
 5501SOL     OW28138   1.900   1.480   1.593 -0.5284 -0.0622  0.3427
 5501SOL    HW128139   1.816   1.484   1.546  0.3820 -1.5011 -1.3983
 5501SOL    HW228140   1.875   1.449   1.680 -0.0072 -3.1936 -0.6266
 5502SOL     OW28141   0.363   4.670   7.703  0.3687 -0.5070  0.0932
 5502SOL    HW128142   0.286   4.709   7.661 -0.2537 -0.8862  0.8875
 5502SOL    HW228143   0.321   4.596   7.749  0.5537 -1.1245 -0.7324
 5503SOL     OW28144   4.057   2.236   6.895 -0.0354  0.4328 -0.0891
 5503SOL    HW128145   4.075   2.155   6.847 -2.5320  0.8003 -1.6604
 5503SOL    HW228146   4.146   2.269   6.908  0.5171 -0.8420 -0.6581
 5504SOL     OW28147   2.846   2.150   6.552 -0.1699  0.4814 -0.3689
 5504SOL    HW128148   2.870   2.170   6.642 -0.5833 -2.4264  0.3929
 5504SOL    HW228149   2.925   2.176   6.503 -0.3260  1.6547  0.0037
 5505SOL     OW28150   0.163   2.176  14.163  0.4678  0.0162  0.7397
 5505SOL    HW128151   0.085   2.138  14.203 -0.6830  1.5326 -0.0632
 5505SOL    HW228152   0.170   2.116  14.090 -1.1440 -1.2352  1.6169
 5506SOL     OW28153   0.988   3.073   5.574  0.0562 -0.2877  0.0911
 5506SOL    HW128154   1.064   3.050   5.627  0.0490  3.5217  1.7855
 5506SOL    HW228155   0.915   3.063   5.635 -0.5859  1.0795 -0.4452
 5507SOL     OW28156   2.413   2.457  14.910  0.5513  0.2078  0.2586
 5507SOL    HW128157   2.434   2.503  14.829  0.2933  1.4504  0.8938
 5507SOL    HW228158   2.435   2.371  14.876 -2.5691  0.2821 -2.0381
 5508SOL     OW28159   4.106   1.826   7.276  0.4489 -0.5153 -0.0660
 5508SOL    HW128160   4.172   1.895   7.268 -0.8158  0.9906  2.3900
 5508SOL    HW228161   4.154   1.755   7.233  1.0657  0.2573 -0.6694
 5509SOL     OW28162   2.225   3.371   9.740 -0.6146 -0.1942  0.1154
 5509SOL    HW128163   2.263   3.443   9.789  0.9012 -1.2446  0.4721
 5509SOL    HW228164   2.244   3.405   9.653  0.1120 -1.8418 -0.3655
 5510SOL     OW28165   4.653   4.526   2.092 -0.2028  0.0653  0.2061
 5510SOL    HW128166   4.637   4.566   2.007 -0.2306  0.6980  0.5020
 5510SOL    HW228167   4.574   4.475   2.107  1.8947 -3.1849  0.2275
 5511SOL     OW28168   3.377   1.733   1.768 -0.2621 -0.3605 -0.6049
 5511SOL    HW128169   3.306   1.670   1.782 -1.6312  0.8262 -2.1904
 5511SOL    HW228170   3.333   1.817   1.753 -0.3559 -0.5282 -1.2686
 5512SOL     OW28171   1.683   4.087  15.884 -0.3699 -0.2729 -0.0482
 5512SOL    HW128172   1.626   4.152  15.845  0.9436  0.5487 -0.6008
 5512SOL    HW228173   1.648   4.011  15.839  0.9920 -0.8136 -0.2129
 5513SOL     OW28174   3.882   3.631   7.454  0.8486 -0.2118 -0.1190
 5513SOL    HW128175   3.919   3.653   7.368 -1.6060  0.5709 -0.9752
 5513SOL    HW228176   3.830   3.710   7.468 -0.7924 -1.7777  2.4677
 5514SOL     OW28177   0.010   4.098   0.436 -0.2052 -0.1095 -0.3715
 5514SOL    HW128178   4.678   4.072   0.500 -1.6374 -1.6030 -2.4535
 5514SOL    HW228179   0.020   4.015   0.389  0.4693 -0.5085  0.4781
 5515SOL     OW28180   1.169   0.589   3.976  0.6422  0.4043  0.1491
 5515SOL    HW128181   1.135   0.505   4.004  3.0960 -0.4733  0.5231
 5515SOL    HW228182   1.258   0.575   4.009  0.4427  1.9818  1.3436
 5516SOL     OW28183   2.774   2.899   3.158  0.1452 -0.1518 -0.2062
 5516SOL    HW128184   2.863   2.909   3.193  0.3651 -0.0917 -0.7771
 5516SOL    HW228185   2.727   2.962   3.212  0.2392 -1.8424  1.8688
 5517SOL     OW28186   3.049   4.077  11.169 -0.3090 -0.5572 -0.1957
 5517SOL    HW128187   3.055   4.044  11.079  0.8760 -0.8788  0.0027
 5517SOL    HW228188   3.015   4.002  11.218  0.2821  0.3860  1.6464
 5518SOL     OW28189   4.453   3.483   1.438 -0.2809  0.1070 -0.4942
 5518SOL    HW128190   4.452   3.393   1.404 -0.3490 -0.4320  0.9099
 5518SOL    HW228191   4.520   3.486   1.506  1.1123  0.8023 -1.9020
 5519SOL     OW28192   2.703   4.592   9.880  0.4015 -0.2785 -0.1451
 5519SOL    HW128193   2.768   4.659   9.904 -0.6482 -0.4081  2.9720
 5519SOL    HW228194   2.624   4.645   9.888 -0.9774 -2.4808  0.5668
 5520SOL     OW28195   1.577   0.024   1.561  0.0752  0.0231  0.0627
 5520SOL    HW128196   1.506   4.699   1.538  1.1356 -2.7027  3.7580
 5520SOL    HW228197   1.643   0.015   1.493  0.8369  1.3327  0.6228
 5521SOL     OW28198   3.580   2.529   0.502 -0.1055 -0.3496 -0.3904
 5521SOL    HW128199   3.629   2.608   0.480 -1.9779  1.6732  2.6710
 5521SOL    HW228200   3.653   2.479   0.540 -0.5368 -1.1145 -0.5676
 5522SOL     OW28201   0.571   2.222  13.817  0.4340 -0.0091  0.2390
 5522SOL    HW128202   0.612   2.251  13.736 -3.2746  1.8215 -1.0151
 5522SOL    HW228203   0.586   2.299  13.872  1.3824 -0.6191  0.8301
 5523SOL     OW28204   4.222   1.285  11.790 -0.3246 -0.0604 -0.4927
 5523SOL    HW128205   4.261   1.343  11.724  0.1663  0.6921  0.4653
 5523SOL    HW228206   4.129   1.294  11.766 -0.2838  0.2384 -0.5412
 5524SOL     OW28207   0.246   4.191   5.309  0.3077 -0.1654  0.1255
 5524SOL    HW128208   0.215   4.278   5.282 -0.3406  0.0734  1.6569
 5524SOL    HW228209   0.257   4.194   5.404 -0.8271 -1.0749  0.2914
 5525SOL     OW28210   2.566   3.179  12.622 -0.2168 -0.4451 -0.6819
 5525SOL    HW128211   2.489   3.201  12.675 -0.4706 -0.4020 -1.0663
 5525SOL    HW228212   2.533   3.098  12.584 -5.4622  0.4088  2.0479
 5526SOL     OW28213   4.218   4.700   6.749 -0.4943  0.4899 -0.3292
 5526SOL    HW128214   4.177   4.627   6.795 -0.9427 -1.1028 -3.2634
 5526SOL    HW228215   4.165   0.041   6.775  0.9571  1.7581 -1.1183
 5527SOL     OW28216   3.696   0.798   5.908 -0.0819 -0.8534  0.5005
 5527SOL    HW128217   3.779   0.753   5.918  1.3879  1.5611 -0.9509
 5527SOL    HW228218   3.654   0.784   5.993 -0.5494  1.1409  0.5919
 5528SOL     OW28219   1.425   3.515  12.132 -0.1448 -0.0288 -0.1896
 5528SOL    HW128220   1.405   3.600  12.171  1.9801 -0.3490  1.5510
 5528SOL    HW228221   1.382   3.527  12.047 -0.2072 -0.8779 -0.2807
 5529SOL     OW28222   0.578   1.161  15.007 -0.4413 -0.0700  0.1007
 5529SOL    HW128223   0.519   1.092  15.037  0.6500 -1.3985 -0.7599
 5529SOL    HW228224   0.546   1.163  14.917 -3.1856 -1.2388  1.0503
 5530SOL     OW28225   3.798   0.555   0.619  0.2132 -0.3286 -0.1894
 5530SOL    HW128226   3.871   0.567   0.559  1.5975  0.7075  1.7116
 5530SOL    HW228227   3.852   0.528   0.693  1.4067 -2.6400 -1.9156
 5531SOL     OW28228   0.191   0.697   9.403  0.0655 -0.5678  0.1497
 5531SOL    HW128229   0.113   0.659   9.443  0.0492  0.3063  0.9572
 5531SOL    HW228230   0.155   0.786   9.412 -1.2907 -1.1184  0.2062
 5532SOL     OW28231   2.458   4.413   5.474 -0.0869  0.1578 -0.0956
 5532SOL    HW128232   2.436   4.502   5.500 -0.3010  0.6225 -1.8747
 5532SOL    HW228233   2.381   4.361   5.495 -1.0896  1.0047 -1.6750
 5533SOL     OW28234   3.202   2.369   7.544  0.0437 -0.6363 -0.2338
 5533SOL    HW128235   3.152   2.334   7.470  1.5270 -0.0543 -1.5044
 5533SOL    HW228236   3.256   2.431   7.495 -0.5278 -2.4525 -3.1444
 5534SOL     OW28237   2.245   4.468   2.296  0.2833  0.1283 -0.0705
 5534SOL    HW128238   2.298   4.518   2.234  0.4507  0.4683  0.3489
 5534SOL    HW228239   2.163   4.503   2.261 -1.0880  0.0217  3.0664
 5535SOL     OW28240   2.833   1.681   9.047 -0.0911 -0.2672 -0.4632
 5535SOL    HW128241   2.876   1.766   9.034  0.4859  0.0651  3.6613
 5535SOL    HW228242   2.893   1.630   9.102  1.5430  0.6053 -1.4433
 5536SOL     OW28243   0.378   2.772   5.628 -0.1441 -0.2587 -0.0097
 5536SOL    HW128244   0.326   2.731   5.559  2.1779  0.6427 -2.2834
 5536SOL    HW228245   0.305   2.815   5.673  0.1549 -0.5892  0.7919
 5537SOL     OW28246   4.520   4.666   8.515  0.0611  0.1190 -0.6240
 5537SOL    HW128247   4.447   4.611   8.486 -0.6935  0.2540  1.0202
 5537SOL    HW228248   4.486   0.015   8.485 -0.2434 -0.1119 -0.9199
 5538SOL     OW28249   0.027   2.470   2.395  0.1270  0.1311  0.4230
 5538SOL    HW128250   4.684   2.419   2.417  0.3437 -0.4161 -0.0683
 5538SOL    HW228251   4.726   2.558   2.393  1.3426  0.6033 -0.8885
 5539SOL     OW28252   0.485   2.074   5.649 -0.1078 -0.0453 -0.0438
 5539SOL    HW128253   0.567   2.123   5.662 -1.3498  1.7061  1.2174
 5539SOL    HW228254   0.510   1.995   5.601 -2.4152 -1.0008  0.3187
 5540SOL     OW28255   1.361   0.444  16.360 -0.4172 -0.0778  0.1115
 5540SOL    HW128256   1.340   0.350  16.358  0.4227 -0.2192 -2.3385
 5540SOL    HW228257   1.391   0.455  16.450 -0.8429  0.9253  0.1252
 5541SOL     OW28258   0.167   1.234  15.282 -0.7351 -0.0869  0.0726
 5541SOL    HW128259   0.182   1.169  15.350 -1.1405  0.7346  0.9483
 5541SOL    HW228260   0.248   1.285  15.288 -1.5917  1.2029  0.5151
 5542SOL     OW28261   3.726   0.864  12.617 -0.8935  0.1459 -0.1646
 5542SOL    HW128262   3.668   0.939  12.602  1.2300  1.4453 -1.8697
 5542SOL    HW228263   3.810   0.905  12.598  0.2136 -1.3190  1.6507
 5543SOL     OW28264   4.359   3.593   2.936  0.5770 -0.2784 -0.2265
 5543SOL    HW128265   4.440   3.642   2.950  0.9669 -1.3019  1.1045
 5543SOL    HW228266   4.370   3.564   2.845 -0.3593  1.5215 -0.9100
 5544SOL     OW28267   1.320   1.302   4.781 -0.1602 -0.5655  0.4379
 5544SOL    HW128268   1.256   1.277   4.715  0.7234  0.7891 -0.9299
 5544SOL    HW228269   1.396   1.245   4.770 -1.1703 -1.2727 -2.6236
 5545SOL     OW28270   1.850   0.237   5.951 -0.0305 -0.0864 -0.5127
 5545SOL    HW128271   1.761   0.234   5.988 -0.4325 -0.0454 -1.4856
 5545SOL    HW228272   1.846   0.172   5.881 -1.4617 -0.9349  0.3386
 5546SOL     OW28273   1.442   1.113   5.700 -0.5093 -0.0313 -0.7603
 5546SOL    HW128274   1.477   1.045   5.642  3.0374  0.7157  0.4855
 5546SOL    HW228275   1.362   1.077   5.737  0.3684 -2.1202 -0.8725
 5547SOL     OW28276   0.398   1.761  15.766 -0.2322  0.2510 -0.3485
 5547SOL    HW128277   0.416   1.795  15.679 -0.4436 -1.0648 -0.9125
 5547SOL    HW228278   0.368   1.841  15.809 -1.4703 -1.6610  2.3745
 5548SOL     OW28279   3.499   0.440   9.749  0.2430 -0.4443  0.1216
 5548SOL    HW128280   3.583   0.397   9.763  0.2391 -0.1287  1.1342
 5548SOL    HW228281   3.524   0.506   9.686 -2.0719  0.3482  0.0173
 5549SOL     OW28282   0.555   2.743   4.127  0.1531  0.4276 -0.5228
 5549SOL    HW128283   0.556   2.669   4.187  1.5755 -0.7172 -1.9623
 5549SOL    HW228284   0.496   2.807   4.167  0.5781 -1.5229  3.2415
 5550SOL     OW28285   2.559   4.643   7.425  0.4152  0.0840  0.1726
 5550SOL    HW128286   2.580   4.614   7.336  1.8432  1.2722  0.1125
 5550SOL    HW228287   2.646   4.680   7.436 -0.4653  2.4025 -0.7308
 5551SOL     OW28288   2.249   3.666   7.379 -0.0283 -0.0202 -0.2498
 5551SOL    HW128289   2.334   3.708   7.367 -0.2151  0.5019  0.2828
 5551SOL    HW228290   2.201   3.707   7.307  0.9669 -0.5201 -1.1925
 5552SOL     OW28291   3.190   0.481   7.856 -0.2826 -0.0239 -0.0854
 5552SOL    HW128292   3.189   0.561   7.910 -0.5516 -1.1365  1.5664
 5552SOL    HW228293   3.213   0.515   7.770 -1.0947 -1.1291 -0.7254
 5553SOL     OW28294   4.512   2.376   2.921  0.1647  0.7526  0.0012
 5553SOL    HW128295   4.488   2.292   2.961  0.3102  1.0867  0.7823
 5553SOL    HW228296   4.466   2.439   2.977  0.1982 -0.2420  1.1539
 5554SOL     OW28297   1.998   3.471   5.585 -0.6524 -0.4110 -0.3367
 5554SOL    HW128298   1.921   3.467   5.641 -2.0342  0.9208 -2.1496
 5554SOL    HW228299   1.963   3.511   5.505 -0.7436 -2.7382 -1.4549
 5555SOL     OW28300   2.430   1.662   1.074  1.0170  0.4601  0.0174
 5555SOL    HW128301   2.369   1.731   1.101  0.3999 -0.6738  1.4498
 5555SOL    HW228302   2.508   1.712   1.097  1.5123  0.6336 -2.0045
 5556SOL     OW28303   3.074   3.778   9.977  0.1373 -0.1133  0.3908
 5556SOL    HW128304   3.002   3.717   9.993 -0.6353  0.3775 -1.1552
 5556SOL    HW228305   3.073   3.789   9.881 -2.2160 -1.7049  0.2454
 5557SOL     OW28306   0.429   1.859   6.685 -0.5853  0.1586  0.0585
 5557SOL    HW128307   0.370   1.825   6.618 -0.9498 -0.8030  0.8755
 5557SOL    HW228308   0.429   1.797   6.758  2.6846  0.0959  0.0158
 5558SOL     OW28309   1.820   3.399  14.950 -0.2332 -0.2336  0.1403
 5558SOL    HW128310   1.849   3.314  14.984  2.7152  0.1775 -1.4242
 5558SOL    HW228311   1.775   3.442  15.023  0.2533  0.6633 -0.0935
 5559SOL     OW28312   4.247   4.457   7.816 -0.3348  0.1664  0.6403
 5559SOL    HW128313   4.330   4.499   7.836 -0.3944  1.3407 -1.6825
 5559SOL    HW228314   4.268   4.406   7.737 -2.7464  3.5305 -2.1577
 5560SOL     OW28315   4.124   4.395   8.385  0.2792  0.0909  0.3445
 5560SOL    HW128316   4.035   4.405   8.419 -0.3832 -3.2512 -0.4008
 5560SOL    HW228317   4.154   4.346   8.461 -2.8269  0.9129  2.1034
 5561SOL     OW28318   0.028   3.027  14.578 -0.9376 -0.3259  0.0105
 5561SOL    HW128319   4.712   3.107  14.580  3.1006  2.2009  1.7107
 5561SOL    HW228320   0.117   3.059  14.561 -1.2338 -1.0854 -3.0608
 5562SOL     OW28321   3.581   0.007   9.337  0.4632 -0.2282 -0.1749
 5562SOL    HW128322   3.655   0.035   9.283  1.2262  1.2582  1.6246
 5562SOL    HW228323   3.585   0.081   9.399  2.0926  1.5356 -2.3742
 5563SOL     OW28324   1.361   2.673   8.407  0.2146 -0.0684  0.0360
 5563SOL    HW128325   1.454   2.693   8.420 -0.5857  3.2911  0.3725
 5563SOL    HW228326   1.360   2.658   8.313 -1.1725 -2.5329  0.4380
 5564SOL     OW28327   3.739   2.402   2.807 -0.6737 -0.4174  0.3753
 5564SOL    HW128328   3.720   2.477   2.864  1.1689  1.4592 -1.4825
 5564SOL    HW228329   3.654   2.376   2.771 -0.4296  1.6162 -1.6477
 5565SOL     OW28330   0.123   3.376   1.054  0.0955 -0.1919 -0.1506
 5565SOL    HW128331   0.070   3.338   0.984 -0.4095  1.0192 -0.4198
 5565SOL    HW228332   0.208   3.383   1.011  0.6512 -1.7960  0.6669
 5566SOL     OW28333   3.170   3.196  14.480  0.0134  0.3861  0.5569
 5566SOL    HW128334   3.091   3.202  14.427 -1.4158 -0.9479  2.5066
 5566SOL    HW228335   3.209   3.124  14.432  0.0839 -0.0184  1.2194
 5567SOL     OW28336   1.096   0.600  10.793 -0.5865 -0.0733  0.0680
 5567SOL    HW128337   1.082   0.620  10.700  0.3242  0.9216  0.1483
 5567SOL    HW228338   1.167   0.660  10.817 -2.3246  2.5631 -1.4155
 5568SOL     OW28339   0.685   0.672   3.549 -0.2626  0.2730 -0.2413
 5568SOL    HW128340   0.748   0.602   3.567 -3.4670 -2.2619  1.0311
 5568SOL    HW228341   0.608   0.658   3.604 -1.0290  0.6565 -1.2229
 5569SOL     OW28342   1.670   2.382   7.688 -0.0738  0.2940  0.1216
 5569SOL    HW128343   1.583   2.350   7.710 -0.7352  1.2835 -1.0801
 5569SOL    HW228344   1.701   2.310   7.634 -2.4269 -0.6758  0.0695
 5570SOL     OW28345   3.614   2.992   7.394  0.1587  0.2991  0.1138
 5570SOL    HW128346   3.682   2.959   7.453 -0.5035  1.9260  1.7947
 5570SOL    HW228347   3.650   3.076   7.366 -1.2030  0.1986 -1.9311
 5571SOL     OW28348   0.921   3.044   8.298  0.2599  0.0481 -0.1536
 5571SOL    HW128349   0.936   3.057   8.204  0.0750 -1.4462 -0.3933
 5571SOL    HW228350   1.007   3.012   8.322 -0.0943 -1.3914 -0.8110
 5572SOL     OW28351   0.134   3.127  10.043 -0.1742  0.3587 -0.5926
 5572SOL    HW128352   0.201   3.156  10.105  0.0347 -1.5802  0.0902
 5572SOL    HW228353   0.138   3.034  10.065 -1.1347  0.4661  0.0504
 5573SOL     OW28354   3.614   3.506   7.057 -0.1043 -0.4607  0.3599
 5573SOL    HW128355   3.668   3.443   7.104 -0.2539 -0.5746  0.3788
 5573SOL    HW228356   3.567   3.450   6.996  1.2164 -0.6005 -0.5172
 5574SOL     OW28357   4.475   3.447   3.136  0.5477 -0.2256 -0.2198
 5574SOL    HW128358   4.451   3.511   3.204  0.8035  0.3447 -0.6633
 5574SOL    HW228359   4.426   3.476   3.059  1.1337  0.4048 -0.3527
 5575SOL     OW28360   2.927   1.047   4.881 -0.9979 -0.7814  0.3962
 5575SOL    HW128361   2.890   1.057   4.793  2.9338 -1.9943 -1.4177
 5575SOL    HW228362   2.870   1.105   4.932  1.1686  1.0651  0.7405
 5576SOL     OW28363   3.054   2.572   5.611 -1.1109  0.1939  0.1937
 5576SOL    HW128364   3.065   2.496   5.554  0.3909  0.9473 -0.5278
 5576SOL    HW228365   3.045   2.628   5.533  0.7390 -0.4146 -0.4660
 5577SOL     OW28366   4.237   1.455   4.148  0.1219  0.1028 -0.7299
 5577SOL    HW128367   4.229   1.414   4.062 -0.8186 -0.2434 -0.4810
 5577SOL    HW228368   4.187   1.537   4.145  3.3166  2.0268 -0.9906
 5578SOL     OW28369   4.121   3.863   3.373 -0.0464  0.9633  0.2323
 5578SOL    HW128370   4.180   3.938   3.368  1.6402 -0.3288  0.8897
 5578SOL    HW228371   4.169   3.807   3.312  2.3466  1.8436  1.2997
 5579SOL     OW28372   0.062   3.847   8.548  0.3876 -0.1819  0.0468
 5579SOL    HW128373   0.015   3.930   8.558 -0.5645 -0.9218  1.5652
 5579SOL    HW228374   0.135   3.875   8.491  3.1006  0.0058  3.6227
 5580SOL     OW28375   2.630   2.093   2.970 -0.1677  0.5275  0.0821
 5580SOL    HW128376   2.667   2.007   2.954 -0.5915  0.1585  1.0940
 5580SOL    HW228377   2.537   2.074   2.979 -0.5493  2.3329 -0.0268
 5581SOL     OW28378   0.168   0.750   4.625  0.3614  0.2228  0.4161
 5581SOL    HW128379   0.226   0.789   4.690  0.2354  0.9014  0.1214
 5581SOL    HW228380   0.180   0.799   4.544 -2.0028  1.0094  0.5295
 5582SOL     OW28381   4.112   2.506   0.471 -0.2880 -0.1935  0.2566
 5582SOL    HW128382   4.048   2.557   0.521 -0.6616 -1.1236  0.7284
 5582SOL    HW228383   4.193   2.525   0.517 -0.9761 -1.3444  1.9548
 5583SOL     OW28384   0.372   0.860   0.619 -0.2824  0.3777 -0.3287
 5583SOL    HW128385   0.356   0.808   0.698 -3.3964 -2.1032 -2.5859
 5583SOL    HW228386   0.451   0.910   0.639  0.0719  0.3567 -1.6630
 5584SOL     OW28387   3.165   0.832   7.338 -0.2421 -0.1433  0.5875
 5584SOL    HW128388   3.124   0.845   7.424 -1.1975  0.3234  0.0664
 5584SOL    HW228389   3.107   0.761   7.308 -0.4900  1.3520 -2.4625
 5585SOL     OW28390   2.855   3.487   7.438 -0.0995  0.1148  0.5343
 5585SOL    HW128391   2.762   3.491   7.460 -0.8104  0.6448 -2.5627
 5585SOL    HW228392   2.847   3.523   7.350 -1.4773 -1.1430  0.1613
 5586SOL     OW28393   2.146   0.418  11.117  0.6935  0.1878 -0.1214
 5586SOL    HW128394   2.086   0.456  11.053 -0.9199 -1.8178  0.2152
 5586SOL    HW228395   2.105   0.335  11.140 -0.9420  0.5787 -1.6796
 5587SOL     OW28396   4.620   0.108   0.862  0.0694 -0.5589  0.8489
 5587SOL    HW128397   4.634   0.022   0.823  2.9152  0.4971 -0.4801
 5587SOL    HW228398   4.586   0.091   0.950 -1.9186  1.2699  0.4376
 5588SOL     OW28399   0.414   2.724   6.763 -0.8515  0.1688 -0.3059
 5588SOL    HW128400   0.357   2.653   6.734  0.2326  0.9161 -4.2307
 5588SOL    HW228401   0.385   2.743   6.852  0.1075 -4.2078  0.9718
 5589SOL     OW28402   0.033   3.889   1.979  0.2699  0.3602 -0.1541
 5589SOL    HW128403   4.722   3.884   1.895 -1.0786 -2.9629  0.7900
 5589SOL    HW228404   0.088   3.966   1.963  1.7576 -0.9706 -1.4064
 5590SOL     OW28405   4.506   1.698   7.981 -0.1246 -0.9002 -0.2155
 5590SOL    HW128406   4.557   1.711   8.061 -2.7079  0.3053  1.2203
 5590SOL    HW228407   4.573   1.650   7.932  1.9446  0.3893  1.3107
 5591SOL     OW28408   1.646   3.063   5.027 -0.3036  0.1980  0.2109
 5591SOL    HW128409   1.621   3.129   4.963  0.2364  1.1576  0.9871
 5591SOL    HW228410   1.645   3.116   5.107 -1.2355  1.4869 -0.6604
 5592SOL     OW28411   3.023   3.026   7.545 -0.9953 -0.4322  0.0117
 5592SOL    HW128412   2.978   3.089   7.601 -1.9592 -1.3100  0.2211
 5592SOL    HW228413   3.078   3.088   7.497  1.1574 -0.9999  1.7643
 5593SOL     OW28414   2.321   3.957   1.837 -0.2263 -0.1054 -0.4057
 5593SOL    HW128415   2.261   3.917   1.899 -0.6661  0.8345 -0.2324
 5593SOL    HW228416   2.406   3.941   1.880 -1.6051  1.2970  2.8603
 5594SOL     OW28417   1.723   2.314  10.137  0.1607 -0.4629  0.2136
 5594SOL    HW128418   1.679   2.273  10.211 -2.6925  3.1951  0.5403
 5594SOL    HW228419   1.793   2.360  10.183 -0.6306  1.0145 -0.0468
 5595SOL     OW28420   3.307   4.362   5.090  0.0850  0.0584 -0.3928
 5595SOL    HW128421   3.279   4.421   5.020  1.7333  1.4611  0.1089
 5595SOL    HW228422   3.346   4.285   5.048  0.2024 -0.1631  0.1168
 5596SOL     OW28423   2.690   3.133   3.641 -0.1154  0.7325  0.1750
 5596SOL    HW128424   2.626   3.117   3.711  0.8557 -0.3681  0.8062
 5596SOL    HW228425   2.694   3.227   3.657 -1.0948  0.8619 -0.3327
 5597SOL     OW28426   4.432   0.303   7.460 -0.0026  0.1999  0.1593
 5597SOL    HW128427   4.419   0.395   7.437  0.4193  0.6661  1.8090
 5597SOL    HW228428   4.452   0.299   7.554 -0.2558  1.8297  0.2794
 5598SOL     OW28429   3.993   3.127   0.126 -0.4351  0.4011 -0.0951
 5598SOL    HW128430   4.013   3.053   0.184  2.0212 -0.1049 -1.5796
 5598SOL    HW228431   4.033   3.107   0.042  1.3839  2.2673  0.3216
 5599SOL     OW28432   2.639   3.351   4.874  0.1886 -0.0152 -0.0367
 5599SOL    HW128433   2.671   3.387   4.792  1.7397  0.5870  0.8377
 5599SOL    HW228434   2.638   3.433   4.923 -0.8957  0.1937 -0.4137
 5600SOL     OW28435   3.633   3.846   5.262 -0.2533 -0.3739  0.0878
 5600SOL    HW128436   3.684   3.769   5.289  1.0247  0.7355  0.8021
 5600SOL    HW228437   3.635   3.829   5.168  1.8437 -0.6424  0.1701
 5601SOL     OW28438   2.769   2.264   8.315 -0.3412  0.1288  0.0073
 5601SOL    HW128439   2.730   2.351   8.314  0.3413  0.4888  3.3165
 5601SOL    HW228440   2.853   2.292   8.352 -1.3278  0.9295  1.6617
 5602SOL     OW28441   2.635   2.403  14.124  0.2992  0.0088 -0.5214
 5602SOL    HW128442   2.728   2.381  14.133  0.9885  2.1829 -2.0742
 5602SOL    HW228443   2.643   2.429  14.032 -1.5798 -1.2189 -1.0354
 5603SOL     OW28444   0.413   3.193   6.685  0.2309  0.1546 -0.5382
 5603SOL    HW128445   0.481   3.241   6.732 -0.4250  0.6149 -0.0624
 5603SOL    HW228446   0.390   3.251   6.612 -2.1490  1.0786  0.9476
 5604SOL     OW28447   2.734   1.953   0.236 -0.5553 -0.4770  0.1205
 5604SOL    HW128448   2.665   1.894   0.205  0.0478 -0.3424 -1.4180
 5604SOL    HW228449   2.734   2.009   0.158 -1.9703 -2.0652 -1.0199
 5605SOL     OW28450   0.281   0.496   5.570 -0.1078 -0.3149  0.2237
 5605SOL    HW128451   0.235   0.531   5.647  0.2863 -0.4865  0.5404
 5605SOL    HW228452   0.371   0.500   5.602 -0.3653  0.8008  0.8167
 5606SOL     OW28453   0.523   3.133   8.637  0.2744 -0.1522  0.1040
 5606SOL    HW128454   0.569   3.100   8.714 -2.0304  0.6357  1.8146
 5606SOL    HW228455   0.595   3.169   8.586 -0.3283  2.0167  0.7692
 5607SOL     OW28456   2.551   1.640  11.491 -0.0148  0.4167 -0.1239
 5607SOL    HW128457   2.469   1.677  11.460  0.5091  0.4032 -1.5159
 5607SOL    HW228458   2.555   1.661  11.584  0.8806  0.5373 -0.1810
 5608SOL     OW28459   2.652   2.780  12.668  0.1975  0.3028 -0.1187
 5608SOL    HW128460   2.703   2.861  12.666  0.7607 -0.0766 -1.0397
 5608SOL    HW228461   2.681   2.738  12.749 -0.1467  1.4590  0.6025
 5609SOL     OW28462   4.415   4.219  13.409 -0.1072  0.1313  0.3315
 5609SOL    HW128463   4.363   4.285  13.456 -0.1870  1.0452 -1.0330
 5609SOL    HW228464   4.477   4.208  13.481 -0.9300 -4.2342  0.3441
 5610SOL     OW28465   0.498   4.663   3.633  0.4692 -0.3728 -0.2332
 5610SOL    HW128466   0.558   4.622   3.695  0.0713 -1.5472 -0.6136
 5610SOL    HW228467   0.541   0.014   3.635  0.7073 -0.4554 -1.6149
 5611SOL     OW28468   3.265   3.129   1.437 -0.4903  0.0843  0.3290
 5611SOL    HW128469   3.238   3.218   1.457 -1.4001 -0.1476  0.1302
 5611SOL    HW228470   3.345   3.135   1.490 -0.0580 -0.2101 -0.2870
 5612SOL     OW28471   4.662   3.529   5.866  0.7027 -1.0133  0.0181
 5612SOL    HW128472   4.625   3.613   5.892  0.5856 -2.2545  4.0135
 5612SOL    HW228473   4.666   3.553   5.774  1.0059 -2.0974 -0.2612
 5613SOL     OW28474   2.555   2.336   6.379  0.1509  0.5564 -0.0311
 5613SOL    HW128475   2.634   2.326   6.325  0.6486  0.8178  0.6438
 5613SOL    HW228476   2.497   2.276   6.331 -0.8145 -0.3718  2.3070
 5614SOL     OW28477   1.806   3.410   5.770 -0.5078  0.4957  0.4673
 5614SOL    HW128478   1.714   3.406   5.794 -0.1780 -0.8913  1.4765
 5614SOL    HW228479   1.843   3.471   5.834  0.4840  0.7623 -0.3608
 5615SOL     OW28480   3.336   0.101   2.884 -0.7516 -0.1749 -0.7979
 5615SOL    HW128481   3.330   0.009   2.908 -1.3100  0.0252 -0.1831
 5615SOL    HW228482   3.415   0.100   2.830 -0.1707 -3.7620  0.1226
 5616SOL     OW28483   0.535   0.141  14.989 -0.4017 -0.0707  0.3339
 5616SOL    HW128484   0.503   0.142  15.079 -1.4297 -3.0936  0.0133
 5616SOL    HW228485   0.483   0.077  14.941  0.5809 -1.3975  1.0355
 5617SOL     OW28486   4.090   4.435   8.982 -0.0242  0.3469  0.1060
 5617SOL    HW128487   4.025   4.402   8.919 -0.8476  0.3172  0.9812
 5617SOL    HW228488   4.080   4.529   8.969 -2.2546  0.3141  1.6021
 5618SOL     OW28489   2.623   0.880   3.633  0.3092 -0.2498  0.5331
 5618SOL    HW128490   2.706   0.891   3.681  0.3719  1.0119  0.1233
 5618SOL    HW228491   2.637   0.940   3.560 -1.0296 -0.1776  0.3392
 5619SOL     OW28492   2.761   4.587   7.955  0.2952  0.0460  0.2466
 5619SOL    HW128493   2.780   4.532   7.880  0.5128 -1.3209  1.3144
 5619SOL    HW228494   2.683   4.622   7.913  1.0675  1.2882 -0.1704
 5620SOL     OW28495   2.872   3.991   6.142  0.2868  0.3404  0.0369
 5620SOL    HW128496   2.896   3.899   6.138  0.9718  0.4899  0.7297
 5620SOL    HW228497   2.939   4.027   6.084  1.5984 -1.3911  0.4782
 5621SOL     OW28498   4.416   0.063  17.408  0.3582  0.1836  0.5409
 5621SOL    HW128499   4.340   0.081  17.352  0.5051  0.7285  0.5224
 5621SOL    HW228500   4.460   4.734  17.353 -1.9525 -1.1896  0.2951
 5622SOL     OW28501   1.913   1.266   9.340 -0.0500  0.1659  0.2328
 5622SOL    HW128502   1.829   1.223   9.326  0.6730 -1.2423  0.2438
 5622SOL    HW228503   1.970   1.218   9.279  0.3489  2.6219 -1.3437
 5623SOL     OW28504   2.230   3.848   6.069 -0.1236  0.6659 -0.0885
 5623SOL    HW128505   2.224   3.932   6.023 -1.4024  0.1738 -0.8291
 5623SOL    HW228506   2.324   3.835   6.054  0.3960  2.2474  1.8186
 5624SOL     OW28507   0.039   4.589   5.372  0.3529  0.4474  0.2957
 5624SOL    HW128508   4.687   4.616   5.345 -0.5999 -0.4998  2.4020
 5624SOL    HW228509   0.081   4.547   5.297 -0.6585  2.9383 -1.6909
 5625SOL     OW28510   0.491   0.823   0.878 -0.0902 -0.3325  0.0593
 5625SOL    HW128511   0.500   0.776   0.961  2.6000 -0.2134 -0.1794
 5625SOL    HW228512   0.426   0.888   0.904 -1.2082 -1.1493 -0.6965
 5626SOL     OW28513   3.947   1.877   1.851  0.0508 -0.0485 -0.4898
 5626SOL    HW128514   4.027   1.884   1.903 -1.1838  0.6708  1.3413
 5626SOL    HW228515   3.912   1.965   1.866  0.9766  0.2067  0.1495
 5627SOL     OW28516   0.884   1.242   8.042  0.0541  0.6405 -0.3348
 5627SOL    HW128517   0.969   1.201   8.060  0.3051  1.2068 -0.2104
 5627SOL    HW228518   0.922   1.329   8.026 -1.4286  1.4396  0.4765
 5628SOL     OW28519   4.285   1.159   8.569 -0.1826  0.5014 -0.0865
 5628SOL    HW128520   4.238   1.233   8.531  1.2300  1.8175  0.7134
 5628SOL    HW228521   4.257   1.092   8.507  0.3900 -0.7703  1.0212
 5629SOL     OW28522   4.114   1.626  17.501  0.3063  0.1388  0.1196
 5629SOL    HW128523   4.081   1.539  17.480  2.9159 -0.8887  0.2192
 5629SOL    HW228524   4.202   1.619  17.464  0.3046  1.3342 -0.1122
 5630SOL     OW28525   3.999   3.745   5.701 -0.9794  1.2549  0.0792
 5630SOL    HW128526   4.042   3.814   5.649  1.5464  1.1934  2.0816
 5630SOL    HW228527   3.906   3.757   5.684 -0.9885 -1.4122 -1.7109
 5631SOL     OW28528   4.514   0.295   9.904  0.2716  0.0038 -0.7783
 5631SOL    HW128529   4.510   0.289   9.809  0.7756  1.9373 -0.9184
 5631SOL    HW228530   4.568   0.373   9.915  0.5435 -0.1237 -1.2189
 5632SOL     OW28531   1.916   2.807   7.336  0.3283  0.0818 -0.4734
 5632SOL    HW128532   2.000   2.843   7.365  0.7773  0.2463 -1.9958
 5632SOL    HW228533   1.875   2.802   7.422 -0.3726  1.1258 -0.7480
 5633SOL     OW28534   2.557   4.278   2.143  0.6254  0.1942 -0.1962
 5633SOL    HW128535   2.545   4.314   2.056 -0.3146  2.2705  0.7823
 5633SOL    HW228536   2.630   4.333   2.169  0.0447  0.7984  0.1558
 5634SOL     OW28537   0.847   3.757   1.662 -0.2660  0.4918 -0.3572
 5634SOL    HW128538   0.831   3.704   1.740  1.3846 -0.0834 -0.4177
 5634SOL    HW228539   0.798   3.696   1.606  1.2361 -0.6876 -0.3849
 5635SOL     OW28540   4.574   2.800   5.190  0.0834 -0.0997  0.3460
 5635SOL    HW128541   4.624   2.863   5.241  3.1030 -0.2698 -2.4089
 5635SOL    HW228542   4.645   2.741   5.166 -0.7539 -1.3706  0.9977
 5636SOL     OW28543   3.258   1.293   7.542 -0.2444  0.6591  0.0836
 5636SOL    HW128544   3.204   1.256   7.471  0.7696  2.2748 -1.5345
 5636SOL    HW228545   3.198   1.282   7.616 -0.6820 -0.9940 -0.5119
 5637SOL     OW28546   4.295   0.919   8.067  0.0884  0.1657 -0.1945
 5637SOL    HW128547   4.291   0.920   8.163 -0.8317  1.2615 -0.2467
 5637SOL    HW228548   4.276   1.009   8.040  0.1665  0.0442 -0.6544
 5638SOL     OW28549   1.105   0.410   3.174 -0.6988  0.3758 -0.3557
 5638SOL    HW128550   1.113   0.346   3.104 -0.9601 -0.4579  0.3740
 5638SOL    HW228551   1.018   0.397   3.210 -0.0285  2.4661  2.0940
 5639SOL     OW28552   0.068   2.167  12.803  0.2932 -0.1911  0.3089
 5639SOL    HW128553   0.144   2.110  12.785  1.7357  2.2069 -1.1934
 5639SOL    HW228554   0.064   2.165  12.898 -0.4849  1.6041  0.3083
 5640SOL     OW28555   0.808   2.966   5.257 -0.2520  0.3242  0.1318
 5640SOL    HW128556   0.743   2.963   5.327  0.3788 -2.3352  0.6099
 5640SOL    HW228557   0.809   2.878   5.220 -1.2645  1.1096 -1.7742
 5641SOL     OW28558   4.094   4.043  14.228 -0.3690 -0.9717  0.1036
 5641SOL    HW128559   4.138   4.007  14.304 -1.7048 -1.0373  0.8541
 5641SOL    HW228560   4.059   3.963  14.187  1.6235 -0.0308 -3.4155
 5642SOL     OW28561   2.807   4.423   2.183 -0.4755  0.5686  0.1310
 5642SOL    HW128562   2.893   4.440   2.144 -1.3011  1.6359 -1.2122
 5642SOL    HW228563   2.831   4.344   2.231  1.7485  1.8331  1.0908
 5643SOL     OW28564   3.500   1.487  13.982  0.0297  0.4263 -0.4369
 5643SOL    HW128565   3.591   1.462  13.996 -0.1878  0.6935  1.3528
 5643SOL    HW228566   3.452   1.409  14.007  1.7131 -0.5780 -0.3585
 5644SOL     OW28567   2.569   0.650   5.599 -0.4120  0.3853 -0.6523
 5644SOL    HW128568   2.572   0.720   5.533 -0.4038 -0.0945 -1.1565
 5644SOL    HW228569   2.661   0.624   5.610 -1.1115 -1.4796  0.7253
 5645SOL     OW28570   1.143   2.114  16.941  0.0388 -0.4418  0.0786
 5645SOL    HW128571   1.190   2.040  16.980 -0.3799 -0.4276  0.6204
 5645SOL    HW228572   1.175   2.189  16.991 -2.9821  0.2139  1.0407
 5646SOL     OW28573   2.039   0.596   7.101  0.2637  0.0785 -0.0079
 5646SOL    HW128574   1.979   0.634   7.165  1.0252  0.4191  0.5144
 5646SOL    HW228575   2.114   0.654   7.116  1.0442 -1.2681  1.3456
 5647SOL     OW28576   4.412   2.569  16.347  0.2112  0.4902 -0.0758
 5647SOL    HW128577   4.346   2.506  16.375  1.2515 -1.1674 -1.3467
 5647SOL    HW228578   4.490   2.516  16.332  0.3126  0.5435  0.2623
 5648SOL     OW28579   0.312   0.513   3.965 -0.6135 -0.1838  0.4648
 5648SOL    HW128580   0.367   0.436   3.951 -2.3869 -1.7147  1.9485
 5648SOL    HW228581   0.364   0.573   3.911 -0.9421 -0.8878 -0.6411
 5649SOL     OW28582   4.021   2.416   2.932 -0.7003 -0.1402  0.0378
 5649SOL    HW128583   3.997   2.413   3.025 -3.7284  1.8488 -0.6564
 5649SOL    HW228584   4.033   2.509   2.913 -0.0794 -0.8134 -2.9284
 5650SOL     OW28585   2.227   3.857  17.680  0.4629 -0.0364  0.3675
 5650SOL    HW128586   2.247   3.785  17.620 -0.3673  0.5160 -0.5853
 5650SOL    HW228587   2.161   3.817  17.736  1.0400 -0.2964  0.8628
 5651SOL     OW28588   0.082   3.929   4.269 -1.0057  0.1021  0.4287
 5651SOL    HW128589   0.088   3.922   4.174  0.7354  0.0600  0.5459
 5651SOL    HW228590   4.723   3.932   4.290 -1.2251  0.7039 -0.6318
 5652SOL     OW28591   3.543   1.323   8.879  0.1433  0.3662  0.1556
 5652SOL    HW128592   3.501   1.239   8.858  0.2243 -0.3644  2.8696
 5652SOL    HW228593   3.466   1.379   8.880 -0.3550 -0.3227  0.3793
 5653SOL     OW28594   1.054   0.587  16.567 -0.0991  0.2115 -0.0205
 5653SOL    HW128595   0.999   0.510  16.552  1.0664 -0.5822 -0.2336
 5653SOL    HW228596   1.037   0.598  16.660  0.5107  0.9730  0.0069
 5654SOL     OW28597   3.808   2.058   2.987  0.0683  0.1164  0.1941
 5654SOL    HW128598   3.764   1.983   2.948  0.0586  0.9874 -1.5068
 5654SOL    HW228599   3.836   2.096   2.903 -1.5167 -0.5913 -0.6460
 5655SOL     OW28600   4.656   4.293   9.402  0.1308 -0.3696  0.1905
 5655SOL    HW128601   4.628   4.293   9.311  0.5916  1.2560  0.0465
 5655SOL    HW228602   4.729   4.231   9.402  1.1858  0.8831  2.2914
 5656SOL     OW28603   1.981   3.558   3.175  0.2904  0.7074 -0.2662
 5656SOL    HW128604   1.950   3.580   3.263  2.3547  0.8990  0.4212
 5656SOL    HW228605   2.036   3.487   3.206 -1.3405 -0.5029 -0.1515
 5657SOL     OW28606   2.421   3.881   2.500 -1.2638  0.4863 -0.0916
 5657SOL    HW128607   2.505   3.845   2.472  1.1476  1.0905  6.1943
 5657SOL    HW228608   2.454   3.928   2.577 -2.0127 -0.4256  0.7904
 5658SOL     OW28609   2.315   3.531   0.351  0.5140  0.2604 -0.1487
 5658SOL    HW128610   2.398   3.502   0.313  0.9786 -1.5242  2.1916
 5658SOL    HW228611   2.278   3.451   0.388 -0.4333  0.5033 -0.5773
 5659SOL     OW28612   3.924   1.916  13.375  0.2903 -0.0668  0.4664
 5659SOL    HW128613   3.896   1.999  13.335 -0.5456 -0.4913  0.1756
 5659SOL    HW228614   3.948   1.865  13.298 -0.7311 -1.9843  1.4285
 5660SOL     OW28615   0.240   1.314   3.375 -0.3180  0.0990 -0.5716
 5660SOL    HW128616   0.165   1.277   3.421  0.1117  0.9933  0.8095
 5660SOL    HW228617   0.206   1.402   3.357 -0.3351  0.2121  0.0236
 5661SOL     OW28618   0.185   3.974   3.119  0.3006  0.4254  0.1848
 5661SOL    HW128619   0.222   3.919   3.050 -0.8225 -1.3271  0.9810
 5661SOL    HW228620   0.142   3.901   3.164 -0.8743  1.5365  0.8714
 5662SOL     OW28621   1.235   2.529   9.033  0.0616 -0.1130  0.0791
 5662SOL    HW128622   1.233   2.620   9.063  1.1231  0.5870 -1.9814
 5662SOL    HW228623   1.185   2.531   8.951  0.6804  1.6546 -0.2593
 5663SOL     OW28624   2.910   1.464  11.161 -0.0230 -0.1432  0.4275
 5663SOL    HW128625   2.959   1.409  11.222  0.0866  0.3957  0.8192
 5663SOL    HW228626   2.829   1.479  11.209 -2.2403  1.1588 -3.7265
 5664SOL     OW28627   2.279   3.684   5.739 -0.1897 -0.6305  0.5104
 5664SOL    HW128628   2.238   3.736   5.670  1.1872 -2.0225 -1.3363
 5664SOL    HW228629   2.370   3.712   5.741  0.1545 -1.6869 -0.4333
 5665SOL     OW28630   4.477   0.599   6.516 -0.1984 -0.5384  0.3330
 5665SOL    HW128631   4.414   0.585   6.587  0.8386 -1.3134  1.1069
 5665SOL    HW228632   4.553   0.646   6.551 -0.3086  0.3595 -0.6495
 5666SOL     OW28633   3.781   3.596   5.305 -0.6267  0.1266 -0.0208
 5666SOL    HW128634   3.833   3.564   5.378 -2.8944 -2.2465  0.5459
 5666SOL    HW228635   3.854   3.588   5.244 -1.4244 -0.9653 -0.8483
 5667SOL     OW28636   4.599   2.974   6.199 -0.2281 -0.0220 -0.1452
 5667SOL    HW128637   4.505   2.972   6.220 -0.0257  1.5607  0.9510
 5667SOL    HW228638   4.620   3.067   6.193 -0.5691 -0.0544 -1.9180
 5668SOL     OW28639   0.883   4.592   2.682  0.8524  0.0870 -0.4685
 5668SOL    HW128640   0.812   4.644   2.645  1.6985  0.3791 -1.6790
 5668SOL    HW228641   0.924   4.650   2.746  0.4611 -0.3001  0.1223
 5669SOL     OW28642   1.855   1.091   2.414 -0.2869  0.1219 -0.3649
 5669SOL    HW128643   1.848   1.165   2.354 -4.3129  0.3847  0.4485
 5669SOL    HW228644   1.941   1.055   2.391 -1.7144 -2.5993 -1.4169
 5670SOL     OW28645   1.844   4.467   3.914  0.3853  0.3434 -0.0163
 5670SOL    HW128646   1.933   4.447   3.943 -0.7266 -2.2915  1.6893
 5670SOL    HW228647   1.784   4.398   3.944 -0.7399  1.9355  1.3810
 5671SOL     OW28648   4.022   0.732   8.929  0.5006  0.3533  1.0339
 5671SOL    HW128649   3.984   0.800   8.873  1.9128  0.9113  0.7500
 5671SOL    HW228650   3.942   0.692   8.960 -0.3793  2.0046  0.9149
 5672SOL     OW28651   3.850   4.061   8.334  0.2234  0.2548  0.1556
 5672SOL    HW128652   3.908   4.087   8.263 -1.3354  3.2976  0.0133
 5672SOL    HW228653   3.913   4.063   8.407 -1.5639  2.4075  1.6106
 5673SOL     OW28654   1.962   2.078   8.182  0.5912  0.0550 -0.1698
 5673SOL    HW128655   1.891   2.124   8.138 -1.8094 -1.1450  2.4400
 5673SOL    HW228656   2.008   2.046   8.105 -0.0081 -2.9581  0.7351
 5674SOL     OW28657   1.921   3.534  13.488 -0.0495  0.3229 -0.0749
 5674SOL    HW128658   1.990   3.503  13.428 -0.3007  2.3944 -1.4228
 5674SOL    HW228659   1.844   3.517  13.433 -0.4168  3.0594 -0.3766
 5675SOL     OW28660   0.430   2.377  10.728  0.4788  0.2560 -0.1558
 5675SOL    HW128661   0.513   2.381  10.680  0.5485  0.6272 -0.0038
 5675SOL    HW228662   0.437   2.444  10.796 -1.7138  1.9720 -1.5944
 5676SOL     OW28663   1.491   1.025   1.568  0.0654  0.7898 -0.3137
 5676SOL    HW128664   1.411   1.077   1.577 -0.4875 -0.3420  1.2296
 5676SOL    HW228665   1.505   1.026   1.474  3.0441  1.5417  0.1152
 5677SOL     OW28666   0.577   2.653   8.584  0.2667  0.3848  0.7195
 5677SOL    HW128667   0.555   2.743   8.559 -0.7707  0.5272  2.1308
 5677SOL    HW228668   0.523   2.597   8.529  1.0409  1.3719 -1.0212
 5678SOL     OW28669   2.976   1.776   6.041  0.0730 -0.8510  0.4509
 5678SOL    HW128670   3.051   1.721   6.064 -0.2127 -1.7170 -0.7306
 5678SOL    HW228671   2.963   1.753   5.950  1.1107 -1.1419  0.3747
 5679SOL     OW28672   2.412   0.999   3.979 -0.1327  0.0104  0.1146
 5679SOL    HW128673   2.470   0.925   3.996 -1.3997 -0.9490  0.2898
 5679SOL    HW228674   2.354   1.003   4.055 -0.4757  2.7193 -0.3028
 5680SOL     OW28675   1.651   2.477  14.063 -0.1778  0.2411 -0.0841
 5680SOL    HW128676   1.580   2.528  14.022 -0.0770  1.1485  0.8888
 5680SOL    HW228677   1.655   2.517  14.149 -0.4951  1.0289 -0.4283
 5681SOL     OW28678   4.437   4.315  12.175  0.0687  0.1178  0.2432
 5681SOL    HW128679   4.387   4.259  12.115  2.7905 -0.3233 -1.6369
 5681SOL    HW228680   4.521   4.271  12.166 -0.0197 -0.0787  0.3932
 5682SOL     OW28681   2.849   0.751   9.437  0.8529 -0.2461 -0.1455
 5682SOL    HW128682   2.937   0.718   9.455  0.0983 -1.3161  1.5645
 5682SOL    HW228683   2.878   0.832   9.395  0.1928  0.8086  1.4557
 5683SOL     OW28684   1.809   1.503  17.679 -0.0217 -0.1708  0.2747
 5683SOL    HW128685   1.785   1.414  17.707 -0.0482 -0.5613 -1.0039
 5683SOL    HW228686   1.904   1.495  17.675 -0.0418  1.0456 -2.4611
 5684SOL     OW28687   0.069   3.226   7.716  0.5382  0.0466  0.1041
 5684SOL    HW128688   0.064   3.237   7.811  0.0453 -0.8962  0.1882
 5684SOL    HW228689   0.031   3.140   7.701 -0.8977  0.5178  1.1052
 5685SOL     OW28690   2.711   0.048   2.963 -1.0163  0.2074 -0.9476
 5685SOL    HW128691   2.686   0.138   2.984 -0.8654  0.0298 -0.0045
 5685SOL    HW228692   2.668   0.032   2.879 -1.4373  1.9006 -1.0545
 5686SOL     OW28693   0.301   3.999   6.975  0.5914  0.3524 -0.3119
 5686SOL    HW128694   0.304   4.079   7.029 -0.0546  1.3319 -1.7318
 5686SOL    HW228695   0.396   3.994   6.958  1.1668  0.4852  2.8834
 5687SOL     OW28696   0.479   1.166  14.095 -0.1347  0.4005 -0.4695
 5687SOL    HW128697   0.396   1.170  14.048 -3.0831 -4.0815  4.3473
 5687SOL    HW228698   0.446   1.129  14.177  1.7112 -0.8133 -0.2604
 5688SOL     OW28699   0.371   0.143  16.304 -0.1825 -0.0930  0.3290
 5688SOL    HW128700   0.436   0.142  16.234  1.2132  2.2139  1.5852
 5688SOL    HW228701   0.389   0.233  16.329  0.1786  0.0590 -0.4948
 5689SOL     OW28702   0.423   3.370   4.169  0.2617 -0.1177 -0.1670
 5689SOL    HW128703   0.433   3.395   4.261  0.1576  1.1400 -0.5016
 5689SOL    HW228704   0.382   3.284   4.181 -0.4928  0.7573  3.7414
 5690SOL     OW28705   1.844   0.982   1.372 -0.2722 -0.1568 -0.0179
 5690SOL    HW128706   1.864   0.999   1.464 -1.3375  1.5013 -0.0866
 5690SOL    HW228707   1.929   0.950   1.341 -1.2165 -1.0672 -1.6894
 5691SOL     OW28708   4.494   4.346   6.047  0.1237  0.1248 -0.1591
 5691SOL    HW128709   4.575   4.382   6.012  1.8730 -1.4725  2.2472
 5691SOL    HW228710   4.488   4.410   6.118  2.6043  0.5448 -0.3519
 5692SOL     OW28711   1.935   0.030  13.197  0.0009  0.4904  0.0713
 5692SOL    HW128712   1.984   4.693  13.157  0.8213  0.8152  0.4928
 5692SOL    HW228713   1.852   0.031  13.148 -0.7036  3.0166  1.3156
 5693SOL     OW28714   3.468   3.358   8.935  0.1221  0.6103  0.6910
 5693SOL    HW128715   3.552   3.372   8.892  0.1584 -0.2993  0.4517
 5693SOL    HW228716   3.424   3.441   8.918  0.0644  0.4898  0.2575
 5694SOL     OW28717   3.677   2.391   6.186  0.4971 -0.1918  0.4338
 5694SOL    HW128718   3.708   2.359   6.271  0.3995 -0.1416  0.4879
 5694SOL    HW228719   3.764   2.399   6.147 -0.0217 -0.4561 -0.7726
 5695SOL     OW28720   2.546   2.269   7.232 -0.1413 -0.0244  0.0905
 5695SOL    HW128721   2.576   2.312   7.153 -0.9556  1.0331  0.3640
 5695SOL    HW228722   2.626   2.290   7.281  0.0299  0.4983 -0.4289
 5696SOL     OW28723   0.874   1.117  10.428 -0.5609  0.2743  0.1504
 5696SOL    HW128724   0.926   1.194  10.404 -0.0982 -0.3914 -0.9747
 5696SOL    HW228725   0.785   1.150  10.435  0.0631  1.8224  0.8888
 5697SOL     OW28726   3.713   1.487   5.131  0.2197 -0.5941 -0.5060
 5697SOL    HW128727   3.694   1.559   5.071  1.0835 -0.2024 -0.2978
 5697SOL    HW228728   3.728   1.531   5.215  0.6498  1.0860 -1.4669
 5698SOL     OW28729   4.045   2.917   0.958 -0.9510 -0.5838 -0.2467
 5698SOL    HW128730   4.087   2.831   0.969 -2.1858 -0.7134  3.3940
 5698SOL    HW228731   4.037   2.931   0.864 -0.2846  1.3820 -0.0147
 5699SOL     OW28732   0.025   2.905   8.850  0.1116  0.1620  0.2472
 5699SOL    HW128733   0.115   2.929   8.875  1.3020 -3.6200 -0.4498
 5699SOL    HW228734   0.009   2.822   8.894  1.1573  0.1080  0.5300
 5700SOL     OW28735   2.876   4.329   8.253  0.0653  0.0354  0.0111
 5700SOL    HW128736   2.780   4.326   8.251  0.1507 -1.2809 -2.5601
 5700SOL    HW228737   2.886   4.281   8.171  0.2917 -1.2377  0.7881
 5701SOL     OW28738   0.911   0.235   2.008  0.0279 -0.3889  0.2734
 5701SOL    HW128739   0.986   0.209   2.061  0.3745  0.8289  0.3857
 5701SOL    HW228740   0.954   0.230   1.923  0.1214  2.1279  0.1610
 5702SOL     OW28741   2.187   2.146   1.660  0.3232 -0.0092 -0.0037
 5702SOL    HW128742   2.168   2.066   1.611 -1.4975  0.6643 -0.4099
 5702SOL    HW228743   2.104   2.193   1.668 -0.2782 -0.9082 -1.0605
 5703SOL     OW28744   4.368   0.059   9.529  0.1216  0.9225 -0.8281
 5703SOL    HW128745   4.376   0.118   9.455  1.1525  1.7972 -0.0148
 5703SOL    HW228746   4.310   4.724   9.499 -1.4777  1.3302  1.2780
 5704SOL     OW28747   1.226   3.156   7.390  0.0032  0.3741 -0.4527
 5704SOL    HW128748   1.276   3.094   7.444  0.6761 -0.1779 -1.7116
 5704SOL    HW228749   1.225   3.108   7.307  1.2236 -1.7522  0.7513
 5705SOL     OW28750   2.035   4.316  16.997  0.8436  0.2749  0.0571
 5705SOL    HW128751   1.997   4.267  16.924  1.3202  1.8378 -1.2367
 5705SOL    HW228752   1.977   4.387  17.023  1.0374 -0.7979  3.3409
 5706SOL     OW28753   4.595   4.391   0.106  0.1477 -0.6021 -0.2618
 5706SOL    HW128754   4.574   4.336   0.182 -2.4746 -1.3679 -1.5549
 5706SOL    HW228755   4.690   4.387   0.101  0.1509  0.4639 -0.9297
 5707SOL     OW28756   4.237   0.122   2.378 -0.3735  0.5161 -0.0371
 5707SOL    HW128757   4.277   0.167   2.304  1.4895 -1.5791 -0.3022
 5707SOL    HW228758   4.263   0.030   2.371 -1.5053 -0.0356  2.7786
 5708SOL     OW28759   3.218   4.380  10.531 -0.4500  0.1332  0.1875
 5708SOL    HW128760   3.211   4.385  10.435  0.0050  0.7552  0.1857
 5708SOL    HW228761   3.215   4.472  10.556 -0.5827  0.3512 -0.6433
 5709SOL     OW28762   0.479   3.859  16.461 -0.4252  0.4047  0.6127
 5709SOL    HW128763   0.497   3.770  16.430 -1.8950  0.4150 -0.2345
 5709SOL    HW228764   0.403   3.845  16.518  0.2809 -1.6400  1.0781
 5710SOL     OW28765   2.107   0.397   6.024 -0.1687 -0.2334  0.1286
 5710SOL    HW128766   2.077   0.355   6.104 -1.0725 -2.5973 -1.4688
 5710SOL    HW228767   2.045   0.364   5.959 -0.3584  0.4915 -0.0604
 5711SOL     OW28768   3.919   0.285   1.753  0.0078  0.0312 -0.0184
 5711SOL    HW128769   3.971   0.326   1.684  2.4215 -0.0767  1.7128
 5711SOL    HW228770   3.991   0.234   1.792  1.4270  2.9941  1.2497
 5712SOL     OW28771   2.825   0.821  11.436 -0.3192  0.7161  0.1309
 5712SOL    HW128772   2.763   0.759  11.474 -0.4303  0.8236  0.1237
 5712SOL    HW228773   2.782   0.853  11.356 -2.2085 -1.1752  0.3703
 5713SOL     OW28774   1.444   0.415   3.555  0.3775 -0.0510 -0.1621
 5713SOL    HW128775   1.470   0.492   3.505  1.0806 -1.8743 -2.6140
 5713SOL    HW228776   1.380   0.379   3.493 -0.3025 -0.7883  0.9524
 5714SOL     OW28777   3.746   1.740  11.837  0.8800 -0.6107 -0.7038
 5714SOL    HW128778   3.755   1.670  11.902  0.5642 -0.7449 -0.8036
 5714SOL    HW228779   3.819   1.708  11.784  3.0127 -0.5161  2.1581
 5715SOL     OW28780   1.027   1.223   5.569  0.0172  0.4596  0.1999
 5715SOL    HW128781   1.016   1.311   5.606  3.4787  1.1653 -0.4151
 5715SOL    HW228782   1.080   1.253   5.494 -2.3358  1.5781 -1.0435
 5716SOL     OW28783   0.754   1.742   4.261 -0.0542  0.2951 -0.4764
 5716SOL    HW128784   0.765   1.819   4.317  0.9027  0.5728 -1.0478
 5716SOL    HW228785   0.742   1.686   4.337 -1.4168  0.5827 -0.4829
 5717SOL     OW28786   2.523   0.579  11.333  0.4650  0.1049 -0.2415
 5717SOL    HW128787   2.593   0.517  11.313 -1.2532 -0.4996 -4.3352
 5717SOL    HW228788   2.466   0.577  11.257 -0.2570 -0.4073  0.3199
 5718SOL     OW28789   1.639   1.913   3.780  0.3470 -0.1817  0.0350
 5718SOL    HW128790   1.658   1.821   3.761 -0.3892 -0.1725 -0.7405
 5718SOL    HW228791   1.633   1.951   3.693 -2.2451 -0.6229  0.0166
 5719SOL     OW28792   1.181   2.637  15.253  0.4366  0.6361 -0.4398
 5719SOL    HW128793   1.148   2.618  15.165  0.4999  0.6120 -0.4581
 5719SOL    HW228794   1.126   2.590  15.316  0.5035  0.2283 -0.6862
 5720SOL     OW28795   0.463   2.306   3.778  0.3724 -0.3041  0.0898
 5720SOL    HW128796   0.394   2.318   3.844  1.3293  0.2163  1.0065
 5720SOL    HW228797   0.535   2.261   3.822  0.7209 -0.3125 -0.4991
 5721SOL     OW28798   2.466   3.842   7.286  0.0214 -0.3192 -0.7175
 5721SOL    HW128799   2.455   3.814   7.195 -2.1097  1.0155 -0.8740
 5721SOL    HW228800   2.459   3.937   7.278  2.2514 -0.2156 -1.2692
 5722SOL     OW28801   3.790   1.479   1.434 -0.7875 -0.0895 -0.5469
 5722SOL    HW128802   3.858   1.412   1.442 -0.4090  0.5325  1.3782
 5722SOL    HW228803   3.805   1.519   1.348 -1.0234  0.5876 -0.2728
 5723SOL     OW28804   3.693   3.852   7.739 -0.3091 -1.1891 -0.0489
 5723SOL    HW128805   3.731   3.860   7.652 -0.9623  3.1147  0.0546
 5723SOL    HW228806   3.748   3.911   7.791  0.4491  0.2846 -2.5447
 5724SOL     OW28807   3.611   3.499   8.742 -0.5979  0.1913  0.0065
 5724SOL    HW128808   3.644   3.514   8.831 -3.3241  0.7304  0.9261
 5724SOL    HW228809   3.634   3.581   8.698  1.9251  1.2704  3.3491
 5725SOL     OW28810   1.661   2.948   3.190 -0.1543  0.6763 -0.1603
 5725SOL    HW128811   1.753   2.922   3.190 -0.5530 -0.7083  1.7219
 5725SOL    HW228812   1.627   2.938   3.279 -0.3146 -1.2226 -0.4382
 5726SOL     OW28813   4.455   3.464   2.689  0.1779 -0.0100  0.6572
 5726SOL    HW128814   4.499   3.543   2.658 -1.7163  1.3141  1.3167
 5726SOL    HW228815   4.422   3.435   2.604  0.6331  1.4622 -0.0295
 5727SOL     OW28816   1.784   0.880  13.323 -0.1801 -0.3825  0.3067
 5727SOL    HW128817   1.852   0.836  13.374  1.2818 -0.3691 -1.6398
 5727SOL    HW228818   1.720   0.808  13.331 -2.2732  1.3924 -0.6120
 5728SOL     OW28819   4.119   2.853   1.736 -0.0219  0.2547 -0.0233
 5728SOL    HW128820   4.052   2.920   1.747  0.2073  0.2392  1.4689
 5728SOL    HW228821   4.082   2.777   1.781 -1.4738  0.3415 -1.0880
 5729SOL     OW28822   2.348   4.417   2.756 -0.4097 -0.1084  0.4309
 5729SOL    HW128823   2.383   4.468   2.829 -1.5247  1.1414  0.0952
 5729SOL    HW228824   2.261   4.399   2.793 -0.4879 -0.6165 -0.0037
 5730SOL     OW28825   1.294   0.436   8.904  0.0736  0.9723  0.1339
 5730SOL    HW128826   1.291   0.449   8.809 -2.0382  2.1072  0.3636
 5730SOL    HW228827   1.229   0.367   8.914  1.5903 -0.6177 -0.7445
 5731SOL     OW28828   0.722   1.073   1.340  0.1527  0.0744  0.0865
 5731SOL    HW128829   0.638   1.027   1.350 -1.3965  2.4401 -1.9673
 5731SOL    HW228830   0.684   1.121   1.266 -0.0911  1.2086  0.9407
 5732SOL     OW28831   0.172   2.534   3.727 -0.6312 -0.6635  0.5585
 5732SOL    HW128832   0.207   2.587   3.655 -2.1832 -1.7932 -1.0442
 5732SOL    HW228833   0.208   2.584   3.800  1.3532 -0.0029 -0.8480
 5733SOL     OW28834   3.296   2.555   3.563 -0.1201 -0.2070 -0.0660
 5733SOL    HW128835   3.263   2.514   3.483 -2.5935  3.1177 -0.7489
 5733SOL    HW228836   3.359   2.487   3.590  0.7826  0.1987 -1.1594
 5734SOL     OW28837   3.937   1.735   0.970  0.0201 -0.4871 -0.3471
 5734SOL    HW128838   3.959   1.643   0.954 -2.4153 -1.3466  1.3508
 5734SOL    HW228839   3.889   1.755   0.890  0.5130  3.3346  0.3221
 5735SOL     OW28840   4.665   0.919  10.099  0.4812 -0.0473  0.9814
 5735SOL    HW128841   4.692   0.832  10.071  0.9190  0.6750 -0.8466
 5735SOL    HW228842   4.629   0.915  10.187 -1.0550 -0.5904  0.3279
 5736SOL     OW28843   0.274   3.167   7.273 -0.1225  0.0852  0.0522
 5736SOL    HW128844   0.335   3.214   7.330  0.5911  0.4339 -1.0062
 5736SOL    HW228845   0.272   3.075   7.298 -3.3301  0.2275  0.3419
 5737SOL     OW28846   4.719   2.173  11.037 -0.2055  0.0369 -0.0645
 5737SOL    HW128847   0.062   2.158  11.090  0.4187 -0.1616 -1.0394
 5737SOL    HW228848   0.010   2.117  10.963  1.3663  0.9859 -0.2386
 5738SOL     OW28849   0.258   4.665  12.602  0.2039  0.4934 -0.1240
 5738SOL    HW128850   0.293   0.018  12.610 -1.3277  1.1109 -0.2859
 5738SOL    HW228851   0.314   4.623  12.667  0.0269  0.6352  0.1176
 5739SOL     OW28852   0.918   1.692   1.096 -0.2774  0.2251  0.4216
 5739SOL    HW128853   1.013   1.689   1.103 -0.2899 -2.1704 -0.5187
 5739SOL    HW228854   0.900   1.779   1.133 -0.6849  0.2172  0.2516
 5740SOL     OW28855   1.310   0.537  15.730  0.7393  0.0553 -0.3902
 5740SOL    HW128856   1.348   0.529  15.643 -1.2238 -1.7645 -1.0820
 5740SOL    HW228857   1.334   0.622  15.769  1.0467  0.1989 -0.8972
 5741SOL     OW28858   3.650   4.559  14.833 -0.8013  0.4585 -0.7829
 5741SOL    HW128859   3.665   4.652  14.843  2.5030 -0.2060  0.4138
 5741SOL    HW228860   3.640   4.560  14.738 -0.0200  0.4609 -0.8659
 5742SOL     OW28861   2.600   0.384   8.577 -0.3108 -0.1284 -0.3421
 5742SOL    HW128862   2.622   0.315   8.640 -0.8585 -0.7312 -0.8133
 5742SOL    HW228863   2.686   0.418   8.552 -0.1188 -0.9579 -0.8353
 5743SOL     OW28864   0.344   0.733   3.114 -0.3810 -0.1369  0.3468
 5743SOL    HW128865   0.396   0.681   3.175  0.3049 -1.3420 -1.2854
 5743SOL    HW228866   0.354   0.682   3.034 -2.3378  0.7030 -0.4363
 5744SOL     OW28867   3.069   0.449   1.149 -0.5987  0.0790 -0.7098
 5744SOL    HW128868   3.007   0.501   1.200  1.2440  1.1448  0.4535
 5744SOL    HW228869   3.134   0.516   1.125  0.0968  0.4721  2.2632
 5745SOL     OW28870   3.534   0.346  12.699  0.2662  0.4517 -0.3067
 5745SOL    HW128871   3.480   0.373  12.625 -0.1226 -0.6320 -0.4277
 5745SOL    HW228872   3.513   0.407  12.769  0.7750 -1.1020  1.2029
 5746SOL     OW28873   0.413   1.266   2.424  0.1490 -0.0919 -0.1862
 5746SOL    HW128874   0.341   1.300   2.371 -0.1558 -0.8499 -0.2537
 5746SOL    HW228875   0.437   1.184   2.382  0.4718  0.4993 -1.1613
 5747SOL     OW28876   1.003   1.355  10.367  0.7308  0.3911 -0.7439
 5747SOL    HW128877   1.095   1.356  10.342  1.2452  0.8919  1.1811
 5747SOL    HW228878   1.003   1.404  10.449 -1.3172  0.9057 -1.0347
 5748SOL     OW28879   2.294   4.239  10.531  0.0803  1.3968  0.0857
 5748SOL    HW128880   2.304   4.305  10.600 -1.3291 -0.6648  2.2854
 5748SOL    HW228881   2.304   4.164  10.590 -0.4345  0.6124 -0.8201
 5749SOL     OW28882   2.468   4.542   8.611  0.6631 -0.8466 -0.5521
 5749SOL    HW128883   2.553   4.511   8.579  0.4938  0.3316 -2.1000
 5749SOL    HW228884   2.420   4.459   8.622  0.7628 -0.8444 -0.0937
 5750SOL     OW28885   0.056   0.857   9.758  0.0463 -0.2718 -0.5557
 5750SOL    HW128886   4.707   0.865   9.713  0.6523 -0.9156 -1.8066
 5750SOL    HW228887   0.113   0.882   9.685 -1.4407  1.2383 -1.1949
 5751SOL     OW28888   3.889   1.108   2.854  0.3854  0.2618 -0.0553
 5751SOL    HW128889   3.901   1.044   2.783  0.8019  0.2547  0.0215
 5751SOL    HW228890   3.811   1.158   2.828  1.0313  2.0815  1.5157
 5752SOL     OW28891   3.795   1.477  14.053  0.0313 -0.3104  0.6003
 5752SOL    HW128892   3.792   1.570  14.032  4.2217  0.2720  2.4680
 5752SOL    HW228893   3.824   1.493  14.143  1.3427 -0.7404  0.2647
 5753SOL     OW28894   0.293   3.977   8.455  0.1810  0.1307  0.0031
 5753SOL    HW128895   0.353   3.992   8.382  2.0436 -3.0804  0.8418
 5753SOL    HW228896   0.329   3.897   8.493  0.3338  0.0814 -0.2422
 5754SOL     OW28897   3.521   3.529  10.933 -0.0613 -0.1737  0.2116
 5754SOL    HW128898   3.476   3.525  11.018  2.0171 -2.1123  1.2238
 5754SOL    HW228899   3.532   3.435  10.919 -2.9801 -0.7282  1.5413
 5755SOL     OW28900   1.969   1.919   8.405  0.1294 -0.5915 -0.6824
 5755SOL    HW128901   1.982   1.840   8.352  2.0561 -0.6437 -0.1422
 5755SOL    HW228902   1.953   1.987   8.339 -0.6608 -0.6462 -0.5507
 5756SOL     OW28903   4.677   0.667   5.492  0.0212  0.2699 -0.8141
 5756SOL    HW128904   4.635   0.614   5.559  0.6273  1.6075  0.6179
 5756SOL    HW228905   4.655   0.755   5.523  1.9588 -0.1747  1.8005
 5757SOL     OW28906   0.935   2.876   3.701  0.1970  0.1946 -0.1227
 5757SOL    HW128907   1.003   2.893   3.765  2.3579 -1.1560 -2.0619
 5757SOL    HW228908   0.996   2.865   3.628  0.2086  1.0796 -0.2488
 5758SOL     OW28909   4.178   3.846   7.493 -0.1975  0.0668 -0.0988
 5758SOL    HW128910   4.108   3.854   7.558  1.1337  2.1929  1.0763
 5758SOL    HW228911   4.149   3.881   7.409  2.5964  0.4213 -0.9340
 5759SOL     OW28912   2.962   2.357   2.703  0.3711 -0.2168 -0.5292
 5759SOL    HW128913   2.908   2.428   2.670  1.3305  1.0215  0.5866
 5759SOL    HW228914   2.988   2.382   2.791  2.3079  0.4323 -1.2949
 5760SOL     OW28915   3.996   4.212   6.408  0.1960 -0.2232  0.0113
 5760SOL    HW128916   3.981   4.212   6.503  0.4349  2.0556  0.0359
 5760SOL    HW228917   3.959   4.129   6.379 -0.0481 -1.2581  3.1976
 5761SOL     OW28918   4.671   4.718  14.701 -0.0588 -0.4010  0.5184
 5761SOL    HW128919   4.725   0.014  14.628  0.5650  0.0824  1.1865
 5761SOL    HW228920   4.589   4.721  14.653 -0.0122 -4.7202  0.1445
 5762SOL     OW28921   3.970   1.765   5.003 -0.4449  0.1001  0.2428
 5762SOL    HW128922   3.989   1.693   5.064  3.7413  1.4000  0.4782
 5762SOL    HW228923   4.014   1.739   4.923  0.9490 -1.1200  1.4000
 5763SOL     OW28924   2.000   3.176   5.747  0.2715  0.2819  0.5117
 5763SOL    HW128925   1.948   3.256   5.745 -0.5314 -0.3126 -2.6930
 5763SOL    HW228926   2.058   3.207   5.817  1.6432  1.5875 -1.2231
 5764SOL     OW28927   0.612   4.310   3.636 -0.4213 -0.1141 -0.2284
 5764SOL    HW128928   0.652   4.397   3.639  0.0318 -0.3448  0.2717
 5764SOL    HW228929   0.690   4.256   3.619 -0.0876 -0.0418  1.0610
 5765SOL     OW28930   4.555   3.584   0.171 -0.0489  0.2177  0.6382
 5765SOL    HW128931   4.516   3.497   0.158  0.1414  0.2637 -0.2882
 5765SOL    HW228932   4.537   3.590   0.264 -1.3968 -1.6388  0.5058
 5766SOL     OW28933   2.343   0.013   7.532  0.2959 -0.1259  1.0169
 5766SOL    HW128934   2.287   0.004   7.456  3.2507  1.6831 -1.3968
 5766SOL    HW228935   2.418   4.693   7.508  0.3473  1.7910 -3.0975
 5767SOL     OW28936   1.864   2.599   4.295 -0.4585 -0.2754 -0.4267
 5767SOL    HW128937   1.935   2.573   4.236 -0.4640  0.1599 -0.6245
 5767SOL    HW228938   1.791   2.622   4.237  1.5196  2.8323 -1.7013
 5768SOL     OW28939   1.906   0.866   1.949  0.1130  0.4226 -0.0013
 5768SOL    HW128940   1.836   0.836   1.891  1.8396 -1.2880 -1.1700
 5768SOL    HW228941   1.860   0.862   2.033  1.1743  2.1472  0.6662
 5769SOL     OW28942   0.361   2.016   5.284  0.0099  0.9782  0.1550
 5769SOL    HW128943   0.365   1.924   5.261 -1.5109  1.2305 -1.1098
 5769SOL    HW228944   0.453   2.046   5.284 -0.0380  1.0558  3.0848
 5770SOL     OW28945   1.860   0.249   7.015  1.0934  0.4637 -0.4805
 5770SOL    HW128946   1.800   0.192   6.967  1.4954  0.5242 -1.0457
 5770SOL    HW228947   1.796   0.312   7.048 -0.0407 -1.0931  0.2920
 5771SOL     OW28948   1.123   3.212  10.034  0.0591 -0.2500 -0.9790
 5771SOL    HW128949   1.218   3.221  10.033  0.2108 -2.0176 -2.8424
 5771SOL    HW228950   1.099   3.226  10.125 -1.4180  0.2090 -1.4290
 5772SOL     OW28951   2.004   2.420  14.647 -0.3775 -0.1593 -0.3278
 5772SOL    HW128952   2.092   2.387  14.660  0.4008  1.0690 -2.4127
 5772SOL    HW228953   1.964   2.351  14.594  0.9155 -1.1903  0.0356
 5773SOL     OW28954   1.679   0.664   7.895 -0.4101  0.0724  0.1436
 5773SOL    HW128955   1.649   0.717   7.969 -1.4938  0.3188 -0.4588
 5773SOL    HW228956   1.620   0.590   7.909  0.3965 -0.5126  0.3937
 5774SOL     OW28957   4.698   2.494   0.341 -0.5411 -0.6607  0.1881
 5774SOL    HW128958   4.708   2.508   0.435 -0.5074 -0.6565  0.1839
 5774SOL    HW228959   4.617   2.445   0.326  0.2166 -1.0805 -2.5665
 5775SOL     OW28960   0.132   2.044  10.225 -0.3692  0.4687  0.7429
 5775SOL    HW128961   0.061   2.066  10.165 -0.9157 -2.3992  0.3021
 5775SOL    HW228962   0.192   2.117  10.214  0.1941  0.0327  0.8949
 5776SOL     OW28963   3.471   1.162   7.666 -0.4310 -0.3235 -0.1068
 5776SOL    HW128964   3.471   1.067   7.655  2.7281  0.1287 -3.8776
 5776SOL    HW228965   3.407   1.193   7.603  0.5517 -0.0990 -0.9847
 5777SOL     OW28966   3.177   3.049  12.874  0.2548  0.1523 -0.4512
 5777SOL    HW128967   3.240   3.080  12.809 -1.5277  0.8654 -1.8441
 5777SOL    HW228968   3.152   2.962  12.842 -0.2832 -1.6789  4.8864
 5778SOL     OW28969   3.220   4.043   3.087 -0.0371  0.3170  0.8042
 5778SOL    HW128970   3.296   4.017   3.139  0.6732  1.8677  0.5373
 5778SOL    HW228971   3.167   3.963   3.092  1.0009 -0.3991  0.5968
 5779SOL     OW28972   2.486   4.174   4.283  0.3501 -0.3861 -0.1438
 5779SOL    HW128973   2.573   4.212   4.284  0.2366 -0.0508 -3.5002
 5779SOL    HW228974   2.437   4.252   4.258 -1.3246 -0.8625  1.5879
 5780SOL     OW28975   3.255   1.257   1.252  0.0128 -0.7358  0.3838
 5780SOL    HW128976   3.325   1.194   1.268  0.2504 -0.4476  0.4812
 5780SOL    HW228977   3.209   1.224   1.174  1.2937  0.6457 -0.9577
 5781SOL     OW28978   4.112   1.368   5.369  0.2144 -0.1396  0.0397
 5781SOL    HW128979   4.036   1.311   5.377  0.9853 -1.3702 -1.3613
 5781SOL    HW228980   4.179   1.305   5.394 -1.7379 -2.5476 -0.8359
 5782SOL     OW28981   0.458   0.873   4.843  0.1034 -0.6254 -0.1479
 5782SOL    HW128982   0.386   0.845   4.899 -0.0339 -1.4689 -0.7560
 5782SOL    HW228983   0.515   0.797   4.857 -0.2227 -0.5177  1.7874
 5783SOL     OW28984   4.155   0.432   3.797 -0.2468  0.2317  0.2040
 5783SOL    HW128985   4.176   0.364   3.733  0.7015  0.9345 -0.2293
 5783SOL    HW228986   4.082   0.465   3.744 -0.1349 -1.1262 -0.8080
 5784SOL     OW28987   2.441   4.138   3.639  0.3179  0.1431 -0.1459
 5784SOL    HW128988   2.470   4.223   3.608 -2.5131  1.5718  1.1712
 5784SOL    HW228989   2.356   4.130   3.596  0.0465 -1.4705  0.6594
 5785SOL     OW28990   1.023   2.183   6.212  0.3904 -0.1291  0.0331
 5785SOL    HW128991   1.007   2.091   6.234 -1.2162  0.4234  1.2177
 5785SOL    HW228992   1.024   2.176   6.117 -1.0389  1.1794 -0.0774
 5786SOL     OW28993   4.482   1.732   7.296 -0.6752 -0.2555  0.2651
 5786SOL    HW128994   4.408   1.685   7.257 -0.0559 -1.6347  0.7158
 5786SOL    HW228995   4.443   1.771   7.374  0.8684  4.0961 -1.1687
 5787SOL     OW28996   3.069   2.802   6.871  0.1425  0.1690  1.0248
 5787SOL    HW128997   3.164   2.812   6.866  0.0280  0.7600  0.1492
 5787SOL    HW228998   3.057   2.745   6.947 -2.1944 -1.2104 -0.3881
 5788SOL     OW28999   2.211   0.985   6.127 -0.6347 -0.6211  0.1088
 5788SOL    HW129000   2.219   0.904   6.077  2.4068  0.5915 -1.3510
 5788SOL    HW229001   2.246   0.957   6.212 -0.0554 -0.5043 -0.0896
 5789SOL     OW29002   4.285   0.584   6.729 -0.7408  0.4878 -0.4045
 5789SOL    HW129003   4.283   0.492   6.756 -0.5880  0.4184 -0.6279
 5789SOL    HW229004   4.210   0.612   6.781 -0.4541  0.8199 -0.1704
 5790SOL     OW29005   1.273   2.008   0.007 -0.0142 -0.7280 -0.1497
 5790SOL    HW129006   1.200   1.983  17.690  1.3572 -0.3737 -2.0716
 5790SOL    HW229007   1.342   2.022  17.681  0.0734 -2.1830 -0.3754
 5791SOL     OW29008   0.108   0.445   8.913 -0.4711  0.5579  0.0404
 5791SOL    HW129009   0.163   0.522   8.896 -1.9725  1.0027 -2.9255
 5791SOL    HW229010   0.051   0.460   8.837 -2.6090 -0.4877  1.4278
 5792SOL     OW29011   1.957   0.583   8.130  0.7850  0.1888 -0.1315
 5792SOL    HW129012   1.891   0.538   8.183  0.1846  0.6396 -0.4954
 5792SOL    HW229013   2.034   0.531   8.151  1.2235  1.0008  0.2595
 5793SOL     OW29014   3.560   0.950   2.796  0.1971 -0.0071  0.1861
 5793SOL    HW129015   3.515   0.952   2.881  2.4149 -0.7023  1.3549
 5793SOL    HW229016   3.588   1.041   2.808 -0.7866  0.2671  0.4831
 5794SOL     OW29017   2.253   1.267   3.350  0.1381 -0.4997  0.8549
 5794SOL    HW129018   2.265   1.208   3.424 -1.3102 -0.8838  0.7860
 5794SOL    HW229019   2.333   1.318   3.347  0.5453 -1.3679 -3.4096
 5795SOL     OW29020   1.568   3.825   5.040 -0.3309 -0.2250 -0.3246
 5795SOL    HW129021   1.626   3.879   4.986  0.1330  0.9052  1.2807
 5795SOL    HW229022   1.481   3.851   5.010 -0.4272 -2.4453 -1.8954
 5796SOL     OW29023   2.983   1.539   7.456 -0.1894 -0.4934  0.3203
 5796SOL    HW129024   3.029   1.555   7.374 -1.0271 -0.8033 -0.2150
 5796SOL    HW229025   3.055   1.508   7.511  1.9049 -0.3167 -2.3025
 5797SOL     OW29026   4.091   3.670   8.998 -0.5962  0.4113 -0.4783
 5797SOL    HW129027   4.050   3.659   9.084 -0.3767  2.5778 -0.0992
 5797SOL    HW229028   4.109   3.579   8.974  1.2925  1.0883 -1.5898
 5798SOL     OW29029   0.104   2.612   8.070  0.4585  0.6910 -0.0781
 5798SOL    HW129030   0.029   2.662   8.039 -0.3423  0.6233  1.8179
 5798SOL    HW229031   0.090   2.524   8.035  0.6170  0.0967  1.3676
 5799SOL     OW29032   2.086   1.247  15.753 -0.2246  0.1365 -0.5256
 5799SOL    HW129033   2.085   1.249  15.658 -1.5700 -0.2406 -0.5171
 5799SOL    HW229034   2.132   1.165  15.772  2.6835  1.9637  0.3355
 5800SOL     OW29035   3.751   3.349   7.562  0.3504 -0.1021 -0.7505
 5800SOL    HW129036   3.668   3.374   7.602  1.4594  2.0177  0.2764
 5800SOL    HW229037   3.745   3.402   7.482 -0.6149 -1.5531 -1.6108
 5801SOL     OW29038   2.130   3.288   2.818 -0.2641  0.1485 -0.2764
 5801SOL    HW129039   2.143   3.242   2.901 -2.3722  0.6334  0.3198
 5801SOL    HW229040   2.184   3.232   2.762  0.2402 -0.8366  1.1926
 5802SOL     OW29041   2.366   3.163   4.080  0.0038  0.2695 -0.5750
 5802SOL    HW129042   2.456   3.169   4.051 -0.1545 -1.7353 -1.4409
 5802SOL    HW229043   2.331   3.080   4.047 -2.7106  0.7459  1.0523
 5803SOL     OW29044   1.846   4.642  15.185  0.0571  0.2608  1.0902
 5803SOL    HW129045   1.932   4.682  15.195  1.0087 -2.0524  2.2200
 5803SOL    HW229046   1.877   4.573  15.127 -0.8386  0.8458 -0.0882
 5804SOL     OW29047   0.274   2.874   8.028  0.2215 -0.5227 -0.3156
 5804SOL    HW129048   0.313   2.789   8.044  1.0172 -0.2653 -0.8562
 5804SOL    HW229049   0.269   2.884   7.933 -0.0326 -2.5626 -0.5079
 5805SOL     OW29050   1.512   2.143   8.279  0.1372  0.4680 -0.6506
 5805SOL    HW129051   1.519   2.061   8.327  4.3463  0.7811 -0.7341
 5805SOL    HW229052   1.483   2.205   8.346  1.3645 -0.1886  0.4924
 5806SOL     OW29053   0.531   4.415   5.199  0.0628 -0.7406 -0.1138
 5806SOL    HW129054   0.536   4.377   5.287 -2.6845 -0.6156  0.1101
 5806SOL    HW229055   0.551   4.336   5.149  0.0916 -0.8232  0.0298
 5807SOL     OW29056   1.090   1.612   1.417  0.2929  0.4851 -0.1239
 5807SOL    HW129057   1.124   1.605   1.328  0.1745 -0.6576 -0.0896
 5807SOL    HW229058   1.093   1.705   1.436  0.4333 -0.1416  2.8596
 5808SOL     OW29059   3.069   2.206   6.343  0.4591  0.7238  0.2395
 5808SOL    HW129060   3.061   2.111   6.334  1.9822  0.6814 -0.7416
 5808SOL    HW229061   3.079   2.224   6.250  0.5015  1.9106  0.4831
 5809SOL     OW29062   1.422   1.045  14.026  0.0959  0.3376 -0.5857
 5809SOL    HW129063   1.453   1.070  13.939  0.4373  1.3636 -0.1706
 5809SOL    HW229064   1.490   1.083  14.081  0.9727  1.0676 -2.1746
 5810SOL     OW29065   1.171   3.125   0.124  0.0073  0.4782  0.0186
 5810SOL    HW129066   1.132   3.143   0.210 -0.2779  1.2417 -0.2772
 5810SOL    HW229067   1.124   3.187   0.069  0.5296  1.5246  0.7611
 5811SOL     OW29068   4.024   2.092   5.460 -0.1014  0.3393  0.3785
 5811SOL    HW129069   4.004   2.072   5.368  1.5854 -0.0873  0.1211
 5811SOL    HW229070   4.111   2.055   5.472 -0.2620 -0.5822 -1.2994
 5812SOL     OW29071   1.403   1.343  11.314 -0.3181  0.6505  0.0384
 5812SOL    HW129072   1.423   1.253  11.339 -1.1165  0.1514 -1.0893
 5812SOL    HW229073   1.312   1.340  11.282 -0.8917 -0.9196  1.8074
 5813SOL     OW29074   3.786   3.457   6.067 -0.3946  0.3460 -0.1015
 5813SOL    HW129075   3.859   3.473   6.006 -1.0861 -0.2980 -1.0955
 5813SOL    HW229076   3.709   3.479   6.015  0.1572  1.6305 -0.3700
 5814SOL     OW29077   4.203   0.960   0.277 -0.6070  0.2581  0.0319
 5814SOL    HW129078   4.110   0.958   0.254 -0.3480 -0.7484 -0.9099
 5814SOL    HW229079   4.192   1.005   0.361  1.1085 -1.0357  0.9609
 5815SOL     OW29080   1.383   2.690   1.803 -0.0925  0.1110 -0.0735
 5815SOL    HW129081   1.475   2.663   1.795 -0.5076 -1.4286  0.3359
 5815SOL    HW229082   1.363   2.659   1.892 -2.1252 -0.1408 -0.6221
 5816SOL     OW29083   1.513   0.710   4.258 -0.2765  1.0860  0.9412
 5816SOL    HW129084   1.489   0.642   4.195 -0.1967  1.9184 -0.0054
 5816SOL    HW229085   1.430   0.757   4.266  0.1369  1.8048  1.0785
 5817SOL     OW29086   0.361   4.107   5.728  0.5486 -0.2815 -0.1314
 5817SOL    HW129087   0.438   4.150   5.765  1.5618 -1.4692 -0.8122
 5817SOL    HW229088   0.349   4.171   5.658  0.7376 -2.6504 -2.3248
 5818SOL     OW29089   0.467   2.698   3.624 -0.5794  0.1014  0.0511
 5818SOL    HW129090   0.446   2.763   3.556  1.5259  0.1212 -0.5957
 5818SOL    HW229091   0.492   2.759   3.693 -2.5845 -0.1945  1.0409
 5819SOL     OW29092   4.099   4.393   8.105  0.6523  0.0838 -0.2306
 5819SOL    HW129093   4.105   4.388   8.201  1.8929 -0.6193 -0.3383
 5819SOL    HW229094   4.190   4.424   8.103  0.4916  0.8547  3.2702
 5820SOL     OW29095   0.494   0.319   3.961 -0.5322  0.3804  0.3674
 5820SOL    HW129096   0.563   0.374   3.998  0.4971 -0.4766 -0.2715
 5820SOL    HW229097   0.506   0.240   4.014  1.0500 -0.4709 -1.2311
 5821SOL     OW29098   4.663   4.119   7.826  0.7443  0.0369 -0.5892
 5821SOL    HW129099   4.637   4.146   7.738 -0.4872  1.3004  0.1739
 5821SOL    HW229100   4.594   4.061   7.857 -0.1199  2.1379  1.3800
 5822SOL     OW29101   1.353   0.299   2.596 -0.2220 -0.0578  0.5183
 5822SOL    HW129102   1.278   0.252   2.561  0.0443  0.3478 -0.5987
 5822SOL    HW229103   1.297   0.367   2.634 -2.5042 -1.6302 -0.0270
 5823SOL     OW29104   3.561   3.705   8.186  0.3341 -0.2123 -0.0255
 5823SOL    HW129105   3.612   3.635   8.228  0.3445 -0.2291 -0.0666
 5823SOL    HW229106   3.595   3.707   8.097 -1.8022  1.1875 -0.8014
 5824SOL     OW29107   4.156   3.269   7.369 -0.4832  0.7365  0.1703
 5824SOL    HW129108   4.104   3.332   7.421 -1.9753 -1.3648  1.2331
 5824SOL    HW229109   4.194   3.342   7.319 -0.7479 -0.3861 -1.6559
 5825SOL     OW29110   0.870   1.819  16.631  0.0144 -0.1265  0.0453
 5825SOL    HW129111   0.786   1.835  16.675 -0.4842 -0.1580 -0.9018
 5825SOL    HW229112   0.926   1.889  16.664  0.8595 -0.5331 -0.5440
 5826SOL     OW29113   0.224   3.798   4.859  0.3475 -0.5924  1.1345
 5826SOL    HW129114   0.220   3.808   4.763 -2.6396 -1.8499  1.1272
 5826SOL    HW229115   0.140   3.833   4.889  0.1941  0.5977 -0.6504
 5827SOL     OW29116   1.405   4.342   1.187  0.1249 -0.1827  0.4536
 5827SOL    HW129117   1.443   4.254   1.200  1.5256  0.1590 -1.3417
 5827SOL    HW229118   1.320   4.334   1.230 -0.9669 -1.6684 -1.9627
 5828SOL     OW29119   2.512   1.794  17.546  0.8533 -0.0346  0.2436
 5828SOL    HW129120   2.501   1.885  17.520 -1.3703 -0.4143 -0.1722
 5828SOL    HW229121   2.585   1.761  17.494 -0.3763  1.1910 -2.2210
 5829SOL     OW29122   0.964   4.001   5.512 -0.0572  0.0430 -0.1497
 5829SOL    HW129123   0.999   3.970   5.428  3.1107 -0.0372  1.1855
 5829SOL    HW229124   1.037   4.058   5.536 -0.7762  0.9191 -0.0748
 5830SOL     OW29125   4.018   0.527   0.475 -0.1342  0.0732 -1.0709
 5830SOL    HW129126   4.009   0.433   0.464 -0.0657 -0.0174 -0.3926
 5830SOL    HW229127   4.105   0.519   0.515 -0.3061  1.3626 -0.4356
 5831SOL     OW29128   1.171   2.477   1.477 -0.2419  0.2141  0.0481
 5831SOL    HW129129   1.119   2.413   1.525  0.6447 -1.9518 -1.9086
 5831SOL    HW229130   1.194   2.544   1.542  0.1842  0.5920 -0.4938
 5832SOL     OW29131   1.394   0.069   7.414  0.0986 -0.1480 -0.3929
 5832SOL    HW129132   1.475   0.020   7.425 -0.1605 -0.5856 -0.4105
 5832SOL    HW229133   1.357   0.031   7.334 -1.8402  0.0720  0.3842
 5833SOL     OW29134   2.510   0.841   7.849  0.8798  0.0853  0.4198
 5833SOL    HW129135   2.532   0.916   7.793 -0.1345  0.3331  0.3564
 5833SOL    HW229136   2.579   0.776   7.838 -1.8642 -2.8284  0.4959
 5834SOL     OW29137   0.152   0.086   5.444  0.0429  0.0045  0.2272
 5834SOL    HW129138   0.118   4.734   5.423  0.6094 -1.1409  4.2385
 5834SOL    HW229139   0.177   0.109   5.354 -1.6874 -3.3142 -1.0804
 5835SOL     OW29140   3.269   0.706   1.373  0.1600  0.0416  0.2129
 5835SOL    HW129141   3.347   0.663   1.408 -0.0744 -0.9184 -0.4391
 5835SOL    HW229142   3.296   0.794   1.396  0.1657  0.4401 -1.3662
 5836SOL     OW29143   2.682   1.078  12.957 -0.4277 -0.2615  0.6590
 5836SOL    HW129144   2.758   1.037  12.998 -1.0713 -0.6142  1.4970
 5836SOL    HW229145   2.718   1.164  12.940 -1.1114 -0.1275 -0.1516
 5837SOL     OW29146   1.748   2.760   5.908 -0.2702  0.5253  0.2822
 5837SOL    HW129147   1.664   2.749   5.864 -0.8765  0.5722  1.4326
 5837SOL    HW229148   1.802   2.769   5.830  0.9944 -1.0417  0.9859
 5838SOL     OW29149   1.862   1.315   7.881  0.0727 -0.0803  0.0484
 5838SOL    HW129150   1.953   1.319   7.854  0.2693  1.5151  0.9560
 5838SOL    HW229151   1.822   1.372   7.815 -0.3575 -0.4665 -0.0249
 5839SOL     OW29152   1.150   2.060   3.559  0.5559  1.0371  0.3635
 5839SOL    HW129153   1.164   2.110   3.640  0.1249  0.5004  0.7741
 5839SOL    HW229154   1.232   2.010   3.554 -0.6885 -1.1560  1.8151
 5840SOL     OW29155   1.019   0.286   1.147 -0.0818 -0.0357  0.2708
 5840SOL    HW129156   0.931   0.323   1.141  0.0577  0.5524  1.8879
 5840SOL    HW229157   1.040   0.331   1.229  2.0807  1.0253 -0.8611
 5841SOL     OW29158   1.755   0.911   8.851  0.5975  0.1987  0.0893
 5841SOL    HW129159   1.811   0.859   8.794  0.1385  1.5711 -1.6081
 5841SOL    HW229160   1.678   0.856   8.867  1.3432 -1.0541 -0.6304
 5842SOL     OW29161   1.807   2.899   4.091 -0.2624  0.6418  0.2419
 5842SOL    HW129162   1.749   2.938   4.156 -0.3780  1.9372 -0.6435
 5842SOL    HW229163   1.886   2.878   4.140  0.3457  1.3658 -0.4369
 5843SOL     OW29164   2.316   3.863   4.967 -0.6341 -0.4594 -0.7534
 5843SOL    HW129165   2.248   3.919   5.003  2.7086  2.3537  1.2280
 5843SOL    HW229166   2.391   3.902   5.013 -0.6950 -1.1128 -0.0959
 5844SOL     OW29167   1.726   4.315   6.086  0.2534  0.7705  0.0645
 5844SOL    HW129168   1.738   4.405   6.054 -0.1114  0.9112  0.3275
 5844SOL    HW229169   1.643   4.293   6.044  0.9289 -1.5892 -0.0585
 5845SOL     OW29170   1.002   4.187   4.851 -0.7734 -0.4726  0.1188
 5845SOL    HW129171   0.994   4.191   4.755  2.0199  1.1871 -0.0473
 5845SOL    HW229172   0.973   4.277   4.868 -1.3743 -0.5761 -0.3370
 5846SOL     OW29173   1.889   4.349  11.725  0.4513  0.1394  0.0498
 5846SOL    HW129174   1.801   4.314  11.709  1.0088 -0.7049 -1.2356
 5846SOL    HW229175   1.884   4.432  11.678  2.5825 -0.1045 -0.5841
 5847SOL     OW29176   1.768   0.521   3.079 -0.6295  0.4275 -0.0837
 5847SOL    HW129177   1.831   0.450   3.092 -0.3803  0.6922  0.1249
 5847SOL    HW229178   1.762   0.541   3.172 -0.8241  1.1603 -0.2557
 5848SOL     OW29179   2.654   0.126   0.944 -0.1377  0.0345 -0.1216
 5848SOL    HW129180   2.581   0.078   0.982 -2.4902  1.6664 -2.5131
 5848SOL    HW229181   2.713   0.057   0.915 -0.9016  0.5263 -2.8486
 5849SOL     OW29182   1.431   3.442   4.289 -0.0026  0.1744 -0.2397
 5849SOL    HW129183   1.485   3.427   4.212  0.1057 -0.0622 -0.1177
 5849SOL    HW229184   1.349   3.431   4.241 -0.4517 -2.2743  1.0892
 5850SOL     OW29185   2.491   0.058   1.738  0.0333 -0.2074 -0.3611
 5850SOL    HW129186   2.396   0.054   1.729  0.2146 -0.7841 -1.9003
 5850SOL    HW229187   2.510   0.146   1.706  1.8941 -1.1964 -1.9853
 5851SOL     OW29188   1.925   1.459   5.730 -0.1676 -0.6111 -0.1299
 5851SOL    HW129189   1.955   1.372   5.757 -0.2073 -0.5696  0.0467
 5851SOL    HW229190   1.980   1.455   5.651 -2.3168 -2.3711 -1.5434
 5852SOL     OW29191   2.463   0.002   6.406 -0.4276  0.7741 -0.1497
 5852SOL    HW129192   2.433   4.646   6.403 -1.7564  1.1656  1.1781
 5852SOL    HW229193   2.420   0.014   6.491 -1.7115  0.8437 -0.8132
 5853SOL     OW29194   4.076   2.257   4.501 -0.0735 -0.7802 -0.4315
 5853SOL    HW129195   4.144   2.194   4.475 -0.8692 -1.3103 -1.2263
 5853SOL    HW229196   4.122   2.337   4.523 -2.3573  0.4369 -0.1294
 5854SOL     OW29197   2.850   4.636   4.847  0.0778 -0.3291  0.2507
 5854SOL    HW129198   2.776   4.668   4.794  0.2952 -1.5688 -0.7968
 5854SOL    HW229199   2.828   4.651   4.939 -0.5986 -0.5013  0.1158
 5855SOL     OW29200   0.953   0.628   4.364  0.1087 -0.6604  0.2971
 5855SOL    HW129201   0.889   0.558   4.363 -0.8232  0.1929  0.4950
 5855SOL    HW229202   0.993   0.611   4.278 -3.4260  1.6560 -1.7744
 5856SOL     OW29203   4.264   1.614   6.469  0.2500 -0.0543 -0.8377
 5856SOL    HW129204   4.340   1.558   6.486 -0.5193 -0.6146  0.6832
 5856SOL    HW229205   4.299   1.664   6.395  0.8378 -0.0354 -0.5490
 5857SOL     OW29206   4.479   3.904   4.796 -0.5901 -0.3457  0.0374
 5857SOL    HW129207   4.512   3.906   4.886 -0.2825 -1.1804 -0.0604
 5857SOL    HW229208   4.558   3.878   4.749 -0.1266 -0.6590  0.9835
 5858SOL     OW29209   2.416   1.683   2.938  0.0167  0.1406  0.0612
 5858SOL    HW129210   2.401   1.614   2.873  0.6369 -0.3926  0.4855
 5858SOL    HW229211   2.360   1.661   3.012  0.5986 -2.4471 -0.2815
 5859SOL     OW29212   1.446   1.577  11.089  0.2357  0.7904 -0.4580
 5859SOL    HW129213   1.437   1.505  11.152 -0.5619  0.6886 -0.6841
 5859SOL    HW229214   1.373   1.629  11.124  0.0496  0.0676  0.2271
 5860SOL     OW29215   1.137   1.706   4.746  0.0525  0.2913  0.5195
 5860SOL    HW129216   1.230   1.687   4.742 -0.1260 -0.2722 -1.3591
 5860SOL    HW229217   1.109   1.677   4.832 -1.5176  0.1917 -0.0137
 5861SOL     OW29218   1.106   0.023   0.623  0.0898  0.2458  0.1000
 5861SOL    HW129219   1.047   0.035   0.549  1.6790 -1.4342 -1.4321
 5861SOL    HW229220   1.137   4.671   0.598 -1.5910  0.1075 -1.4811
 5862SOL     OW29221   2.233   2.815  17.265 -0.0405  0.1479 -0.3416
 5862SOL    HW129222   2.296   2.842  17.332 -2.3004 -1.9284  2.6566
 5862SOL    HW229223   2.282   2.752  17.213  0.6984 -0.8280  1.5186
 5863SOL     OW29224   4.513   1.665   5.596  0.3399  0.1400 -0.1555
 5863SOL    HW129225   4.427   1.647   5.634  0.4566 -0.1317 -0.0157
 5863SOL    HW229226   4.489   1.668   5.503  0.9246 -1.3318 -0.3601
 5864SOL     OW29227   2.669   0.133   5.948  0.0187  0.2478  0.2427
 5864SOL    HW129228   2.730   0.072   5.906 -0.5316  0.1192 -0.3824
 5864SOL    HW229229   2.601   0.132   5.880  1.3646  2.1339 -1.1396
 5865SOL     OW29230   1.622   1.400   2.415  0.1800 -0.1662 -0.3256
 5865SOL    HW129231   1.580   1.421   2.332 -0.1953  0.9291  0.1419
 5865SOL    HW229232   1.576   1.321   2.442  1.3074 -0.4714  0.7327
 5866SOL     OW29233   3.661   3.446  13.674  0.5021  0.4876 -0.0959
 5866SOL    HW129234   3.608   3.408  13.743  2.4688 -0.1714  1.0466
 5866SOL    HW229235   3.662   3.376  13.608 -0.5847  0.2315  0.1547
 5867SOL     OW29236   1.848   4.713   7.215 -0.1500  0.1975  0.3399
 5867SOL    HW129237   1.843   0.070   7.239 -0.8864 -0.1571  1.5003
 5867SOL    HW229238   1.769   4.689   7.262  0.0776 -0.9924  0.1381
 5868SOL     OW29239   4.558   4.676   0.035 -0.2350  0.3237 -0.5696
 5868SOL    HW129240   4.620   4.715   0.097 -0.5642  1.7014 -1.0861
 5868SOL    HW229241   4.568   4.587   0.067 -0.1623  1.0616  1.4415
 5869SOL     OW29242   1.609   0.839   1.267 -0.2654 -0.4306  0.2866
 5869SOL    HW129243   1.672   0.906   1.294 -1.7031  0.4486  1.4160
 5869SOL    HW229244   1.548   0.896   1.221  1.0215  1.6112  1.1267
 5870SOL     OW29245   2.691   1.978  10.186 -0.2120 -0.2442 -0.8973
 5870SOL    HW129246   2.636   1.980  10.264 -1.3114 -1.1188 -1.6533
 5870SOL    HW229247   2.717   1.886  10.188 -0.3997 -0.2566  0.8552
 5871SOL     OW29248   3.571   2.397   5.730 -0.0276 -0.4639 -0.1283
 5871SOL    HW129249   3.566   2.416   5.823  0.3604 -0.1360 -0.1715
 5871SOL    HW229250   3.537   2.307   5.727 -0.5920 -0.2437 -0.2737
 5872SOL     OW29251   1.933   1.173   4.903  0.8055  0.6856  0.0970
 5872SOL    HW129252   1.839   1.162   4.915  0.3835  3.6162 -0.5969
 5872SOL    HW229253   1.972   1.086   4.913 -1.5900 -0.1728  2.1228
 5873SOL     OW29254   1.866   0.520  15.842  0.1196 -0.0265 -0.1751
 5873SOL    HW129255   1.839   0.611  15.848  0.2964  0.1117 -1.4786
 5873SOL    HW229256   1.955   0.535  15.810 -0.1170 -1.8292 -1.7429
 5874SOL     OW29257   1.142   2.901   8.410  0.2642  0.0977  0.0536
 5874SOL    HW129258   1.206   2.835   8.381 -1.5148 -1.2529 -0.7560
 5874SOL    HW229259   1.186   2.930   8.490 -1.6129  2.6205  0.1392
 5875SOL     OW29260   4.383   0.052  10.767  0.1918  0.0804 -0.6390
 5875SOL    HW129261   4.337   0.131  10.796 -0.1517 -0.0524 -0.8262
 5875SOL    HW229262   4.441   0.035  10.842 -2.1126  2.4167  1.6631
 5876SOL     OW29263   3.519   1.428   1.468  0.4503  0.2767 -0.4166
 5876SOL    HW129264   3.530   1.476   1.550  2.6960 -0.0063 -0.5575
 5876SOL    HW229265   3.608   1.426   1.434  0.6995  0.9496  0.2001
 5877SOL     OW29266   2.992   0.102   1.630 -0.5702  0.5701  0.1728
 5877SOL    HW129267   2.947   0.144   1.703  0.0130  2.3846 -0.5171
 5877SOL    HW229268   3.078   0.143   1.639  0.7426 -1.9923 -0.5819
 5878SOL     OW29269   2.847   1.172  15.296 -0.3513  0.5369 -0.4826
 5878SOL    HW129270   2.872   1.102  15.235 -0.1471  1.5983 -1.6203
 5878SOL    HW229271   2.818   1.238  15.233 -0.9592  0.6884 -0.0407
 5879SOL     OW29272   0.805   2.615   8.741 -0.5205  0.2021  0.1313
 5879SOL    HW129273   0.874   2.633   8.679  0.3199 -0.3219  0.9129
 5879SOL    HW229274   0.729   2.615   8.683 -1.2850 -0.2870  1.1203
 5880SOL     OW29275   2.626   4.601  15.652  0.1427 -0.1505  0.2017
 5880SOL    HW129276   2.570   4.588  15.728  1.3701  0.2152  1.1778
 5880SOL    HW229277   2.605   4.691  15.629 -1.3561 -0.7852 -0.8866
 5881SOL     OW29278   2.526   3.257   2.167  0.2999  0.0402 -0.4174
 5881SOL    HW129279   2.562   3.345   2.177 -2.1981  1.2251 -1.8019
 5881SOL    HW229280   2.433   3.276   2.151 -0.0678 -0.0530  1.6872
 5882SOL     OW29281   2.505   1.180   4.441  0.2013  0.2469 -0.2895
 5882SOL    HW129282   2.499   1.093   4.480 -0.3892 -0.1187 -1.1851
 5882SOL    HW229283   2.439   1.167   4.373 -2.3793  0.9104  2.0614
 5883SOL     OW29284   0.769   0.424   1.174 -0.3057  0.4434 -0.0002
 5883SOL    HW129285   0.775   0.435   1.079  0.5290 -0.1297 -0.0136
 5883SOL    HW229286   0.674   0.435   1.180 -0.6505 -1.4845 -1.9455
 5884SOL     OW29287   0.949   1.084   2.771  0.1942  0.0777  0.3560
 5884SOL    HW129288   1.023   1.109   2.716  0.8279 -1.3105  0.5794
 5884SOL    HW229289   0.906   1.169   2.779 -1.7458 -0.8332 -0.3997
 5885SOL     OW29290   0.882   0.298   7.918  0.3920 -0.5081 -0.0301
 5885SOL    HW129291   0.847   0.247   7.991  1.8778  0.7142  1.5521
 5885SOL    HW229292   0.922   0.375   7.960 -3.4195  1.0348  0.7368
 5886SOL     OW29293   2.063   2.560  11.510 -0.0684  0.1312  0.3699
 5886SOL    HW129294   2.044   2.646  11.474  1.5120 -0.1626 -1.1588
 5886SOL    HW229295   2.012   2.565  11.591 -1.2296 -2.1736 -0.2144
 5887SOL     OW29296   3.758   2.507   5.551 -0.3319  0.1493  0.4801
 5887SOL    HW129297   3.676   2.463   5.568 -0.1924  0.0994  1.0425
 5887SOL    HW229298   3.758   2.568   5.625  0.5734  1.3454 -0.5006
 5888SOL     OW29299   4.560   1.925  10.027 -0.1051  0.4100 -0.4145
 5888SOL    HW129300   4.604   2.010  10.025  0.4880  0.0603 -2.0192
 5888SOL    HW229301   4.508   1.922  10.107  0.3964 -1.1484 -0.1382
 5889SOL     OW29302   0.528   1.625  16.589 -0.6549  0.1878 -0.2178
 5889SOL    HW129303   0.501   1.651  16.677  1.3388  1.5542 -0.0035
 5889SOL    HW229304   0.496   1.704  16.546  1.3022  0.4642 -1.1660
 5890SOL     OW29305   2.940   1.607   3.375  0.3504  0.1756  0.0202
 5890SOL    HW129306   3.021   1.558   3.369  0.2348 -0.1131  0.8277
 5890SOL    HW229307   2.964   1.660   3.452  0.2264 -0.2482  0.3496
 5891SOL     OW29308   0.208   1.174   6.831 -0.0156 -0.0841  0.4452
 5891SOL    HW129309   0.290   1.144   6.792 -0.0226  1.3960 -0.7240
 5891SOL    HW229310   0.189   1.116   6.904  0.0508  1.3587  1.5999
 5892SOL     OW29311   0.132   0.758   6.381 -0.0846 -0.0699  0.1102
 5892SOL    HW129312   0.074   0.764   6.458 -1.0419 -0.3832 -0.5882
 5892SOL    HW229313   0.096   0.825   6.324  1.0871 -0.0135 -0.5728
 5893SOL     OW29314   1.589   3.568  11.653  0.1659 -0.6446 -0.0174
 5893SOL    HW129315   1.618   3.579  11.744  1.3984 -0.1893 -0.4592
 5893SOL    HW229316   1.668   3.527  11.617  1.8987  2.1134  0.6281
 5894SOL     OW29317   1.250   4.345   6.530 -0.6870  0.1941  0.1533
 5894SOL    HW129318   1.163   4.305   6.542 -0.6984  0.4617  1.0299
 5894SOL    HW229319   1.304   4.273   6.563 -2.5430 -1.1935  0.2171
 5895SOL     OW29320   3.242   3.656   4.333  0.2081 -0.0510 -0.4316
 5895SOL    HW129321   3.324   3.608   4.345  2.3370  3.5164 -0.6598
 5895SOL    HW229322   3.216   3.673   4.423 -0.4681 -0.3976 -0.5671
 5896SOL     OW29323   1.196   3.439  14.109 -0.0508 -0.1705 -0.2090
 5896SOL    HW129324   1.270   3.498  14.126 -0.3836  0.1865  0.0001
 5896SOL    HW229325   1.201   3.369  14.175  0.3176  0.4998  0.4684
 5897SOL     OW29326   3.229   2.482   3.309  0.4702  0.6663  0.5276
 5897SOL    HW129327   3.251   2.560   3.258  2.9976  0.0069  0.6116
 5897SOL    HW229328   3.283   2.422   3.257 -0.1684  0.2384  0.3667
 5898SOL     OW29329   1.692   3.776   3.337 -0.0523  0.0398  0.1635
 5898SOL    HW129330   1.767   3.720   3.354  2.0321  2.8227  0.0458
 5898SOL    HW229331   1.611   3.730   3.359  0.0884  0.0002  0.6000
 5899SOL     OW29332   1.867   3.234   3.013  0.0297  0.5052 -0.0793
 5899SOL    HW129333   1.956   3.267   3.011  0.5501 -0.8151  1.2131
 5899SOL    HW229334   1.864   3.216   3.107 -0.8341  0.8619 -0.0343
 5900SOL     OW29335   0.148   3.224   2.943  0.6127  1.0551 -0.4702
 5900SOL    HW129336   0.139   3.151   2.882  0.1743  0.5121  0.2398
 5900SOL    HW229337   0.107   3.287   2.884  0.3372  0.1815 -1.2091
 5901SOL     OW29338   0.215   1.591   2.528  0.9051  0.5837  0.3237
 5901SOL    HW129339   0.203   1.631   2.441  0.3051 -1.0401 -0.3447
 5901SOL    HW229340   0.308   1.574   2.519  1.0564  1.4030  0.3187
 5902SOL     OW29341   1.817   2.503   2.686  0.3319  0.2477  0.0077
 5902SOL    HW129342   1.867   2.464   2.758 -1.4068 -0.3367  0.9002
 5902SOL    HW229343   1.743   2.442   2.693 -0.0292  0.5625 -1.1182
 5903SOL     OW29344   0.459   1.140  15.375  0.5681  0.7138 -0.2166
 5903SOL    HW129345   0.547   1.111  15.354 -0.3369 -3.7511  1.9383
 5903SOL    HW229346   0.466   1.194  15.454 -1.8701  1.6930 -0.6453
 5904SOL     OW29347   4.180   0.030   5.690  0.3875  0.3331  0.2976
 5904SOL    HW129348   4.108   4.706   5.667  1.2172 -1.1417  1.4235
 5904SOL    HW229349   4.197   0.059   5.601 -0.5777  0.0687  0.0310
 5905SOL     OW29350   3.837   1.023  10.067 -0.4250 -0.1518 -0.0255
 5905SOL    HW129351   3.847   0.973   9.986  0.3169 -1.9202  1.1445
 5905SOL    HW229352   3.854   0.950  10.127  0.0364  0.0732  0.1218
 5906SOL     OW29353   4.638   0.933   5.994 -0.0498  0.0058 -0.0516
 5906SOL    HW129354   4.699   0.861   5.979  0.1101 -0.3400  2.3555
 5906SOL    HW229355   4.698   0.997   6.031  3.6386 -1.8376 -2.8639
 5907SOL     OW29356   0.261   2.134  12.025  0.0552  0.0760 -0.1614
 5907SOL    HW129357   0.310   2.060  11.992 -0.1235 -0.4765  0.8104
 5907SOL    HW229358   0.189   2.086  12.065 -1.0628  2.4218  0.6929
 5908SOL     OW29359   0.154   4.243   4.108 -0.0997  0.2362  0.0524
 5908SOL    HW129360   0.072   4.216   4.065 -1.0954 -1.8714  3.2405
 5908SOL    HW229361   0.194   4.156   4.108 -1.9569 -0.6155  0.2143
 5909SOL     OW29362   2.225   0.673   6.369  0.0226 -0.2889 -0.0675
 5909SOL    HW129363   2.253   0.676   6.278 -2.3693  0.4419 -0.7853
 5909SOL    HW229364   2.250   0.759   6.403  0.2669 -0.6362  0.6389
 5910SOL     OW29365   0.679   4.673   3.299  0.2482 -1.1891 -0.3351
 5910SOL    HW129366   0.759   4.621   3.299  1.1119  0.1178 -1.2069
 5910SOL    HW229367   0.609   4.607   3.298 -1.4729  0.6314 -1.1073
 5911SOL     OW29368   1.803   4.004   8.398 -0.0869 -0.1424  0.3090
 5911SOL    HW129369   1.784   3.912   8.416 -0.4123 -0.4303 -1.5531
 5911SOL    HW229370   1.890   4.003   8.439  0.1242  0.9839 -0.1197
 5912SOL     OW29371   3.649   3.826   3.151 -0.2262  0.4031  0.7079
 5912SOL    HW129372   3.741   3.852   3.143  0.2256 -0.1172  4.1663
 5912SOL    HW229373   3.646   3.771   3.073 -1.2632  0.7568  0.4914
 5913SOL     OW29374   0.924   3.880   6.566  0.0025 -0.1828  0.1228
 5913SOL    HW129375   1.014   3.906   6.585 -0.1689  1.3213 -1.0792
 5913SOL    HW229376   0.870   3.947   6.607 -1.7800 -1.6934  0.2299
 5914SOL     OW29377   3.910   4.598   6.803 -0.0313  0.2823  0.3673
 5914SOL    HW129378   3.874   4.658   6.738 -1.1289 -0.2747  0.4565
 5914SOL    HW229379   3.835   4.597   6.863  0.0485  1.3612  0.4740
 5915SOL     OW29380   2.016   2.342  16.212 -0.1780 -0.5626 -0.1109
 5915SOL    HW129381   2.055   2.368  16.295 -1.1863  1.4974 -0.2860
 5915SOL    HW229382   1.960   2.276  16.252  0.8240 -1.7978 -0.7409
 5916SOL     OW29383   4.161   0.044  10.159  0.3411 -0.1943  0.8417
 5916SOL    HW129384   4.181   0.138  10.158  0.2755 -0.1977 -0.5289
 5916SOL    HW229385   4.227   0.010  10.098  1.3199  0.0821  1.7294
 5917SOL     OW29386   2.637   0.141  14.097  0.5824 -0.3991  0.1694
 5917SOL    HW129387   2.729   0.142  14.071  0.4084  1.8280 -0.3434
 5917SOL    HW229388   2.610   0.055  14.062 -1.5909  0.1381  0.5012
 5918SOL     OW29389   1.348   3.585   4.001 -0.1740 -0.0900 -0.6013
 5918SOL    HW129390   1.310   3.548   4.081 -0.8445 -2.0028 -1.8127
 5918SOL    HW229391   1.289   3.537   3.943 -1.4218 -0.1996  0.7482
 5919SOL     OW29392   3.581   3.048   2.110  0.2520  0.1913  0.1186
 5919SOL    HW129393   3.501   3.066   2.159 -0.5100 -1.5072 -0.5269
 5919SOL    HW229394   3.555   2.973   2.058  1.1811  1.3984 -2.0749
 5920SOL     OW29395   4.215   4.539  10.288  0.0491  0.1749 -0.4875
 5920SOL    HW129396   4.297   4.565  10.331 -1.0543 -0.5043  2.0527
 5920SOL    HW229397   4.186   4.625  10.258 -1.0239 -1.0210 -2.8207
 5921SOL     OW29398   2.260   3.654  17.495  0.2043 -0.1609  0.2436
 5921SOL    HW129399   2.297   3.611  17.572  1.1230 -0.6207 -0.4398
 5921SOL    HW229400   2.299   3.599  17.427  1.7429  0.1737  0.8537
 5922SOL     OW29401   0.146   3.949   5.675  0.1910 -0.5268 -0.3149
 5922SOL    HW129402   0.072   4.009   5.660  0.1001  0.0218  2.4271
 5922SOL    HW229403   0.224   4.001   5.693  0.0830 -0.4734 -0.0096
 5923SOL     OW29404   4.365   0.607   8.133  0.2588 -0.1779  0.2566
 5923SOL    HW129405   4.381   0.590   8.041 -0.8702 -2.1888  0.4155
 5923SOL    HW229406   4.442   0.662   8.147  1.6955 -2.4498  1.2830
 5924SOL     OW29407   4.038   3.577   8.283  0.6137 -0.3960 -0.4043
 5924SOL    HW129408   3.996   3.606   8.202 -1.8911  0.7873  1.3604
 5924SOL    HW229409   4.118   3.566   8.230  1.2190  0.0177  0.4288
 5925SOL     OW29410   1.569   3.285  11.911  0.3382  0.3251  0.7336
 5925SOL    HW129411   1.620   3.365  11.926  4.2036 -1.9531 -0.3757
 5925SOL    HW229412   1.489   3.301  11.960 -0.0868  1.5911 -0.3499
 5926SOL     OW29413   0.714   0.199   7.600  0.4863 -0.2075  0.0335
 5926SOL    HW129414   0.800   0.232   7.624  0.2112 -0.4243  1.2861
 5926SOL    HW229415   0.657   0.240   7.665  0.5027  0.0656 -0.1225
 5927SOL     OW29416   2.058   4.070  15.115 -0.4332  0.0152  0.3418
 5927SOL    HW129417   2.131   4.008  15.121 -0.0629  0.4755  0.5698
 5927SOL    HW229418   2.111   4.144  15.145  0.7957 -0.7526  0.0855
 5928SOL     OW29419   4.651   0.991   1.797 -0.1891 -0.0404  0.3111
 5928SOL    HW129420   4.609   0.928   1.856  0.1527 -2.7661 -2.3859
 5928SOL    HW229421   4.580   1.047   1.768 -1.5151 -1.8009  0.1701
 5929SOL     OW29422   2.269   1.858   6.246 -0.3832 -0.2721  0.2184
 5929SOL    HW129423   2.262   1.764   6.232 -4.2079  0.3131 -1.9977
 5929SOL    HW229424   2.305   1.876   6.160  0.8098 -0.9921  0.5723
 5930SOL     OW29425   0.089   1.785   6.964  0.1136  0.4657  0.5705
 5930SOL    HW129426   0.063   1.703   6.921  1.4070  0.7489 -0.7152
 5930SOL    HW229427   0.043   1.840   6.900  0.5600  2.0575  1.6247
 5931SOL     OW29428   3.358   0.413   3.398 -0.0288  0.0187 -0.1110
 5931SOL    HW129429   3.275   0.425   3.352 -1.6727 -0.1960  2.8013
 5931SOL    HW229430   3.385   0.335   3.349 -3.2261 -1.6438  0.8103
 5932SOL     OW29431   3.205   2.022  16.984  0.0506  0.3896  0.0540
 5932SOL    HW129432   3.210   2.089  17.051  0.5673  0.4658 -0.0603
 5932SOL    HW229433   3.125   2.052  16.941  0.9662  0.5927 -1.5065
 5933SOL     OW29434   3.310   3.118  11.545 -0.0682 -0.4955 -0.2317
 5933SOL    HW129435   3.326   3.024  11.559 -1.7489 -0.4074  2.2020
 5933SOL    HW229436   3.215   3.122  11.552  0.0777  0.5956  0.9947
 5934SOL     OW29437   4.717   0.579  10.317 -0.3870  0.4988 -0.1860
 5934SOL    HW129438   0.027   0.587  10.233  2.5950  0.0269  1.3318
 5934SOL    HW229439   4.683   0.489  10.316  0.1896  0.2943 -0.8578
 5935SOL     OW29440   1.744   3.149   2.755 -0.3410  0.0841 -0.0282
 5935SOL    HW129441   1.794   3.212   2.703  0.9946 -0.3672  0.7004
 5935SOL    HW229442   1.788   3.149   2.840 -1.7097  1.0908  0.6939
 5936SOL     OW29443   3.638   3.540   9.949  0.4038  0.2011  0.2469
 5936SOL    HW129444   3.577   3.562   9.878 -0.2323  0.0064  0.7303
 5936SOL    HW229445   3.575   3.539  10.021  0.3209 -1.7187  0.1579
 5937SOL     OW29446   3.020   3.266   1.851 -0.1145  0.5734  0.0511
 5937SOL    HW129447   2.936   3.235   1.819  1.7244 -1.3782 -2.8684
 5937SOL    HW229448   3.038   3.331   1.783 -2.1009  0.5804 -0.4430
 5938SOL     OW29449   0.567   3.136  14.243  0.7804  0.3373 -0.0480
 5938SOL    HW129450   0.491   3.077  14.238 -0.1706  1.6361 -0.8433
 5938SOL    HW229451   0.618   3.111  14.320  1.2330 -0.6833 -0.6764
 5939SOL     OW29452   2.181   0.204   1.176 -0.0582  0.3850  0.3386
 5939SOL    HW129453   2.135   0.123   1.157  0.5824  0.2066 -0.4561
 5939SOL    HW229454   2.162   0.246   1.092  3.3384 -0.7968 -1.0085
 5940SOL     OW29455   3.138   2.801   5.139  0.2481  0.0213 -0.0414
 5940SOL    HW129456   3.123   2.894   5.121  0.1940  0.1443  0.6524
 5940SOL    HW229457   3.215   2.794   5.082 -1.6117  0.7338 -2.6617
 5941SOL     OW29458   2.255   4.374   5.872 -0.0549 -0.0720 -0.2889
 5941SOL    HW129459   2.220   4.372   5.784  0.1310  1.1081 -0.3879
 5941SOL    HW229460   2.295   4.461   5.870  0.7024 -0.4238 -0.6324
 5942SOL     OW29461   1.355   0.500   4.752 -0.1363 -0.0841  0.1107
 5942SOL    HW129462   1.270   0.538   4.771 -0.5548 -0.6251 -0.6994
 5942SOL    HW229463   1.347   0.507   4.657  3.5519  4.3353  0.0956
 5943SOL     OW29464   4.728   3.207   6.560  0.2057 -0.1924 -0.1807
 5943SOL    HW129465   0.036   3.280   6.605  1.4024  0.1327 -1.8510
 5943SOL    HW229466   4.726   3.249   6.474  1.4998 -0.6510 -0.4298
 5944SOL     OW29467   3.583   1.014   3.322 -0.8591 -0.2050  0.0727
 5944SOL    HW129468   3.670   1.019   3.361 -0.6698  0.4047 -0.4294
 5944SOL    HW229469   3.581   0.923   3.291 -0.8245 -0.7687  1.7180
 5945SOL     OW29470   3.668   4.100  15.028  0.2375  0.0577  0.0086
 5945SOL    HW129471   3.628   4.176  14.987  1.4717  0.6397 -0.1083
 5945SOL    HW229472   3.595   4.040  15.045  0.7471 -0.6922 -0.4624
 5946SOL     OW29473   4.438   1.618   5.055 -0.1662 -0.1841  0.4550
 5946SOL    HW129474   4.378   1.546   5.037  1.4266 -1.4064  0.0699
 5946SOL    HW229475   4.499   1.599   4.984 -0.8529 -0.6441 -0.0199
 5947SOL     OW29476   0.074   2.062   8.754  0.0446 -0.0562 -0.3484
 5947SOL    HW129477   0.135   2.005   8.801  0.5211 -0.3361 -1.3079
 5947SOL    HW229478   0.129   2.140   8.744  1.0648 -0.6343  0.7051
 5948SOL     OW29479   4.108   0.106   2.680  0.2733  0.3988 -0.0132
 5948SOL    HW129480   4.108   0.100   2.585 -2.3672  0.6041 -0.0270
 5948SOL    HW229481   4.017   0.089   2.702  0.8835 -2.0504  0.5766
 5949SOL     OW29482   3.668   3.353   5.314 -0.2636 -0.0362 -0.7469
 5949SOL    HW129483   3.580   3.362   5.278 -1.1721  0.3819  1.5751
 5949SOL    HW229484   3.708   3.438   5.298  0.5889 -0.4991 -1.0662
 5950SOL     OW29485   1.325   1.720   4.270 -0.5847  0.3099  0.1004
 5950SOL    HW129486   1.235   1.707   4.299 -0.8998 -1.2706 -1.6413
 5950SOL    HW229487   1.374   1.664   4.331 -1.6552 -1.9072 -1.0761
 5951SOL     OW29488   3.517   3.663  10.595  0.5821 -0.4161 -0.3235
 5951SOL    HW129489   3.575   3.642  10.522 -0.3402 -2.2085 -0.5594
 5951SOL    HW229490   3.580   3.668  10.667  1.0972 -2.0672 -0.6627
 5952SOL     OW29491   0.091   4.727  14.291 -0.0301  0.1628 -0.0272
 5952SOL    HW129492   0.184   0.014  14.285  0.4752 -1.9912  0.1983
 5952SOL    HW229493   0.076   0.041  14.372 -0.5124 -0.7400  0.4257
 5953SOL     OW29494   4.467   1.294   3.032 -0.4375 -0.3782 -0.2402
 5953SOL    HW129495   4.407   1.338   2.972  1.5739  0.7714 -1.4124
 5953SOL    HW229496   4.435   1.336   3.112  0.8561  1.4807 -0.6957
 5954SOL     OW29497   2.191   0.381   5.470 -0.6747 -0.2754 -0.5018
 5954SOL    HW129498   2.117   0.331   5.436  0.3027 -0.2385 -2.7119
 5954SOL    HW229499   2.156   0.467   5.446  2.4115  1.5977  1.8588
 5955SOL     OW29500   0.734   1.137   2.519  0.1487  0.4932  0.3970
 5955SOL    HW129501   0.758   1.188   2.595 -0.5429  0.6260  0.5294
 5955SOL    HW229502   0.721   1.059   2.573 -2.3952 -0.1422 -1.1237
 5956SOL     OW29503   2.580   0.472   2.620 -0.4899 -0.5418 -0.2655
 5956SOL    HW129504   2.512   0.406   2.614 -0.6301 -0.5220  1.2264
 5956SOL    HW229505   2.541   0.541   2.566  2.4285 -0.1118 -1.8268
 5957SOL     OW29506   1.813   3.350  12.982 -0.0874 -0.0676  0.0854
 5957SOL    HW129507   1.807   3.260  12.950 -2.9244  0.3344 -0.4411
 5957SOL    HW229508   1.906   3.347  13.005  0.5024  1.9984 -2.0421
 5958SOL     OW29509   2.490   0.513   7.714 -0.0214 -0.2212  0.3778
 5958SOL    HW129510   2.433   0.472   7.779  1.1915 -0.3064  1.3800
 5958SOL    HW229511   2.542   0.569   7.771  0.0739 -1.4508  1.4951
 5959SOL     OW29512   0.259   3.367  12.685 -0.2118 -0.4906  0.0314
 5959SOL    HW129513   0.255   3.271  12.679  2.6752 -0.6145  0.0969
 5959SOL    HW229514   0.331   3.382  12.746  0.1322  2.3418 -1.0776
 5960SOL     OW29515   4.665   0.298  10.299 -0.2400  0.0960  0.1086
 5960SOL    HW129516   4.654   0.217  10.248 -1.7853  0.2654  0.1728
 5960SOL    HW229517   4.662   0.265  10.388  0.6398  0.4644  0.2739
 5961SOL     OW29518   1.083   1.812   5.505 -0.4758  0.3170 -0.2650
 5961SOL    HW129519   1.125   1.839   5.587 -0.3622  0.3169 -0.3235
 5961SOL    HW229520   1.161   1.788   5.455  0.4694  1.0975  0.8252
 5962SOL     OW29521   1.107   3.523   4.821 -0.4709  0.0600 -0.8484
 5962SOL    HW129522   1.161   3.601   4.813 -0.9500  0.2510 -2.2346
 5962SOL    HW229523   1.166   3.454   4.790  0.6408  0.6237  0.0370
 5963SOL     OW29524   1.804   0.286  12.570 -0.3369  0.0843  0.0968
 5963SOL    HW129525   1.787   0.277  12.477 -0.5708  1.7641 -0.0139
 5963SOL    HW229526   1.737   0.348  12.599  0.9664  0.6537  1.8896
 5964SOL     OW29527   0.262   3.572  17.090  0.2846 -0.0474  0.1117
 5964SOL    HW129528   0.318   3.504  17.128  0.0405 -0.7804 -0.8335
 5964SOL    HW229529   0.179   3.582  17.137 -1.7770 -0.0469 -3.4851
 5965SOL     OW29530   3.313   4.274   3.629 -0.1224  0.1020 -0.4642
 5965SOL    HW129531   3.321   4.288   3.724  0.1812  0.6220 -0.5639
 5965SOL    HW229532   3.387   4.216   3.610  0.9945  1.3945 -0.0576
 5966SOL     OW29533   4.054   1.185   4.442 -0.5004  0.8512  0.3162
 5966SOL    HW129534   4.111   1.257   4.418  2.5602 -1.1922  1.3890
 5966SOL    HW229535   4.063   1.161   4.535 -0.7338  1.1355  0.4133
 5967SOL     OW29536   2.308   1.302  14.329  0.3263 -0.3885  0.3136
 5967SOL    HW129537   2.302   1.335  14.239 -0.9084 -0.2536  0.4577
 5967SOL    HW229538   2.285   1.209  14.317  0.1690 -0.2835 -0.1964
 5968SOL     OW29539   3.576   3.850   5.951  0.0666  0.1602  0.2519
 5968SOL    HW129540   3.587   3.767   5.906  3.5843  1.4557 -1.3145
 5968SOL    HW229541   3.628   3.825   6.027  0.6864  0.0294 -0.2168
 5969SOL     OW29542   2.149   0.066   0.028  0.2283  0.2883  0.4725
 5969SOL    HW129543   2.105   4.726  17.727 -0.1798  1.9706 -2.2371
 5969SOL    HW229544   2.076   0.125   0.010 -0.3678 -0.2551  1.0959
 5970SOL     OW29545   4.466   3.376   3.770  0.0739  0.3725  0.1360
 5970SOL    HW129546   4.536   3.427   3.730 -0.6423  2.2637  1.2893
 5970SOL    HW229547   4.452   3.417   3.855  0.1946  1.1600 -0.2250
 5971SOL     OW29548   4.592   3.864   5.041 -0.2482  0.3253 -0.2467
 5971SOL    HW129549   4.674   3.876   5.088 -0.4480  0.9730 -0.0596
 5971SOL    HW229550   4.528   3.862   5.112 -0.5318  1.7892 -0.4430
 5972SOL     OW29551   3.236   1.729   2.051 -0.2615 -0.2518 -0.2157
 5972SOL    HW129552   3.270   1.649   2.091  1.6160 -0.4806 -2.2407
 5972SOL    HW229553   3.165   1.702   1.993  0.5094  0.4717 -1.4982
 5973SOL     OW29554   1.285   0.034  15.854  0.1476  0.0097  0.0975
 5973SOL    HW129555   1.265   0.091  15.928 -0.7704 -0.3176  0.1085
 5973SOL    HW229556   1.355   0.081  15.809  1.9380  0.7899  3.7275
 5974SOL     OW29557   3.566   2.706   8.927  0.0224 -0.8199 -0.3740
 5974SOL    HW129558   3.574   2.644   8.999 -1.7623 -2.0345 -1.2265
 5974SOL    HW229559   3.479   2.683   8.895 -1.8752  0.4953  3.9366
 5975SOL     OW29560   4.164   3.321   4.319  0.3149  0.0088 -0.6621
 5975SOL    HW129561   4.099   3.305   4.251  0.9444 -1.9060 -0.8165
 5975SOL    HW229562   4.129   3.265   4.389  1.5961 -0.8660 -0.7267
 5976SOL     OW29563   0.486   4.690   1.477  0.4712 -0.2716 -0.4657
 5976SOL    HW129564   0.559   0.016   1.466  0.1524 -0.1927 -2.1480
 5976SOL    HW229565   0.412   0.014   1.461 -0.1064 -0.6814  0.7307
 5977SOL     OW29566   4.088   2.572   6.748  0.5296  0.3555  0.7024
 5977SOL    HW129567   4.159   2.537   6.801 -0.3473  0.0774  1.6814
 5977SOL    HW229568   4.106   2.663   6.773 -2.1873 -0.0613  4.0714
 5978SOL     OW29569   3.920   2.524   7.133  0.2559 -0.2325  0.0875
 5978SOL    HW129570   3.882   2.438   7.118  0.1848 -0.7964  3.3665
 5978SOL    HW229571   3.849   2.566   7.183  0.3595  1.5480 -1.2611
 5979SOL     OW29572   2.783   4.626  13.775 -0.0121  0.1067  0.0209
 5979SOL    HW129573   2.745   4.685  13.710  1.7592  3.0751  1.7287
 5979SOL    HW229574   2.875   4.637  13.750 -0.0441  0.3165 -0.0031
 5980SOL     OW29575   0.401   1.023   8.812  0.1297  0.1464  0.7863
 5980SOL    HW129576   0.320   1.030   8.861 -0.3488  0.5753 -0.0720
 5980SOL    HW229577   0.390   1.105   8.765  1.2124  0.0077  0.2675
 5981SOL     OW29578   2.262   0.116   3.836 -0.6531 -0.0824 -0.4304
 5981SOL    HW129579   2.213   0.040   3.806 -1.9533 -0.4021  2.5591
 5981SOL    HW229580   2.238   0.102   3.927 -1.7559 -0.8209 -0.8350
 5982SOL     OW29581   4.173   1.951   3.346 -0.5160 -0.1149 -0.2831
 5982SOL    HW129582   4.118   2.009   3.399 -2.1234 -3.5780  1.8304
 5982SOL    HW229583   4.107   1.939   3.277 -0.4744 -1.2951 -0.1097
 5983SOL     OW29584   0.437   2.087   2.687  0.1878  0.5017 -0.3752
 5983SOL    HW129585   0.521   2.120   2.717  1.2331 -0.6008 -2.1091
 5983SOL    HW229586   0.441   2.002   2.730 -1.0603  0.2482 -0.7537
 5984SOL     OW29587   4.439   3.969   0.244  0.0074  0.2520  0.1875
 5984SOL    HW129588   4.344   3.971   0.254 -0.2738  0.2336 -2.5508
 5984SOL    HW229589   4.447   3.925   0.159  2.1535  0.3665  0.3160
 5985SOL     OW29590   0.942   2.406   4.135 -0.0002  0.4001 -0.1935
 5985SOL    HW129591   1.014   2.400   4.198 -0.4866  1.2677  0.4466
 5985SOL    HW229592   0.905   2.318   4.143  1.6234 -0.2368  0.2070
 5986SOL     OW29593   1.172   3.849   5.795  0.2485 -0.0081  0.0029
 5986SOL    HW129594   1.258   3.829   5.757 -0.7334  0.0358 -2.2699
 5986SOL    HW229595   1.179   3.943   5.813  0.2519  0.0621 -0.3646
 5987SOL     OW29596   2.016   1.148   6.048  0.0966  0.4560 -0.1173
 5987SOL    HW129597   2.028   1.111   5.961 -0.2175  0.2537 -0.0761
 5987SOL    HW229598   2.071   1.089   6.100  0.5339  1.4734  0.5915
 5988SOL     OW29599   1.308   3.383  10.353 -0.3355 -0.0537 -0.5222
 5988SOL    HW129600   1.393   3.418  10.382  0.5075 -4.3681  2.1825
 5988SOL    HW229601   1.269   3.460  10.312 -2.3866 -0.8150  0.0067
 5989SOL     OW29602   4.211   0.447  17.481 -0.3075  0.1873 -0.1815
 5989SOL    HW129603   4.182   0.356  17.476 -1.6961  0.6651 -0.7482
 5989SOL    HW229604   4.261   0.448  17.563 -1.7426 -0.5785  0.6950
 5990SOL     OW29605   1.491   3.913   6.883 -0.4887 -0.6326 -0.2718
 5990SOL    HW129606   1.403   3.950   6.875 -1.6973 -3.8296 -1.4672
 5990SOL    HW229607   1.510   3.927   6.976  3.1952  2.2767 -1.4594
 5991SOL     OW29608   1.909   1.010   3.599 -0.2489 -0.0068  0.0436
 5991SOL    HW129609   1.857   0.933   3.620 -2.0493  0.8385 -1.3123
 5991SOL    HW229610   1.994   0.993   3.638 -1.3765 -1.4090  1.9014
 5992SOL     OW29611   3.081   2.922   6.384 -0.5276 -0.4929 -0.1440
 5992SOL    HW129612   3.083   2.883   6.472  2.1088  0.5500  0.2480
 5992SOL    HW229613   3.001   2.887   6.344 -0.7954  0.7566 -0.6973
 5993SOL     OW29614   4.438   4.691  13.061  0.5174  0.2854  0.2400
 5993SOL    HW129615   4.408   4.646  13.140 -2.5895  0.0520 -1.0693
 5993SOL    HW229616   4.527   4.716  13.087  0.3261  0.7831  0.4238
 5994SOL     OW29617   1.940   4.167   1.973 -0.0884  0.1183 -0.6944
 5994SOL    HW129618   1.926   4.157   2.067 -0.8121  0.8176 -0.7332
 5994SOL    HW229619   1.850   4.159   1.943  0.0888 -1.7757 -0.7270
 5995SOL     OW29620   4.372   2.217   1.965 -0.2534 -0.0838  0.1671
 5995SOL    HW129621   4.337   2.157   2.030 -0.0465  0.0510  0.4061
 5995SOL    HW229622   4.387   2.163   1.888 -0.5048  0.7253 -0.4415
 5996SOL     OW29623   1.479   0.557   8.131  0.1063 -0.7024 -0.8175
 5996SOL    HW129624   1.544   0.607   8.181  0.8808 -3.0723  0.5169
 5996SOL    HW229625   1.486   0.465   8.153 -0.8510 -0.7893 -0.8749
 5997SOL     OW29626   3.746   2.478  13.186  0.6598 -0.1798 -0.0676
 5997SOL    HW129627   3.832   2.440  13.165  1.4436  2.0234 -0.8110
 5997SOL    HW229628   3.727   2.435  13.269  1.1869  0.9178  0.6172
 5998SOL     OW29629   2.784   4.391   1.422 -0.8256 -0.2713 -0.0621
 5998SOL    HW129630   2.813   4.480   1.446 -0.0052 -0.7433  0.7086
 5998SOL    HW229631   2.783   4.397   1.326  1.7639  1.2555 -0.0035
 5999SOL     OW29632   2.893   0.921   3.746  0.1357 -0.4148  0.5604
 5999SOL    HW129633   2.963   0.910   3.683  0.5149  0.6464  0.8038
 5999SOL    HW229634   2.928   0.877   3.823 -0.3901 -1.3863  0.2546
 6000SOL     OW29635   2.664   4.162   7.409 -0.6902 -0.0238  0.0685
 6000SOL    HW129636   2.732   4.196   7.468 -2.8297  1.7919  1.4693
 6000SOL    HW229637   2.621   4.240   7.375  1.6651  1.7964  1.2332
 6001SOL     OW29638   4.226   2.957   4.360  0.0134 -0.0533  0.7605
 6001SOL    HW129639   4.181   3.024   4.413  0.9170  1.5557 -0.5216
 6001SOL    HW229640   4.184   2.883   4.405  1.0221 -1.9478 -1.4380
 6002SOL     OW29641   1.426   2.618   5.359 -0.3661  0.1602 -0.3073
 6002SOL    HW129642   1.450   2.578   5.276 -2.1693  0.2336 -0.8561
 6002SOL    HW229643   1.397   2.543   5.410  3.5700 -1.8998 -1.1070
 6003SOL     OW29644   4.471   1.287   8.941  0.0540 -1.0155  0.1748
 6003SOL    HW129645   4.498   1.328   8.859 -0.8446  0.6823  0.7483
 6003SOL    HW229646   4.376   1.297   8.937  0.4634  2.1593 -1.5287
 6004SOL     OW29647   0.839   0.086   6.270 -0.3319  0.2494 -0.1313
 6004SOL    HW129648   0.755   0.081   6.317 -0.3495 -1.2832 -0.3396
 6004SOL    HW229649   0.851   0.178   6.245 -0.9212  0.1041 -0.9546
 6005SOL     OW29650   1.462   4.628   4.242 -0.3672  0.0058  0.0878
 6005SOL    HW129651   1.387   4.649   4.188 -3.3480 -2.1918  3.3576
 6005SOL    HW229652   1.529   4.668   4.187 -2.1502 -1.6770 -3.3077
 6006SOL     OW29653   2.307   2.919  15.551  0.3660 -0.0184 -0.0602
 6006SOL    HW129654   2.369   2.926  15.624  2.4327  0.0017 -1.8213
 6006SOL    HW229655   2.224   2.887  15.588  1.7602 -1.2771  1.9789
 6007SOL     OW29656   0.296   4.378   0.517 -0.2225  0.7145 -0.0922
 6007SOL    HW129657   0.205   4.369   0.489 -0.8629 -0.9480  2.5348
 6007SOL    HW229658   0.271   4.373   0.609 -0.2232  1.9075 -0.0324
 6008SOL     OW29659   1.881   2.467  10.297  0.0840 -0.2575  0.1585
 6008SOL    HW129660   1.795   2.481  10.339  0.1788  0.4704  0.1074
 6008SOL    HW229661   1.943   2.506  10.359 -1.0388  0.0277  1.1189
 6009SOL     OW29662   1.201   1.665   8.525 -0.0489  0.0162  0.0475
 6009SOL    HW129663   1.259   1.734   8.557  3.2730 -2.4448 -0.6429
 6009SOL    HW229664   1.188   1.604   8.598 -1.4648 -0.3936 -0.5479
 6010SOL     OW29665   3.623   4.556   3.619  0.0266 -0.3137 -0.3305
 6010SOL    HW129666   3.656   4.485   3.674  0.0303  0.2117  0.3636
 6010SOL    HW229667   3.529   4.565   3.635  0.3357  1.7935  0.4646
 6011SOL     OW29668   2.819   0.351  14.937  0.0704 -0.3942  0.4220
 6011SOL    HW129669   2.840   0.364  14.844 -1.6539  0.1428  0.1003
 6011SOL    HW229670   2.823   0.257  14.954  2.0232 -0.0306  1.8594
 6012SOL     OW29671   3.336   0.324   7.263  0.7960  0.5457  0.0461
 6012SOL    HW129672   3.258   0.289   7.305  1.9187 -3.2114 -1.0248
 6012SOL    HW229673   3.357   0.399   7.319  0.8273 -0.1557  0.9707
 6013SOL     OW29674   0.329   3.836   0.954 -0.3084  0.2479 -0.0843
 6013SOL    HW129675   0.330   3.766   0.889 -1.8866  0.0007  0.1589
 6013SOL    HW229676   0.314   3.912   0.898  0.3279  0.6303  0.2739
 6014SOL     OW29677   2.942   2.496  13.119  0.3496  0.2680 -0.0084
 6014SOL    HW129678   2.904   2.458  13.198  0.0858  0.3340 -0.1048
 6014SOL    HW229679   2.998   2.571  13.141  0.6890 -0.7177  2.5425
 6015SOL     OW29680   0.611   3.503   8.640 -0.5182  0.3214  0.3642
 6015SOL    HW129681   0.584   3.412   8.653  1.5821 -0.0897  1.8689
 6015SOL    HW229682   0.665   3.520   8.717 -0.3977  0.5704  0.2223
 6016SOL     OW29683   2.866   1.165   1.772 -0.3193  0.3994  0.3968
 6016SOL    HW129684   2.947   1.206   1.741 -0.7684  0.8111 -0.2255
 6016SOL    HW229685   2.804   1.161   1.700  0.3771  2.7811 -0.3363
 6017SOL     OW29686   2.867   4.708   8.182  0.3669  0.1391  0.2330
 6017SOL    HW129687   2.817   0.054   8.175  0.7813  0.4416  0.7866
 6017SOL    HW229688   2.834   4.663   8.104  0.1524 -1.5935  1.3345
 6018SOL     OW29689   0.735   4.423   1.957  0.2813 -0.1440  0.0583
 6018SOL    HW129690   0.656   4.391   1.913 -0.2979  1.3560  0.0030
 6018SOL    HW229691   0.704   4.412   2.047  1.0431  2.5400  0.6754
 6019SOL     OW29692   1.025   1.261   6.045  0.0901  0.2839  0.1766
 6019SOL    HW129693   0.931   1.276   6.050  0.0701  0.1846  0.0980
 6019SOL    HW229694   1.032   1.200   5.971  0.3679 -1.3934  1.5691
 6020SOL     OW29695   4.512   1.750   1.508 -0.5104 -0.1831 -0.1240
 6020SOL    HW129696   4.469   1.761   1.592 -0.4180 -0.4817 -0.0409
 6020SOL    HW229697   4.439   1.708   1.462 -1.1557 -0.7418  1.4376
 6021SOL     OW29698   2.932   4.317   0.579  0.2935  0.2634 -0.2216
 6021SOL    HW129699   2.999   4.350   0.520  0.6538 -1.1854 -0.6264
 6021SOL    HW229700   2.870   4.389   0.592 -2.4205 -1.8352 -1.5494
 6022SOL     OW29701   0.623   1.810   5.725 -0.2137  0.2491  0.2712
 6022SOL    HW129702   0.565   1.754   5.674  0.2680 -1.6907  1.8859
 6022SOL    HW229703   0.638   1.746   5.795  0.9363 -0.9208 -1.0306
 6023SOL     OW29704   0.495   1.944  13.135  0.0973 -0.5659 -0.8838
 6023SOL    HW129705   0.437   1.894  13.193  1.7340 -2.5727 -0.9529
 6023SOL    HW229706   0.447   2.025  13.119  2.2670  0.5103 -1.9498
 6024SOL     OW29707   0.332   1.634   4.958 -0.1921 -0.0530  0.0270
 6024SOL    HW129708   0.310   1.697   4.889 -0.5250 -0.5963 -0.3655
 6024SOL    HW229709   0.357   1.558   4.905 -2.5865 -1.3397  0.7053
 6025SOL     OW29710   4.384   1.031   3.692 -0.2732 -0.5587  0.1543
 6025SOL    HW129711   4.479   1.028   3.703 -0.3267  1.6099  1.2953
 6025SOL    HW229712   4.373   1.126   3.696  1.1659 -0.3434 -1.0477
 6026SOL     OW29713   2.211   1.759   2.365 -0.7425  0.0222 -0.0411
 6026SOL    HW129714   2.149   1.793   2.301  0.3041  0.8277 -0.6230
 6026SOL    HW229715   2.288   1.739   2.312 -2.4332 -0.3779 -2.3129
 6027SOL     OW29716   3.415   0.194   6.489  0.0331 -0.3991 -0.1031
 6027SOL    HW129717   3.383   0.273   6.445  1.4669 -0.7500 -1.7745
 6027SOL    HW229718   3.425   0.131   6.418  1.7375  1.4511 -1.4976
 6028SOL     OW29719   0.725   2.601   4.722  0.2080  0.7816 -0.1955
 6028SOL    HW129720   0.684   2.650   4.651  1.4905 -1.3663 -2.4018
 6028SOL    HW229721   0.803   2.563   4.682 -0.4155 -1.0797  0.3574
 6029SOL     OW29722   2.425   1.522   8.300  0.2027  0.5303  0.2204
 6029SOL    HW129723   2.349   1.465   8.288  0.0830  0.6616  0.3507
 6029SOL    HW229724   2.428   1.521   8.395 -1.1229  1.2705  0.2803
 6030SOL     OW29725   2.874   4.586   7.253  0.0783 -0.4202 -0.8981
 6030SOL    HW129726   2.949   4.644   7.266 -0.1477 -0.3810  0.1980
 6030SOL    HW229727   2.823   4.605   7.332 -0.9739  0.2175 -1.7130
 6031SOL     OW29728   1.554   3.881  15.750  0.1501 -0.2642  0.4953
 6031SOL    HW129729   1.615   3.893  15.678 -1.2378 -0.3131 -0.6832
 6031SOL    HW229730   1.488   3.948  15.733 -0.6611 -1.3916 -0.8643
 6032SOL     OW29731   2.264   1.331   1.647 -0.0584  0.1752  0.2031
 6032SOL    HW129732   2.205   1.304   1.717  0.4980  2.5650  1.5940
 6032SOL    HW229733   2.254   1.261   1.582 -2.6311 -0.0656  0.8583
 6033SOL     OW29734   2.993   0.620   7.348  0.1919 -0.1466  0.1265
 6033SOL    HW129735   2.944   0.644   7.426  0.2723  1.7483 -0.4033
 6033SOL    HW229736   3.036   0.538   7.371 -0.2187 -0.4091 -0.0526
 6034SOL     OW29737   1.640   1.970   2.041 -0.0162 -0.5735 -0.4796
 6034SOL    HW129738   1.590   2.037   2.086 -1.1190 -1.5091 -0.3117
 6034SOL    HW229739   1.642   1.903   2.109 -1.5072  0.9894  1.0728
 6035SOL     OW29740   0.430   1.201   6.465 -0.0996  0.0691  0.3709
 6035SOL    HW129741   0.509   1.203   6.411 -1.0690  0.6022 -1.0341
 6035SOL    HW229742   0.386   1.116   6.465  0.1745 -0.0723 -0.1248
 6036SOL     OW29743   4.353   2.028   6.974 -0.1830  0.0576 -0.1967
 6036SOL    HW129744   4.326   2.119   6.966 -0.8581 -0.0573  0.8313
 6036SOL    HW229745   4.334   2.011   7.066  1.5920 -0.3299  0.0995
 6037SOL     OW29746   3.361   1.063  16.419 -0.3604 -0.9542 -0.0174
 6037SOL    HW129747   3.299   1.036  16.487 -0.5039 -1.4156 -0.3263
 6037SOL    HW229748   3.318   1.023  16.344 -1.0678  0.2595 -0.2443
 6038SOL     OW29749   2.344   1.820  10.182  0.7211 -0.2063 -0.2010
 6038SOL    HW129750   2.364   1.908  10.151  1.5422 -0.9121 -1.6835
 6038SOL    HW229751   2.422   1.787  10.227  1.6488 -0.3216 -1.8807
 6039SOL     OW29752   3.719   0.020  10.571 -1.2082 -0.3359  0.0621
 6039SOL    HW129753   3.679   0.022  10.658  0.7873  1.9984  0.9016
 6039SOL    HW229754   3.658   4.703  10.517 -1.6133  0.2997 -0.0934
 6040SOL     OW29755   2.572   1.696   0.469  0.6090 -0.1726  0.0776
 6040SOL    HW129756   2.650   1.672   0.419 -1.2432 -3.0027 -1.4720
 6040SOL    HW229757   2.522   1.614   0.468 -1.2378  0.9576  0.8842
 6041SOL     OW29758   2.342   1.340   6.316  0.0282  0.2159  0.4572
 6041SOL    HW129759   2.350   1.255   6.274 -1.4746 -0.3008  1.2045
 6041SOL    HW229760   2.433   1.365   6.328  0.6548 -0.9577 -1.8705
 6042SOL     OW29761   0.063   2.627   6.824 -0.3007 -0.5699  0.6233
 6042SOL    HW129762   0.103   2.561   6.768 -0.0135 -0.8787  1.1899
 6042SOL    HW229763   4.723   2.651   6.770 -2.6451 -3.4257  2.5743
 6043SOL     OW29764   3.929   2.807   5.874  0.2336 -0.3659 -0.0634
 6043SOL    HW129765   3.883   2.869   5.817 -0.8672 -0.5485  0.6228
 6043SOL    HW229766   3.886   2.729   5.840  0.4502 -0.4160 -0.2196
 6044SOL     OW29767   1.177   2.675   1.647  0.0543  0.0182  0.1851
 6044SOL    HW129768   1.166   2.770   1.644  0.2239  0.0271 -0.1842
 6044SOL    HW229769   1.240   2.659   1.717  1.3848  1.5321 -0.6864
 6045SOL     OW29770   3.211   2.481   5.186  0.1337  0.0561 -0.1951
 6045SOL    HW129771   3.155   2.553   5.156 -0.8409 -1.4079 -1.8467
 6045SOL    HW229772   3.290   2.534   5.184 -1.1196  2.0753  2.8717
 6046SOL     OW29773   1.585   0.114   5.030  0.5471 -0.0224  0.4166
 6046SOL    HW129774   1.512   0.060   4.999 -0.4006  1.5696 -0.1475
 6046SOL    HW229775   1.570   0.201   4.994 -1.8653  0.1097  1.6711
 6047SOL     OW29776   0.979   3.688   3.953 -0.1766  0.1426 -0.3266
 6047SOL    HW129777   1.047   3.739   3.910  2.3186 -0.7881  2.5110
 6047SOL    HW229778   1.034   3.647   4.020 -1.9540 -0.6524  0.6428
 6048SOL     OW29779   4.418   4.225   1.881 -0.8114  0.0791 -0.8491
 6048SOL    HW129780   4.442   4.238   1.789  0.0193  2.6585 -0.2827
 6048SOL    HW229781   4.359   4.150   1.880  0.0350 -0.5772 -1.7582
 6049SOL     OW29782   2.494   1.244   2.770 -0.0469  0.2821 -0.5563
 6049SOL    HW129783   2.487   1.207   2.858 -0.5847  0.2208 -0.6246
 6049SOL    HW229784   2.439   1.182   2.723 -0.3395 -2.4136  3.3909
 6050SOL     OW29785   1.271   3.880   4.434  0.4941  0.2970 -0.1699
 6050SOL    HW129786   1.188   3.837   4.413 -0.0597  2.1280 -1.7312
 6050SOL    HW229787   1.267   3.954   4.374  1.0390  0.3425 -0.1573
 6051SOL     OW29788   2.422   2.425   3.006 -0.6156 -0.8703  0.3698
 6051SOL    HW129789   2.415   2.391   2.917  2.1426 -2.0674  0.5978
 6051SOL    HW229790   2.365   2.502   3.010 -0.7072 -0.9585  0.7232
 6052SOL     OW29791   3.128   0.399   5.443 -0.9358 -0.7821  0.3174
 6052SOL    HW129792   3.040   0.369   5.421 -0.9361 -0.0845 -0.6386
 6052SOL    HW229793   3.169   0.406   5.357 -0.3562 -0.0856  0.6493
 6053SOL     OW29794   2.045   3.646   8.285 -0.2513 -0.7985  0.1397
 6053SOL    HW129795   2.060   3.572   8.344  0.7021  0.2867  1.2625
 6053SOL    HW229796   1.974   3.695   8.326  1.4795 -0.9817  3.3691
 6054SOL     OW29797   1.488   3.600   3.348  0.2832  0.3897  0.0590
 6054SOL    HW129798   1.517   3.588   3.257  0.5343  0.1244  0.1760
 6054SOL    HW229799   1.412   3.654   3.327 -1.4066 -2.8411 -2.2855
 6055SOL     OW29800   4.574   2.944   2.105  0.1024  0.1053 -0.3931
 6055SOL    HW129801   4.590   2.850   2.103 -0.0607 -0.0125  3.6391
 6055SOL    HW229802   4.642   2.971   2.044 -0.6507 -1.5209 -1.9618
 6056SOL     OW29803   3.786   3.616   1.332  0.3592 -0.7933  0.1510
 6056SOL    HW129804   3.827   3.580   1.253  0.6313 -1.9719  0.8391
 6056SOL    HW229805   3.858   3.603   1.394 -0.4608  0.8400  1.4519
 6057SOL     OW29806   3.796   1.438   2.923  0.7622  0.2780 -0.1617
 6057SOL    HW129807   3.702   1.439   2.941  0.1647 -1.8722 -3.0628
 6057SOL    HW229808   3.830   1.392   2.999 -1.5611 -0.1102  0.6540
 6058SOL     OW29809   2.309   1.493   9.878 -0.0597  0.1378 -0.8384
 6058SOL    HW129810   2.312   1.568   9.818  0.0725 -0.9419 -2.1881
 6058SOL    HW229811   2.241   1.523   9.938 -0.9628  2.8372 -3.1938
 6059SOL     OW29812   2.594   0.519  15.034 -0.1174 -0.0196  0.1986
 6059SOL    HW129813   2.561   0.591  14.979 -1.9602 -0.3904  0.8216
 6059SOL    HW229814   2.669   0.487  14.983 -0.6947 -0.6915 -0.2363
 6060SOL     OW29815   4.111   0.176   8.529 -0.0784 -0.7222  0.0110
 6060SOL    HW129816   4.084   0.128   8.451  2.3960 -1.0780 -0.6477
 6060SOL    HW229817   4.032   0.168   8.582  0.7230  0.0353  1.3145
 6061SOL     OW29818   2.736   2.554   2.684 -0.0206  0.1742 -0.4244
 6061SOL    HW129819   2.685   2.566   2.765  1.0727 -1.2766  0.4696
 6061SOL    HW229820   2.736   2.645   2.654  1.6749  0.1942 -0.3543
 6062SOL     OW29821   4.724   3.142   2.296 -0.0266 -0.3087 -0.3383
 6062SOL    HW129822   0.083   3.142   2.279  0.4768 -1.7036  2.5170
 6062SOL    HW229823   4.698   3.090   2.220 -1.1229 -1.4316  0.8125
 6063SOL     OW29824   3.682   2.859   7.136  0.2386  0.5990  0.1859
 6063SOL    HW129825   3.623   2.912   7.190 -0.8196 -0.2585 -0.1345
 6063SOL    HW229826   3.656   2.883   7.048 -0.7894 -0.6497  0.1538
 6064SOL     OW29827   2.043   2.676   3.455  0.1437  0.3373 -0.6970
 6064SOL    HW129828   2.091   2.646   3.532 -1.3972  0.7440  0.4021
 6064SOL    HW229829   2.091   2.638   3.380  1.2923  0.3766  0.0114
 6065SOL     OW29830   1.687   4.266   5.715  0.4984 -0.0651 -0.7853
 6065SOL    HW129831   1.642   4.285   5.796  0.3458 -1.1273 -0.6140
 6065SOL    HW229832   1.619   4.300   5.657 -0.8896 -0.5521  0.5596
 6066SOL     OW29833   3.412   2.336   3.097 -0.0381 -0.1884  0.7597
 6066SOL    HW129834   3.442   2.253   3.060  0.0152  1.1031 -2.1176
 6066SOL    HW229835   3.459   2.398   3.042  0.0626 -0.0340  1.0162
 6067SOL     OW29836   3.398   3.481  11.754 -0.6259  0.9865  0.0482
 6067SOL    HW129837   3.328   3.420  11.777  0.3279  0.0018  0.3494
 6067SOL    HW229838   3.350   3.564  11.750 -1.3038  0.5626 -0.5412
 6068SOL     OW29839   1.853   2.532   7.941 -0.1828 -0.1483  0.0424
 6068SOL    HW129840   1.911   2.506   7.869  1.1998 -1.7296  1.7463
 6068SOL    HW229841   1.769   2.550   7.898 -0.4250 -0.8090  0.2363
 6069SOL     OW29842   4.483   1.300   4.906  0.0333  0.4739  0.2050
 6069SOL    HW129843   4.422   1.360   4.948  0.3881  0.7635  0.3029
 6069SOL    HW229844   4.566   1.338   4.934 -0.0580 -0.8206  2.1987
 6070SOL     OW29845   2.382   4.226   2.346 -0.6272 -0.9509  0.2581
 6070SOL    HW129846   2.454   4.216   2.283  0.2686 -1.1772  1.3064
 6070SOL    HW229847   2.347   4.313   2.325  1.7641 -0.0078  0.1475
 6071SOL     OW29848   0.427   1.480   5.312 -0.0898  0.3009 -0.1739
 6071SOL    HW129849   0.511   1.484   5.357 -0.4683 -0.0470  0.5730
 6071SOL    HW229850   0.356   1.495   5.375 -1.0660 -0.4188 -1.1049
 6072SOL     OW29851   2.442   4.133   2.849  0.2673 -0.0657 -0.2531
 6072SOL    HW129852   2.427   4.227   2.846 -0.0703 -0.0358  2.5519
 6072SOL    HW229853   2.364   4.097   2.807  0.1948 -0.6894  0.4104
 6073SOL     OW29854   1.639   1.627   3.667  0.6914 -0.4994 -0.5427
 6073SOL    HW129855   1.734   1.627   3.656  0.8296  1.5410  0.6712
 6073SOL    HW229856   1.613   1.535   3.670 -0.2326 -0.1452  2.2670
 6074SOL     OW29857   2.020   3.438   2.563  0.0152 -0.3366 -0.1652
 6074SOL    HW129858   2.028   3.392   2.647  0.9093 -2.2276 -1.2561
 6074SOL    HW229859   2.098   3.494   2.569  1.1644 -2.0308  0.9926
 6075SOL     OW29860   0.868   0.059   2.437 -0.3265 -0.2138 -0.2092
 6075SOL    HW129861   0.779   0.034   2.463 -0.5071 -0.4733 -1.0672
 6075SOL    HW229862   0.858   0.020   2.350  1.1732 -0.1358 -0.4213
 6076SOL     OW29863   3.620   4.474   2.485 -0.2741 -0.3195  0.8622
 6076SOL    HW129864   3.645   4.381   2.487 -1.9454 -0.8008 -0.1369
 6076SOL    HW229865   3.602   4.499   2.394  1.2066 -0.8571  0.4284
 6077SOL     OW29866   2.212   2.184  16.998  0.0010  0.1318  0.5213
 6077SOL    HW129867   2.162   2.245  16.944  0.0810 -0.7844 -0.5887
 6077SOL    HW229868   2.162   2.107  16.970 -0.5244  1.6413 -2.6820
 6078SOL     OW29869   0.875   2.523   5.790  0.1576 -0.0866 -0.0357
 6078SOL    HW129870   0.813   2.556   5.856  2.2152 -0.2562  1.9981
 6078SOL    HW229871   0.886   2.606   5.744  0.2476 -0.0010  0.1407
 6079SOL     OW29872   4.077   3.406  13.657 -0.1835 -0.1116  0.0561
 6079SOL    HW129873   4.168   3.377  13.652 -0.2528 -0.2420 -0.4088
 6079SOL    HW229874   4.077   3.481  13.597 -0.0805  0.5387  0.8573
 6080SOL     OW29875   4.724   0.742  11.116 -0.3215  0.4234  1.0364
 6080SOL    HW129876   4.636   0.757  11.149 -0.3567 -1.3022  1.7369
 6080SOL    HW229877   0.003   0.828  11.076 -1.2209 -0.7588 -1.8611
 6081SOL     OW29878   4.557   2.448   1.995 -0.3865 -0.1177 -0.0914
 6081SOL    HW129879   4.464   2.469   1.991 -0.8984 -2.4100 -0.3177
 6081SOL    HW229880   4.572   2.377   2.058  0.5314  1.6789  1.7068
 6082SOL     OW29881   1.295   2.275  15.780 -0.3974  0.1878 -0.2398
 6082SOL    HW129882   1.316   2.334  15.708  0.1923 -0.5239 -0.6612
 6082SOL    HW229883   1.269   2.347  15.836  0.2203  0.7829 -0.7179
 6083SOL     OW29884   0.327   3.314   7.760  0.4531  0.6407 -0.7061
 6083SOL    HW129885   0.367   3.230   7.781 -0.2532  0.7384  1.0050
 6083SOL    HW229886   0.254   3.288   7.703  0.8283 -0.2208 -0.7931
 6084SOL     OW29887   1.232   3.879   1.076 -0.6748  0.2253  0.0743
 6084SOL    HW129888   1.228   3.787   1.049 -0.6288  0.0029  0.8142
 6084SOL    HW229889   1.324   3.878   1.103 -0.4880 -3.6689 -0.6877
 6085SOL     OW29890   3.797   3.481  16.942 -0.5906 -0.3460  0.1933
 6085SOL    HW129891   3.816   3.419  17.012 -0.4108  1.4939  1.7601
 6085SOL    HW229892   3.839   3.437  16.867  0.9108 -0.8064  1.3076
 6086SOL     OW29893   3.684   4.000   3.823 -0.2123  0.3073 -0.0865
 6086SOL    HW129894   3.761   4.053   3.844 -0.4693  1.0835 -1.1067
 6086SOL    HW229895   3.639   4.015   3.906  0.7221  1.4970  0.2072
 6087SOL     OW29896   3.821   2.852   1.955  0.4240 -0.9996  0.4008
 6087SOL    HW129897   3.799   2.869   2.046 -1.5559  2.3122 -0.6828
 6087SOL    HW229898   3.893   2.914   1.938 -0.3654 -0.4978 -1.2250
 6088SOL     OW29899   4.641   3.078  16.323 -0.2026  0.3623 -0.6807
 6088SOL    HW129900   4.582   3.097  16.396 -0.7275  0.3903 -1.1054
 6088SOL    HW229901   4.721   3.093  16.373 -1.0822 -0.1836  0.8883
 6089SOL     OW29902   1.995   3.641   4.791  0.0640  0.0210 -0.4163
 6089SOL    HW129903   2.047   3.570   4.754  0.6638  0.6263 -0.7441
 6089SOL    HW229904   1.926   3.592   4.835  0.9081 -1.4227 -0.6937
 6090SOL     OW29905   3.365   2.363   6.824  0.1652  0.3596 -0.5518
 6090SOL    HW129906   3.293   2.360   6.761 -0.3430  0.7967  0.0060
 6090SOL    HW229907   3.393   2.454   6.822 -2.6153  1.1956 -1.8939
 6091SOL     OW29908   0.045   1.872   8.422  0.2700  0.0724  0.2877
 6091SOL    HW129909   0.086   1.838   8.501  0.3482  0.2462  0.3216
 6091SOL    HW229910   4.708   1.916   8.468  0.0446  2.0251 -1.8772
 6092SOL     OW29911   4.310   2.805   7.706 -0.5117 -0.2335  0.2567
 6092SOL    HW129912   4.232   2.803   7.762 -0.4429 -1.2428  0.3023
 6092SOL    HW229913   4.338   2.714   7.717 -2.9002 -1.2756 -2.3408
 6093SOL     OW29914   0.723   0.304   2.198 -0.2163  0.0375  0.2588
 6093SOL    HW129915   0.783   0.261   2.137  0.5237  0.5801  0.6056
 6093SOL    HW229916   0.672   0.228   2.225  3.1098 -2.9103 -1.7400
 6094SOL     OW29917   4.671   1.737   1.219 -0.2975 -0.1524 -0.1650
 6094SOL    HW129918   4.726   1.678   1.271  1.3954  1.1688 -0.4375
 6094SOL    HW229919   4.651   1.682   1.143  1.3370 -1.3416  0.2552
 6095SOL     OW29920   0.150   1.045   7.043  0.0014 -0.5249  0.6593
 6095SOL    HW129921   0.083   1.014   7.103 -0.7345 -2.1888 -1.0054
 6095SOL    HW229922   0.203   1.104   7.095  0.2988 -1.5408  1.5048
 6096SOL     OW29923   1.794   3.928  11.661  1.0229  0.5886 -0.1983
 6096SOL    HW129924   1.757   3.938  11.749 -1.6934  1.6238 -1.4586
 6096SOL    HW229925   1.861   3.860  11.671  0.8678  0.6373  1.1694
 6097SOL     OW29926   4.062   3.305  16.198 -0.0794 -0.1620  0.1813
 6097SOL    HW129927   3.992   3.337  16.255 -2.2965 -1.2815 -1.9428
 6097SOL    HW229928   4.025   3.307  16.110 -0.7094  1.1996  0.4613
 6098SOL     OW29929   3.789   1.322   8.783  0.3377  0.1891 -0.4691
 6098SOL    HW129930   3.708   1.329   8.832  0.7528 -0.6624  0.3407
 6098SOL    HW229931   3.769   1.233   8.752  1.8049 -0.6396  0.9434
 6099SOL     OW29932   3.847   1.777   7.211 -0.0738  0.0417  0.1445
 6099SOL    HW129933   3.936   1.786   7.245  0.1896  1.0408 -0.8277
 6099SOL    HW229934   3.843   1.859   7.163 -0.5285 -1.4689 -2.3908
 6100SOL     OW29935   0.156   0.458   6.648 -0.0358  0.1880  0.5011
 6100SOL    HW129936   0.154   0.464   6.552 -1.1191  3.4412  0.7319
 6100SOL    HW229937   0.064   0.444   6.672 -0.8200  0.2155 -2.4570
 6101SOL     OW29938   3.950   3.537   5.864 -0.2661  0.6541  0.0216
 6101SOL    HW129939   3.938   3.598   5.792 -0.2275 -0.4217 -0.8884
 6101SOL    HW229940   4.023   3.485   5.831 -0.6517 -0.2502  0.5871
 6102SOL     OW29941   0.157   3.518   8.371 -0.0908  0.0252  0.4346
 6102SOL    HW129942   0.148   3.444   8.431  0.7284 -1.3454 -1.1357
 6102SOL    HW229943   0.248   3.515   8.343  0.0231 -0.9481  0.8779
 6103SOL     OW29944   1.743   0.900   1.686 -0.2335  0.1463 -0.2531
 6103SOL    HW129945   1.657   0.940   1.679  0.2269  1.2742  0.6230
 6103SOL    HW229946   1.801   0.970   1.655 -0.5476  1.3610  1.8768
 6104SOL     OW29947   1.769   0.637   3.621  0.0884  0.2021  0.3451
 6104SOL    HW129948   1.807   0.570   3.677  0.8385 -0.5984 -1.1366
 6104SOL    HW229949   1.698   0.680   3.671 -0.2654 -0.8046  0.7035
 6105SOL     OW29950   4.633   2.797   1.340  0.2768 -0.4334  0.3064
 6105SOL    HW129951   4.548   2.841   1.344 -0.8265 -2.5407 -0.1228
 6105SOL    HW229952   4.681   2.829   1.417 -1.8641 -2.0690  2.3447
 6106SOL     OW29953   0.893   4.136  12.419 -0.4170  0.3964  0.3867
 6106SOL    HW129954   0.949   4.214  12.411 -0.0665 -0.1913 -2.7702
 6106SOL    HW229955   0.806   4.165  12.394 -0.3052  0.2859 -0.1223
 6107SOL     OW29956   3.076   0.463  10.989  0.2696 -0.0034  0.6383
 6107SOL    HW129957   3.042   0.481  11.077  0.0158 -1.1016  0.7680
 6107SOL    HW229958   3.038   0.375  10.983 -0.6063  0.4524 -0.7051
 6108SOL     OW29959   1.926   0.508   0.013 -0.0703  0.1382 -0.2473
 6108SOL    HW129960   1.891   0.496   0.101 -0.2113  1.8573 -0.0696
 6108SOL    HW229961   2.019   0.498   0.032 -0.1475 -0.1408 -0.0104
 6109SOL     OW29962   0.999   0.895   7.697  0.0476 -0.2052 -0.0916
 6109SOL    HW129963   1.045   0.812   7.678 -0.0687  0.0158 -1.3343
 6109SOL    HW229964   0.945   0.868   7.771  1.0042 -0.4312  0.5329
 6110SOL     OW29965   1.954   3.983  10.342 -0.5981  0.0754  1.0780
 6110SOL    HW129966   2.019   3.925  10.383 -0.8042 -2.2496 -1.8991
 6110SOL    HW229967   1.893   4.006  10.413  1.1435  0.6305  2.3983
 6111SOL     OW29968   0.453   4.589   5.028  0.5797 -0.7262  0.0226
 6111SOL    HW129969   0.398   4.530   4.976 -1.8414  2.4441 -1.0641
 6111SOL    HW229970   0.486   4.532   5.097  1.2236  2.4053  2.2522
 6112SOL     OW29971   1.102   0.633   4.792 -0.6710 -0.3617 -0.1308
 6112SOL    HW129972   1.077   0.725   4.783  0.9174 -0.0207 -1.1459
 6112SOL    HW229973   1.023   0.585   4.769 -0.5965  0.2558 -1.6878
 6113SOL     OW29974   3.881   3.325   8.259 -0.1067 -0.1690 -0.8724
 6113SOL    HW129975   3.867   3.410   8.301  1.2183 -0.4930  0.2215
 6113SOL    HW229976   3.793   3.314   8.222 -1.1119  2.9914  0.6081
 6114SOL     OW29977   3.412   3.423  12.115  0.5467  0.0843  0.5636
 6114SOL    HW129978   3.338   3.483  12.120  1.3228  1.1190 -0.3543
 6114SOL    HW229979   3.373   3.340  12.088  3.4817 -1.5752  1.3745
 6115SOL     OW29980   2.883   4.286   4.549 -0.7898  0.5953 -0.0604
 6115SOL    HW129981   2.922   4.321   4.629  0.6032 -0.7389 -0.1594
 6115SOL    HW229982   2.872   4.361   4.489  1.6482  0.0207 -1.2521
 6116SOL     OW29983   0.013   0.959  16.515 -0.4113  0.2805  0.4590
 6116SOL    HW129984   4.683   1.028  16.518 -1.3242 -0.5568 -0.1319
 6116SOL    HW229985   0.088   1.011  16.486 -0.0458 -0.2159  0.5181
 6117SOL     OW29986   0.752   2.936   2.909 -0.6444  0.1956  0.6353
 6117SOL    HW129987   0.816   2.996   2.872  0.7965 -2.0992 -0.5724
 6117SOL    HW229988   0.762   2.941   3.004  0.9442  1.0221  0.4236
 6118SOL     OW29989   4.237   0.769   4.515  0.6939 -0.2895  0.3450
 6118SOL    HW129990   4.319   0.755   4.563  0.2601 -0.6275  0.9821
 6118SOL    HW229991   4.208   0.852   4.552  1.7193 -0.0552  0.6171
 6119SOL     OW29992   2.825   4.182   8.036  0.3035 -0.6488 -0.0881
 6119SOL    HW129993   2.829   4.217   7.947  1.7085  0.9109  0.5674
 6119SOL    HW229994   2.745   4.132   8.023  0.3212 -0.5807 -0.4565
 6120SOL     OW29995   1.924   3.006   8.235 -0.8408  0.4706 -0.7869
 6120SOL    HW129996   1.888   2.949   8.167 -1.0324 -1.5051  0.9886
 6120SOL    HW229997   2.016   2.989   8.218 -1.5639 -1.8512 -2.4134
 6121SOL     OW29998   0.980   1.621  14.097 -0.1595 -0.1365  0.0897
 6121SOL    HW129999   0.926   1.542  14.093  0.8239 -0.7197 -1.4728
 6121SOL    HW230000   0.974   1.647  14.189  0.6222 -0.6986  0.2892
 6122SOL     OW30001   1.624   2.073  14.918 -0.4772  0.2249  0.4949
 6122SOL    HW130002   1.697   2.024  14.956 -1.0921  0.0750  1.4751
 6122SOL    HW230003   1.558   2.008  14.893  0.9162 -1.2790  0.7010
 6123SOL     OW30004   1.685   4.265   4.022 -0.7145  0.1936 -0.1780
 6123SOL    HW130005   1.712   4.246   4.112  0.6490 -0.7921 -0.7917
 6123SOL    HW230006   1.615   4.199   4.023 -0.5698  0.0375 -0.6595
 6124SOL     OW30007   4.685   3.186   5.818 -0.4748 -0.0831 -0.0854
 6124SOL    HW130008   4.707   3.097   5.843  1.7187 -0.0023 -1.6343
 6124SOL    HW230009   4.687   3.166   5.724 -0.0345  0.1038 -0.1170
 6125SOL     OW30010   0.224   3.678  11.286 -0.5480 -0.3807  0.5818
 6125SOL    HW130011   0.167   3.686  11.209 -0.8969 -3.0700  0.5500
 6125SOL    HW230012   0.286   3.744  11.255 -2.0614  0.6577 -0.2314
 6126SOL     OW30013   1.906   4.644   8.591  0.2608 -0.2195 -0.1601
 6126SOL    HW130014   1.835   4.582   8.608  0.9190 -0.5759  1.2949
 6126SOL    HW230015   1.907   4.676   8.681  0.9066 -0.3266 -0.1261
 6127SOL     OW30016   4.085   1.861   2.605  0.5402  0.1130 -0.5988
 6127SOL    HW130017   4.003   1.895   2.641  0.1875  1.2573 -2.4746
 6127SOL    HW230018   4.133   1.868   2.688  1.5901  0.9846 -1.2785
 6128SOL     OW30019   3.123   0.438   1.541 -0.1312 -0.3764  1.1333
 6128SOL    HW130020   3.120   0.480   1.627  1.0171 -0.3859  1.1749
 6128SOL    HW230021   3.169   0.356   1.561  0.2642 -1.0580 -2.5117
 6129SOL     OW30022   4.416   1.375  15.356  0.1682 -0.0250 -0.4009
 6129SOL    HW130023   4.450   1.285  15.353  1.2985  0.3398  1.4702
 6129SOL    HW230024   4.372   1.390  15.440 -0.1714 -0.3806 -0.5132
 6130SOL     OW30025   0.469   2.256   8.891  0.3599  0.0408 -0.1794
 6130SOL    HW130026   0.490   2.197   8.819 -0.7478 -0.9013  0.2679
 6130SOL    HW230027   0.375   2.266   8.877  0.1319 -1.3939  0.3778
 6131SOL     OW30028   3.675   0.721  17.487  0.1964  0.2802 -0.2273
 6131SOL    HW130029   3.725   0.731  17.567 -0.6571  1.6340  0.1293
 6131SOL    HW230030   3.718   0.648  17.442 -0.8459 -0.8053  0.5436
 6132SOL     OW30031   3.468   3.908  13.301 -0.4181  1.1630 -0.3911
 6132SOL    HW130032   3.558   3.935  13.314 -0.8715  1.5110  2.0331
 6132SOL    HW230033   3.433   3.957  13.376 -0.5568  2.3809 -1.2473
 6133SOL     OW30034   0.081   0.207   8.284  0.3039  0.3545  0.3859
 6133SOL    HW130035   0.059   0.114   8.281  0.8223  0.2525 -0.2609
 6133SOL    HW230036   0.171   0.218   8.255  0.7755 -0.6846  1.4956
 6134SOL     OW30037   0.165   0.992   8.197  0.5071  0.2253 -0.2694
 6134SOL    HW130038   0.078   1.009   8.234  1.8906  0.8644  2.6951
 6134SOL    HW230039   0.196   1.079   8.221  0.7307  0.0431  0.1148
 6135SOL     OW30040   4.713   4.470  10.690 -0.1198  0.6900 -0.1761
 6135SOL    HW130041   4.723   4.390  10.638 -1.9857 -0.2516  0.9284
 6135SOL    HW230042   4.650   4.446  10.757  0.8554 -2.3471 -0.3408
 6136SOL     OW30043   3.903   4.029   5.947 -0.0194  0.4967 -0.1449
 6136SOL    HW130044   3.852   4.088   6.003  0.3778  0.1717  0.5603
 6136SOL    HW230045   3.918   3.952   6.001 -1.0792  0.9478  0.8057
 6137SOL     OW30046   2.091   2.931   4.146 -0.3451  1.0854 -0.5260
 6137SOL    HW130047   2.178   2.922   4.107  0.2911  0.0647  1.0969
 6137SOL    HW230048   2.059   2.995   4.084  3.6539  2.0506 -1.6176
 6138SOL     OW30049   4.239   3.072   8.246 -0.2710 -0.5168  0.2001
 6138SOL    HW130050   4.268   3.083   8.156 -2.0515  1.5704 -0.1012
 6138SOL    HW230051   4.323   3.038   8.277  1.4561  3.1728 -0.4928
 6139SOL     OW30052   1.779   3.293   4.571 -0.2792  0.0712 -0.6529
 6139SOL    HW130053   1.855   3.344   4.541  0.0813  0.0500  0.2193
 6139SOL    HW230054   1.754   3.255   4.487  0.0242 -0.0053 -0.7108
 6140SOL     OW30055   3.648   2.329  14.629  0.2026 -0.3883  0.9473
 6140SOL    HW130056   3.594   2.406  14.608 -0.2272 -0.7968  0.5692
 6140SOL    HW230057   3.583   2.259  14.630  0.6712 -0.8138  1.3715
 6141SOL     OW30058   4.424   1.902   8.995  0.0042 -0.0127 -0.8477
 6141SOL    HW130059   4.396   1.924   9.084  2.1430 -0.2442 -0.1126
 6141SOL    HW230060   4.513   1.874   9.020 -0.2218  1.6975  1.8173
 6142SOL     OW30061   0.314   1.167   7.420 -0.2998  0.3397  0.1167
 6142SOL    HW130062   0.401   1.132   7.439 -0.6841  0.4110  2.0371
 6142SOL    HW230063   0.325   1.207   7.334  0.2031 -1.1476 -0.5222
 6143SOL     OW30064   3.717   3.757   6.842  0.7071  0.9171  0.0022
 6143SOL    HW130065   3.659   3.694   6.884  4.7273 -1.5313  1.8150
 6143SOL    HW230066   3.682   3.838   6.879 -0.6777  1.1627 -1.8210
 6144SOL     OW30067   0.788   0.460   0.914  0.0981  0.5119  0.0298
 6144SOL    HW130068   0.701   0.466   0.875  0.5389  1.0749 -0.8530
 6144SOL    HW230069   0.835   0.519   0.855  1.0881 -0.6505 -0.3497
 6145SOL     OW30070   2.553   3.240   6.536 -0.2542  0.3043 -0.2622
 6145SOL    HW130071   2.604   3.166   6.570 -1.5840 -1.5512 -2.2469
 6145SOL    HW230072   2.465   3.213   6.563  0.7459 -1.5762  1.1508
 6146SOL     OW30073   2.750   0.444   5.786 -0.2986 -0.0427  0.8008
 6146SOL    HW130074   2.759   0.480   5.874 -0.8054  1.2980  0.2946
 6146SOL    HW230075   2.838   0.460   5.750 -0.2653  1.2419  1.4597
 6147SOL     OW30076   3.458   3.373  16.842 -0.2860  0.5135  0.4978
 6147SOL    HW130077   3.421   3.323  16.769 -1.4899  1.1564  0.6805
 6147SOL    HW230078   3.466   3.302  16.905  0.8295 -0.6524 -0.9419
 6148SOL     OW30079   2.043   2.266   5.678 -0.8311  0.2893 -0.0524
 6148SOL    HW130080   2.122   2.219   5.706 -0.9201 -1.1474 -2.2883
 6148SOL    HW230081   2.029   2.329   5.749 -1.8943  1.7745 -1.5766
 6149SOL     OW30082   3.139   0.934  16.565 -0.3217 -0.4639  0.5592
 6149SOL    HW130083   3.043   0.933  16.575 -0.4993  0.7863 -0.8352
 6149SOL    HW230084   3.176   0.905  16.648  0.1329 -0.9170  0.2027
 6150SOL     OW30085   3.481   2.557  13.088 -0.1223 -0.9083 -0.2805
 6150SOL    HW130086   3.446   2.505  13.160  1.0164  0.8296  1.5048
 6150SOL    HW230087   3.570   2.522  13.088  0.0327 -0.5173 -0.7350
 6151SOL     OW30088   2.627   2.616   7.101  0.4095  0.2961 -0.5305
 6151SOL    HW130089   2.560   2.557   7.135  0.5160 -0.3193 -1.3920
 6151SOL    HW230090   2.620   2.687   7.165  3.2317  1.3761 -1.3996
 6152SOL     OW30091   2.193   0.447   0.201  0.2236 -0.5507 -0.4876
 6152SOL    HW130092   2.250   0.490   0.264 -0.1181  0.1535 -0.6639
 6152SOL    HW230093   2.107   0.454   0.243  0.2576 -1.9188 -0.1954
 6153SOL     OW30094   1.302   3.653   2.597 -0.7378  0.0673 -0.0206
 6153SOL    HW130095   1.344   3.569   2.617 -0.8704  0.2573  1.0390
 6153SOL    HW230096   1.370   3.717   2.618  0.0809 -0.5745 -0.6710
 6154SOL     OW30097   1.737   3.194  16.511 -0.1590 -0.5376 -0.3607
 6154SOL    HW130098   1.747   3.288  16.524 -2.1466 -0.6707  2.1192
 6154SOL    HW230099   1.647   3.174  16.539 -0.6823  0.7772 -1.1371
 6155SOL     OW30100   0.987   3.384   6.495 -0.0616  0.0116  0.3987
 6155SOL    HW130101   0.981   3.461   6.439  0.2500 -1.7246 -2.0228
 6155SOL    HW230102   1.070   3.351   6.460  0.3650 -0.3070  1.7147
 6156SOL     OW30103   3.312   2.411  10.536 -0.2364  0.5090  0.4904
 6156SOL    HW130104   3.393   2.453  10.563 -0.8255  0.9588  1.5855
 6156SOL    HW230105   3.251   2.460  10.592 -2.3079  2.1045 -3.1161
 6157SOL     OW30106   4.600   1.359  16.732  0.4962  0.3754  0.9889
 6157SOL    HW130107   4.693   1.335  16.733 -0.1129 -1.9248  0.9086
 6157SOL    HW230108   4.598   1.434  16.791  1.5600 -0.0588  1.5859
 6158SOL     OW30109   1.651   1.479   6.515 -0.3460 -0.2286  0.0586
 6158SOL    HW130110   1.610   1.547   6.461 -0.6459 -0.6585 -0.2492
 6158SOL    HW230111   1.621   1.401   6.470 -0.5462  0.8458 -1.6493
 6159SOL     OW30112   2.481   2.270   4.542  0.0725  0.7189 -0.4227
 6159SOL    HW130113   2.431   2.238   4.467 -0.7904  0.4044  0.2904
 6159SOL    HW230114   2.421   2.249   4.613 -1.3548  3.3774 -0.8341
 6160SOL     OW30115   2.975   1.015  12.807 -0.0840 -1.3573 -0.5994
 6160SOL    HW130116   2.970   1.110  12.792 -1.6861 -1.2359  0.7313
 6160SOL    HW230117   2.934   1.016  12.894  1.8645  3.5254  0.2685
 6161SOL     OW30118   2.177   3.568  15.028  0.3323 -0.1205 -0.0318
 6161SOL    HW130119   2.186   3.491  15.084 -0.8371  1.6409  2.5761
 6161SOL    HW230120   2.166   3.519  14.947 -3.0684 -1.4198  1.2351
 6162SOL     OW30121   1.006   2.977   5.955  0.0635 -0.3935  0.5806
 6162SOL    HW130122   0.984   2.906   5.895 -1.8268  2.0068 -1.5387
 6162SOL    HW230123   0.964   2.948   6.037 -0.8745 -0.3981  0.0987
 6163SOL     OW30124   0.434   4.624  15.833 -0.3743  0.3956  0.5004
 6163SOL    HW130125   0.385   4.685  15.888 -1.5094 -0.8581  0.8977
 6163SOL    HW230126   0.519   4.664  15.815 -0.1344 -0.3038  0.0907
 6164SOL     OW30127   3.089   4.609  12.261 -0.7578  0.5619  0.1822
 6164SOL    HW130128   2.999   4.594  12.289 -0.4318  0.5789  1.2467
 6164SOL    HW230129   3.101   4.691  12.309 -1.3589  1.5780 -1.3761
 6165SOL     OW30130   1.783   1.806   1.047 -0.6029  1.3235  0.2605
 6165SOL    HW130131   1.736   1.884   1.017 -2.5262 -0.3887 -1.2052
 6165SOL    HW230132   1.869   1.835   1.016 -1.1657  1.4032 -1.2098
 6166SOL     OW30133   3.796   0.727   5.097 -0.8757 -0.5095 -0.3973
 6166SOL    HW130134   3.749   0.738   5.179 -2.3203  2.9969 -1.7286
 6166SOL    HW230135   3.876   0.755   5.141 -0.4660 -3.8060  0.9701
 6167SOL     OW30136   4.445   4.093   6.508  0.4917 -0.3417 -0.6279
 6167SOL    HW130137   4.423   4.159   6.574 -0.0663 -1.1585 -0.0047
 6167SOL    HW230138   4.535   4.115   6.484  1.2704 -2.9871 -0.1909
 6168SOL     OW30139   2.167   2.368   9.482  0.7431 -0.1313 -0.5110
 6168SOL    HW130140   2.111   2.375   9.404 -0.0957 -0.8208  0.0327
 6168SOL    HW230141   2.186   2.276   9.495 -1.1897 -0.4874 -0.2065
 6169SOL     OW30142   3.991   0.466   3.524 -0.7226 -0.2281  0.5836
 6169SOL    HW130143   3.930   0.540   3.527  0.1355  0.5084  0.0145
 6169SOL    HW230144   4.042   0.507   3.454  1.7871 -0.1106  2.4535
 6170SOL     OW30145   0.725   4.076  14.303 -0.4500  0.1725  0.3820
 6170SOL    HW130146   0.775   3.998  14.281  0.9936  1.3523 -0.4754
 6170SOL    HW230147   0.794   4.140  14.291 -1.4435  1.0995 -0.4257
 6171SOL     OW30148   3.992   2.435   3.218 -0.1529  0.6352  0.2646
 6171SOL    HW130149   3.992   2.433   3.314  0.4063  0.2328  0.2544
 6171SOL    HW230150   4.087   2.434   3.211 -0.1244  0.4651  0.6656
 6172SOL     OW30151   2.063   0.296   2.521  0.0809 -0.7182  0.3415
 6172SOL    HW130152   2.154   0.286   2.548  0.1182 -1.5238 -0.0882
 6172SOL    HW230153   2.018   0.270   2.602 -0.0608 -2.6823 -0.3844
 6173SOL     OW30154   0.341   2.486   1.172  0.2938 -0.0097 -0.3651
 6173SOL    HW130155   0.365   2.396   1.195  1.9357  0.3734 -0.5291
 6173SOL    HW230156   0.410   2.503   1.108  0.5601 -0.8887 -0.3087
 6174SOL     OW30157   0.402   3.624   8.262  0.1221  0.6760  0.0872
 6174SOL    HW130158   0.373   3.661   8.345  1.5202  1.9153  0.0285
 6174SOL    HW230159   0.491   3.594   8.279  0.1813  0.2022 -1.0467
 6175SOL     OW30160   3.744   2.078   6.775  0.7306  0.5572  0.0545
 6175SOL    HW130161   3.657   2.060   6.739  0.4222 -1.5379  1.8474
 6175SOL    HW230162   3.805   2.031   6.719  1.5426  1.0349  0.5403
 6176SOL     OW30163   3.590   0.851   4.968 -0.4825  0.1045 -0.1242
 6176SOL    HW130164   3.649   0.832   5.040  0.8765 -0.6077 -1.4450
 6176SOL    HW230165   3.531   0.906   5.021 -0.2561  0.8332 -0.6244
 6177SOL     OW30166   2.838   0.466   2.696  0.0429  0.0670 -0.0442
 6177SOL    HW130167   2.745   0.446   2.683  0.4285 -0.8354 -1.3252
 6177SOL    HW230168   2.834   0.562   2.705  0.6612  0.1065 -0.1998
 6178SOL     OW30169   2.671   1.755   7.328  0.0558  0.3654 -0.2550
 6178SOL    HW130170   2.633   1.672   7.357  2.4157  0.1123  2.1990
 6178SOL    HW230171   2.661   1.810   7.406  1.1599  1.3697 -0.8222
 6179SOL     OW30172   3.819   2.587  12.209 -0.3303  0.1676  0.5729
 6179SOL    HW130173   3.797   2.534  12.285  0.2056  0.5375  0.9855
 6179SOL    HW230174   3.903   2.618  12.243 -1.2735  0.0390  2.9949
 6180SOL     OW30175   3.209   1.676   8.722  0.1338 -0.1903 -0.1825
 6180SOL    HW130176   3.207   1.607   8.789  1.8271  1.0126  1.0962
 6180SOL    HW230177   3.280   1.648   8.664 -2.4227  0.1895 -3.5025
 6181SOL     OW30178   2.736   1.462   4.658 -0.4539 -0.1442  0.3310
 6181SOL    HW130179   2.691   1.421   4.732 -0.7978 -0.3889 -0.0139
 6181SOL    HW230180   2.743   1.551   4.693 -1.5607  0.2975 -0.5698
 6182SOL     OW30181   4.461   3.043  14.496  0.3033  0.0444  0.4008
 6182SOL    HW130182   4.503   3.128  14.482  0.7223 -0.1102  0.7194
 6182SOL    HW230183   4.523   3.014  14.563 -0.0515  1.4379  1.3346
 6183SOL     OW30184   4.433   1.508  15.969  0.0791  0.1060  0.2966
 6183SOL    HW130185   4.482   1.528  16.049  1.1393 -0.6742 -0.1587
 6183SOL    HW230186   4.509   1.504  15.911 -0.0280  2.6718 -0.0298
 6184SOL     OW30187   4.186   0.701   7.917 -0.1056 -0.3894  0.2153
 6184SOL    HW130188   4.118   0.760   7.883 -1.8359 -3.1851 -1.2292
 6184SOL    HW230189   4.228   0.757   7.981  0.2253  0.4255 -0.7188
 6185SOL     OW30190   0.716   3.349   3.646 -0.6214  0.2785  0.4924
 6185SOL    HW130191   0.740   3.309   3.562  0.1493 -0.0614  0.8735
 6185SOL    HW230192   0.736   3.279   3.708 -0.9556  0.7928  1.1749
 6186SOL     OW30193   3.828   2.146   1.857 -0.8235 -0.3335 -0.2092
 6186SOL    HW130194   3.749   2.167   1.807 -0.3832  0.9344 -0.3871
 6186SOL    HW230195   3.892   2.155   1.786  1.9061 -0.7541  2.2259
 6187SOL     OW30196   4.573   4.325   6.888  0.1731  0.5038  0.1595
 6187SOL    HW130197   4.628   4.380   6.944  0.2398  1.4440 -0.8318
 6187SOL    HW230198   4.510   4.293   6.951 -0.4240  0.3774 -0.5050
 6188SOL     OW30199   4.636   4.530   5.873  0.0076  0.0919  0.0834
 6188SOL    HW130200   4.713   4.514   5.819 -1.0043 -2.2550 -0.6562
 6188SOL    HW230201   4.567   4.524   5.806 -1.1918 -0.6038  1.3681
 6189SOL     OW30202   4.363   2.233   8.050 -0.2729  0.7846 -0.3456
 6189SOL    HW130203   4.272   2.208   8.065  0.1096 -1.6160 -2.0152
 6189SOL    HW230204   4.389   2.167   7.986  0.2026 -0.6994  1.3818
 6190SOL     OW30205   3.771   4.727   6.575 -0.1825  0.3633  0.3239
 6190SOL    HW130206   3.697   4.667   6.583 -1.7633  2.5466  1.6987
 6190SOL    HW230207   3.737   0.069   6.620 -0.4938 -0.9656  2.3750
 6191SOL     OW30208   1.594   0.962   2.216  0.6092 -0.5785  0.0302
 6191SOL    HW130209   1.669   0.905   2.231  0.6192 -0.6059 -0.1183
 6191SOL    HW230210   1.576   0.982   2.308  1.8821  1.1617 -0.0981
 6192SOL     OW30211   4.134   0.996  16.573  0.2105 -0.2258 -0.3386
 6192SOL    HW130212   4.047   1.006  16.611  0.0490 -0.1439 -0.7349
 6192SOL    HW230213   4.134   1.063  16.505 -0.5307  1.4186  1.3005
 6193SOL     OW30214   1.328   1.806   5.051 -0.5473  0.0870  0.6572
 6193SOL    HW130215   1.414   1.815   5.009 -0.8992  0.4249  0.0126
 6193SOL    HW230216   1.300   1.727   5.006 -0.5185  0.1447  0.5371
 6194SOL     OW30217   0.775   1.950   2.998 -0.2910  0.4415  0.4540
 6194SOL    HW130218   0.746   1.860   3.008  2.4006 -0.6964 -2.0727
 6194SOL    HW230219   0.739   1.985   3.079 -2.4441  0.1219 -0.3784
 6195SOL     OW30220   2.929   4.642   4.399 -0.1934  0.0884  0.8572
 6195SOL    HW130221   2.882   4.593   4.332  0.2227 -0.1183  0.7185
 6195SOL    HW230222   2.919   4.727   4.356  0.3181 -1.4826 -2.3236
 6196SOL     OW30223   0.353   2.012   1.030 -0.4783 -0.4463  0.6451
 6196SOL    HW130224   0.421   1.947   1.048  2.7705  2.5460 -0.8854
 6196SOL    HW230225   0.276   1.957   1.018 -0.1877 -1.1381  1.9537
 6197SOL     OW30226   2.968   3.616   4.027  0.6661 -0.2740 -0.2821
 6197SOL    HW130227   3.007   3.559   4.092  2.3098  0.4257 -0.6456
 6197SOL    HW230228   2.917   3.675   4.082 -1.7965 -0.9134 -1.9008
 6198SOL     OW30229   0.212   2.912   3.542  0.1327  0.1238  0.3842
 6198SOL    HW130230   0.173   2.990   3.502  1.2330  0.2453 -0.4509
 6198SOL    HW230231   0.292   2.950   3.578 -1.3321  1.9555  1.7202
 6199SOL     OW30232   3.890   0.823  16.393 -0.1704  0.0307  0.1321
 6199SOL    HW130233   3.984   0.808  16.398 -0.0176  0.2778 -2.3307
 6199SOL    HW230234   3.884   0.875  16.473 -0.0371 -0.1630  0.2708
 6200SOL     OW30235   4.393   3.687   1.613 -0.3556 -0.4455  0.1443
 6200SOL    HW130236   4.380   3.611   1.556 -1.4879 -1.6049  1.9672
 6200SOL    HW230237   4.309   3.717   1.647 -0.0845  1.5909 -0.9660
 6201SOL     OW30238   0.519   1.959   4.704  0.1824 -0.2374 -0.2153
 6201SOL    HW130239   0.498   2.047   4.735  1.5117  0.4182 -1.1318
 6201SOL    HW230240   0.599   1.936   4.752  0.7842 -0.4192 -1.2901
 6202SOL     OW30241   2.221   3.010   3.710  0.1019 -0.8361 -0.0898
 6202SOL    HW130242   2.257   3.083   3.760 -0.6620  1.2123 -2.5579
 6202SOL    HW230243   2.261   2.952   3.775 -0.6869 -0.7175  0.4907
 6203SOL     OW30244   0.033   0.226  14.797 -0.0451 -0.0927 -0.2729
 6203SOL    HW130245   0.006   0.293  14.734  1.1719 -1.5989 -2.3779
 6203SOL    HW230246   4.715   0.151  14.772  0.4698  0.3819 -2.8124
 6204SOL     OW30247   1.076   3.379  10.503  0.0901  0.2300  0.0773
 6204SOL    HW130248   1.163   3.368  10.464 -1.5245 -0.8839 -3.2387
 6204SOL    HW230249   1.051   3.461  10.460  2.5928 -0.3175 -2.4515
 6205SOL     OW30250   2.458   4.389   7.975  0.3929  0.2538 -0.2130
 6205SOL    HW130251   2.411   4.472   7.968  1.2128  0.5654 -1.9544
 6205SOL    HW230252   2.508   4.401   8.055  0.8021  3.3846 -0.9630
 6206SOL     OW30253   3.895   1.614  11.674  0.4201 -0.2457  0.1843
 6206SOL    HW130254   3.929   1.531  11.708  3.3088  1.4098  1.3216
 6206SOL    HW230255   3.839   1.577  11.606  0.3246 -2.2333  1.3299
 6207SOL     OW30256   0.650   3.810   1.035 -0.1609 -0.5530 -0.1553
 6207SOL    HW130257   0.708   3.878   1.068  0.2801 -0.4960 -1.0560
 6207SOL    HW230258   0.669   3.742   1.099  0.1263 -2.7568 -2.5643
 6208SOL     OW30259   1.413   4.236   1.805 -0.3872  0.1596 -0.7714
 6208SOL    HW130260   1.321   4.251   1.786 -0.8969 -0.3955  1.2964
 6208SOL    HW230261   1.451   4.302   1.747  1.6426  1.2102  1.7443
 6209SOL     OW30262   0.294   0.871   7.972 -0.4071 -0.1415  0.2928
 6209SOL    HW130263   0.370   0.928   7.983  1.7683 -3.0193  0.2832
 6209SOL    HW230264   0.244   0.894   8.050 -2.2680 -1.1674 -0.6053
 6210SOL     OW30265   1.845   0.334   7.919 -0.6030  0.0691  0.2326
 6210SOL    HW130266   1.808   0.417   7.950 -1.3886  0.3824 -1.5510
 6210SOL    HW230267   1.813   0.283   7.993 -1.7309 -0.2545 -0.4756
 6211SOL     OW30268   3.747   4.370   4.823 -0.5388  0.0278 -0.2387
 6211SOL    HW130269   3.766   4.408   4.737 -3.6612 -0.2540 -1.0781
 6211SOL    HW230270   3.784   4.283   4.807  1.1358  0.7473 -0.2810
 6212SOL     OW30271   2.636   0.974   6.097 -0.5765 -0.1220  0.3655
 6212SOL    HW130272   2.730   0.962   6.112 -0.5346 -0.4171 -0.1198
 6212SOL    HW230273   2.641   1.056   6.047  0.0819 -0.4888 -0.1694
 6213SOL     OW30274   3.902   3.580   9.261  0.2770 -0.2180 -1.1161
 6213SOL    HW130275   3.979   3.607   9.312 -1.2326 -0.9062  1.5350
 6213SOL    HW230276   3.927   3.490   9.243 -1.1175 -0.1822 -3.2008
 6214SOL     OW30277   0.887   1.146   7.675 -0.1843 -0.0005 -0.5281
 6214SOL    HW130278   0.951   1.216   7.665 -0.0549  0.1297  1.2501
 6214SOL    HW230279   0.942   1.067   7.675  0.3031  0.3333 -1.7016
 6215SOL     OW30280   0.849   3.099   6.339  0.2370 -0.4530  0.3493
 6215SOL    HW130281   0.870   3.091   6.432  0.7700 -1.0248  0.1802
 6215SOL    HW230282   0.850   3.009   6.305 -0.8521  1.0659 -3.6897
 6216SOL     OW30283   1.343   0.780  13.937  0.5623 -0.0291 -0.4172
 6216SOL    HW130284   1.421   0.734  13.967 -1.1901 -3.5317 -1.2239
 6216SOL    HW230285   1.367   0.860  13.984  0.8500  0.0162 -0.6394
 6217SOL     OW30286   3.009   1.484   2.683  0.1182 -0.5756 -0.0017
 6217SOL    HW130287   2.915   1.486   2.702 -0.2149 -0.3776 -1.6142
 6217SOL    HW230288   3.028   1.396   2.651  0.7167 -1.3377  2.4220
 6218SOL     OW30289   1.700   4.078  12.346 -0.2103 -0.0843  0.3571
 6218SOL    HW130290   1.789   4.053  12.369  0.3402 -0.3744 -2.0823
 6218SOL    HW230291   1.663   4.103  12.431  1.1620  0.7279  0.7044
 6219SOL     OW30292   2.736   3.037  14.529  0.4582  0.3398 -0.6197
 6219SOL    HW130293   2.769   3.113  14.577  1.0306 -0.5937  0.4450
 6219SOL    HW230294   2.663   3.021  14.590  1.6395 -0.6518  0.5229
 6220SOL     OW30295   2.719   4.621  12.892  0.0179 -0.1354 -0.2468
 6220SOL    HW130296   2.811   4.620  12.864  1.4977 -1.1923  4.7325
 6220SOL    HW230297   2.678   4.667  12.818 -2.0761  0.8019  1.5039
 6221SOL     OW30298   2.981   4.663   3.483  0.0091 -0.1353  0.5837
 6221SOL    HW130299   2.924   4.591   3.453  0.1245 -0.2100  0.5457
 6221SOL    HW230300   3.054   4.639   3.427 -1.6455 -3.0311 -0.3623
 6222SOL     OW30301   4.265   2.044   4.464  0.8860 -1.0076  0.3305
 6222SOL    HW130302   4.241   1.960   4.424 -0.2311 -1.9061  2.8687
 6222SOL    HW230303   4.267   2.024   4.557  2.9604  2.5207  1.0328
 6223SOL     OW30304   1.195   1.340   5.396 -0.1485  0.1635  0.0226
 6223SOL    HW130305   1.263   1.383   5.448 -0.6581  1.0228 -0.0166
 6223SOL    HW230306   1.152   1.422   5.371 -0.4160 -0.7780 -2.6572
 6224SOL     OW30307   3.654   1.198  17.738  0.0543  0.3508 -0.3335
 6224SOL    HW130308   3.574   1.206  17.686 -0.2727 -0.2529  0.0710
 6224SOL    HW230309   3.619   1.223   0.084 -0.1249 -1.1367  0.0248
 6225SOL     OW30310   2.300   4.314   4.490 -0.0911 -0.2193  0.7742
 6225SOL    HW130311   2.264   4.402   4.500  0.3997  0.1032 -0.2859
 6225SOL    HW230312   2.334   4.314   4.401  0.2832 -1.3906  0.9257
 6226SOL     OW30313   1.573   1.650   6.806 -0.5179  0.4061  0.6046
 6226SOL    HW130314   1.492   1.701   6.814 -0.3249  0.7074  0.6095
 6226SOL    HW230315   1.625   1.695   6.740  2.4005 -2.2862  1.0928
 6227SOL     OW30316   2.197   1.036  11.334 -0.5436 -0.0540 -0.4457
 6227SOL    HW130317   2.289   1.010  11.327 -1.1255 -2.1499 -0.4815
 6227SOL    HW230318   2.175   1.002  11.421 -0.1906  0.5436 -0.1236
 6228SOL     OW30319   2.184   1.653   7.754 -0.1869 -0.1020  0.4290
 6228SOL    HW130320   2.096   1.669   7.720 -1.1694 -0.3102  2.8940
 6228SOL    HW230321   2.229   1.672   7.671  1.4032 -2.7006  0.7129
 6229SOL     OW30322   0.267   0.118   3.853  0.2781 -0.1324 -0.4270
 6229SOL    HW130323   0.172   0.103   3.858 -0.0039  1.5664 -0.5869
 6229SOL    HW230324   0.305   0.034   3.877 -0.6380 -0.9083 -1.6783
 6230SOL     OW30325   4.084   0.011   3.665 -0.4357  0.1141  0.6316
 6230SOL    HW130326   4.122   0.099   3.676 -0.9630  0.1072  2.3972
 6230SOL    HW230327   4.019   0.026   3.596 -0.1546  0.6818  0.4913
 6231SOL     OW30328   3.329   4.296  17.181  0.2738  0.0064 -0.1192
 6231SOL    HW130329   3.254   4.301  17.122  2.2818 -0.9990 -2.7680
 6231SOL    HW230330   3.407   4.324  17.134  0.6979 -0.5065  0.2686
 6232SOL     OW30331   0.317   3.798   4.350 -0.0232 -0.2807 -0.4921
 6232SOL    HW130332   0.238   3.845   4.323 -1.3292 -0.9310  2.1635
 6232SOL    HW230333   0.382   3.855   4.309  0.6696 -1.4547 -1.0211
 6233SOL     OW30334   4.684   3.847  17.389 -0.3437  0.0391 -0.2154
 6233SOL    HW130335   4.715   3.937  17.383  0.5428 -0.0950  2.3776
 6233SOL    HW230336   4.659   3.852  17.481  1.3573  1.7829  0.1536
 6234SOL     OW30337   4.610   1.281   1.605  0.0259 -0.4256  0.3003
 6234SOL    HW130338   4.597   1.301   1.512  3.9077 -1.3901 -0.4486
 6234SOL    HW230339   4.699   1.309   1.622 -0.2175 -0.3912  1.5689
 6235SOL     OW30340   2.936   2.453   8.852 -0.0429  0.1721  0.0789
 6235SOL    HW130341   2.858   2.468   8.905 -0.1776 -0.6443  0.1186
 6235SOL    HW230342   2.893   2.500   8.780  0.4054  1.8878  0.9333
 6236SOL     OW30343   1.418   3.496   1.462  0.1106  0.4518 -0.1543
 6236SOL    HW130344   1.411   3.439   1.539 -0.6363 -0.8367 -1.1808
 6236SOL    HW230345   1.323   3.491   1.450  0.0527 -0.1787  0.5659
 6237SOL     OW30346   2.969   2.640   1.655  0.1285 -0.1692 -1.0035
 6237SOL    HW130347   2.906   2.706   1.684  0.2019 -0.6257  0.2277
 6237SOL    HW230348   2.918   2.559   1.666  1.2534 -0.6036  0.9805
 6238SOL     OW30349   1.650   3.483   6.945  0.6177  0.1308  0.0782
 6238SOL    HW130350   1.573   3.426   6.951 -0.2064  1.0934 -1.4553
 6238SOL    HW230351   1.639   3.542   7.020 -2.0002  2.4577 -2.1490
 6239SOL     OW30352   0.360   3.743   0.670 -0.3984  0.0629  0.6325
 6239SOL    HW130353   0.438   3.796   0.687  0.3207 -1.2930  1.4899
 6239SOL    HW230354   0.296   3.805   0.636 -1.7755 -0.8701  1.5494
 6240SOL     OW30355   4.629   1.545  15.777  0.0441 -0.0537  0.0612
 6240SOL    HW130356   4.599   1.541  15.686  1.4798 -2.2876 -0.3223
 6240SOL    HW230357   4.720   1.574  15.773 -0.2076  0.8439  0.7100
 6241SOL     OW30358   0.847   3.081  17.010  0.0581 -0.2285 -0.1106
 6241SOL    HW130359   0.925   3.075  17.065 -1.4385  0.2880  2.0724
 6241SOL    HW230360   0.791   3.022  17.063  0.5667 -0.6886 -0.0877
 6242SOL     OW30361   0.214   0.496   6.388  0.2258 -0.3184  0.1330
 6242SOL    HW130362   0.167   0.442   6.324  1.0498  0.9172 -1.5072
 6242SOL    HW230363   0.190   0.582   6.354  1.0218 -0.0952  0.1367
 6243SOL     OW30364   0.640   0.424  17.686 -0.5230  0.5888  0.0140
 6243SOL    HW130365   0.597   0.338  17.689 -0.4738  0.5972  1.2327
 6243SOL    HW230366   0.583   0.479  17.633  0.5474  0.9684 -0.7399
 6244SOL     OW30367   1.769   2.225  10.795 -0.2439  0.3253  0.0115
 6244SOL    HW130368   1.782   2.143  10.843 -0.7985 -0.2930 -0.8814
 6244SOL    HW230369   1.829   2.283  10.842  0.2019 -1.2143  1.3420
 6245SOL     OW30370   3.332   4.522  16.493  0.2214 -0.2627  0.3795
 6245SOL    HW130371   3.278   4.583  16.543  2.5039  0.3874  2.0674
 6245SOL    HW230372   3.269   4.475  16.439 -1.4496 -1.1773  3.0990
 6246SOL     OW30373   4.596   2.956   4.875  0.3670  0.0335  0.0763
 6246SOL    HW130374   4.549   2.960   4.791  0.7873 -1.4147 -0.2218
 6246SOL    HW230375   4.563   2.871   4.905  0.0384 -0.5336 -1.8656
 6247SOL     OW30376   0.152   0.372   5.023  0.0891 -0.3222  0.1309
 6247SOL    HW130377   0.082   0.324   4.977 -0.9871  1.4337 -0.0544
 6247SOL    HW230378   0.220   0.370   4.956  1.3650  2.0160  1.3560
 6248SOL     OW30379   1.729   1.834   6.654  0.0354 -0.1225 -0.6644
 6248SOL    HW130380   1.724   1.922   6.690  3.8770 -1.5221  3.2923
 6248SOL    HW230381   1.822   1.829   6.635 -0.5606 -1.8588 -3.0457
 6249SOL     OW30382   1.338   3.833   8.011 -0.4401 -0.3544 -0.0225
 6249SOL    HW130383   1.310   3.909   7.961 -0.5962 -0.4911 -0.1415
 6249SOL    HW230384   1.252   3.826   8.054  1.1142  0.0059  3.1877
 6250SOL     OW30385   3.463   1.359  14.591 -0.3488  0.4686  0.0527
 6250SOL    HW130386   3.549   1.320  14.604 -0.5415 -0.0915 -0.3542
 6250SOL    HW230387   3.419   1.331  14.672 -1.9297 -0.9534 -1.2938
 6251SOL     OW30388   4.646   0.777   6.857  0.2388 -0.3570  0.1279
 6251SOL    HW130389   4.706   0.757   6.930  1.2945 -0.4371 -0.7621
 6251SOL    HW230390   4.577   0.823   6.904  0.1142  0.4927 -0.9096
 6252SOL     OW30391   1.528   2.040  15.602  0.2005 -0.0644 -0.1040
 6252SOL    HW130392   1.467   2.051  15.675  0.6382 -0.4608  0.3315
 6252SOL    HW230393   1.606   1.996  15.637 -0.0185  1.4306  2.2879
 6253SOL     OW30394   3.568   1.069  12.545  0.7396 -0.6983 -0.4831
 6253SOL    HW130395   3.538   1.037  12.461 -2.0600  0.4579  0.0850
 6253SOL    HW230396   3.577   1.160  12.516 -1.1625  0.0147  1.2167
 6254SOL     OW30397   4.457   0.070   3.528 -0.4839 -0.0200 -0.1238
 6254SOL    HW130398   4.503   4.721   3.530  0.6262  0.6374  1.5814
 6254SOL    HW230399   4.500   0.110   3.452  2.5607 -0.1776  1.5263
 6255SOL     OW30400   1.662   2.413   6.735  0.6929  0.6119  0.3640
 6255SOL    HW130401   1.600   2.364   6.681 -0.8521  0.6178  2.1379
 6255SOL    HW230402   1.737   2.354   6.724  0.5745  0.5290  0.0080
 6256SOL     OW30403   3.292   2.466   7.788  0.2882 -0.6556  0.2733
 6256SOL    HW130404   3.232   2.428   7.853  0.3053 -1.1930 -0.0212
 6256SOL    HW230405   3.249   2.451   7.703  0.2195  0.5638  0.0990
 6257SOL     OW30406   4.548   1.620   6.835 -0.0180  0.0548  0.0227
 6257SOL    HW130407   4.574   1.711   6.850  0.3184 -0.0159 -0.1272
 6257SOL    HW230408   4.492   1.638   6.760 -0.1369 -1.7352 -0.3160
 6258SOL     OW30409   1.788   2.229  13.366 -0.1565  0.1673 -0.2944
 6258SOL    HW130410   1.734   2.263  13.437  0.9148  0.2890  0.4591
 6258SOL    HW230411   1.766   2.284  13.290  1.4376  0.9549 -0.1761
 6259SOL     OW30412   4.016   2.621   1.047  0.0450 -0.0425  0.0966
 6259SOL    HW130413   3.955   2.613   1.120 -1.8990 -0.4065 -1.5877
 6259SOL    HW230414   4.102   2.619   1.090 -1.1222  3.4546  2.5310
 6260SOL     OW30415   3.391   0.200  10.594 -0.1647  0.2051 -0.0197
 6260SOL    HW130416   3.440   0.185  10.514 -1.2559 -2.2256 -0.2390
 6260SOL    HW230417   3.445   0.146  10.652 -0.9264 -0.6156 -0.0801
 6261SOL     OW30418   4.624   4.371   1.746 -0.2974 -0.0715  0.0176
 6261SOL    HW130419   4.626   4.323   1.828 -1.0671  1.2596  0.8261
 6261SOL    HW230420   4.608   4.305   1.679  0.7836  1.2581 -1.5627
 6262SOL     OW30421   4.138   1.331   6.438 -0.6824  0.4341 -0.1345
 6262SOL    HW130422   4.125   1.392   6.510  0.5235 -2.1633  2.2834
 6262SOL    HW230423   4.176   1.389   6.372 -0.9527  1.0295  0.2315
 6263SOL     OW30424   3.234   1.687   6.986 -0.2715 -0.1458  0.2821
 6263SOL    HW130425   3.276   1.758   7.034 -2.5519  0.5906  1.2143
 6263SOL    HW230426   3.140   1.702   6.997 -0.1837  0.4094  0.2620
 6264SOL     OW30427   3.622   0.791   6.162 -0.0378 -0.4599  0.0498
 6264SOL    HW130428   3.607   0.766   6.254 -0.8321 -0.1635  0.0010
 6264SOL    HW230429   3.661   0.877   6.176 -0.2096 -0.4986  0.8158
 6265SOL     OW30430   2.737   3.934   2.515  0.2636  0.1867  1.0359
 6265SOL    HW130431   2.779   3.970   2.593  0.1270 -0.1204  1.2536
 6265SOL    HW230432   2.749   3.996   2.443  0.2012 -0.5144  0.4215
 6266SOL     OW30433   4.188   2.929   8.527 -0.0452 -0.1983 -0.0542
 6266SOL    HW130434   4.254   2.939   8.596 -0.3818 -0.3526  0.2916
 6266SOL    HW230435   4.157   3.019   8.527 -0.7655 -0.4504 -0.3061
 6267SOL     OW30436   2.130   2.589   1.665 -0.0537 -0.2953  0.1729
 6267SOL    HW130437   2.131   2.540   1.747  0.1770 -0.2832  0.1749
 6267SOL    HW230438   2.107   2.675   1.699 -0.0510 -0.3669  0.3528
 6268SOL     OW30439   1.368   0.076   6.405 -0.0095  0.0281  0.1191
 6268SOL    HW130440   1.323   0.161   6.410 -1.1677 -0.5421 -0.7424
 6268SOL    HW230441   1.336   0.043   6.322  0.0720  0.5645 -0.1247
 6269SOL     OW30442   1.559   1.180   4.712 -0.0226 -0.4711 -0.5445
 6269SOL    HW130443   1.640   1.201   4.666 -0.4139 -0.5463 -1.2554
 6269SOL    HW230444   1.523   1.109   4.659 -0.3536  1.4609 -2.9022
 6270SOL     OW30445   3.427   4.160   8.687  0.5748  0.5389 -0.6587
 6270SOL    HW130446   3.452   4.102   8.760  3.1158  0.2666 -1.7668
 6270SOL    HW230447   3.340   4.188   8.716  1.4567  0.5751  1.9633
 6271SOL     OW30448   1.840   0.317   9.060  0.1683 -0.1248 -0.4603
 6271SOL    HW130449   1.756   0.338   9.018 -0.3164 -0.4937  0.3335
 6271SOL    HW230450   1.828   0.345   9.151  1.6671  1.2580 -0.6823
 6272SOL     OW30451   2.379   2.017   5.165 -0.1444  0.0158  0.7976
 6272SOL    HW130452   2.435   1.948   5.202 -1.0406 -1.3324 -0.3920
 6272SOL    HW230453   2.433   2.095   5.181 -1.9442  1.5010 -0.3319
 6273SOL     OW30454   3.110   0.195  13.042  0.2995 -0.7646  0.8572
 6273SOL    HW130455   3.050   0.250  12.991  2.8804 -0.7751 -2.1416
 6273SOL    HW230456   3.139   0.126  12.984 -0.2732 -0.3104  0.0368
 6274SOL     OW30457   2.008   3.927   4.468 -0.4776 -0.1034  0.2704
 6274SOL    HW130458   2.066   3.855   4.445 -1.4297  0.1274 -2.8105
 6274SOL    HW230459   1.922   3.886   4.467 -0.4961 -0.0486 -0.3562
 6275SOL     OW30460   0.216   0.111   7.514  0.3568 -0.2093 -0.4241
 6275SOL    HW130461   0.263   0.168   7.574 -1.2472 -0.8914  1.4924
 6275SOL    HW230462   0.163   0.174   7.465 -0.2786 -1.0112 -0.7749
 6276SOL     OW30463   3.137   2.406   8.249 -0.1476  1.0006 -0.0588
 6276SOL    HW130464   3.111   2.444   8.165  2.3897 -2.0379 -2.2059
 6276SOL    HW230465   3.158   2.486   8.296  1.4990  0.3197  0.3525
 6277SOL     OW30466   3.412   3.497   7.938  0.4292 -0.3751 -0.6049
 6277SOL    HW130467   3.372   3.451   8.012  1.4445 -0.3447 -0.0409
 6277SOL    HW230468   3.400   3.588   7.965  0.0660 -0.7077  0.3641
 6278SOL     OW30469   2.001   3.957  13.777 -0.4409  0.2912 -0.2078
 6278SOL    HW130470   1.916   3.964  13.733 -0.9451 -0.3610  0.6542
 6278SOL    HW230471   2.038   3.890  13.718  0.1823 -1.0747  1.7512
 6279SOL     OW30472   4.064   3.981   2.536 -0.3683 -0.4134 -0.2236
 6279SOL    HW130473   4.142   3.930   2.515 -0.7368 -0.7845 -0.6962
 6279SOL    HW230474   4.087   4.059   2.586 -0.5667 -0.0292 -0.7320
 6280SOL     OW30475   0.344   0.013  11.582 -0.7095 -0.4107 -0.3428
 6280SOL    HW130476   0.319   0.062  11.503 -0.4004 -0.5703 -0.5388
 6280SOL    HW230477   0.257   4.721  11.611 -0.4056  1.0383  1.9154
 6281SOL     OW30478   3.739   2.891   4.352 -0.1258  0.0919 -0.4534
 6281SOL    HW130479   3.708   2.934   4.272 -1.9705  3.0029  1.8289
 6281SOL    HW230480   3.741   2.799   4.329  0.1819 -0.0474  0.1529
 6282SOL     OW30481   0.383   1.322   1.401 -0.0753  0.2216  0.0540
 6282SOL    HW130482   0.410   1.252   1.341  1.6344  0.8846  0.0613
 6282SOL    HW230483   0.434   1.301   1.480 -2.0405  0.7601  1.4633
 6283SOL     OW30484   4.638   3.007  10.959  0.4647 -0.0542  0.3169
 6283SOL    HW130485   4.576   2.940  10.988 -0.7027  0.7937 -0.2274
 6283SOL    HW230486   4.711   2.974  11.011 -0.3579 -0.7415  1.0373
 6284SOL     OW30487   1.528   0.378   4.962  1.0904 -0.1869  0.2685
 6284SOL    HW130488   1.454   0.411   4.910 -1.1908  0.2548  3.8268
 6284SOL    HW230489   1.539   0.453   5.020 -1.3105 -0.1204  0.6467
 6285SOL     OW30490   4.258   0.066  12.884 -0.1908 -0.3466 -0.6012
 6285SOL    HW130491   4.327   0.013  12.923 -0.0935  0.2983  0.1065
 6285SOL    HW230492   4.276   0.079  12.790  0.8562  0.5285 -0.2898
 6286SOL     OW30493   3.585   0.946   8.640 -0.1653  0.0076  0.0456
 6286SOL    HW130494   3.495   0.976   8.627 -0.1061  0.0300 -0.3196
 6286SOL    HW230495   3.579   0.861   8.596  1.8989  1.3383 -2.7645
 6287SOL     OW30496   2.485   4.240   6.890  0.2801 -0.6060  0.8693
 6287SOL    HW130497   2.434   4.293   6.829 -0.6722 -2.1473  0.3296
 6287SOL    HW230498   2.458   4.278   6.974 -0.0310  0.1279  0.4349
 6288SOL     OW30499   3.079   3.092   1.200 -0.7696  0.0485  0.1459
 6288SOL    HW130500   3.142   3.118   1.268  0.2127 -1.8882 -0.0174
 6288SOL    HW230501   3.119   3.008   1.178  2.0629  1.6378 -0.8657
 6289SOL     OW30502   4.722   2.566   1.245  0.5322  0.0856  0.4417
 6289SOL    HW130503   4.675   2.629   1.300  0.1407  0.4644 -0.3341
 6289SOL    HW230504   0.066   2.619   1.229 -1.2402  2.5718 -0.0571
 6290SOL     OW30505   1.975   1.018   1.609 -0.0826 -0.4337  0.3796
 6290SOL    HW130506   2.031   1.082   1.653  0.6181 -0.3453 -0.6325
 6290SOL    HW230507   2.038   0.945   1.607  0.3262 -0.0447 -0.6143
 6291SOL     OW30508   4.723   0.170   4.941 -0.2649 -0.6269 -0.4565
 6291SOL    HW130509   4.683   0.149   4.856  0.7021  1.0583 -1.3362
 6291SOL    HW230510   0.063   0.110   4.939  1.2584  1.3379 -1.9673
 6292SOL     OW30511   0.572   3.892   0.770  0.0278 -0.0098  0.7415
 6292SOL    HW130512   0.584   3.858   0.858  0.8064  0.4679  0.8248
 6292SOL    HW230513   0.657   3.871   0.731 -1.6617  0.2630 -3.1341
 6293SOL     OW30514   0.291   0.663   2.085 -0.2868  0.0521  0.0321
 6293SOL    HW130515   0.265   0.754   2.071  1.0170  0.4220 -0.0435
 6293SOL    HW230516   0.217   0.610   2.055 -1.5352  0.3125  2.6691
 6294SOL     OW30517   1.049   3.723   1.473  0.2201 -0.1004 -0.0763
 6294SOL    HW130518   0.987   3.667   1.520  1.4975 -0.1762  1.5110
 6294SOL    HW230519   1.095   3.777   1.537  0.9694 -2.3467  1.2874
 6295SOL     OW30520   3.672   4.156   9.727 -0.2274  1.0132 -0.2618
 6295SOL    HW130521   3.597   4.097   9.714 -0.3772  1.3770 -1.0321
 6295SOL    HW230522   3.716   4.141   9.643  1.5911  2.5197  0.4507
 6296SOL     OW30523   0.313   1.252   7.744  0.0729  0.6243 -0.3800
 6296SOL    HW130524   0.379   1.245   7.676 -0.8626 -2.9259 -0.9144
 6296SOL    HW230525   0.285   1.161   7.744  2.6510 -0.1538 -0.3315
 6297SOL     OW30526   1.006   0.164  11.603 -0.9868  0.3686  0.0558
 6297SOL    HW130527   0.954   0.215  11.665  0.1338  3.0190 -1.1562
 6297SOL    HW230528   0.936   0.108  11.570 -1.5102  0.3641  1.1729
 6298SOL     OW30529   1.532   4.271   4.505  0.4362 -0.2704 -0.4147
 6298SOL    HW130530   1.575   4.353   4.483 -2.6496  1.7159  0.9031
 6298SOL    HW230531   1.546   4.258   4.599 -4.4410  0.1207  0.3704
 6299SOL     OW30532   0.867   0.937   2.394 -0.4017  0.3924  0.3396
 6299SOL    HW130533   0.852   1.028   2.418  1.3511  0.4906  1.0747
 6299SOL    HW230534   0.796   0.925   2.331 -1.5821 -0.9569  1.9286
 6300SOL     OW30535   2.185   4.134   3.903 -0.0861  0.6044 -0.6156
 6300SOL    HW130536   2.234   4.174   3.830  1.2046 -1.8452 -1.0880
 6300SOL    HW230537   2.172   4.207   3.963  3.7788 -1.1988  2.4316
 6301SOL     OW30538   2.687   3.081   4.726 -0.1243  0.0651  0.3289
 6301SOL    HW130539   2.632   3.100   4.651  2.1593 -2.3520 -1.9860
 6301SOL    HW230540   2.684   3.163   4.775 -2.4457  0.1742 -0.0044
 6302SOL     OW30541   2.999   3.203   2.103 -0.3977 -0.7733  0.4848
 6302SOL    HW130542   3.067   3.141   2.075  0.1706  0.2325 -0.3730
 6302SOL    HW230543   2.977   3.243   2.019  2.8178 -1.4368 -0.6825
 6303SOL     OW30544   2.427   4.673   7.952 -0.5082  0.2005 -0.0200
 6303SOL    HW130545   2.444   0.015   7.898 -1.6825 -0.6239 -1.5658
 6303SOL    HW230546   2.373   4.715   8.019 -2.1864 -0.3914 -1.0048
 6304SOL     OW30547   2.495   0.528  14.286 -0.0099 -0.1221 -0.2075
 6304SOL    HW130548   2.404   0.497  14.279 -0.5440  1.8636 -1.9822
 6304SOL    HW230549   2.499   0.577  14.368 -0.8234 -0.1755 -0.1296
 6305SOL     OW30550   3.383   1.066   6.900  0.2002  0.1307  0.1993
 6305SOL    HW130551   3.378   1.058   6.995  2.4610 -2.0750  0.1000
 6305SOL    HW230552   3.356   0.981   6.865 -1.6404  2.1372 -3.2677
 6306SOL     OW30553   2.364   2.032  17.258  0.0796 -0.1557 -0.0456
 6306SOL    HW130554   2.314   2.105  17.221 -1.8070 -0.6454  1.5383
 6306SOL    HW230555   2.337   1.955  17.210 -1.2495  0.6914 -0.6477
 6307SOL     OW30556   4.165   0.752  16.425  0.0289 -0.0053  0.2558
 6307SOL    HW130557   4.154   0.733  16.518 -0.3711  0.2590  0.2598
 6307SOL    HW230558   4.257   0.779  16.422 -0.3283  1.5518  2.6648
 6308SOL     OW30559   1.754   1.769   4.245 -0.1285 -0.5797  0.3400
 6308SOL    HW130560   1.731   1.830   4.174  3.1488 -2.0932 -2.0132
 6308SOL    HW230561   1.746   1.837   4.312  0.7323  0.4573 -0.6027
 6309SOL     OW30562   4.453   0.448   5.975  0.4841  0.7332  0.3852
 6309SOL    HW130563   4.448   0.353   5.970  2.5543  0.5515  1.8900
 6309SOL    HW230564   4.447   0.473   6.067  0.1444  1.7057  0.0963
 6310SOL     OW30565   1.571   2.914   2.910 -0.1411  0.0719  0.1228
 6310SOL    HW130566   1.580   2.926   3.004 -0.4400 -1.3796  0.3406
 6310SOL    HW230567   1.642   2.853   2.893 -0.6654 -0.5491  0.1607
 6311SOL     OW30568   3.872   1.223   3.106  0.3476  0.2087  0.0049
 6311SOL    HW130569   3.901   1.179   3.026 -1.5424  0.1881 -0.6700
 6311SOL    HW230570   3.956   1.260   3.134  0.3890  1.8747 -2.2956
 6312SOL     OW30571   4.621   0.236   2.192 -0.4800 -0.0222 -0.3018
 6312SOL    HW130572   4.677   0.161   2.209 -0.2302  0.0893 -0.6230
 6312SOL    HW230573   4.680   0.291   2.140  0.6951 -2.1902 -1.2442
 6313SOL     OW30574   1.328   1.005   5.318  0.1628  0.7708 -0.3266
 6313SOL    HW130575   1.236   0.984   5.303  0.2295  0.1166  0.1397
 6313SOL    HW230576   1.359   0.995   5.228 -3.5876 -0.2115 -1.4959
 6314SOL     OW30577   1.391   2.502   1.252  0.2841  0.4379  0.2056
 6314SOL    HW130578   1.372   2.408   1.248 -1.9557  0.7775  2.4641
 6314SOL    HW230579   1.357   2.517   1.341 -0.1471  0.8088 -0.0222
 6315SOL     OW30580   0.395   3.699   5.056 -0.6462  0.1337 -0.5854
 6315SOL    HW130581   0.380   3.754   5.133 -0.0003 -1.6831  0.8443
 6315SOL    HW230582   0.348   3.746   4.988 -2.5631 -2.1564 -0.7945
 6316SOL     OW30583   0.762   4.285   1.626 -0.2817  0.5006  0.0208
 6316SOL    HW130584   0.774   4.315   1.716 -1.4752  1.2090 -0.0573
 6316SOL    HW230585   0.738   4.192   1.633 -0.9899  0.5635 -1.7182
 6317SOL     OW30586   3.376   2.246   8.260 -0.5580 -0.4072 -0.3017
 6317SOL    HW130587   3.283   2.269   8.261 -0.9286 -1.8589 -0.8426
 6317SOL    HW230588   3.395   2.278   8.172  2.0215  0.8158  0.7118
 6318SOL     OW30589   3.401   1.805   6.789 -0.0343 -0.0866  1.0515
 6318SOL    HW130590   3.330   1.761   6.835  0.8007 -2.5676 -0.0181
 6318SOL    HW230591   3.453   1.815   6.868  0.7145  3.0936  0.1629
 6319SOL     OW30592   1.396   1.466  11.560 -0.2444  0.4269 -0.5748
 6319SOL    HW130593   1.488   1.451  11.578 -0.5466  0.3714  0.8725
 6319SOL    HW230594   1.391   1.413  11.480 -0.3051  0.2349 -0.4443
 6320SOL     OW30595   3.680   4.345   8.239 -0.0499  0.6983 -0.6450
 6320SOL    HW130596   3.642   4.259   8.225 -0.9669  0.6455  2.2306
 6320SOL    HW230597   3.730   4.357   8.158  1.2114 -0.2006 -0.0040
 6321SOL     OW30598   2.087   0.126   7.876  0.5233  0.4715 -0.6066
 6321SOL    HW130599   2.006   0.090   7.912  0.8098  0.0742 -0.3575
 6321SOL    HW230600   2.102   0.220   7.888 -1.6090  1.0528 -2.5138
 6322SOL     OW30601   1.574   2.646   3.369 -0.4387 -0.3673  0.1442
 6322SOL    HW130602   1.549   2.735   3.395  2.5867  0.2823  0.9334
 6322SOL    HW230603   1.663   2.650   3.405 -0.7252 -1.6805  1.0168
 6323SOL     OW30604   0.771   0.454   7.407 -0.6856 -0.2833  0.2303
 6323SOL    HW130605   0.857   0.448   7.450 -0.9365  0.7004  0.8770
 6323SOL    HW230606   0.798   0.506   7.331 -2.4766  1.6756  0.9250
 6324SOL     OW30607   1.464   4.054  15.330 -0.5299 -0.6214 -0.5572
 6324SOL    HW130608   1.383   4.054  15.279 -1.7066  0.3960  1.3177
 6324SOL    HW230609   1.502   4.138  15.302  2.9210 -1.8578  0.3740
 6325SOL     OW30610   2.627   3.680   2.539  1.0351  0.1102  0.7389
 6325SOL    HW130611   2.702   3.637   2.498  1.7559 -0.0371  2.2098
 6325SOL    HW230612   2.660   3.769   2.528 -0.0183  0.7127  2.4991
 6326SOL     OW30613   1.840   2.770  17.411  0.3857  0.0347  0.1139
 6326SOL    HW130614   1.801   2.727  17.488  1.2632 -0.7113  0.1504
 6326SOL    HW230615   1.871   2.847  17.459  2.6848 -2.1361  2.1302
 6327SOL     OW30616   2.235   0.789   5.654  0.0395 -0.2539 -0.4749
 6327SOL    HW130617   2.266   0.709   5.697 -0.9470  0.4614  1.5788
 6327SOL    HW230618   2.314   0.832   5.620 -0.9378  1.6570 -0.3129
 6328SOL     OW30619   0.626   1.160   7.656 -0.6973  0.2649  0.0193
 6328SOL    HW130620   0.717   1.133   7.643 -1.4713 -2.0284 -0.6479
 6328SOL    HW230621   0.649   1.245   7.692 -1.8293 -0.3551  2.1657
 6329SOL     OW30622   0.262   3.364   0.294  0.2498 -1.1812 -0.1810
 6329SOL    HW130623   0.226   3.317   0.218 -1.5372 -0.0011 -0.0612
 6329SOL    HW230624   0.331   3.306   0.324 -0.0027 -1.2673  0.2303
 6330SOL     OW30625   1.301   4.270   8.259  0.3441 -0.3294 -0.1432
 6330SOL    HW130626   1.392   4.238   8.258 -0.0107 -1.2945 -2.4914
 6330SOL    HW230627   1.315   4.344   8.201 -1.5859  0.8859  0.9637
 6331SOL     OW30628   3.932   1.305  16.669  0.1390  0.1396 -0.0767
 6331SOL    HW130629   4.016   1.319  16.625  1.1282 -0.6886  1.5772
 6331SOL    HW230630   3.873   1.355  16.612  1.3045  1.6529  0.0210
 6332SOL     OW30631   2.613   1.438  15.838  0.2197  0.0145  0.6799
 6332SOL    HW130632   2.676   1.400  15.900  2.4232 -0.5605 -1.9058
 6332SOL    HW230633   2.543   1.453  15.902 -0.4201  0.2370 -0.0812
 6333SOL     OW30634   2.273   1.702   4.792  0.1373  0.1142 -0.0158
 6333SOL    HW130635   2.277   1.739   4.881 -1.8029  0.0299  0.1097
 6333SOL    HW230636   2.180   1.722   4.785  1.0842  4.6549 -0.1915
 6334SOL     OW30637   1.962   1.354   6.230 -0.2558  0.1256 -0.1651
 6334SOL    HW130638   1.985   1.279   6.175 -1.2228  0.5401 -1.1524
 6334SOL    HW230639   1.996   1.327   6.314 -0.3759 -1.6884 -0.7102
 6335SOL     OW30640   0.452   3.872   7.422  0.1015  0.1235  0.3872
 6335SOL    HW130641   0.384   3.821   7.377 -1.1935  1.5543  0.7305
 6335SOL    HW230642   0.408   3.882   7.506  1.1857 -1.7394  1.1967
 6336SOL     OW30643   2.674   0.779  12.931 -0.4524  0.4822 -0.3566
 6336SOL    HW130644   2.580   0.797  12.943 -0.2841  0.7122  0.6186
 6336SOL    HW230645   2.698   0.854  12.876 -4.5672  0.5996 -2.0182
 6337SOL     OW30646   2.499   1.944   4.798  0.5382  0.3918  0.1327
 6337SOL    HW130647   2.558   1.887   4.748  0.8730 -1.1794  2.3321
 6337SOL    HW230648   2.422   1.923   4.746 -0.5323 -0.4439  2.0907
 6338SOL     OW30649   3.762   2.490   3.554  0.0885  0.1049 -0.2414
 6338SOL    HW130650   3.690   2.496   3.617  0.4041  0.2008  0.1048
 6338SOL    HW230651   3.739   2.562   3.495  0.5584 -1.5043 -2.3938
 6339SOL     OW30652   1.983   1.145   7.123  0.0226  0.3645  0.4340
 6339SOL    HW130653   1.964   1.079   7.057  0.8387  1.0710 -0.5076
 6339SOL    HW230654   2.071   1.122   7.154 -0.3269  0.6829  1.6937
 6340SOL     OW30655   1.609   1.251   6.370  0.3273 -0.3682 -0.4697
 6340SOL    HW130656   1.583   1.171   6.417  0.8256 -0.1149  0.2275
 6340SOL    HW230657   1.630   1.218   6.282 -0.7974 -1.5952 -0.2861
 6341SOL     OW30658   4.527   3.118   5.102 -0.1744 -0.2884  0.2092
 6341SOL    HW130659   4.518   3.057   5.029  1.6181  2.1140 -2.0345
 6341SOL    HW230660   4.614   3.094   5.133  0.5361  1.0165 -0.7591
 6342SOL     OW30661   0.982   2.190   1.910 -0.7466 -0.0924 -0.0368
 6342SOL    HW130662   0.919   2.244   1.958  0.5664  1.0729  0.3662
 6342SOL    HW230663   0.999   2.124   1.977 -0.1623  0.3541  0.2600
 6343SOL     OW30664   1.669   1.266   5.713 -0.0202  0.6457 -0.7111
 6343SOL    HW130665   1.587   1.218   5.702 -0.0020  0.3609  0.3588
 6343SOL    HW230666   1.689   1.307   5.629  1.2427  0.2226 -0.6151
 6344SOL     OW30667   4.715   2.475   3.396 -0.5755  0.1023  0.2062
 6344SOL    HW130668   4.644   2.540   3.398 -1.0251 -0.4175  0.9651
 6344SOL    HW230669   4.719   2.437   3.484 -2.1554 -2.0459 -0.6478
 6345SOL     OW30670   0.045   0.035   2.195  0.2515  0.2086  0.6568
 6345SOL    HW130671   0.107   0.105   2.175  0.7640 -0.6210 -0.6906
 6345SOL    HW230672   0.031   4.728   2.110  0.7098  0.4861  0.4412
 6346SOL     OW30673   0.947   0.060   0.838  0.2857  0.0457  0.0114
 6346SOL    HW130674   0.986   0.032   0.755  1.0395 -1.0794  0.7476
 6346SOL    HW230675   0.875   0.113   0.803  1.7400  2.1564  0.2276
 6347SOL     OW30676   2.827   0.418  14.655  0.4814 -0.0879 -0.0219
 6347SOL    HW130677   2.751   0.391  14.603 -1.2803  1.5567  1.6632
 6347SOL    HW230678   2.803   0.511  14.657 -0.6315 -0.3374 -2.0630
 6348SOL     OW30679   3.387   3.069   3.843  0.2098 -0.1860 -0.0290
 6348SOL    HW130680   3.339   3.149   3.865 -1.2841 -1.3235  0.9038
 6348SOL    HW230681   3.359   3.013   3.916 -1.9848 -0.3721 -1.0076
 6349SOL     OW30682   3.304   4.133   3.952 -0.3736  0.4454 -0.9650
 6349SOL    HW130683   3.318   4.227   3.954  2.0524  0.0460  0.2951
 6349SOL    HW230684   3.233   4.117   4.014  0.1491  0.3422 -0.3905
 6350SOL     OW30685   0.682   0.424   9.609  0.0427 -0.1081  0.4027
 6350SOL    HW130686   0.592   0.410   9.582 -0.0352  1.8474 -0.3412
 6350SOL    HW230687   0.673   0.406   9.703 -1.5190  0.6059  0.3834
 6351SOL     OW30688   2.711   3.235   7.983  0.3937 -0.5791  0.0048
 6351SOL    HW130689   2.695   3.329   7.986  0.3298 -0.4886 -3.5258
 6351SOL    HW230690   2.771   3.228   8.057 -0.9080 -3.2769  0.8033
 6352SOL     OW30691   0.515   3.580   7.928 -0.0463  0.0787 -0.7713
 6352SOL    HW130692   0.451   3.528   7.880 -1.4335 -0.8654  2.1155
 6352SOL    HW230693   0.550   3.516   7.991 -1.6604 -0.5193 -0.4984
 6353SOL     OW30694   2.254   0.949   8.502  0.0791 -0.0954  0.1600
 6353SOL    HW130695   2.247   0.858   8.472  0.9470  0.2937 -1.2386
 6353SOL    HW230696   2.162   0.970   8.516  0.3127  1.3655 -0.4539
 6354SOL     OW30697   1.067   2.686   8.574 -0.1282 -0.7052  0.5278
 6354SOL    HW130698   1.074   2.733   8.491  1.7666 -2.0132 -0.0586
 6354SOL    HW230699   1.098   2.746   8.642 -0.6766  1.6142 -1.2457
 6355SOL     OW30700   4.344   3.506   7.305 -0.7066 -0.1112 -0.0638
 6355SOL    HW130701   4.416   3.451   7.276  0.0947  0.9643 -0.1175
 6355SOL    HW230702   4.329   3.562   7.229  0.9736  0.7540  0.2289
 6356SOL     OW30703   3.593   1.121   5.357 -0.2412  0.3835  0.0683
 6356SOL    HW130704   3.577   1.178   5.281  0.5268 -0.5088 -0.7532
 6356SOL    HW230705   3.501   1.095   5.364  0.0420 -0.7070 -0.3391
 6357SOL     OW30706   3.714   3.957  13.388 -0.8546  0.8260 -0.5450
 6357SOL    HW130707   3.799   3.933  13.352 -0.3277 -0.6316  1.6778
 6357SOL    HW230708   3.733   3.968  13.481 -0.0563  0.0522 -0.6184
 6358SOL     OW30709   3.901   3.440   6.308  0.3281  0.4657 -0.0302
 6358SOL    HW130710   3.971   3.378   6.288 -0.3171 -1.1243  2.7178
 6358SOL    HW230711   3.830   3.422   6.246 -0.3354 -0.4910  1.0107
 6359SOL     OW30712   2.166   3.455   4.656  0.3435  0.1456  0.2744
 6359SOL    HW130713   2.226   3.437   4.728  0.8884  2.5140  0.4189
 6359SOL    HW230714   2.122   3.371   4.654  1.1449 -0.2586 -0.5956
 6360SOL     OW30715   1.402   1.079  10.597  0.9266 -0.2311  0.0509
 6360SOL    HW130716   1.441   1.074  10.684 -0.4842 -1.8250  0.5740
 6360SOL    HW230717   1.481   1.078  10.542 -1.0022 -2.1787 -2.6738
 6361SOL     OW30718   3.499   1.147   1.338 -0.0959  0.6775 -0.1698
 6361SOL    HW130719   3.536   1.179   1.256  0.8928 -0.6680 -0.2514
 6361SOL    HW230720   3.535   1.214   1.397 -1.5455  1.6186 -0.3464
 6362SOL     OW30721   1.207   1.780  12.963 -0.6846  0.2851  0.4279
 6362SOL    HW130722   1.236   1.694  12.993 -0.4745  0.0725 -0.3905
 6362SOL    HW230723   1.249   1.834  13.030  0.7090 -1.7858  1.2167
 6363SOL     OW30724   0.810   4.413   1.374 -0.1501 -0.1179  0.7371
 6363SOL    HW130725   0.809   4.502   1.408  3.3482 -0.2071  1.0420
 6363SOL    HW230726   0.794   4.363   1.455 -2.6573  0.4242  0.5742
 6364SOL     OW30727   3.359   0.158  13.502  0.1446  0.2619 -0.0181
 6364SOL    HW130728   3.371   0.100  13.428 -1.3239 -1.6180  1.2248
 6364SOL    HW230729   3.449   0.162  13.533  0.5598  0.5057 -1.2654
 6365SOL     OW30730   0.236   3.513   7.101  0.2178  0.2796 -0.3223
 6365SOL    HW130731   0.327   3.541   7.106  0.5728 -0.5640 -2.3095
 6365SOL    HW230732   0.199   3.565   7.030 -0.5006 -1.6827 -1.3824
 6366SOL     OW30733   3.809   3.346   7.877 -0.5074  0.1156  0.1021
 6366SOL    HW130734   3.756   3.364   7.800 -1.8624 -0.2810  0.9244
 6366SOL    HW230735   3.754   3.296   7.938 -0.6408  1.4528  1.0779
 6367SOL     OW30736   3.292   3.689   3.370 -0.1435 -0.4208  0.3174
 6367SOL    HW130737   3.222   3.624   3.374  0.6562 -1.2697  0.4322
 6367SOL    HW230738   3.370   3.641   3.395 -0.6981 -1.6817 -0.3797
 6368SOL     OW30739   4.220   1.305   1.937  0.9366  0.0604 -0.5942
 6368SOL    HW130740   4.224   1.385   1.989  0.8716  0.3280 -1.0006
 6368SOL    HW230741   4.313   1.291   1.918  0.2921 -2.5441 -1.8152
 6369SOL     OW30742   4.589   1.887   6.836 -0.0273 -0.4757 -0.5596
 6369SOL    HW130743   4.501   1.920   6.855 -0.3501 -0.9191 -1.2789
 6369SOL    HW230744   4.629   1.955   6.782  0.0024 -1.0483 -1.2556
 6370SOL     OW30745   2.667   2.730   4.446  0.2107 -0.1763 -0.3063
 6370SOL    HW130746   2.579   2.726   4.484  0.5295  1.2407  0.5646
 6370SOL    HW230747   2.706   2.653   4.489 -1.3434 -1.3251 -0.9431
 6371SOL     OW30748   3.577   1.822   7.010 -0.2091  0.2986 -0.4622
 6371SOL    HW130749   3.521   1.822   7.087 -2.0485 -0.3402 -1.8183
 6371SOL    HW230750   3.654   1.873   7.036 -0.7138  0.8502 -0.0716
 6372SOL     OW30751   1.307   0.571   9.181 -0.1931  0.0629  0.7232
 6372SOL    HW130752   1.380   0.617   9.222  1.5091 -2.1547  0.1916
 6372SOL    HW230753   1.343   0.536   9.100 -0.6103  2.6510 -0.5924
 6373SOL     OW30754   0.498   3.151   1.450 -0.0944 -0.3577 -0.4481
 6373SOL    HW130755   0.422   3.111   1.408 -1.4238  0.8014  0.8673
 6373SOL    HW230756   0.539   3.069   1.478  2.0446  0.5092 -1.0945
 6374SOL     OW30757   2.834   0.343   7.252 -0.1676 -0.6928  0.5105
 6374SOL    HW130758   2.784   0.413   7.296  1.9924 -0.1263  2.0705
 6374SOL    HW230759   2.766   0.276   7.258  0.3811 -1.1640  1.3853
 6375SOL     OW30760   1.002   4.249   6.630 -0.2424  0.0987  0.3295
 6375SOL    HW130761   0.945   4.223   6.557  2.3616 -1.9349 -0.9504
 6375SOL    HW230762   0.946   4.255   6.708 -0.2606  2.5155  0.1412
 6376SOL     OW30763   2.618   3.661  13.183  0.0883 -0.3681 -0.4996
 6376SOL    HW130764   2.633   3.574  13.220  1.3945 -0.2739 -0.7966
 6376SOL    HW230765   2.694   3.676  13.127  0.5696  1.6346  0.7103
 6377SOL     OW30766   0.551   3.231   0.307 -0.2058  0.2098 -0.0318
 6377SOL    HW130767   0.617   3.268   0.249 -0.8409 -0.0343 -0.9069
 6377SOL    HW230768   0.604   3.183   0.370  1.1549  0.4511 -0.9968
 6378SOL     OW30769   0.918   4.434   0.746  0.5063 -0.2094 -0.2226
 6378SOL    HW130770   0.835   4.471   0.714  1.0564  0.0169 -1.3966
 6378SOL    HW230771   0.897   4.342   0.763  0.8336  0.0456  1.5248
 6379SOL     OW30772   1.614   1.418  10.404 -0.0224 -0.4788  0.6298
 6379SOL    HW130773   1.566   1.470  10.469 -0.1077 -0.4865  0.5737
 6379SOL    HW230774   1.702   1.454  10.410  0.4871 -1.5473 -0.6496
 6380SOL     OW30775   2.876   1.228   5.114 -0.1572 -0.0717 -0.0113
 6380SOL    HW130776   2.867   1.241   5.209  1.7551 -0.9525  0.2845
 6380SOL    HW230777   2.915   1.312   5.091 -0.0564  0.1476  0.9371
 6381SOL     OW30778   0.546   0.752   5.840  0.3660 -0.0556  0.4578
 6381SOL    HW130779   0.529   0.785   5.752  1.5254  0.6078  0.4871
 6381SOL    HW230780   0.640   0.767   5.843 -0.1523  3.4169 -0.5824
 6382SOL     OW30781   1.890   0.824  17.728 -0.3271 -0.3541 -0.2209
 6382SOL    HW130782   1.940   0.854  17.652 -3.1008  0.4791 -1.7166
 6382SOL    HW230783   1.918   0.733  17.728  0.1207 -0.2150 -1.0278
 6383SOL     OW30784   3.263   0.998   8.381  0.6418  0.2503  0.6143
 6383SOL    HW130785   3.196   1.049   8.428  0.9141  0.5102  0.7176
 6383SOL    HW230786   3.214   0.926   8.341  1.8188 -2.2043  3.5475
 6384SOL     OW30787   1.514   4.248   5.933 -0.1301  0.0680  0.5348
 6384SOL    HW130788   1.469   4.166   5.952  0.0377 -0.4871 -1.4271
 6384SOL    HW230789   1.442   4.288   5.884 -1.2437 -2.1359  0.3788
 6385SOL     OW30790   1.083   4.607   0.390  0.2646 -0.0014  0.1819
 6385SOL    HW130791   1.064   4.515   0.410  1.7515 -0.5059 -0.7152
 6385SOL    HW230792   1.167   4.590   0.347 -0.0364  1.7860 -1.1263
 6386SOL     OW30793   3.395   0.915   5.122  0.0114  0.2221 -0.4726
 6386SOL    HW130794   3.308   0.955   5.113  0.4255  0.4846 -3.4563
 6386SOL    HW230795   3.391   0.888   5.214 -1.7494  0.8291 -0.3660
 6387SOL     OW30796   0.725   1.222   1.774  0.5965 -0.0336 -0.2702
 6387SOL    HW130797   0.794   1.285   1.753  1.2607 -1.0792 -1.2165
 6387SOL    HW230798   0.747   1.222   1.868 -0.2472 -1.8642 -0.0654
 6388SOL     OW30799   2.754   3.252   6.265  0.2868 -0.0383  0.3948
 6388SOL    HW130800   2.808   3.197   6.321 -2.4582 -2.1951  0.9398
 6388SOL    HW230801   2.668   3.249   6.307 -0.0271  0.0795 -0.2242
 6389SOL     OW30802   1.961   4.651   3.364  0.5679 -0.0594  0.0753
 6389SOL    HW130803   1.923   4.607   3.440 -1.8380  1.4474 -0.2823
 6389SOL    HW230804   1.886   4.675   3.310  1.7877  1.4605 -0.9421
 6390SOL     OW30805   2.077   0.294   8.917  0.6936 -0.3767 -0.4446
 6390SOL    HW130806   2.106   0.359   8.980  1.5404 -1.0397 -0.1464
 6390SOL    HW230807   1.991   0.267   8.947  1.2548  1.5013  2.8140
 6391SOL     OW30808   1.902   0.671   2.415  0.2961  0.1384 -0.3680
 6391SOL    HW130809   1.895   0.576   2.419  3.0661 -0.0962 -1.1026
 6391SOL    HW230810   1.955   0.685   2.493 -0.5765  1.0341  0.0588
 6392SOL     OW30811   3.292   1.624   3.047  0.0324 -0.5528  0.3600
 6392SOL    HW130812   3.339   1.688   3.102  0.8948 -0.9967  0.1372
 6392SOL    HW230813   3.203   1.637   3.080  0.4937  0.3749  1.2510
 6393SOL     OW30814   0.140   1.019   3.402 -0.4210 -0.4116  0.1533
 6393SOL    HW130815   0.189   0.940   3.423  0.3862 -0.2827 -1.2904
 6393SOL    HW230816   0.200   1.069   3.347 -0.6368 -0.8887 -0.5091
 6394SOL     OW30817   0.835   2.317  10.884 -0.3653  0.0555  0.0948
 6394SOL    HW130818   0.914   2.361  10.851 -0.1213  1.0253  1.9837
 6394SOL    HW230819   0.774   2.391  10.887  1.7743  1.8665 -0.4138
 6395SOL     OW30820   4.311   0.513  16.893  0.0630  0.1243 -0.2865
 6395SOL    HW130821   4.403   0.539  16.897  0.7564 -2.4645  0.4541
 6395SOL    HW230822   4.275   0.575  16.830  0.1361 -0.2016 -0.6496
 6396SOL     OW30823   0.987   3.003   7.768  0.0274 -0.2273 -0.3696
 6396SOL    HW130824   1.052   3.050   7.820 -0.4830  0.2353 -0.1473
 6396SOL    HW230825   0.987   3.043   7.682 -3.2157  0.1787 -0.1996
 6397SOL     OW30826   0.292   0.960  10.788 -0.0441 -0.0175 -0.0095
 6397SOL    HW130827   0.338   0.993  10.711  1.8216  0.0620  1.1368
 6397SOL    HW230828   0.365   0.936  10.845 -0.0513 -0.2600 -0.1034
 6398SOL     OW30829   4.240   1.978   8.796 -0.3183  0.2001  0.3492
 6398SOL    HW130830   4.311   1.967   8.859 -1.0336  1.7864  1.4189
 6398SOL    HW230831   4.262   1.897   8.749 -1.3506  1.2992 -2.0686
 6399SOL     OW30832   0.619   4.712   2.535  0.1086 -0.0296  0.5556
 6399SOL    HW130833   0.580   4.678   2.615 -0.3230 -0.8017  0.0239
 6399SOL    HW230834   0.539   0.022   2.506 -0.0489 -0.1095  0.8731
 6400SOL     OW30835   2.981   4.313  11.347 -0.2443  0.2116  0.1110
 6400SOL    HW130836   3.033   4.350  11.276  0.5393 -1.7612 -0.3409
 6400SOL    HW230837   3.000   4.219  11.339  0.2444  0.4473 -1.3883
 6401SOL     OW30838   4.515   0.943   7.027  0.4826 -0.8565  0.0740
 6401SOL    HW130839   4.426   0.909   7.037  0.4627 -1.9802 -3.8436
 6401SOL    HW230840   4.551   0.947   7.115  1.9623 -2.8389 -0.4432
 6402SOL     OW30841   3.104   3.622  12.615 -0.1767  0.3415 -0.6751
 6402SOL    HW130842   3.087   3.558  12.546 -0.9203 -0.5585  0.3237
 6402SOL    HW230843   3.199   3.623  12.620 -0.1367  0.1928 -1.4694
 6403SOL     OW30844   1.762   1.509   8.278  0.0701  0.3859  0.0601
 6403SOL    HW130845   1.813   1.443   8.231 -0.7697 -0.2200 -0.0052
 6403SOL    HW230846   1.728   1.464   8.355  0.7114 -0.4583 -0.1475
 6404SOL     OW30847   0.251   0.915   9.215 -0.0064 -0.0286 -0.1119
 6404SOL    HW130848   0.324   0.975   9.203  0.0487 -0.0629  0.0503
 6404SOL    HW230849   0.303   0.835   9.228 -0.9077 -0.6511 -0.3367
 6405SOL     OW30850   0.134   2.153   1.174 -0.1345  0.3745  0.1255
 6405SOL    HW130851   0.222   2.129   1.146  0.3856  1.1527  1.0461
 6405SOL    HW230852   0.107   2.083   1.233  0.1695  0.7249  0.6823
 6406SOL     OW30853   4.691   2.543   3.083 -0.3444  0.0786  0.2814
 6406SOL    HW130854   4.633   2.619   3.094 -1.0572 -0.5313  0.7719
 6406SOL    HW230855   4.699   2.499   3.168  1.6082 -1.7637 -0.8638
 6407SOL     OW30856   4.419   3.470  14.328  0.2883 -0.2070 -0.0821
 6407SOL    HW130857   4.416   3.565  14.318 -0.5470  0.0375  2.5796
 6407SOL    HW230858   4.456   3.474  14.416 -1.5599  0.2527  0.6631
 6408SOL     OW30859   4.336   3.114  15.687  0.1044  0.3828  0.1773
 6408SOL    HW130860   4.423   3.153  15.693  1.0791 -1.9197  1.0280
 6408SOL    HW230861   4.367   3.030  15.720  1.1956  1.1699  1.1536
 6409SOL     OW30862   0.582   4.735   0.215  0.5030  0.0759 -0.4432
 6409SOL    HW130863   0.659   4.685   0.243  0.8698  1.1668  0.4781
 6409SOL    HW230864   0.532   4.725   0.296  1.3464 -2.7306 -0.2691
 6410SOL     OW30865   3.068   1.688  11.000 -0.0819 -0.1286  0.1170
 6410SOL    HW130866   3.016   1.632  11.057  0.4691 -2.5914 -1.8281
 6410SOL    HW230867   2.999   1.740  10.957  2.2596  1.2856 -1.9373
 6411SOL     OW30868   1.157   3.789   8.231 -0.0990 -0.4135  0.0907
 6411SOL    HW130869   1.068   3.755   8.241  0.0437 -1.2954 -1.5112
 6411SOL    HW230870   1.154   3.874   8.275  0.3639 -0.2688 -0.1589
 6412SOL     OW30871   4.512   2.875   1.669  0.1041 -0.0168  0.1110
 6412SOL    HW130872   4.455   2.824   1.726 -0.8190  1.5401  0.5666
 6412SOL    HW230873   4.572   2.803   1.651 -1.5451 -1.2672 -0.3706
 6413SOL     OW30874   0.037   2.642   5.110 -0.0861  0.8656 -0.2801
 6413SOL    HW130875   0.111   2.693   5.077  0.2678  1.3917  1.3266
 6413SOL    HW230876   0.067   2.551   5.102  2.7981  1.9336 -1.5570
 6414SOL     OW30877   0.701   1.466   3.674 -0.0762  0.2732 -0.2703
 6414SOL    HW130878   0.654   1.450   3.592  0.8681 -2.8240 -0.2215
 6414SOL    HW230879   0.764   1.398   3.651  1.3832  1.1331  1.2749
 6415SOL     OW30880   2.660   3.474   2.174 -0.4784  0.3846  0.2681
 6415SOL    HW130881   2.709   3.539   2.122 -2.3167 -1.0572 -3.2503
 6415SOL    HW230882   2.714   3.476   2.253 -0.9373  1.1311  0.5598
 6416SOL     OW30883   2.469   0.264   3.793  0.2827  0.4385  0.0141
 6416SOL    HW130884   2.525   0.240   3.867  0.8787 -0.7080 -0.8123
 6416SOL    HW230885   2.386   0.217   3.801  0.1292  1.0698  2.1777
 6417SOL     OW30886   3.445   2.390   0.978  0.5510  0.0675 -0.0639
 6417SOL    HW130887   3.511   2.414   1.043 -1.0363  3.1891  0.3658
 6417SOL    HW230888   3.490   2.341   0.908 -1.2771  0.9064 -1.8299
 6418SOL     OW30889   4.493   0.093   3.807  0.1147 -0.1592 -0.0711
 6418SOL    HW130890   4.560   0.161   3.810  2.3309 -2.3326 -0.0630
 6418SOL    HW230891   4.455   0.091   3.719  0.9097  2.3090 -0.4676
 6419SOL     OW30892   1.124   4.506   6.745 -0.0438  0.2559  0.0768
 6419SOL    HW130893   1.209   4.466   6.761 -0.1511 -0.6095 -1.5620
 6419SOL    HW230894   1.087   4.439   6.687 -0.1539 -2.3967  3.1815
 6420SOL     OW30895   0.567   0.053   2.243 -0.1669 -0.4172  0.0497
 6420SOL    HW130896   0.492   0.096   2.284 -0.2888 -2.2598  1.7646
 6420SOL    HW230897   0.524   0.016   2.166 -0.9257 -2.1483  1.3084
 6421SOL     OW30898   3.165   1.259   6.343  0.1456 -0.0196 -0.6445
 6421SOL    HW130899   3.223   1.272   6.417 -0.9508 -1.5064  0.4682
 6421SOL    HW230900   3.222   1.306   6.282  0.1898 -1.0460 -1.4042
 6422SOL     OW30901   2.108   4.089  11.685  0.2312 -0.1705  0.0664
 6422SOL    HW130902   2.190   4.095  11.734 -0.8758  1.2845  1.7324
 6422SOL    HW230903   2.043   4.059  11.749  0.2258  1.1336  0.6617
 6423SOL     OW30904   3.385   2.713  15.122  0.7828  0.4225  0.5921
 6423SOL    HW130905   3.444   2.712  15.046  0.0393 -3.3297  0.0766
 6423SOL    HW230906   3.344   2.627  15.123 -1.4806  1.5104  0.5258
 6424SOL     OW30907   2.351   4.396  13.742 -0.2406  0.0798  0.0948
 6424SOL    HW130908   2.423   4.337  13.721  1.1509  1.4259  1.1557
 6424SOL    HW230909   2.270   4.346  13.728 -1.4421  1.8049  0.8976
 6425SOL     OW30910   0.774   4.253   6.154 -0.3917  0.1229  0.0249
 6425SOL    HW130911   0.760   4.181   6.093 -0.4703 -0.2189  0.4468
 6425SOL    HW230912   0.705   4.315   6.128  0.4429  1.9206  2.0061
 6426SOL     OW30913   0.242   1.738   9.166 -0.2237 -0.0228  0.5613
 6426SOL    HW130914   0.226   1.643   9.168 -0.1710 -0.0473 -0.4556
 6426SOL    HW230915   0.334   1.736   9.141  0.0016  0.4368  1.3428
 6427SOL     OW30916   0.038   4.368   0.404  0.2846 -0.0023  0.3159
 6427SOL    HW130917   0.001   4.281   0.393  1.5979 -0.3656 -1.3335
 6427SOL    HW230918   4.723   4.398   0.480 -0.6827  2.3037 -1.2329
 6428SOL     OW30919   4.430   4.220   3.565  0.2817 -0.0339 -0.1437
 6428SOL    HW130920   4.378   4.266   3.631  2.9526  1.3867  0.9608
 6428SOL    HW230921   4.512   4.267   3.582 -0.7109  0.9262  2.0637
 6429SOL     OW30922   1.481   0.173   8.712  0.7289 -0.0591 -0.5302
 6429SOL    HW130923   1.553   0.235   8.696 -0.0578  0.6752 -1.2573
 6429SOL    HW230924   1.447   0.164   8.622  0.2894 -0.4076 -0.3306
 6430SOL     OW30925   0.045   2.994  12.508 -0.8889  0.0242  0.1049
 6430SOL    HW130926   0.063   2.900  12.504 -0.4681  0.1459 -0.8157
 6430SOL    HW230927   0.125   3.033  12.542 -0.9945  0.0619  0.3115
 6431SOL     OW30928   4.504   2.224   5.076 -0.1840 -0.2233  0.3178
 6431SOL    HW130929   4.578   2.178   5.037  0.4776  0.8535  0.3048
 6431SOL    HW230930   4.555   2.259   5.150 -0.7020  0.5835  0.2903
 6432SOL     OW30931   2.913   4.282   7.288 -0.0876 -0.2457 -0.2797
 6432SOL    HW130932   2.913   4.313   7.379  1.1280  0.8961 -0.6757
 6432SOL    HW230933   2.938   4.364   7.247 -0.2876  0.8008  1.6667
 6433SOL     OW30934   2.517   4.727   6.794  0.4021  0.1531  0.0402
 6433SOL    HW130935   2.511   0.044   6.714 -1.8786 -0.2436 -0.0486
 6433SOL    HW230936   2.605   4.690   6.789  0.0840 -0.6438  0.2624
 6434SOL     OW30937   1.351   4.483   8.095 -0.4100  0.2955  0.0430
 6434SOL    HW130938   1.392   4.567   8.113 -1.6202  1.0012 -0.5318
 6434SOL    HW230939   1.363   4.481   8.000  1.8716 -0.6104  0.3515
 6435SOL     OW30940   2.228   0.005   5.687  0.2220  0.2396  0.4020
 6435SOL    HW130941   2.144   4.735   5.733  1.3419 -0.1742  2.3785
 6435SOL    HW230942   2.239   0.096   5.715 -1.3806  0.9773 -1.3480
 6436SOL     OW30943   0.429   1.357   8.851  0.0144 -0.2813 -0.5486
 6436SOL    HW130944   0.382   1.342   8.933  2.0742 -1.3854  0.4284
 6436SOL    HW230945   0.375   1.314   8.786  0.1085  1.1899 -1.6029
 6437SOL     OW30946   2.235   4.470  13.488 -0.0474  0.5300  0.0869
 6437SOL    HW130947   2.312   4.469  13.431  1.6009 -1.3427  2.3568
 6437SOL    HW230948   2.273   4.432  13.567 -0.4409  0.2327  0.1343
 6438SOL     OW30949   1.656   1.449   1.465  0.6039  0.6813  0.1567
 6438SOL    HW130950   1.624   1.390   1.397  0.1642 -1.1698  1.9600
 6438SOL    HW230951   1.712   1.506   1.411  0.7394  0.3865 -0.0171
 6439SOL     OW30952   0.574   2.565   9.630  0.0702  0.5399 -0.0706
 6439SOL    HW130953   0.607   2.502   9.695  2.0855  1.3474 -0.3011
 6439SOL    HW230954   0.502   2.512   9.596  0.3990  0.9901 -1.4453
 6440SOL     OW30955   1.943   0.778   5.164  0.0471  0.1115 -0.2700
 6440SOL    HW130956   1.963   0.798   5.072  0.2879  4.5767  0.7240
 6440SOL    HW230957   1.931   0.869   5.193 -0.8771  0.5054 -1.9042
 6441SOL     OW30958   1.328   3.681   8.997 -0.2783 -0.2410  0.0178
 6441SOL    HW130959   1.301   3.771   9.017 -0.1449  0.5733 -3.4739
 6441SOL    HW230960   1.338   3.686   8.902 -0.0570  0.2049  0.0621
 6442SOL     OW30961   1.464   3.529   8.553 -0.2765 -0.0041 -0.0800
 6442SOL    HW130962   1.429   3.527   8.463 -0.3802 -2.4376  0.0234
 6442SOL    HW230963   1.391   3.539   8.614 -1.3214  1.1494 -1.5052
 6443SOL     OW30964   4.519   3.926   5.583 -0.3885 -0.2363  0.1675
 6443SOL    HW130965   4.479   3.943   5.668  1.0336  2.7813  0.2232
 6443SOL    HW230966   4.447   3.907   5.523  0.1067 -2.7149  0.3267
 6444SOL     OW30967   4.692   0.862   3.135 -0.4242  0.6236 -0.0859
 6444SOL    HW130968   4.660   0.823   3.054  0.9220 -1.9929  0.6287
 6444SOL    HW230969   0.025   0.919   3.101  1.9409 -1.1496  1.6693
 6445SOL     OW30970   1.282   1.221   8.318  0.0426  0.0080  0.4283
 6445SOL    HW130971   1.235   1.139   8.335  0.4459 -0.4663 -0.7113
 6445SOL    HW230972   1.217   1.280   8.355  1.7386  1.2381  1.4694
 6446SOL     OW30973   1.399   0.898   2.622  0.7407  0.0127 -0.0355
 6446SOL    HW130974   1.458   0.823   2.626  0.0806 -0.7566 -4.0697
 6446SOL    HW230975   1.310   0.862   2.625  0.6582  0.2345  0.1271
 6447SOL     OW30976   1.026   4.364  12.324 -0.2662 -0.1162  0.5096
 6447SOL    HW130977   1.050   4.433  12.385 -0.4869 -0.3239  0.8359
 6447SOL    HW230978   1.007   4.418  12.247  0.6650 -0.1451  0.2659
 6448SOL     OW30979   0.431   3.035  11.377  0.1700 -0.6741  0.2370
 6448SOL    HW130980   0.344   3.075  11.368  0.2849 -0.5229 -0.1683
 6448SOL    HW230981   0.404   2.956  11.424  1.3116  0.1431  2.2842
 6449SOL     OW30982   4.406   1.574  15.166 -0.1615  0.1283 -0.1694
 6449SOL    HW130983   4.393   1.497  15.221  1.1638 -1.2005 -1.7154
 6449SOL    HW230984   4.473   1.531  15.113  0.7894  0.8178  0.4957
 6450SOL     OW30985   2.127   4.694   8.426  0.8219 -0.2025  0.2086
 6450SOL    HW130986   2.095   4.651   8.347  0.8832  0.3975 -0.1395
 6450SOL    HW230987   2.051   4.673   8.481  0.2365  2.6385  0.4821
 6451SOL     OW30988   1.354   3.083   1.183  0.1132  0.0874  0.2162
 6451SOL    HW130989   1.415   3.018   1.149  1.1656  1.7378 -1.0679
 6451SOL    HW230990   1.402   3.151   1.231  1.7792 -1.9715  1.4412
 6452SOL     OW30991   2.303   3.277   7.589 -0.0858 -0.3224 -0.0358
 6452SOL    HW130992   2.271   3.365   7.607  1.8165  0.7372 -1.8647
 6452SOL    HW230993   2.390   3.291   7.626  0.1872  0.8942 -1.1345
 6453SOL     OW30994   4.656   0.228  10.613  0.1208  0.2093 -0.6853
 6453SOL    HW130995   4.659   0.148  10.665  1.5634  0.3665 -0.5375
 6453SOL    HW230996   0.012   0.232  10.586  0.0406 -0.8989 -1.1011
 6454SOL     OW30997   0.037   2.449  14.189 -0.1424 -0.5400  0.8751
 6454SOL    HW130998   0.112   2.393  14.209 -1.8606 -2.7722  1.1886
 6454SOL    HW230999   4.703   2.385  14.169 -1.4889  0.5893  1.9255
 6455SOL     OW31000   3.730   1.916  11.452  0.2818  0.4459 -0.5817
 6455SOL    HW131001   3.660   1.981  11.460  1.8708  2.1758 -0.7857
 6455SOL    HW231002   3.698   1.865  11.378  0.4584  0.2959 -0.5531
 6456SOL     OW31003   1.378   0.549   2.295 -0.5253 -0.0797  0.5921
 6456SOL    HW131004   1.412   0.495   2.223 -2.8893  0.7341 -1.1555
 6456SOL    HW231005   1.309   0.590   2.243 -0.1608  0.2718  0.3752
 6457SOL     OW31006   4.271   2.262   6.656 -0.2865  0.4115 -0.1417
 6457SOL    HW131007   4.286   2.297   6.744 -0.6069 -0.1376  0.1340
 6457SOL    HW231008   4.284   2.338   6.598 -0.4382 -0.0851 -0.8250
 6458SOL     OW31009   4.564   0.204  15.990  0.2367 -0.2813  0.0027
 6458SOL    HW131010   4.550   0.115  15.958 -1.1345  0.1350 -0.5358
 6458SOL    HW231011   4.561   0.257  15.911 -0.7914  2.0124  1.5577
 6459SOL     OW31012   2.488   3.917   5.209  0.4318  0.2425  0.2340
 6459SOL    HW131013   2.431   3.840   5.209  0.6944  0.0675  2.5156
 6459SOL    HW231014   2.485   3.943   5.301  1.8382 -0.3850  0.4665
 6460SOL     OW31015   2.486   0.950  14.277 -0.3153  0.0315  0.0222
 6460SOL    HW131016   2.474   0.875  14.218  0.5450 -1.4731  1.7473
 6460SOL    HW231017   2.544   0.999  14.219  2.3622 -0.2168  2.4475
 6461SOL     OW31018   1.343   4.281   7.018  0.0331 -0.3010  1.0031
 6461SOL    HW131019   1.336   4.353   6.956  1.2627 -1.8106 -0.8797
 6461SOL    HW231020   1.411   4.318   7.074  0.4896  0.5175 -0.0898
 6462SOL     OW31021   3.290   2.930   6.167 -0.4424  0.2076 -0.3663
 6462SOL    HW131022   3.241   2.921   6.085  0.5575 -1.8298 -0.7467
 6462SOL    HW231023   3.211   2.951   6.217 -0.4963 -1.2188  0.1738
 6463SOL     OW31024   2.134   4.234   4.811 -0.0724  0.7534  0.0392
 6463SOL    HW131025   2.190   4.169   4.770  1.0236  0.5019  1.9083
 6463SOL    HW231026   2.073   4.178   4.859 -0.2307  0.7571 -0.1581
 6464SOL     OW31027   3.714   4.228   7.082 -0.2583  0.3378 -0.4681
 6464SOL    HW131028   3.707   4.314   7.124 -0.5841  0.2709 -0.3830
 6464SOL    HW231029   3.714   4.263   6.993  0.4189  1.8496  0.1173
 6465SOL     OW31030   1.011   1.936  17.679 -1.4901  0.5750  0.3119
 6465SOL    HW131031   0.937   1.914  17.622 -2.6897  2.7786  0.9800
 6465SOL    HW231032   1.004   1.867   0.005  0.5695 -0.2745 -0.3886
 6466SOL     OW31033   2.992   4.027   7.238 -0.7966 -0.3291  0.0883
 6466SOL    HW131034   2.925   4.094   7.241 -0.4121 -0.0551  2.2448
 6466SOL    HW231035   2.989   4.000   7.146 -0.2839 -0.9149  0.2420
 6467SOL     OW31036   3.758   1.866   2.194  0.1789  0.4138  0.6045
 6467SOL    HW131037   3.678   1.840   2.239 -1.5305  3.1137 -0.8791
 6467SOL    HW231038   3.719   1.943   2.152  2.0101  0.3497 -1.2110
 6468SOL     OW31039   3.330   3.209   0.427  0.7185  0.5477 -0.1429
 6468SOL    HW131040   3.406   3.154   0.408 -0.3140 -1.0485  0.3542
 6468SOL    HW231041   3.333   3.219   0.522 -0.7943  3.4344 -0.4178
 6469SOL     OW31042   4.134   0.727   8.251 -0.0966  0.3993 -0.2878
 6469SOL    HW131043   4.218   0.708   8.209 -1.1054 -0.7678 -1.8015
 6469SOL    HW231044   4.152   0.703   8.342 -3.7465 -2.9684 -0.4521
 6470SOL     OW31045   1.109   4.034   8.326 -0.3549 -0.0837  0.4054
 6470SOL    HW131046   1.027   4.070   8.292  0.4196  0.0778 -1.2809
 6470SOL    HW231047   1.169   4.104   8.300  1.4018 -1.4882  0.6565
 6471SOL     OW31048   0.928   2.037   8.620  0.2487 -0.0060 -0.0811
 6471SOL    HW131049   0.952   2.101   8.686 -1.5097  0.7221 -0.1367
 6471SOL    HW231050   0.881   1.973   8.674  0.0748 -2.6640 -3.3366
 6472SOL     OW31051   2.409   3.413  17.026 -0.0141 -0.7969  0.1942
 6472SOL    HW131052   2.395   3.319  17.019 -0.3558 -0.7567  0.3110
 6472SOL    HW231053   2.485   3.421  16.970 -1.0017  1.9764 -0.7958
 6473SOL     OW31054   1.661   2.107   1.015 -0.2380 -0.1842  0.1857
 6473SOL    HW131055   1.632   2.175   1.076  0.8871 -0.3066  0.8608
 6473SOL    HW231056   1.756   2.119   1.015 -0.0339 -1.7129  1.7052
 6474SOL     OW31057   0.328   0.936   5.815 -0.7644  0.3858  0.3141
 6474SOL    HW131058   0.408   0.891   5.841 -1.0313  0.3753  1.1189
 6474SOL    HW231059   0.337   1.022   5.858 -1.0709 -0.1920  1.5268
 6475SOL     OW31060   1.697   0.506   1.870  0.3003  0.5235 -0.4713
 6475SOL    HW131061   1.636   0.454   1.817 -0.4351  1.9922 -1.0510
 6475SOL    HW231062   1.774   0.449   1.857 -0.3849 -0.4351 -0.3512
 6476SOL     OW31063   2.630   4.372   5.738 -0.6051 -0.3580  0.4094
 6476SOL    HW131064   2.607   4.374   5.645  0.0009  1.8108  0.3069
 6476SOL    HW231065   2.649   4.279   5.744  0.0930 -0.1818  1.0492
 6477SOL     OW31066   4.654   1.521   7.800  0.0897 -0.1225  0.1445
 6477SOL    HW131067   4.578   1.469   7.824 -0.1533  1.4484  2.8407
 6477SOL    HW231068   4.626   1.554   7.715 -0.2801  0.1035  0.3528
 6478SOL     OW31069   3.818   3.135   8.926 -0.3824  0.2229 -0.4669
 6478SOL    HW131070   3.886   3.178   8.874  1.0200  0.9964  1.9807
 6478SOL    HW231071   3.782   3.078   8.858 -0.2063 -0.1337 -0.2618
 6479SOL     OW31072   2.971   3.208  12.415  0.7119  0.4908  0.0532
 6479SOL    HW131073   2.926   3.183  12.496  3.9721  0.1904  1.7699
 6479SOL    HW231074   2.901   3.185  12.353  0.8009  2.2448 -0.6849
 6480SOL     OW31075   1.828   3.561   5.373 -0.6746  0.1347 -0.1423
 6480SOL    HW131076   1.901   3.510   5.339 -1.1791  0.6900 -2.0434
 6480SOL    HW231077   1.779   3.577   5.293  1.1743 -0.9404 -1.4894
 6481SOL     OW31078   1.592   1.371  15.027 -0.1208 -0.1410  0.1580
 6481SOL    HW131079   1.578   1.317  15.104 -3.0860  0.6382  0.1541
 6481SOL    HW231080   1.578   1.316  14.950  0.3860  0.2549 -0.2175
 6482SOL     OW31081   3.415   2.654  17.486 -0.0382 -0.1693  0.0023
 6482SOL    HW131082   3.431   2.747  17.466  1.7578 -0.7139 -1.1057
 6482SOL    HW231083   3.505   2.623  17.473  0.2034  0.5695 -0.1096
 6483SOL     OW31084   1.807   1.682   1.291 -0.0029 -0.3699 -0.4852
 6483SOL    HW131085   1.886   1.629   1.281  0.6090  0.2672  1.0752
 6483SOL    HW231086   1.782   1.702   1.200 -0.3461 -1.1180 -0.5538
 6484SOL     OW31087   1.659   1.589  17.190 -0.0756  0.1424  0.5512
 6484SOL    HW131088   1.600   1.619  17.121 -1.8904 -1.6458  1.3176
 6484SOL    HW231089   1.671   1.674  17.234 -1.9468  1.1859 -0.9660
 6485SOL     OW31090   3.122   2.787   3.481 -1.1341 -0.1495 -0.2645
 6485SOL    HW131091   3.110   2.860   3.541  2.3462 -0.5787  0.9573
 6485SOL    HW231092   3.175   2.731   3.538  2.2949  0.2165 -3.0699
 6486SOL     OW31093   2.315   1.472   3.614  0.4137  0.3038  0.0673
 6486SOL    HW131094   2.349   1.558   3.636  0.3449  0.1060  0.9349
 6486SOL    HW231095   2.385   1.412   3.640  1.0843  0.1498 -2.0877
 6487SOL     OW31096   4.230   4.701   6.121  0.2382 -0.0684 -0.0840
 6487SOL    HW131097   4.244   0.051   6.163 -1.5558  0.0050  0.3610
 6487SOL    HW231098   4.299   4.710   6.055 -0.7371 -1.6981 -1.3316
 6488SOL     OW31099   3.887   2.670   5.370  0.3185 -0.1490 -0.2011
 6488SOL    HW131100   3.839   2.608   5.426  2.4073 -1.7819 -0.2286
 6488SOL    HW231101   3.979   2.642   5.378  0.9224  2.4204  1.8164
 6489SOL     OW31102   4.350   4.019   2.686 -0.0251  0.5840 -0.4446
 6489SOL    HW131103   4.305   3.977   2.760 -1.0491  0.5092 -1.1129
 6489SOL    HW231104   4.366   3.948   2.623 -1.8420  0.7074 -1.0567
 6490SOL     OW31105   3.599   2.426   4.411 -0.3704 -0.7512  0.1143
 6490SOL    HW131106   3.635   2.391   4.492 -2.4127 -3.3027 -0.0882
 6490SOL    HW231107   3.627   2.362   4.347  2.0611  0.4933 -0.0665
 6491SOL     OW31108   3.457   3.950  15.996  0.2635 -0.0557 -0.0092
 6491SOL    HW131109   3.528   3.993  16.043 -0.4881  1.9986 -0.7369
 6491SOL    HW231110   3.495   3.950  15.908  1.3636  0.8303  0.4616
 6492SOL     OW31111   4.338   4.346   9.063 -0.1432  0.5689  0.1981
 6492SOL    HW131112   4.330   4.268   9.008 -0.8590  0.3913  0.5368
 6492SOL    HW231113   4.271   4.405   9.028  0.8143  1.1653 -0.6175
 6493SOL     OW31114   0.506   2.490   4.841  0.2894 -0.4401  0.2867
 6493SOL    HW131115   0.440   2.547   4.802  1.7761 -0.1013 -1.7723
 6493SOL    HW231116   0.589   2.534   4.820 -0.1755  0.8726  1.2464
 6494SOL     OW31117   0.292   2.770  10.977  0.2843  0.3001 -0.2582
 6494SOL    HW131118   0.345   2.839  10.938  0.3825 -0.4438 -1.4400
 6494SOL    HW231119   0.262   2.813  11.057  0.8696 -2.0324  1.2210
 6495SOL     OW31120   1.771   1.240   4.203  0.0803  0.4393 -0.2300
 6495SOL    HW131121   1.696   1.198   4.246  0.2074 -0.6311 -1.0430
 6495SOL    HW231122   1.734   1.324   4.177  0.3102  0.3799 -0.7355
 6496SOL     OW31123   3.577   3.144  12.999 -0.0814 -0.1898 -0.2264
 6496SOL    HW131124   3.592   3.076  12.934  3.0052  1.7842 -1.5842
 6496SOL    HW231125   3.527   3.095  13.064  1.0377 -1.5023 -0.3514
 6497SOL     OW31126   0.644   1.689   3.999  0.1546 -0.2518  0.1852
 6497SOL    HW131127   0.720   1.709   4.053  1.1245 -0.7527 -0.9935
 6497SOL    HW231128   0.697   1.674   3.920 -0.4964 -1.9088  0.0501
 6498SOL     OW31129   2.989   1.096   2.397  0.9093 -0.1855 -0.2955
 6498SOL    HW131130   3.064   1.068   2.344  0.6653  2.0146 -1.8220
 6498SOL    HW231131   2.962   1.180   2.360 -0.9945  0.0491  1.6755
 6499SOL     OW31132   4.515   1.754   4.092 -0.5550  0.1840 -0.1378
 6499SOL    HW131133   4.431   1.800   4.096 -1.2407 -1.2775  2.6845
 6499SOL    HW231134   4.569   1.807   4.033 -0.2959  1.7904  1.5447
 6500SOL     OW31135   3.154   0.510  11.748  0.0066 -0.3343  0.1266
 6500SOL    HW131136   3.137   0.582  11.808 -2.3825  0.3570 -1.3946
 6500SOL    HW231137   3.248   0.525  11.735 -0.4581  0.7763 -2.0274
 6501SOL     OW31138   4.686   0.672   0.919  0.4296 -0.2233 -0.5382
 6501SOL    HW131139   0.006   0.630   0.985  1.4294 -0.9715 -1.8606
 6501SOL    HW231140   0.012   0.715   0.859  1.1158  0.1733  0.4485
 6502SOL     OW31141   1.511   2.210   6.550 -0.5322 -0.0925  0.5129
 6502SOL    HW131142   1.416   2.215   6.553 -0.5471 -0.0632  0.0597
 6502SOL    HW231143   1.533   2.145   6.617  1.5448 -0.5422 -0.5957
 6503SOL     OW31144   1.774   2.653   1.665 -0.1132 -0.2035 -0.0392
 6503SOL    HW131145   1.744   2.592   1.733  1.1445 -3.2055 -2.1975
 6503SOL    HW231146   1.786   2.733   1.716 -5.0065  0.5312 -0.0141
 6504SOL     OW31147   2.718   0.115   3.448  0.1006 -0.1100 -0.3427
 6504SOL    HW131148   2.778   0.125   3.375 -0.1628  1.3886 -0.3491
 6504SOL    HW231149   2.775   0.134   3.523  0.9653  1.2104 -1.3354
 6505SOL     OW31150   2.158   3.256  15.063 -0.2164 -0.4604 -0.4178
 6505SOL    HW131151   2.132   3.275  14.973 -0.2279 -1.2722 -0.5815
 6505SOL    HW231152   2.076   3.283  15.104  0.6959  0.0815  1.0640
 6506SOL     OW31153   1.909   2.853   3.227  0.4487  0.3335 -0.3716
 6506SOL    HW131154   1.906   2.782   3.290  1.1139 -1.0555 -1.9071
 6506SOL    HW231155   1.960   2.805   3.162  2.8479  2.8897 -0.3678
 6507SOL     OW31156   2.640   0.028   8.657 -0.0484  0.0593  0.3018
 6507SOL    HW131157   2.599   4.678   8.670 -0.2411 -0.0622 -1.1356
 6507SOL    HW231158   2.713   0.001   8.600  1.0541  0.1527  1.6601
 6508SOL     OW31159   0.839   1.981   5.769 -0.1909  0.0111  0.0937
 6508SOL    HW131160   0.909   1.916   5.756  0.0865  0.3415 -0.0752
 6508SOL    HW231161   0.759   1.947   5.730 -0.7504  0.7293  0.6288
 6509SOL     OW31162   0.645   1.439   7.150 -0.6989  0.3890  0.4244
 6509SOL    HW131163   0.726   1.491   7.150 -0.1785 -0.4093  1.0671
 6509SOL    HW231164   0.685   1.357   7.121 -1.4567  0.8747 -2.0554
 6510SOL     OW31165   0.299   0.778   2.472  0.3148  0.2496 -0.1261
 6510SOL    HW131166   0.306   0.804   2.564  3.6474  1.0454 -0.5855
 6510SOL    HW231167   0.206   0.761   2.462  0.3779 -2.2756  3.4007
 6511SOL     OW31168   4.470   3.751  17.244  0.5110  0.4335  0.3340
 6511SOL    HW131169   4.470   3.820  17.178  0.8624 -2.3216 -2.5762
 6511SOL    HW231170   4.521   3.794  17.312  1.4024  0.3999 -0.3172
 6512SOL     OW31171   2.308   3.015  12.611 -0.6414 -0.6930  0.4395
 6512SOL    HW131172   2.253   2.941  12.635 -1.7522 -0.9288 -2.7835
 6512SOL    HW231173   2.246   3.053  12.549  0.4634  0.4384  0.0247
 6513SOL     OW31174   3.817   4.109   8.709  0.1083  0.2011  0.4961
 6513SOL    HW131175   3.787   4.041   8.769  0.5873 -0.9316 -0.5643
 6513SOL    HW231176   3.894   4.073   8.665  0.7826 -1.2474  2.8310
 6514SOL     OW31177   0.431   3.308   5.759  0.3118  0.9811  0.4871
 6514SOL    HW131178   0.495   3.333   5.826 -0.5823  0.2614  1.6020
 6514SOL    HW231179   0.354   3.363   5.777 -0.1616  0.5271 -0.1919
 6515SOL     OW31180   0.398   0.165   3.343 -0.0549 -0.1572  0.5206
 6515SOL    HW131181   0.471   0.112   3.311 -0.5203 -0.8650  0.6377
 6515SOL    HW231182   0.407   0.241   3.285 -4.4909 -0.3871 -0.4559
 6516SOL     OW31183   4.041   3.932   8.904 -0.3841 -0.1667 -0.1858
 6516SOL    HW131184   3.955   3.900   8.877 -0.8478  0.2477  0.7958
 6516SOL    HW231185   4.072   3.843   8.922  1.9175 -0.0431 -3.4584
 6517SOL     OW31186   4.006   3.867   7.717  0.1568 -0.0587 -0.3899
 6517SOL    HW131187   4.019   3.917   7.798  1.3578  0.3405 -0.8333
 6517SOL    HW231188   3.982   3.783   7.755 -0.2078 -1.2319 -3.2166
 6518SOL     OW31189   2.261   0.816  15.935  0.3730  0.1045  0.2156
 6518SOL    HW131190   2.351   0.802  15.965 -0.3844 -0.8033  2.0829
 6518SOL    HW231191   2.221   0.761  16.003  0.7773  0.8602  1.0682
 6519SOL     OW31192   4.128   4.449   5.323  0.5397 -0.2560 -0.5445
 6519SOL    HW131193   4.161   4.499   5.397  0.3041 -2.4448  1.0363
 6519SOL    HW231194   4.127   4.515   5.253  1.5306  0.2912 -0.0400
 6520SOL     OW31195   2.362   3.257   6.163 -0.6779 -0.7759  0.2312
 6520SOL    HW131196   2.323   3.311   6.232 -0.9368 -1.1516  0.3781
 6520SOL    HW231197   2.324   3.172   6.186  0.2873 -1.7653 -1.8497
 6521SOL     OW31198   1.687   3.588   6.342  0.1101 -0.8821 -0.3649
 6521SOL    HW131199   1.730   3.525   6.400 -0.1696 -0.9640 -0.2494
 6521SOL    HW231200   1.597   3.587   6.374 -0.0450  2.6744 -0.6298
 6522SOL     OW31201   4.710   0.796   6.586 -0.0268  0.1211  0.6194
 6522SOL    HW131202   4.706   0.892   6.581  0.1046  0.1923  1.8784
 6522SOL    HW231203   4.690   0.793   6.679 -0.4623  2.4611  0.6072
 6523SOL     OW31204   2.893   4.271  13.531  0.3107  0.1084 -0.0251
 6523SOL    HW131205   2.883   4.353  13.482 -1.2597  0.1349  0.3259
 6523SOL    HW231206   2.915   4.212  13.459  1.1111 -1.3688  1.4374
 6524SOL     OW31207   0.509   0.607  12.979 -0.2518 -0.4610 -0.3815
 6524SOL    HW131208   0.501   0.635  13.070  1.8998 -1.5132  0.1471
 6524SOL    HW231209   0.589   0.657  12.961 -0.2258  0.8526  3.4737
 6525SOL     OW31210   4.647   1.069   6.606 -0.8726 -0.1808 -0.0372
 6525SOL    HW131211   4.662   1.123   6.683  2.8893 -0.6407 -0.4054
 6525SOL    HW231212   4.566   1.106   6.572  1.5476  0.0050 -5.7596
 6526SOL     OW31213   0.459   1.486   3.799  0.4445 -0.4464 -0.1614
 6526SOL    HW131214   0.552   1.493   3.780 -0.0105  1.8088 -1.5134
 6526SOL    HW231215   0.432   1.429   3.727  0.8752 -0.2515 -0.4775
 6527SOL     OW31216   2.593   0.749   5.947 -0.5683  0.4907 -0.0983
 6527SOL    HW131217   2.677   0.704   5.957 -1.1164 -0.8615 -1.5721
 6527SOL    HW231218   2.597   0.829   5.999  0.0559  0.6071 -0.3266
 6528SOL     OW31219   0.981   3.430   6.767  0.2226 -0.0373  0.1103
 6528SOL    HW131220   0.952   3.443   6.677 -0.4377 -3.8989 -0.2329
 6528SOL    HW231221   1.067   3.471   6.770 -0.0667  0.4715  1.4831
 6529SOL     OW31222   3.835   3.137   5.985  0.2755  0.2508 -0.5919
 6529SOL    HW131223   3.907   3.197   5.963 -0.3963  0.7949 -1.2682
 6529SOL    HW231224   3.883   3.056   6.004  0.9063  1.5272  3.3299
 6530SOL     OW31225   1.028   0.589   5.522 -0.2191 -0.4096  0.6474
 6530SOL    HW131226   1.111   0.546   5.503 -0.0072  0.0397  0.5591
 6530SOL    HW231227   1.006   0.539   5.601 -1.9522 -1.7840 -0.7132
 6531SOL     OW31228   3.062   2.769   7.622  0.0184 -0.1078  0.0790
 6531SOL    HW131229   3.029   2.788   7.710  3.2855  2.2746  0.8025
 6531SOL    HW231230   3.045   2.851   7.576 -0.8326 -1.1725 -1.4843
 6532SOL     OW31231   2.452   4.101   4.569  0.0554 -0.3518  0.0376
 6532SOL    HW131232   2.423   4.192   4.574  0.0155 -0.5815  4.4412
 6532SOL    HW231233   2.503   4.100   4.488 -0.5079 -0.6428 -0.3063
 6533SOL     OW31234   1.024   3.118  13.533  0.5196 -0.2469  0.3085
 6533SOL    HW131235   1.033   3.211  13.551  0.1623  0.1727 -1.6789
 6533SOL    HW231236   0.978   3.096  13.615 -0.0186 -0.3969 -0.0340
 6534SOL     OW31237   4.348   3.720  13.483 -0.2240 -0.0277  0.2101
 6534SOL    HW131238   4.407   3.781  13.440  0.2398 -0.7449 -0.1688
 6534SOL    HW231239   4.374   3.721  13.575 -0.0927 -0.1805  0.1745
 6535SOL     OW31240   4.641   1.194   2.420 -0.2973 -0.6006  0.2728
 6535SOL    HW131241   4.677   1.109   2.396  0.2019 -0.4245  0.3919
 6535SOL    HW231242   4.720   1.229   2.462 -0.5580  0.1012  0.1797
 6536SOL     OW31243   3.427   0.029   2.363 -0.9544  0.0273 -0.3290
 6536SOL    HW131244   3.370   4.687   2.373 -2.0508  0.6853 -1.4572
 6536SOL    HW231245   3.494   4.720   2.311 -0.9570 -2.3361  1.6674
 6537SOL     OW31246   4.010   3.125  17.553  0.0978  0.1801  0.2926
 6537SOL    HW131247   3.924   3.158  17.580 -1.2520 -2.2044 -1.1344
 6537SOL    HW231248   4.034   3.174  17.474 -1.2444 -0.4907 -0.5300
 6538SOL     OW31249   1.274   2.777   1.194  0.2070  0.2949  0.2334
 6538SOL    HW131250   1.331   2.841   1.151  0.3677  0.9666  1.4570
 6538SOL    HW231251   1.332   2.702   1.198 -1.1820 -0.7035  1.7378
 6539SOL     OW31252   1.073   1.032   1.800  0.0998  0.0682  0.0085
 6539SOL    HW131253   1.082   1.025   1.705 -0.7813 -2.4150  0.1185
 6539SOL    HW231254   1.124   1.112   1.813 -0.6008  0.5561 -0.2753
 6540SOL     OW31255   3.189   1.840   3.348  0.2340 -0.5389 -0.6303
 6540SOL    HW131256   3.121   1.804   3.290  1.1275 -0.6566 -1.6017
 6540SOL    HW231257   3.202   1.924   3.304 -1.2177 -0.5918 -1.1685
 6541SOL     OW31258   0.921   1.267   7.345  0.3036 -0.1660  0.3490
 6541SOL    HW131259   0.830   1.290   7.365  0.4299  0.5138  0.1482
 6541SOL    HW231260   0.954   1.224   7.424 -1.7640 -0.4149  1.0686
 6542SOL     OW31261   3.112   4.143  10.529 -0.2700 -0.4121  0.1433
 6542SOL    HW131262   3.020   4.163  10.549  1.0271  2.8346  2.8259
 6542SOL    HW231263   3.151   4.230  10.531 -2.2854  0.5025  0.2745
 6543SOL     OW31264   1.133   3.781   2.176  0.0688  0.0751 -0.5603
 6543SOL    HW131265   1.187   3.797   2.253  0.8788 -1.9059 -0.6910
 6543SOL    HW231266   1.176   3.703   2.139  0.9323  0.4730 -0.3986
 6544SOL     OW31267   4.154   2.554  10.929  0.2889 -0.2008  0.0786
 6544SOL    HW131268   4.178   2.462  10.937 -1.8651 -0.8589 -0.8678
 6544SOL    HW231269   4.064   2.546  10.961  0.4018 -2.0828 -0.1301
 6545SOL     OW31270   3.276   2.214   2.853 -0.8418 -0.1616  0.3775
 6545SOL    HW131271   3.260   2.128   2.892  0.9153  0.8412  3.2286
 6545SOL    HW231272   3.240   2.200   2.765 -1.0271  1.1351  0.2483
 6546SOL     OW31273   4.182   0.678   1.833  0.4798 -0.1249  0.1948
 6546SOL    HW131274   4.159   0.673   1.925 -1.3602  2.3508 -0.1320
 6546SOL    HW231275   4.108   0.726   1.794 -0.2565 -0.2864  1.4045
 6547SOL     OW31276   3.993   1.845  17.588  0.4744  0.2548  0.1731
 6547SOL    HW131277   3.909   1.816  17.624 -0.3223 -0.8317 -2.6225
 6547SOL    HW231278   4.031   1.764  17.554  2.9000  0.3805  2.5360
 6548SOL     OW31279   0.765   1.613   1.411  0.4514  0.0037  0.2147
 6548SOL    HW131280   0.675   1.583   1.424  0.3502  0.3428  0.2882
 6548SOL    HW231281   0.802   1.528   1.436  1.1870 -0.1020 -1.2309
 6549SOL     OW31282   2.981   3.443   3.670  0.4101 -0.0828  0.0757
 6549SOL    HW131283   3.037   3.508   3.628 -1.0102  0.8446 -0.3659
 6549SOL    HW231284   2.941   3.500   3.736 -0.3876  0.5572 -0.9840
 6550SOL     OW31285   2.431   0.329  14.019  0.3206  0.0367 -0.0560
 6550SOL    HW131286   2.514   0.281  14.019  0.4803  0.3167  0.5047
 6550SOL    HW231287   2.412   0.338  13.925  1.3560 -0.4237 -0.3089
 6551SOL     OW31288   0.530   0.436   5.308  0.2375 -0.3293 -0.0966
 6551SOL    HW131289   0.489   0.522   5.310 -0.6740 -0.7068 -1.9811
 6551SOL    HW231290   0.620   0.454   5.281  0.0174  0.8930  0.0215
 6552SOL     OW31291   3.148   2.830   1.390 -0.8072  0.7236 -0.5118
 6552SOL    HW131292   3.128   2.796   1.303  1.0312  0.5179 -0.8489
 6552SOL    HW231293   3.207   2.900   1.363  0.5635 -0.5727 -0.8055
 6553SOL     OW31294   2.859   2.159  16.005 -0.4415 -0.3775  0.7465
 6553SOL    HW131295   2.915   2.123  15.935 -0.1754 -3.9942  2.7815
 6553SOL    HW231296   2.802   2.225  15.967  2.1084 -0.6277 -3.5836
 6554SOL     OW31297   3.068   4.000   4.446 -0.0911  0.2145  0.2980
 6554SOL    HW131298   3.025   3.995   4.531 -0.4314 -0.3945  0.0900
 6554SOL    HW231299   3.148   3.950   4.463  0.0799  0.0179 -1.1074
 6555SOL     OW31300   2.078   2.385  16.496 -0.6016 -0.5778  0.0669
 6555SOL    HW131301   2.074   2.445  16.571 -0.3551 -2.0401  1.2515
 6555SOL    HW231302   2.057   2.302  16.538 -1.0419 -0.9161 -0.8419
 6556SOL     OW31303   3.190   0.738  10.618 -0.1013 -0.0997 -0.3652
 6556SOL    HW131304   3.243   0.816  10.638  0.7417 -0.7346 -0.0966
 6556SOL    HW231305   3.221   0.691  10.696 -1.9052  0.0574  0.4244
 6557SOL     OW31306   0.726   2.191  15.073  0.3593  0.1366  0.0046
 6557SOL    HW131307   0.655   2.222  15.130  0.5275 -1.0874  0.8911
 6557SOL    HW231308   0.749   2.279  15.043 -1.8224  0.6739 -0.0938
 6558SOL     OW31309   1.643   0.815  16.868 -0.3649 -0.3038 -0.3218
 6558SOL    HW131310   1.562   0.859  16.843 -1.0361 -0.7506  1.0638
 6558SOL    HW231311   1.620   0.804  16.960 -0.9909 -2.0617 -0.6783
 6559SOL     OW31312   1.200   1.414  15.384 -0.2833 -0.6053  0.6939
 6559SOL    HW131313   1.195   1.352  15.312  1.3804 -2.0071  1.7940
 6559SOL    HW231314   1.225   1.494  15.338  1.2649 -1.2917  0.3411
 6560SOL     OW31315   1.471   0.756   4.820  0.1011 -0.2693 -0.2384
 6560SOL    HW131316   1.473   0.750   4.915 -0.2426 -1.5464 -0.3105
 6560SOL    HW231317   1.433   0.671   4.796  3.7590 -2.1859  0.7807
 6561SOL     OW31318   0.156   0.075  10.350  0.3277 -0.1695 -0.3145
 6561SOL    HW131319   0.167   0.150  10.409 -0.3985  0.6194 -1.1800
 6561SOL    HW231320   0.083   0.031  10.393  0.4730 -0.8849 -0.8039
 6562SOL     OW31321   1.401   2.013  13.769 -0.0918 -0.0459  0.4152
 6562SOL    HW131322   1.467   1.992  13.835  0.0656 -1.7617 -0.2781
 6562SOL    HW231323   1.438   1.957  13.701  0.3598 -0.7215  1.2138
 6563SOL     OW31324   2.018   4.244   7.032  0.2842  0.0139 -0.4631
 6563SOL    HW131325   2.069   4.309   6.982 -1.5477  0.7930 -1.3101
 6563SOL    HW231326   1.998   4.288   7.114  0.0920  0.3585 -0.6924
 6564SOL     OW31327   0.679   0.105  13.348 -0.6429  0.0585  0.1316
 6564SOL    HW131328   0.616   0.096  13.419 -0.6206  1.5385  0.3440
 6564SOL    HW231329   0.736   0.174  13.381 -1.5729  0.3323  1.1454
 6565SOL     OW31330   1.238   4.368   7.583 -0.1450  0.0975 -0.6428
 6565SOL    HW131331   1.179   4.299   7.554  0.3365  0.0821 -1.5817
 6565SOL    HW231332   1.176   4.440   7.567  1.1760  0.8579 -2.2799
 6566SOL     OW31333   4.171   1.611   8.100  0.3233  0.0858  0.5728
 6566SOL    HW131334   4.241   1.656   8.147  0.6149  0.2558 -0.0285
 6566SOL    HW231335   4.135   1.551   8.165 -3.2005 -0.0605 -1.4954
 6567SOL     OW31336   0.794   0.722  13.639 -0.2628 -0.3588  0.1577
 6567SOL    HW131337   0.768   0.660  13.708 -2.6096 -0.8059 -1.1502
 6567SOL    HW231338   0.838   0.791  13.689 -0.6328  1.1482 -1.6326
 6568SOL     OW31339   1.300   3.244   2.486 -0.1939 -0.2366  0.5335
 6568SOL    HW131340   1.368   3.296   2.443 -0.9784 -0.8430 -1.4409
 6568SOL    HW231341   1.360   3.207   2.551 -1.1375  1.0827  2.1617
 6569SOL     OW31342   0.789   4.414  10.404 -0.0030  0.3470  0.0302
 6569SOL    HW131343   0.792   4.388  10.496 -0.0961 -3.4384 -1.0359
 6569SOL    HW231344   0.880   4.405  10.379  0.1337 -0.8476  0.9697
 6570SOL     OW31345   1.148   0.306   7.773  0.0264  0.7199  0.1223
 6570SOL    HW131346   1.062   0.273   7.800  2.0039 -1.5165  3.7736
 6570SOL    HW231347   1.139   0.268   7.685 -1.1566 -2.2421  1.5310
 6571SOL     OW31348   4.716   2.320  16.078 -0.0927 -0.1177  0.8990
 6571SOL    HW131349   4.622   2.333  16.069  0.1459  2.8009  2.5695
 6571SOL    HW231350   4.729   2.319  16.173 -0.6766 -0.7437  0.9723
 6572SOL     OW31351   0.089   3.559  10.343 -0.3370 -0.3793 -0.1670
 6572SOL    HW131352   0.062   3.468  10.350  1.6916 -1.0495 -1.1761
 6572SOL    HW231353   0.166   3.565  10.399 -0.3607 -1.5032 -0.0255
 6573SOL     OW31354   1.908   2.028   2.018 -0.3643  0.3351 -0.0138
 6573SOL    HW131355   1.887   2.115   2.050  1.5933 -0.0519  2.3658
 6573SOL    HW231356   1.818   1.997   2.017 -0.6720  1.2546 -0.4157
 6574SOL     OW31357   4.062   3.593   2.164  0.1568 -0.3825  0.4569
 6574SOL    HW131358   3.982   3.604   2.216  0.0623  1.4506 -0.0643
 6574SOL    HW231359   4.086   3.502   2.182  1.1241 -0.0077  1.0851
 6575SOL     OW31360   4.357   3.438   2.451  0.7923  0.2193 -0.4793
 6575SOL    HW131361   4.348   3.513   2.392  0.4927 -0.5281 -1.3701
 6575SOL    HW231362   4.272   3.396   2.465  0.1795  0.9849 -1.8827
 6576SOL     OW31363   2.095   0.172   2.134 -0.0173 -0.2489 -0.1339
 6576SOL    HW131364   2.073   0.147   2.045 -0.3637  1.6768 -0.6084
 6576SOL    HW231365   2.190   0.164   2.140 -0.0261 -0.1837  0.1113
 6577SOL     OW31366   3.500   4.241   3.148 -0.3324 -0.7596 -0.1336
 6577SOL    HW131367   3.486   4.149   3.169  0.5039 -1.5244 -2.8941
 6577SOL    HW231368   3.464   4.290   3.222 -1.8910 -1.6643 -0.2881
 6578SOL     OW31369   0.280   0.138   4.646  0.5513  0.7429  0.1345
 6578SOL    HW131370   0.348   0.110   4.586  0.7236  1.2884  0.0743
 6578SOL    HW231371   0.203   0.096   4.609  1.3732 -1.0683  0.5003
 6579SOL     OW31372   2.081   3.145   7.664 -0.1286 -0.0367  0.5781
 6579SOL    HW131373   2.102   3.082   7.596 -0.3150  0.3267  0.1850
 6579SOL    HW231374   2.150   3.207   7.639 -1.5439  2.0757  1.9273
 6580SOL     OW31375   0.386   2.756   7.034  0.3683 -0.5749  0.6458
 6580SOL    HW131376   0.434   2.764   7.116  1.3752  2.4012 -0.2153
 6580SOL    HW231377   0.307   2.799   7.067  0.9442  0.2242  0.9912
 6581SOL     OW31378   3.475   4.563  15.428 -0.3218  0.4929  0.3688
 6581SOL    HW131379   3.533   4.553  15.353 -0.7229  1.0720 -0.0154
 6581SOL    HW231380   3.533   4.575  15.504  0.8756  1.1016 -0.6436
 6582SOL     OW31381   1.532   3.893   2.903 -0.1225  0.1608  0.0116
 6582SOL    HW131382   1.484   3.970   2.934 -1.4745 -0.4368 -0.5908
 6582SOL    HW231383   1.619   3.914   2.938 -2.3356  3.1514  3.6735
 6583SOL     OW31384   2.394   1.850   3.234  0.2590 -0.0364 -0.3262
 6583SOL    HW131385   2.405   1.843   3.139  1.6141 -0.6957 -0.1237
 6583SOL    HW231386   2.345   1.768   3.243 -1.5107  0.9888 -0.5153
 6584SOL     OW31387   4.205   3.900   6.800  0.0979 -0.6717 -0.2286
 6584SOL    HW131388   4.279   3.906   6.861  1.1313 -1.0303 -1.4589
 6584SOL    HW231389   4.139   3.841   6.837  0.3805  0.0467  1.4333
 6585SOL     OW31390   4.182   0.893   3.371 -0.2918  0.5498 -0.1189
 6585SOL    HW131391   4.210   0.819   3.425  0.0726  1.8159  1.4448
 6585SOL    HW231392   4.263   0.944   3.383  0.7029 -1.3881  1.3136
 6586SOL     OW31393   0.902   1.311   4.296 -0.0234  0.1249  0.3680
 6586SOL    HW131394   0.981   1.323   4.243 -1.0224 -0.3160 -1.1961
 6586SOL    HW231395   0.908   1.364   4.376 -0.0184  1.3220 -0.4347
 6587SOL     OW31396   3.214   0.999   2.062 -0.0019  0.0184  0.4323
 6587SOL    HW131397   3.275   1.071   2.045 -2.7471  1.9878 -1.0416
 6587SOL    HW231398   3.129   1.038   2.043  0.4949  0.6787 -0.4359
 6588SOL     OW31399   1.777   2.082   3.375 -0.7343 -0.4268  0.4222
 6588SOL    HW131400   1.806   2.098   3.285 -0.6955 -2.0732  0.1510
 6588SOL    HW231401   1.826   2.004   3.402 -2.4978 -1.4817  0.5652
 6589SOL     OW31402   1.851   3.287   1.654 -0.2644  0.2513 -0.4791
 6589SOL    HW131403   1.794   3.295   1.577 -0.0633  1.9392 -0.4441
 6589SOL    HW231404   1.816   3.222   1.715  1.6830  0.9956  1.4415
 6590SOL     OW31405   2.415   0.360  15.128  0.1047 -0.0310  0.3377
 6590SOL    HW131406   2.490   0.413  15.100 -1.4321  0.3180 -3.1067
 6590SOL    HW231407   2.374   0.346  15.042 -1.7218 -0.9975  1.3784
 6591SOL     OW31408   2.404   0.585   7.482 -0.2522  0.0977  0.0667
 6591SOL    HW131409   2.338   0.652   7.500  0.2452  0.8416 -0.8365
 6591SOL    HW231410   2.427   0.563   7.572 -1.4108 -0.4512  0.2298
 6592SOL     OW31411   4.276   4.052   7.230 -0.0320 -0.1475 -0.1548
 6592SOL    HW131412   4.255   4.074   7.321  1.2403  0.7443 -0.0860
 6592SOL    HW231413   4.192   4.067   7.186  1.2625  3.0770 -1.4772
 6593SOL     OW31414   1.001   3.811  12.215  0.2257  0.1862 -0.2356
 6593SOL    HW131415   0.948   3.839  12.289  1.9142 -0.0999  1.0700
 6593SOL    HW231416   1.056   3.744  12.256 -0.0700  0.2223  0.2208
 6594SOL     OW31417   2.943   2.309   7.641  0.1266  0.0274  0.4805
 6594SOL    HW131418   3.022   2.358   7.621 -0.5956 -0.7122 -4.2649
 6594SOL    HW231419   2.965   2.264   7.723 -0.9584 -1.2283  0.0884
 6595SOL     OW31420   1.045   3.911   7.687  0.5008  0.0795 -0.2580
 6595SOL    HW131421   0.959   3.887   7.653 -0.0480  1.0485  0.4570
 6595SOL    HW231422   1.096   3.861   7.624 -1.2783 -1.9940 -0.0879
 6596SOL     OW31423   0.369   4.683   2.059 -0.5576 -0.6526 -0.0091
 6596SOL    HW131424   0.373   4.590   2.034  0.6538 -0.9567  1.3059
 6596SOL    HW231425   0.291   4.708   2.010 -0.2439 -2.4885 -1.4597
 6597SOL     OW31426   4.352   0.989  13.777  0.0322  0.3267  0.1244
 6597SOL    HW131427   4.435   0.954  13.811 -0.2269 -0.8013 -0.4033
 6597SOL    HW231428   4.373   1.064  13.722 -0.3595 -1.5009 -2.4927
 6598SOL     OW31429   0.894   4.327   7.435 -0.0131  0.2812 -0.4361
 6598SOL    HW131430   0.952   4.270   7.485  0.0964  0.3383 -0.4970
 6598SOL    HW231431   0.864   4.273   7.362  1.6870 -1.2440 -0.0253
 6599SOL     OW31432   2.105   2.625   5.535  0.3286  0.0992  0.4750
 6599SOL    HW131433   2.148   2.650   5.453  0.8394 -1.5262  0.2432
 6599SOL    HW231434   2.168   2.601   5.603  2.0132 -0.4414 -1.2880
 6600SOL     OW31435   2.449   0.109   3.550  0.4082  0.4609  0.2994
 6600SOL    HW131436   2.533   0.086   3.511  1.6253  3.3718  1.1952
 6600SOL    HW231437   2.473   0.160   3.627  2.0068 -1.5458  1.1230
 6601SOL     OW31438   1.743   1.513   5.543  0.9556  0.0849  0.1006
 6601SOL    HW131439   1.742   1.606   5.562 -2.2816  0.0152  0.2447
 6601SOL    HW231440   1.807   1.485   5.609  2.1102  0.2097 -0.9690
 6602SOL     OW31441   2.567   1.749   2.483  0.1392  0.5160 -0.9542
 6602SOL    HW131442   2.540   1.805   2.410 -0.1766  1.0571 -0.4200
 6602SOL    HW231443   2.490   1.762   2.538 -0.1163 -0.2911 -1.1140
 6603SOL     OW31444   3.216   1.192   5.329 -0.4845  0.3062  0.4993
 6603SOL    HW131445   3.284   1.241   5.375  0.2947 -0.1460 -0.1631
 6603SOL    HW231446   3.240   1.227   5.243  0.8797  0.4209  0.9204
 6604SOL     OW31447   2.830   2.356   0.845 -0.0925  0.8342 -0.1994
 6604SOL    HW131448   2.809   2.447   0.825  1.2956  1.2714  0.2864
 6604SOL    HW231449   2.815   2.323   0.757  3.2914 -2.5468  0.4727
 6605SOL     OW31450   2.586   4.500   3.471 -0.4071  0.3646  0.0890
 6605SOL    HW131451   2.574   4.450   3.391  1.3427  1.0954 -0.6268
 6605SOL    HW231452   2.678   4.522   3.457 -0.7667  2.7746  1.3932
 6606SOL     OW31453   0.979   0.185  15.967  0.0399 -0.0258  0.3373
 6606SOL    HW131454   1.056   0.233  15.997 -0.5830  1.4110 -0.3632
 6606SOL    HW231455   0.907   0.223  16.018 -1.0607  0.6732 -1.7110
 6607SOL     OW31456   3.503   1.079   3.918  0.6271  0.2538  0.0513
 6607SOL    HW131457   3.513   0.990   3.885 -1.4745  0.3655 -0.8942
 6607SOL    HW231458   3.591   1.104   3.890  0.2842  0.2672 -1.0136
 6608SOL     OW31459   3.931   1.203  14.609  0.2059  0.2566 -0.3420
 6608SOL    HW131460   3.894   1.288  14.584 -2.1669 -0.5177  0.6091
 6608SOL    HW231461   3.876   1.143  14.560 -1.9608 -0.4359  2.9288
 6609SOL     OW31462   1.426   1.418   6.754  0.3344 -0.4302 -0.5119
 6609SOL    HW131463   1.390   1.466   6.679 -0.0614 -0.6409 -0.4558
 6609SOL    HW231464   1.506   1.466   6.775 -0.1198 -0.4125  1.1609
 6610SOL     OW31465   3.127   0.769   3.778  0.2689 -0.1957  0.8391
 6610SOL    HW131466   3.170   0.854   3.766 -2.7331  1.0316 -1.3791
 6610SOL    HW231467   3.187   0.718   3.832  1.0408 -1.3262 -1.0943
 6611SOL     OW31468   2.992   0.238   4.931 -0.5453  0.0942 -0.3847
 6611SOL    HW131469   3.063   0.206   4.987  0.5353  1.2395 -1.0984
 6611SOL    HW231470   3.036   0.314   4.893 -0.0552 -0.2382 -0.4841
 6612SOL     OW31471   1.308   3.190   3.387  0.4937  0.2220 -0.6584
 6612SOL    HW131472   1.308   3.217   3.295 -2.3368  1.0618 -0.4058
 6612SOL    HW231473   1.375   3.249   3.421  1.5658 -2.6317  2.2537
 6613SOL     OW31474   4.450   1.427   1.762  0.3699  0.3671 -0.0922
 6613SOL    HW131475   4.443   1.510   1.715 -1.5315 -1.1487 -2.4604
 6613SOL    HW231476   4.505   1.374   1.704 -1.5361 -1.1066 -0.5525
 6614SOL     OW31477   2.383   0.760   8.081  0.1096  0.6214 -0.1000
 6614SOL    HW131478   2.420   0.808   8.007 -0.4674  0.5592 -0.4271
 6614SOL    HW231479   2.392   0.839   8.135  4.7107 -0.0131  0.0881
 6615SOL     OW31480   1.639   3.114   5.958 -0.1666 -0.1608  0.1062
 6615SOL    HW131481   1.657   3.065   5.878  1.4917 -1.4884  1.2915
 6615SOL    HW231482   1.726   3.124   5.997  0.4992 -0.3698 -1.3521
 6616SOL     OW31483   4.411   2.649   9.204 -0.2604 -0.1172 -0.3293
 6616SOL    HW131484   4.385   2.721   9.147  1.0123  0.1298 -0.5961
 6616SOL    HW231485   4.342   2.658   9.269  0.2215  2.7083 -0.2122
 6617SOL     OW31486   1.554   4.502  15.019  0.5965 -0.3823 -0.6225
 6617SOL    HW131487   1.469   4.459  15.026  0.2243  0.3971 -0.3292
 6617SOL    HW231488   1.596   4.439  14.961  1.2206  0.3460 -0.9600
 6618SOL     OW31489   0.872   0.190  15.708 -0.2288  0.6431  0.1182
 6618SOL    HW131490   0.929   0.257  15.670  0.6161 -1.1667 -1.7777
 6618SOL    HW231491   0.917   0.172  15.791 -0.0591  2.3100  0.3896
 6619SOL     OW31492   2.017   3.526   2.078  0.3025  0.0346 -0.4517
 6619SOL    HW131493   2.020   3.538   1.983  0.9691 -1.4797 -0.6226
 6619SOL    HW231494   1.998   3.613   2.113  2.5689  0.9611 -1.6096
 6620SOL     OW31495   3.053   4.356   3.613  0.0718 -0.5543  0.2123
 6620SOL    HW131496   3.029   4.301   3.538 -3.6947  0.5892  0.5790
 6620SOL    HW231497   3.145   4.328   3.614  0.1542 -0.2844  0.1380
 6621SOL     OW31498   3.772   1.736  14.178  0.3945  0.2786  0.4564
 6621SOL    HW131499   3.824   1.695  14.247 -1.6830 -0.9067  1.3190
 6621SOL    HW231500   3.686   1.746  14.219  0.4790 -0.5505  0.8411
 6622SOL     OW31501   2.221   3.832   5.521 -0.6239  0.0818  0.6673
 6622SOL    HW131502   2.193   3.757   5.469 -0.6678 -0.5142  1.5611
 6622SOL    HW231503   2.137   3.878   5.531 -1.0412 -0.3754 -0.7575
 6623SOL     OW31504   3.748   1.989   3.551  0.5377  0.1676  0.0046
 6623SOL    HW131505   3.742   1.908   3.500  2.0070 -0.1669  0.3791
 6623SOL    HW231506   3.672   1.973   3.608  0.0479  1.6972 -0.2135
 6624SOL     OW31507   4.154   2.197  16.816 -0.7358  0.4712 -0.2526
 6624SOL    HW131508   4.214   2.239  16.755  1.8193  0.4428  2.2556
 6624SOL    HW231509   4.201   2.114  16.823 -0.3372  0.8232  1.2019
 6625SOL     OW31510   2.568   0.865  16.103 -0.1860  0.2938  0.4612
 6625SOL    HW131511   2.529   0.795  16.155  0.5656  0.6795  1.5283
 6625SOL    HW231512   2.528   0.939  16.149  0.2039  1.1116 -0.5175
 6626SOL     OW31513   1.256   0.448   5.489 -0.1387  0.2480  0.1642
 6626SOL    HW131514   1.273   0.415   5.401 -2.6070  0.8129 -0.5215
 6626SOL    HW231515   1.257   0.365   5.538 -1.2759  0.0370 -0.1617
 6627SOL     OW31516   2.899   0.441   1.844 -0.3956 -0.4615 -0.1487
 6627SOL    HW131517   2.841   0.372   1.814  1.5520 -2.0732 -0.1571
 6627SOL    HW231518   2.941   0.392   1.915 -1.2978  0.2281  0.8733
 6628SOL     OW31519   1.922   3.963   2.806  0.8576 -0.3688 -0.6214
 6628SOL    HW131520   1.959   3.892   2.754 -0.1879 -1.7425  0.5093
 6628SOL    HW231521   1.880   3.913   2.876  0.4539 -1.6585 -1.7874
 6629SOL     OW31522   0.948   3.361   8.558 -0.3590  0.3305 -0.1685
 6629SOL    HW131523   1.029   3.347   8.509  0.7186  2.3254  1.0205
 6629SOL    HW231524   0.975   3.431   8.617  1.6022 -0.8307  0.3285
 6630SOL     OW31525   0.215   2.820   5.001 -0.1204 -0.2176  0.1201
 6630SOL    HW131526   0.264   2.879   5.057 -0.9788  1.2776 -0.7168
 6630SOL    HW231527   0.158   2.886   4.962 -1.1328 -1.5861 -0.7082
 6631SOL     OW31528   4.089   2.812   7.854  0.8791  0.4417 -0.1050
 6631SOL    HW131529   4.070   2.719   7.845 -3.2285  1.3886 -0.8422
 6631SOL    HW231530   4.066   2.838   7.943  0.6581  3.2118 -0.9738
 6632SOL     OW31531   4.193   3.401   5.636  0.3740 -0.0975 -0.1655
 6632SOL    HW131532   4.245   3.400   5.556  1.8879  1.9819  0.7740
 6632SOL    HW231533   4.212   3.319   5.682  0.0677  0.6609  1.3151
 6633SOL     OW31534   2.443   1.821   5.698 -0.0957 -0.1347 -0.1061
 6633SOL    HW131535   2.515   1.759   5.694  1.1330  1.2846 -0.2977
 6633SOL    HW231536   2.469   1.885   5.631 -0.4704  0.0811 -0.0499
 6634SOL     OW31537   4.207   1.830   5.270 -0.0588 -0.3206  0.0101
 6634SOL    HW131538   4.228   1.761   5.207  0.5538 -2.3875  2.4845
 6634SOL    HW231539   4.292   1.875   5.270 -1.4860  2.3424 -1.1150
 6635SOL     OW31540   3.031   3.532  11.673  0.5179  0.1389  0.7049
 6635SOL    HW131541   3.111   3.570  11.707  0.7719  0.6843 -0.4773
 6635SOL    HW231542   3.047   3.442  11.700 -0.2221 -0.1660  0.1589
 6636SOL     OW31543   3.112   0.814   4.578  0.4641 -0.1648  0.6426
 6636SOL    HW131544   3.145   0.840   4.492  0.9665  1.6840  1.3771
 6636SOL    HW231545   3.163   0.872   4.634 -3.9198  3.6952  0.6342
 6637SOL     OW31546   3.049   2.732   5.382 -0.5461  0.1970  0.0985
 6637SOL    HW131547   3.032   2.825   5.398  1.8761  0.8907 -1.4454
 6637SOL    HW231548   3.110   2.745   5.310 -0.1832 -3.2525 -0.2228
 6638SOL     OW31549   0.329   3.064   5.937 -0.1509  0.3530 -0.0543
 6638SOL    HW131550   0.321   3.133   6.002 -3.5446 -0.3423  0.2508
 6638SOL    HW231551   0.347   3.114   5.857  0.3096  0.2738 -0.0007
 6639SOL     OW31552   1.507   1.602  10.601  0.0594 -0.5842  0.4612
 6639SOL    HW131553   1.453   1.681  10.597  5.0278  2.5620 -4.0965
 6639SOL    HW231554   1.575   1.631  10.662 -1.4235  0.1899  1.7410
 6640SOL     OW31555   3.726   0.958   7.119 -0.0910  0.6501  0.8741
 6640SOL    HW131556   3.705   1.011   7.042 -0.1289  1.5868  1.5364
 6640SOL    HW231557   3.747   1.028   7.181  0.1073  0.7586  0.6839
 6641SOL     OW31558   0.701   1.994   3.249 -0.0695  0.0270 -0.3120
 6641SOL    HW131559   0.666   1.908   3.271 -0.3582 -0.2475 -1.8245
 6641SOL    HW231560   0.778   1.996   3.305  1.0033 -1.2947 -1.7626
 6642SOL     OW31561   4.654   1.846   6.524  0.4942  0.3080  0.1061
 6642SOL    HW131562   4.563   1.851   6.553  0.9445 -0.7145  1.7313
 6642SOL    HW231563   4.690   1.918   6.576 -0.0343 -3.0428  5.2342
 6643SOL     OW31564   3.519   1.467   3.105 -0.1431  0.1473  0.6032
 6643SOL    HW131565   3.439   1.507   3.138 -0.1280  1.6279 -1.1600
 6643SOL    HW231566   3.518   1.492   3.013  0.7783  1.3939  0.9409
 6644SOL     OW31567   1.301   2.291   7.031  0.3501 -0.1484 -0.3869
 6644SOL    HW131568   1.373   2.327   7.084  0.0126 -0.8333  0.5400
 6644SOL    HW231569   1.230   2.328   7.083  2.3903  1.9747  0.9344
 6645SOL     OW31570   4.032   1.937  10.944  0.4002  0.2275 -0.1204
 6645SOL    HW131571   3.973   1.961  11.015 -1.8223 -0.4934 -1.7222
 6645SOL    HW231572   4.025   2.021  10.897 -2.4790 -0.2680 -0.5610
 6646SOL     OW31573   3.615   4.328  15.328 -0.2027  0.1505  0.1972
 6646SOL    HW131574   3.520   4.323  15.337 -0.2867  1.6820  0.1143
 6646SOL    HW231575   3.615   4.344  15.233 -1.4169 -1.8638 -0.1443
 6647SOL     OW31576   2.810   2.120   4.167  0.3277  0.4276  0.1321
 6647SOL    HW131577   2.816   2.185   4.097  0.2634  2.0064  1.5891
 6647SOL    HW231578   2.838   2.047   4.112  0.4616 -0.4479  1.3627
 6648SOL     OW31579   2.737   3.346   2.730  0.0716  0.6491 -0.7532
 6648SOL    HW131580   2.797   3.416   2.703 -0.1026  1.3831  0.7483
 6648SOL    HW231581   2.719   3.293   2.653  1.6129 -0.3595 -0.4105
 6649SOL     OW31582   0.592   0.847  16.292  0.0422  0.9037  0.6747
 6649SOL    HW131583   0.503   0.864  16.324 -0.8051 -0.1418 -1.1521
 6649SOL    HW231584   0.576   0.863  16.199  0.8909 -0.4754  0.2934
 6650SOL     OW31585   0.696   1.893   6.569  0.5111  0.3140  0.4374
 6650SOL    HW131586   0.683   1.954   6.496 -0.0476  1.2723  1.3288
 6650SOL    HW231587   0.608   1.873   6.602 -0.0021  0.8436 -0.6180
 6651SOL     OW31588   4.493   1.187   4.001 -0.0132 -0.5511 -0.4063
 6651SOL    HW131589   4.441   1.107   3.994  1.3331 -1.2981 -1.8293
 6651SOL    HW231590   4.420   1.248   3.998  1.5958  1.3566 -0.9474
 6652SOL     OW31591   3.897   4.497   8.542 -0.1509 -0.2056  0.5022
 6652SOL    HW131592   3.845   4.502   8.462  1.6044  0.6729 -0.5985
 6652SOL    HW231593   3.830   4.541   8.594 -0.3833  1.1599 -0.9488
 6653SOL     OW31594   4.172   1.320  13.752  0.0232 -0.6035 -0.2945
 6653SOL    HW131595   4.215   1.307  13.836 -0.5659  1.4609  0.3053
 6653SOL    HW231596   4.242   1.320  13.687  0.8360 -1.9641  0.5757
 6654SOL     OW31597   0.507   3.978  14.416 -0.2402 -0.5501  0.4393
 6654SOL    HW131598   0.459   4.053  14.451  1.3050 -0.3874  2.1982
 6654SOL    HW231599   0.581   4.024  14.376 -0.8390  1.3949  1.5737
 6655SOL     OW31600   0.836   1.933   8.246  0.0260 -0.6452 -0.5367
 6655SOL    HW131601   0.825   1.849   8.201 -1.9385 -1.2312  1.0400
 6655SOL    HW231602   0.901   1.906   8.311  0.0822  0.5430 -0.0968
 6656SOL     OW31603   3.682   1.976   5.131 -0.2007  0.7588 -0.1209
 6656SOL    HW131604   3.669   1.885   5.159 -0.4948  1.0348  0.6578
 6656SOL    HW231605   3.775   1.979   5.112  0.3469  0.2147  2.3942
 6657SOL     OW31606   2.790   2.188   5.627 -0.0687 -0.2356 -0.4281
 6657SOL    HW131607   2.826   2.236   5.702  0.5642  2.1086 -2.2016
 6657SOL    HW231608   2.855   2.119   5.613 -0.7103 -1.0513  0.7109
 6658SOL     OW31609   4.490   4.201   4.365 -0.4045 -0.3197 -0.1298
 6658SOL    HW131610   4.584   4.203   4.384 -0.9273  2.5736  2.2593
 6658SOL    HW231611   4.453   4.213   4.453 -0.1938  1.7859 -0.3318
 6659SOL     OW31612   3.313   2.153  15.751  0.5129 -0.8123  0.1302
 6659SOL    HW131613   3.284   2.107  15.673 -0.3392 -1.0923  0.6142
 6659SOL    HW231614   3.275   2.240  15.737  0.9357 -0.6526 -0.0029
 6660SOL     OW31615   2.281   3.866   3.920  0.3305  0.4814 -0.5764
 6660SOL    HW131616   2.241   3.953   3.913  1.1812  1.0319  1.4959
 6660SOL    HW231617   2.319   3.875   4.007 -0.5214  2.0794 -0.3720
 6661SOL     OW31618   0.857   3.214   6.908  0.1554  0.0228  0.8325
 6661SOL    HW131619   0.923   3.272   6.870 -0.6380 -0.8565 -1.8118
 6661SOL    HW231620   0.850   3.252   6.996  0.2351  1.2955  0.2898
 6662SOL     OW31621   4.223   3.869   0.003 -0.0885  0.5356 -0.5407
 6662SOL    HW131622   4.215   3.774   0.000 -2.6682  0.8080 -1.6952
 6662SOL    HW231623   4.207   3.892   0.095  1.6901 -0.1938 -0.0471
 6663SOL     OW31624   3.069   2.235   7.880  0.2797  0.8652 -0.0442
 6663SOL    HW131625   2.985   2.243   7.926  0.7199  0.7920  0.7740
 6663SOL    HW231626   3.119   2.168   7.928  3.3474 -0.1311 -4.6550
 6664SOL     OW31627   0.055   0.240   1.329  0.4978  0.5925 -0.4336
 6664SOL    HW131628   4.725   0.302   1.363 -0.1212 -0.3683  0.1448
 6664SOL    HW231629   0.085   0.281   1.249  3.8599  0.8452  0.9410
 6665SOL     OW31630   4.434   2.959   2.349  0.4665 -0.3986 -0.3941
 6665SOL    HW131631   4.451   2.971   2.256 -1.4916 -1.9366 -0.9413
 6665SOL    HW231632   4.505   2.899   2.371  2.0195  0.9568 -1.7620
 6666SOL     OW31633   1.820   3.079  17.190  0.3643 -0.0616  0.0146
 6666SOL    HW131634   1.857   3.057  17.105  0.6620 -1.8099  0.5943
 6666SOL    HW231635   1.894   3.098  17.247 -1.1547  0.1067  1.9317
 6667SOL     OW31636   1.743   0.771  10.025  0.1203  0.3265  0.2436
 6667SOL    HW131637   1.775   0.784  10.114  2.7070  0.4089 -0.7132
 6667SOL    HW231638   1.771   0.682  10.004 -0.3787  0.2937 -0.2871
 6668SOL     OW31639   0.998   2.436   3.460  0.0555 -0.4241  0.4668
 6668SOL    HW131640   0.912   2.411   3.429 -0.6081  1.8393  0.4850
 6668SOL    HW231641   0.981   2.466   3.550  0.1617  1.8999 -0.2904
 6669SOL     OW31642   0.567   0.655   6.556 -0.1113 -0.4322  0.0487
 6669SOL    HW131643   0.521   0.660   6.640  0.2832 -0.1836  0.2491
 6669SOL    HW231644   0.649   0.702   6.574 -0.6425  0.2935  0.5542
 6670SOL     OW31645   3.147   2.157  14.268 -0.1108  0.3561 -0.3878
 6670SOL    HW131646   3.203   2.143  14.344 -0.4899  0.1852 -0.1363
 6670SOL    HW231647   3.208   2.194  14.204 -0.3344  2.7301  0.7591
 6671SOL     OW31648   1.234   2.252  13.767 -0.1113 -0.3256 -0.1888
 6671SOL    HW131649   1.175   2.233  13.840 -0.7851 -2.1753 -1.2381
 6671SOL    HW231650   1.290   2.175  13.765  1.8096  1.1138 -0.9590
 6672SOL     OW31651   2.204   4.307   5.598 -0.9912 -0.2626  0.2998
 6672SOL    HW131652   2.110   4.323   5.595 -0.9382  0.0170  0.1303
 6672SOL    HW231653   2.203   4.228   5.544 -0.5526 -0.3661  0.4411
 6673SOL     OW31654   4.336   0.033  17.662 -0.3665 -0.2217  0.1046
 6673SOL    HW131655   4.410   4.732  17.710  2.4097  5.0459 -0.2540
 6673SOL    HW231656   4.381   0.047  17.578 -0.7742 -0.9107 -0.2278
 6674SOL     OW31657   1.255   0.757   4.376 -0.2863  0.1197  0.2163
 6674SOL    HW131658   1.232   0.800   4.459  0.0775  0.3626  0.1919
 6674SOL    HW231659   1.251   0.662   4.391  0.4917 -0.0364 -0.6119
 6675SOL     OW31660   0.889   4.222   2.432  0.0827 -0.1628 -0.4855
 6675SOL    HW131661   0.808   4.269   2.413 -0.4474 -0.5980  0.6979
 6675SOL    HW231662   0.948   4.228   2.357  0.5387 -0.8633 -0.1860
 6676SOL     OW31663   2.142   1.568   1.273  0.1558 -0.5155  0.2881
 6676SOL    HW131664   2.120   1.660   1.291  1.2057  0.1376 -1.6399
 6676SOL    HW231665   2.078   1.535   1.210  2.1407 -1.8593 -1.0150
 6677SOL     OW31666   2.253   3.512   2.915 -0.1767 -0.2086  0.6239
 6677SOL    HW131667   2.208   3.443   2.865  1.7802 -0.7817 -0.3369
 6677SOL    HW231668   2.342   3.516   2.881 -1.2635 -1.0713 -2.3721
 6678SOL     OW31669   4.242   2.225   8.603  0.0029 -0.3492  0.6817
 6678SOL    HW131670   4.195   2.186   8.530 -1.1227 -0.3343  1.3959
 6678SOL    HW231671   4.235   2.151   8.664  0.7003 -0.3321  0.7812
 6679SOL     OW31672   2.167   0.239   8.419 -0.2188  0.0670  0.5340
 6679SOL    HW131673   2.163   0.144   8.431  2.3848 -0.3006 -1.6812
 6679SOL    HW231674   2.197   0.266   8.506  0.9635  1.3983 -0.2917
 6680SOL     OW31675   4.334   1.924   6.037 -0.0627  0.1479  0.0027
 6680SOL    HW131676   4.341   1.946   5.944 -2.4813 -1.7421 -0.6202
 6680SOL    HW231677   4.420   1.962   6.055  2.0927 -3.3413 -2.9843
 6681SOL     OW31678   0.935   1.843   9.308 -0.3763  0.5008  0.8034
 6681SOL    HW131679   0.897   1.768   9.353 -0.8177 -0.6086 -1.4226
 6681SOL    HW231680   1.021   1.807   9.284 -0.5691  0.0522  0.7971
 6682SOL     OW31681   1.757   1.851   9.807  0.0310  0.8109  0.0930
 6682SOL    HW131682   1.792   1.909   9.739  1.6714 -1.8160 -1.3534
 6682SOL    HW231683   1.837   1.799   9.818 -1.5095 -1.5462  0.1194
 6683SOL     OW31684   3.303   3.259   8.393 -0.2735 -0.0384  0.1183
 6683SOL    HW131685   3.254   3.229   8.470 -1.3441  0.8230 -0.2115
 6683SOL    HW231686   3.332   3.345   8.423  0.7807  0.6385 -2.9014
 6684SOL     OW31687   3.315   0.579   5.214 -0.2710 -0.1657 -0.1327
 6684SOL    HW131688   3.305   0.624   5.298  1.9731  0.1378 -0.0438
 6684SOL    HW231689   3.270   0.641   5.157 -1.2151 -1.8935 -1.2820
 6685SOL     OW31690   2.701   1.649  17.367  0.2270  0.1487  0.3511
 6685SOL    HW131691   2.727   1.589  17.437  0.3842  1.3192  1.2922
 6685SOL    HW231692   2.788   1.660  17.328 -0.1006  2.8260  0.3791
 6686SOL     OW31693   3.109   2.315   0.860 -0.8808  0.3756  0.4805
 6686SOL    HW131694   3.017   2.338   0.852 -0.2945  2.0744 -1.5118
 6686SOL    HW231695   3.134   2.348   0.774 -0.3413 -1.8548 -0.2234
 6687SOL     OW31696   4.284   2.783   3.390 -0.0987 -0.2307  0.1037
 6687SOL    HW131697   4.311   2.828   3.470 -0.6242  1.0137 -0.4042
 6687SOL    HW231698   4.191   2.769   3.405 -0.0148  0.6030  1.3697
 6688SOL     OW31699   3.937   1.373   4.794  0.1081 -0.1128 -0.9203
 6688SOL    HW131700   3.867   1.438   4.786  0.4439  0.2266 -1.0891
 6688SOL    HW231701   3.993   1.412   4.727  0.4780  0.2464 -0.3973
 6689SOL     OW31702   1.602   0.574   1.348 -0.0312  0.3851 -0.3947
 6689SOL    HW131703   1.662   0.585   1.421 -0.1389 -0.9106 -0.0979
 6689SOL    HW231704   1.630   0.645   1.290  4.6018 -0.5255  0.8115
 6690SOL     OW31705   1.923   3.973   2.475 -0.0743 -0.0752  0.0610
 6690SOL    HW131706   1.933   3.997   2.567 -0.5055 -1.2013  0.4116
 6690SOL    HW231707   2.013   3.964   2.444  0.3734 -1.4829  1.7600
 6691SOL     OW31708   3.002   3.112  15.945 -0.3056 -0.6216  0.0460
 6691SOL    HW131709   3.089   3.148  15.963 -0.2645  0.1045 -1.7045
 6691SOL    HW231710   2.954   3.194  15.951  0.8553  0.0692 -0.1123
 6692SOL     OW31711   0.857   0.534   8.741  0.2567 -0.1375  0.2251
 6692SOL    HW131712   0.802   0.479   8.685  0.0685 -0.6542  0.9264
 6692SOL    HW231713   0.891   0.473   8.806 -1.2960 -0.7049  0.4999
 6693SOL     OW31714   3.294   3.175  13.245  0.2085 -0.1793 -0.5097
 6693SOL    HW131715   3.209   3.195  13.206 -0.8608  0.1631  1.9854
 6693SOL    HW231716   3.339   3.112  13.190  0.4771 -1.4885  1.1928
 6694SOL     OW31717   0.837   2.138   8.999 -0.0723  0.1272 -0.3492
 6694SOL    HW131718   0.832   2.229   9.027  1.1050  0.4554 -1.2061
 6694SOL    HW231719   0.856   2.148   8.906 -0.9530  2.6843 -0.2624
 6695SOL     OW31720   1.192   0.757   1.839  0.8454  0.3250 -0.1013
 6695SOL    HW131721   1.164   0.848   1.845  0.7831  0.3065 -0.1176
 6695SOL    HW231722   1.277   0.751   1.794  1.1822  2.5510  0.2539
 6696SOL     OW31723   0.051   1.153   4.705  0.3885  0.1847 -0.2270
 6696SOL    HW131724   0.134   1.115   4.677 -0.1353 -0.8164 -0.3825
 6696SOL    HW231725   4.715   1.097   4.676  0.1608  0.4427 -0.1645
 6697SOL     OW31726   2.286   1.438  15.742  0.4829 -0.0354 -0.4052
 6697SOL    HW131727   2.234   1.365  15.774  0.9148  0.0716  0.5426
 6697SOL    HW231728   2.252   1.511  15.794 -0.9884  0.0280 -1.4623
 6698SOL     OW31729   2.155   3.426  14.810 -0.0308  0.3938  0.0047
 6698SOL    HW131730   2.064   3.403  14.791  0.0646 -0.2932  0.3737
 6698SOL    HW231731   2.202   3.402  14.730 -0.1287  0.4926 -0.0822
 6699SOL     OW31732   2.655   1.844   3.595  0.1630  0.2959  0.0093
 6699SOL    HW131733   2.615   1.907   3.535 -0.1875  0.3905  0.3459
 6699SOL    HW231734   2.588   1.858   3.662 -0.1632 -3.9142  0.5510
 6700SOL     OW31735   0.264   2.490   6.678 -0.2227  0.2258 -0.5180
 6700SOL    HW131736   0.194   2.468   6.617  0.0429 -0.5420 -0.5535
 6700SOL    HW231737   0.338   2.446   6.636  0.7234  0.4341  0.9502
 6701SOL     OW31738   0.426   0.125   0.416 -0.3767 -0.0728 -0.3400
 6701SOL    HW131739   0.474   0.203   0.387 -0.1448  0.0658  0.4321
 6701SOL    HW231740   0.369   0.168   0.479  0.6463  1.3610 -0.3995
 6702SOL     OW31741   3.711   2.268   3.153  0.0526 -0.1308  0.4407
 6702SOL    HW131742   3.723   2.208   3.079  0.6889 -0.2351  0.6320
 6702SOL    HW231743   3.797   2.309   3.161  1.2184 -2.1790 -1.2567
 6703SOL     OW31744   3.440   3.751   6.475 -0.2717  0.6118 -0.6616
 6703SOL    HW131745   3.511   3.700   6.513 -1.6687 -1.4245 -0.7734
 6703SOL    HW231746   3.387   3.673   6.458 -3.0510  2.2432  0.4785
 6704SOL     OW31747   3.706   2.285  11.014  0.2491  0.0773  0.2844
 6704SOL    HW131748   3.798   2.272  10.991 -0.4308 -0.4218 -2.1407
 6704SOL    HW231749   3.683   2.212  11.071 -1.4613 -1.5853 -2.5232
 6705SOL     OW31750   3.710   1.678   6.778 -0.2869 -0.1678  0.7229
 6705SOL    HW131751   3.675   1.692   6.690 -0.6560 -0.3793  0.8380
 6705SOL    HW231752   3.660   1.746   6.824  0.9467  0.5362  1.0302
 6706SOL     OW31753   2.417   3.240  15.123  0.3547  0.2035  0.4750
 6706SOL    HW131754   2.433   3.266  15.032  1.7069 -3.7153 -0.4174
 6706SOL    HW231755   2.322   3.235  15.130  0.2100  1.3290 -0.7146
 6707SOL     OW31756   2.061   3.089   1.668 -0.5701  0.5567  0.1883
 6707SOL    HW131757   2.013   3.169   1.643 -2.7057  0.0161  2.6248
 6707SOL    HW231758   2.147   3.128   1.652 -0.3408  0.0238  0.1311
 6708SOL     OW31759   1.054   3.929   0.479  0.0234  0.0664 -0.3387
 6708SOL    HW131760   1.013   3.915   0.393 -1.0820 -1.2647  0.4122
 6708SOL    HW231761   1.115   4.002   0.467 -0.6984  0.6314 -0.6244
 6709SOL     OW31762   2.473   3.889   3.503  0.6959  0.0337  1.0827
 6709SOL    HW131763   2.383   3.878   3.472  1.3491 -2.4167  0.0959
 6709SOL    HW231764   2.457   3.944   3.580  4.5231  1.3668  0.9170
 6710SOL     OW31765   3.549   3.747   9.015 -0.0399 -0.5577  0.3175
 6710SOL    HW131766   3.604   3.672   9.037  0.7215 -0.6009 -1.6977
 6710SOL    HW231767   3.460   3.719   9.033  0.0006 -2.3141 -2.1675
 6711SOL     OW31768   2.155   2.734   6.111  0.2496  0.6981 -0.0697
 6711SOL    HW131769   2.117   2.691   6.188  0.4484 -1.2692 -1.1046
 6711SOL    HW231770   2.192   2.659   6.066 -0.3655 -0.3893  1.2326
 6712SOL     OW31771   0.956   2.095  15.187 -0.3443 -0.3069  0.6357
 6712SOL    HW131772   0.883   2.107  15.126  1.8570  0.7535 -1.8356
 6712SOL    HW231773   0.958   2.180  15.230  3.1664  0.6978 -1.4658
 6713SOL     OW31774   3.658   1.216   2.754  0.1144  0.1551  0.3889
 6713SOL    HW131775   3.663   1.214   2.658  1.9101 -0.0185  0.4714
 6713SOL    HW231776   3.611   1.297   2.774  0.1233  0.3765 -0.4780
 6714SOL     OW31777   1.459   2.036  17.555  0.1576  0.2645 -0.4614
 6714SOL    HW131778   1.484   1.977  17.485 -0.5061  0.0176 -0.4922
 6714SOL    HW231779   1.541   2.082  17.571  0.8862 -1.0914 -0.4084
 6715SOL     OW31780   3.108   1.668  16.302 -0.1606  0.4206  0.1086
 6715SOL    HW131781   3.120   1.762  16.285  1.3059 -0.3251 -2.9847
 6715SOL    HW231782   3.076   1.670  16.392 -0.1472  2.4268  0.0784
 6716SOL     OW31783   1.083   4.116   5.285  0.3994  0.2257 -0.8036
 6716SOL    HW131784   1.137   4.094   5.210  1.0175  0.3954 -0.4040
 6716SOL    HW231785   1.007   4.162   5.250  0.0466 -0.4115 -0.8731
 6717SOL     OW31786   3.171   4.293   5.592 -0.4881 -0.1054  0.5750
 6717SOL    HW131787   3.247   4.261   5.641 -1.4750 -0.3139  1.9828
 6717SOL    HW231788   3.211   4.335   5.516 -0.0931 -0.4410  0.5971
 6718SOL     OW31789   1.160   4.376  15.809 -0.6423 -0.4656  0.2435
 6718SOL    HW131790   1.171   4.460  15.766  0.5081 -1.2928 -1.0993
 6718SOL    HW231791   1.133   4.324  15.733  1.8714 -0.3673 -0.7253
 6719SOL     OW31792   4.358   2.760   7.434  0.4042 -0.2153 -0.2061
 6719SOL    HW131793   4.444   2.797   7.416  0.0524  1.7478  2.0067
 6719SOL    HW231794   4.352   2.790   7.525 -0.4030  3.1430 -1.3741
 6720SOL     OW31795   0.727   3.200   1.045  0.0897  0.1206  0.2277
 6720SOL    HW131796   0.793   3.269   1.035  1.1734 -0.7764  1.1723
 6720SOL    HW231797   0.659   3.246   1.094 -1.1203  0.4083 -1.7094
 6721SOL     OW31798   2.789   4.539   1.150 -0.2834  0.1736  0.2860
 6721SOL    HW131799   2.785   4.456   1.103  0.7691  0.8774 -1.0715
 6721SOL    HW231800   2.880   4.546   1.177 -0.2151 -0.9490  0.3182
 6722SOL     OW31801   1.020   4.625   6.410 -0.1064  0.3576  0.0932
 6722SOL    HW131802   0.976   4.685   6.348 -1.1261  0.2754  0.7422
 6722SOL    HW231803   0.955   4.557   6.422 -0.9579  0.8705 -1.6382
 6723SOL     OW31804   3.965   3.424   8.802  0.0413 -0.9033 -0.0140
 6723SOL    HW131805   3.952   3.462   8.716  0.1775  1.2089  0.8972
 6723SOL    HW231806   4.053   3.391   8.783  1.3824  1.7727  1.4834
 6724SOL     OW31807   1.153   2.295   7.879  0.0680  0.1916  0.5523
 6724SOL    HW131808   1.163   2.384   7.846  3.2737 -1.1769 -2.1188
 6724SOL    HW231809   1.076   2.308   7.934 -0.4673 -0.3659 -0.0748
 6725SOL     OW31810   3.771   2.757  14.374 -0.5276 -0.0439 -0.2471
 6725SOL    HW131811   3.844   2.799  14.420  0.0923 -0.1699 -1.1225
 6725SOL    HW231812   3.821   2.682  14.344 -1.5493 -1.3751  1.3816
 6726SOL     OW31813   0.217   0.867   4.979  0.3410  0.2105  0.4543
 6726SOL    HW131814   0.193   0.917   5.057  0.0460 -1.0089  1.1363
 6726SOL    HW231815   0.219   0.776   5.008 -1.0622 -0.0708 -0.3358
 6727SOL     OW31816   1.207   2.869  17.576  0.3620 -0.3772 -0.3608
 6727SOL    HW131817   1.156   2.789  17.584  1.1790 -0.6229  2.2838
 6727SOL    HW231818   1.281   2.848  17.633 -0.7206  1.1400  1.5993
 6728SOL     OW31819   0.681   0.950  11.362 -0.3521  0.0263 -0.3554
 6728SOL    HW131820   0.664   0.919  11.451  2.4287 -3.7906 -1.1489
 6728SOL    HW231821   0.603   0.924  11.314 -1.0970  0.6248  0.5041
 6729SOL     OW31822   1.760   3.834   4.432  0.2408 -0.2146 -0.0416
 6729SOL    HW131823   1.676   3.805   4.398 -0.0867 -0.7585  1.2244
 6729SOL    HW231824   1.730   3.817   4.521  0.6974  1.0407  0.3442
 6730SOL     OW31825   1.002   1.102   2.097  0.5128 -0.4224  0.2064
 6730SOL    HW131826   1.097   1.100   2.090  0.4618  0.8676 -0.7086
 6730SOL    HW231827   0.976   1.027   2.044 -3.2129  0.9337  0.0927
 6731SOL     OW31828   2.812   2.830   6.331  0.1257  0.1149  0.1525
 6731SOL    HW131829   2.750   2.807   6.262  0.2063  0.6742 -0.1134
 6731SOL    HW231830   2.811   2.744   6.371  0.1281 -1.0039 -2.2684
 6732SOL     OW31831   2.018   3.881  16.671  0.0086  0.1901 -0.1034
 6732SOL    HW131832   2.084   3.811  16.676  0.3011  0.4097 -1.0103
 6732SOL    HW231833   1.989   3.876  16.580 -0.7507 -1.6344  0.2462
 6733SOL     OW31834   2.249   3.318  12.588 -0.1361  0.0878 -0.1190
 6733SOL    HW131835   2.286   3.263  12.519 -1.0523 -1.7296  0.8128
 6733SOL    HW231836   2.287   3.403  12.568  1.1898 -0.2395  0.9329
 6734SOL     OW31837   0.184   3.185   0.092  0.0793  0.0083 -0.4122
 6734SOL    HW131838   0.251   3.205   0.027  0.4147  1.6738  0.4394
 6734SOL    HW231839   0.218   3.102   0.126  1.1146  0.9576  0.8739
 6735SOL     OW31840   2.560   1.103   7.153  0.0274  0.4864  0.0489
 6735SOL    HW131841   2.617   1.163   7.106  2.8218 -1.3194  1.1162
 6735SOL    HW231842   2.528   1.056   7.076 -0.2145 -0.9923  1.0499
 6736SOL     OW31843   4.113   2.147   8.063 -0.0518  0.1460  0.3460
 6736SOL    HW131844   4.069   2.174   7.982  0.3151 -0.4550 -0.0520
 6736SOL    HW231845   4.063   2.197   8.128 -1.6180  0.9276 -1.4790
 6737SOL     OW31846   3.920   1.400   8.529  0.2603  0.3886 -0.1576
 6737SOL    HW131847   3.843   1.426   8.580  0.7589  0.1205  0.7336
 6737SOL    HW231848   3.991   1.426   8.588  0.1255 -1.3628  0.7732
 6738SOL     OW31849   1.504   2.063   2.928 -0.2743 -0.0792 -0.2213
 6738SOL    HW131850   1.414   2.089   2.906  0.1073  2.3092  1.0420
 6738SOL    HW231851   1.522   2.102   3.013 -0.4851 -0.7472  0.1342
 6739SOL     OW31852   0.182   2.181   4.185 -0.0819 -0.1547  0.0496
 6739SOL    HW131853   0.146   2.175   4.273 -0.7972 -0.7436 -0.2862
 6739SOL    HW231854   0.212   2.091   4.171  1.5542  0.2037  1.1495
 6740SOL     OW31855   2.307   0.757   2.231 -0.0197  0.5324 -0.6414
 6740SOL    HW131856   2.301   0.853   2.239 -4.0686  0.2417 -0.0818
 6740SOL    HW231857   2.324   0.747   2.137 -0.9237  0.8703 -0.8429
 6741SOL     OW31858   1.876   3.610   4.301 -0.2711  0.0402 -0.4924
 6741SOL    HW131859   1.832   3.666   4.365  1.6200  1.1947 -0.1918
 6741SOL    HW231860   1.968   3.617   4.325 -0.5604  0.1714  0.5906
 6742SOL     OW31861   3.034   0.325  13.278 -1.1222  0.1037  0.1147
 6742SOL    HW131862   3.093   0.277  13.220  0.9652  0.0393  2.2988
 6742SOL    HW231863   3.077   0.410  13.288 -0.4152  0.0247 -2.2250
 6743SOL     OW31864   2.206   2.169  17.680 -0.3741 -0.6392  0.6307
 6743SOL    HW131865   2.232   2.127   0.024 -0.1111  0.0739  0.9118
 6743SOL    HW231866   2.288   2.217  17.665 -1.8063  0.6612 -2.8660
 6744SOL     OW31867   2.502   4.543  14.904 -0.0159 -0.9275 -0.0143
 6744SOL    HW131868   2.521   4.496  14.985 -3.4523 -0.6858  0.9153
 6744SOL    HW231869   2.519   4.635  14.924  0.7772 -1.1240  0.2382
 6745SOL     OW31870   2.179   2.973   8.183 -0.1932  0.4658  0.1742
 6745SOL    HW131871   2.222   2.957   8.099 -2.4695 -1.3121 -0.6396
 6745SOL    HW231872   2.193   3.068   8.191 -0.0229  0.4157  0.4717
 6746SOL     OW31873   1.207   2.237   2.405 -0.6567 -0.5761 -0.4903
 6746SOL    HW131874   1.194   2.215   2.497  0.6292  0.3888 -0.0737
 6746SOL    HW231875   1.300   2.224   2.388 -0.3202  1.8302 -0.5092
 6747SOL     OW31876   3.647   0.088   5.532 -0.9050  0.1630  0.0251
 6747SOL    HW131877   3.621   0.121   5.618 -0.8691  2.1116 -0.7016
 6747SOL    HW231878   3.705   0.158   5.501 -1.2688 -1.2052 -3.7347
 6748SOL     OW31879   0.726   0.348   3.473 -0.4441 -0.3886 -0.0996
 6748SOL    HW131880   0.819   0.363   3.456 -0.7379  0.2763 -1.1107
 6748SOL    HW231881   0.695   0.353   3.383 -1.7375 -0.3041  0.3467
 6749SOL     OW31882   1.461   1.649   3.046 -0.3159 -0.1395  0.4483
 6749SOL    HW131883   1.372   1.623   3.019  0.9323 -1.7250 -2.1382
 6749SOL    HW231884   1.497   1.567   3.013 -1.7407 -0.9067  0.7994
 6750SOL     OW31885   1.164   0.823   0.844  0.8468 -0.0008 -0.1882
 6750SOL    HW131886   1.109   0.897   0.867  0.3632 -0.2970 -0.3846
 6750SOL    HW231887   1.149   0.777   0.927 -0.0252 -0.7406 -0.7512
 6751SOL     OW31888   3.901   2.180   2.456 -0.1771 -0.1061  0.2389
 6751SOL    HW131889   3.876   2.271   2.444 -1.0286 -0.3695  0.0003
 6751SOL    HW231890   3.821   2.130   2.436  0.9790 -1.7256 -0.3489
 6752SOL     OW31891   0.777   2.621   8.191 -0.3189 -0.6888  0.1757
 6752SOL    HW131892   0.869   2.604   8.213 -0.2775  2.5717  2.5136
 6752SOL    HW231893   0.749   2.530   8.199  0.4675 -0.9804 -0.3193
 6753SOL     OW31894   2.998   1.921   4.809  0.3015  0.3675  0.0829
 6753SOL    HW131895   2.921   1.927   4.752  0.3368  0.5644  0.0542
 6753SOL    HW231896   2.955   1.954   4.888  0.0386  2.6021 -0.9768
 6754SOL     OW31897   3.144   2.212   5.173 -0.4395 -0.4342  0.0931
 6754SOL    HW131898   3.056   2.246   5.188 -0.0220  0.5430  0.3259
 6754SOL    HW231899   3.188   2.297   5.177 -0.3312 -0.4525 -0.6504
 6755SOL     OW31900   3.525   2.224   6.602  1.1586  0.4976  0.6259
 6755SOL    HW131901   3.523   2.255   6.692 -0.6977 -3.7571  2.0339
 6755SOL    HW231902   3.443   2.257   6.565  0.6230 -2.7282 -1.1426
 6756SOL     OW31903   2.488   0.864   5.431 -0.6361 -0.1222 -0.4684
 6756SOL    HW131904   2.537   0.881   5.350  1.5840 -3.0952  0.2498
 6756SOL    HW231905   2.412   0.819   5.395  0.5197 -1.6668 -0.9832
 6757SOL     OW31906   1.730   2.715   2.308  0.3461 -0.0618  0.1568
 6757SOL    HW131907   1.660   2.695   2.370  0.4425 -2.5520 -0.5421
 6757SOL    HW231908   1.759   2.797   2.348  0.8988  0.6111 -1.6081
 6758SOL     OW31909   4.364   1.500   1.396 -0.2621  0.1692 -0.4493
 6758SOL    HW131910   4.453   1.471   1.372  0.0805  1.1543 -0.3845
 6758SOL    HW231911   4.331   1.426   1.447 -0.5179 -0.4488 -1.5099
 6759SOL     OW31912   4.295   0.349   8.673 -0.0030  0.0659  0.0923
 6759SOL    HW131913   4.237   0.416   8.708 -1.2976 -1.9777  1.8067
 6759SOL    HW231914   4.237   0.282   8.636  1.2907 -0.2245 -1.4243
 6760SOL     OW31915   1.264   2.109   6.855  0.4128 -0.5545 -0.5654
 6760SOL    HW131916   1.275   2.196   6.892 -2.2919  1.0525 -3.5777
 6760SOL    HW231917   1.179   2.086   6.891 -0.1382 -1.9078 -2.7356
 6761SOL     OW31918   2.841   4.371   6.936  0.4077  0.3353  0.0514
 6761SOL    HW131919   2.790   4.448   6.960  0.0715  0.2430 -0.3702
 6761SOL    HW231920   2.814   4.306   7.001 -0.0605  0.5289  0.0481
 6762SOL     OW31921   3.604   1.578  14.831  0.4727  0.4590 -0.0813
 6762SOL    HW131922   3.584   1.508  14.769 -0.4671  1.8966 -1.3999
 6762SOL    HW231923   3.635   1.524  14.904  0.1380 -0.7092 -0.8152
 6763SOL     OW31924   3.716   2.766   0.426 -0.4752 -0.6934 -0.0175
 6763SOL    HW131925   3.693   2.859   0.422 -1.0933 -0.8957 -1.0872
 6763SOL    HW231926   3.793   2.763   0.482 -0.0242 -3.2603 -0.7972
 6764SOL     OW31927   4.155   3.613   5.372  0.3174 -0.4155  0.0298
 6764SOL    HW131928   4.165   3.594   5.278 -0.5411 -0.1019 -0.1209
 6764SOL    HW231929   4.078   3.563   5.398  0.8062 -1.5306 -0.6279
 6765SOL     OW31930   3.839   3.281   1.510  0.8025  0.0085 -0.1507
 6765SOL    HW131931   3.917   3.327   1.479  0.2940  0.3271 -0.9468
 6765SOL    HW231932   3.880   3.196   1.519  0.8066  0.0016 -0.2346
 6766SOL     OW31933   3.915   0.960   4.595  0.0859 -0.1842  0.4204
 6766SOL    HW131934   4.007   0.985   4.599 -0.4194  1.5507  1.1059
 6766SOL    HW231935   3.888   0.944   4.685 -2.1121  0.3817 -0.1440
 6767SOL     OW31936   3.085   2.837  11.385  0.3745 -0.3581  0.3889
 6767SOL    HW131937   3.047   2.901  11.445 -1.0272 -0.5058 -0.3241
 6767SOL    HW231938   3.139   2.898  11.334 -0.3379 -0.0995 -0.0544
 6768SOL     OW31939   1.928   3.679  10.599 -0.1095  0.4534 -0.8387
 6768SOL    HW131940   2.008   3.630  10.578 -1.6744 -3.1195  1.4365
 6768SOL    HW231941   1.953   3.771  10.604 -1.1566  0.7092 -0.2581
 6769SOL     OW31942   2.044   2.239   2.600 -0.6227 -0.4501  0.2408
 6769SOL    HW131943   1.964   2.188   2.597 -0.6484 -0.1989 -2.7299
 6769SOL    HW231944   2.014   2.307   2.540 -1.3148 -0.6192  0.3975
 6770SOL     OW31945   1.874   0.373  13.745  0.6836 -1.0628 -0.5678
 6770SOL    HW131946   1.807   0.314  13.709 -2.3084  1.6579  0.5144
 6770SOL    HW231947   1.899   0.436  13.677  1.4053 -0.6124  0.1211
 6771SOL     OW31948   0.419   1.636   6.873 -0.0919 -0.7896 -0.5640
 6771SOL    HW131949   0.392   1.546   6.856 -2.1530 -0.2994  0.1118
 6771SOL    HW231950   0.512   1.616   6.883 -0.1581 -0.5670  0.5615
 6772SOL     OW31951   1.820   2.930   6.809 -0.4837  0.0247  0.4790
 6772SOL    HW131952   1.815   2.837   6.830 -0.8812  0.6933  3.3324
 6772SOL    HW231953   1.749   2.969   6.859 -0.1098  1.1736  0.1141
 6773SOL     OW31954   2.045   4.389  16.619  0.5742  0.1763  0.6361
 6773SOL    HW131955   1.995   4.470  16.603 -0.1748 -0.4012  0.0549
 6773SOL    HW231956   1.974   4.326  16.634  0.9229 -0.0690  1.2398
 6774SOL     OW31957   4.582   1.541   7.538 -0.0956  0.1276 -0.1326
 6774SOL    HW131958   4.514   1.554   7.473  1.4496 -1.4417 -2.0328
 6774SOL    HW231959   4.643   1.488   7.486 -0.3096 -2.3835  2.1416
 6775SOL     OW31960   2.025   0.597   4.801  0.1573  0.2334 -0.3494
 6775SOL    HW131961   2.009   0.658   4.729  0.5339  0.4302 -0.2621
 6775SOL    HW231962   2.107   0.630   4.836 -0.3370  2.0076 -0.8431
 6776SOL     OW31963   1.914   3.167  14.135 -0.4633 -0.0643  0.6131
 6776SOL    HW131964   1.944   3.231  14.070 -0.2375 -0.0265  0.7537
 6776SOL    HW231965   1.972   3.192  14.207 -1.0482 -0.6791  1.3003
 6777SOL     OW31966   4.633   2.538  14.448  0.4865  0.3056  0.2926
 6777SOL    HW131967   4.664   2.624  14.476 -0.5463  1.5602 -2.4038
 6777SOL    HW231968   4.712   2.485  14.457 -1.0211 -1.6840  1.8852
 6778SOL     OW31969   4.221   1.437   0.068 -0.2243  0.4499  0.1478
 6778SOL    HW131970   4.269   1.519   0.077 -0.7495  0.9765 -1.9024
 6778SOL    HW231971   4.199   1.423   0.161 -0.2136 -1.6506 -0.1517
 6779SOL     OW31972   3.315   3.558  16.984  0.1195  0.1841 -0.2474
 6779SOL    HW131973   3.336   3.477  16.938  1.4437 -0.5112  1.5761
 6779SOL    HW231974   3.404   3.585  17.008  0.6040 -0.4285 -1.3631
 6780SOL     OW31975   2.623   2.551   8.471 -0.1806 -0.4997  0.0127
 6780SOL    HW131976   2.542   2.581   8.513  1.7388 -0.5524  3.7343
 6780SOL    HW231977   2.588   2.517   8.389 -1.7781 -1.7211  1.2178
 6781SOL     OW31978   3.094   2.595   2.408  0.3070 -0.6874 -0.1148
 6781SOL    HW131979   3.129   2.508   2.396  0.2399 -0.7129 -0.1284
 6781SOL    HW231980   3.015   2.576   2.358  0.4771 -1.0278 -0.2490
 6782SOL     OW31981   0.196   4.387   8.803 -0.0434  0.5149  0.0796
 6782SOL    HW131982   0.210   4.314   8.743  1.8977  1.2518 -0.3837
 6782SOL    HW231983   0.138   4.439   8.747 -3.5898 -0.0546  3.2985
 6783SOL     OW31984   3.630   1.248   1.103  0.1465 -0.1077 -0.1142
 6783SOL    HW131985   3.611   1.274   1.013 -2.2320  1.2679  0.7607
 6783SOL    HW231986   3.684   1.319   1.137  1.2217 -0.5262 -0.9457
 6784SOL     OW31987   1.059   0.966   5.291  0.6469 -0.0142 -0.0744
 6784SOL    HW131988   1.045   1.058   5.272 -1.5578 -0.2074  0.6315
 6784SOL    HW231989   0.996   0.918   5.236  1.4314 -1.1385  0.0107
 6785SOL     OW31990   3.773   0.602   0.936  0.0148 -0.1764 -0.0498
 6785SOL    HW131991   3.761   0.687   0.893 -0.3635  0.0402  0.4789
 6785SOL    HW231992   3.866   0.584   0.928  0.4273  1.4449  1.0213
 6786SOL     OW31993   1.747   2.832   6.228 -0.4929 -0.1691  0.3509
 6786SOL    HW131994   1.835   2.845   6.193 -0.5602 -0.6624 -0.0163
 6786SOL    HW231995   1.750   2.744   6.267  2.1038 -0.0619  0.3890
 6787SOL     OW31996   4.194   3.098   3.986  0.4998 -0.6419  0.1522
 6787SOL    HW131997   4.230   3.127   3.903 -0.9266 -2.0561 -0.9701
 6787SOL    HW231998   4.256   3.040   4.031  1.6108  1.6267  1.5811
 6788SOL     OW31999   1.322   1.953  13.162 -0.1555  0.0889  0.1674
 6788SOL    HW132000   1.412   1.970  13.135  0.2464  1.7557  2.5709
 6788SOL    HW232001   1.323   1.956  13.258  0.4338 -0.6312  0.1896
 6789SOL     OW32002   2.137   2.911   2.597  0.2151  0.1690  0.3077
 6789SOL    HW132003   2.156   2.844   2.663 -1.2889  1.6592  2.2588
 6789SOL    HW232004   2.172   2.990   2.637  1.8338  0.2871 -1.3653
 6790SOL     OW32005   3.709   4.539   6.968  0.1343 -0.5618  0.3886
 6790SOL    HW132006   3.621   4.539   7.005  0.3532  2.8430  0.9581
 6790SOL    HW232007   3.758   4.502   7.042 -4.2587  1.5398  4.3492
 6791SOL     OW32008   3.994   1.625   6.488  0.2581  0.8485 -0.1462
 6791SOL    HW132009   4.087   1.604   6.484  0.7328  2.5590  2.2847
 6791SOL    HW232010   3.995   1.709   6.532 -0.0826 -0.2696  2.0051
 6792SOL     OW32011   2.712   0.564   4.327 -0.1887  0.3595 -0.6634
 6792SOL    HW132012   2.802   0.565   4.296 -0.3283  1.6313 -1.0162
 6792SOL    HW232013   2.701   0.469   4.337 -0.1802  0.3025 -1.1519
 6793SOL     OW32014   2.616   0.694  12.410 -0.0663  0.3439  0.4573
 6793SOL    HW132015   2.634   0.605  12.439  0.0602  0.5823  1.1055
 6793SOL    HW232016   2.691   0.747  12.438 -1.4340  2.2064  0.6167
 6794SOL     OW32017   2.148   4.585   7.698 -0.9256 -0.0492  0.1792
 6794SOL    HW132018   2.073   4.643   7.689  0.2082  1.6286  1.4876
 6794SOL    HW232019   2.217   4.650   7.714 -1.2100  0.0495  1.0219
 6795SOL     OW32020   1.151   3.498   6.246 -0.0269 -0.3909 -0.0529
 6795SOL    HW132021   1.204   3.433   6.291 -2.3381 -1.7963  0.6127
 6795SOL    HW232022   1.104   3.436   6.189  0.4216 -1.2136  0.4872
 6796SOL     OW32023   2.522   3.346   7.720 -0.0054  0.0175  0.3903
 6796SOL    HW132024   2.555   3.428   7.683  0.5104 -1.1607 -1.7531
 6796SOL    HW232025   2.483   3.380   7.801 -1.4650  1.0911 -0.7607
 6797SOL     OW32026   4.549   4.487   4.757 -0.5297  0.7831  0.4362
 6797SOL    HW132027   4.567   4.491   4.663  5.7969 -2.8185  1.5231
 6797SOL    HW232028   4.468   4.435   4.757 -0.7364  1.1150  1.1308
 6798SOL     OW32029   1.343   2.245  16.768  0.0872  0.4253  0.2650
 6798SOL    HW132030   1.269   2.223  16.825  0.7692 -0.4443  0.8115
 6798SOL    HW232031   1.378   2.161  16.741  0.8333  1.3404 -1.5842
 6799SOL     OW32032   0.329   3.157   1.770  0.1314  0.5362 -0.1192
 6799SOL    HW132033   0.316   3.075   1.722 -0.7512  1.2318 -1.0511
 6799SOL    HW232034   0.240   3.163   1.804 -0.0441  0.2020 -0.5252
 6800SOL     OW32035   3.630   1.726   8.322 -0.0637 -0.0157 -0.2009
 6800SOL    HW132036   3.712   1.698   8.281 -0.8016 -1.9577 -0.3284
 6800SOL    HW232037   3.660   1.777   8.397  2.3651  1.0046 -1.8543
 6801SOL     OW32038   3.654   0.164   5.794 -0.2586  0.4962  0.0320
 6801SOL    HW132039   3.594   0.099   5.831  0.6965 -0.6191 -0.4021
 6801SOL    HW232040   3.723   0.159   5.859  0.6535 -1.9898 -1.1450
 6802SOL     OW32041   4.199   3.892   9.639 -0.8407  0.7177  0.5624
 6802SOL    HW132042   4.138   3.964   9.656  0.6342  2.1477 -0.1985
 6802SOL    HW232043   4.270   3.932   9.691  0.5401 -0.6008 -0.3085
 6803SOL     OW32044   4.025   2.131   4.824 -0.2344  0.3822 -0.1671
 6803SOL    HW132045   3.979   2.072   4.765 -0.6355 -0.2913  0.8174
 6803SOL    HW232046   4.114   2.115   4.793  0.9810  1.1471  2.9234
 6804SOL     OW32047   0.085   3.549   4.556  0.4543 -0.5330 -0.4044
 6804SOL    HW132048   0.134   3.484   4.606  2.6746  0.4371 -1.2804
 6804SOL    HW232049   0.038   3.489   4.498 -1.7621 -0.2960  1.1648
 6805SOL     OW32050   1.470   0.092   3.439 -0.2829  0.0988  0.2646
 6805SOL    HW132051   1.383   0.054   3.437  0.1330 -0.7012 -2.0724
 6805SOL    HW232052   1.487   0.074   3.532 -0.8679 -0.1545  0.3230
 6806SOL     OW32053   4.332   1.142   6.720  0.0529  0.3356 -0.0895
 6806SOL    HW132054   4.296   1.131   6.808 -1.4671  2.1044 -0.4898
 6806SOL    HW232055   4.425   1.148   6.742 -0.1021  1.6645  0.2116
 6807SOL     OW32056   3.113   3.717   3.657 -0.4672 -0.3446  0.1140
 6807SOL    HW132057   3.155   3.794   3.696 -0.2480  0.3254 -1.4344
 6807SOL    HW232058   3.197   3.685   3.624  0.7972  2.3874  0.6498
 6808SOL     OW32059   3.986   4.733   3.390  0.7219  0.5507 -0.3899
 6808SOL    HW132060   4.023   4.647   3.410  2.7076  1.0638 -1.8863
 6808SOL    HW232061   4.061   0.032   3.342  1.3867  0.2935  0.4632
 6809SOL     OW32062   2.273   4.519   6.392 -0.4809  0.0214  0.2693
 6809SOL    HW132063   2.273   4.474   6.307 -0.3764  0.2764  0.1349
 6809SOL    HW232064   2.242   4.452   6.453 -1.3057 -0.4940 -0.7067
 6810SOL     OW32065   3.714   4.650  12.872  0.8434 -0.4495  0.0735
 6810SOL    HW132066   3.651   4.665  12.943 -0.9398  1.2090 -1.8823
 6810SOL    HW232067   3.721   4.729  12.819  1.9492 -0.0838  0.7666
 6811SOL     OW32068   3.716   4.474  10.445  0.2067 -0.1642 -0.4422
 6811SOL    HW132069   3.636   4.526  10.448  1.6134  1.8581  1.0457
 6811SOL    HW232070   3.716   4.422  10.525  0.0219 -2.0423 -1.6378
 6812SOL     OW32071   4.383   4.302   6.684 -0.0656  0.2812 -0.5493
 6812SOL    HW132072   4.427   4.292   6.768 -0.8790 -2.5390 -0.4625
 6812SOL    HW232073   4.298   4.273   6.718  0.5206 -1.7282 -0.7975
 6813SOL     OW32074   3.955   2.205   7.854  0.2766 -0.0595 -0.3570
 6813SOL    HW132075   3.902   2.277   7.819  0.2011  0.1412  0.1763
 6813SOL    HW232076   3.919   2.129   7.808 -0.4219  0.1958 -0.2416
 6814SOL     OW32077   1.885   3.140  13.225 -0.3423 -0.0916 -0.3417
 6814SOL    HW132078   1.808   3.127  13.170 -1.1978 -1.5909  1.2359
 6814SOL    HW232079   1.844   3.145  13.312 -1.3587  0.4755 -0.8576
 6815SOL     OW32080   3.039   4.735   2.290 -0.9912 -0.3754 -0.0828
 6815SOL    HW132081   3.031   4.659   2.232  1.4070 -1.0800  0.5158
 6815SOL    HW232082   2.966   4.716   2.348 -1.0718  0.4670  0.0904
 6816SOL     OW32083   2.652   1.089   1.941 -0.1539 -0.3192 -0.2536
 6816SOL    HW132084   2.608   1.019   1.893 -4.0351  1.8538  0.1186
 6816SOL    HW232085   2.738   1.085   1.900 -1.0690  2.7641 -2.4791
 6817SOL     OW32086   0.069   4.416   4.853 -0.6419 -0.5823  0.6750
 6817SOL    HW132087   0.117   4.488   4.813  1.3686 -2.3361 -0.0864
 6817SOL    HW232088   4.714   4.447   4.844 -0.9025 -0.9141  2.1636
 6818SOL     OW32089   2.446   0.688   1.221  0.0052  0.4279  0.1331
 6818SOL    HW132090   2.451   0.600   1.184  1.2435 -0.0991  1.5743
 6818SOL    HW232091   2.358   0.711   1.190  0.0550  0.6401  0.1503
 6819SOL     OW32092   2.161   0.565   3.298  0.5284  0.2825  0.0207
 6819SOL    HW132093   2.096   0.628   3.328 -0.3087 -1.1996  1.3187
 6819SOL    HW232094   2.238   0.621   3.309  0.6282 -0.1928  1.7670
 6820SOL     OW32095   4.582   1.583  16.889 -0.3075  0.8321  0.4209
 6820SOL    HW132096   4.639   1.659  16.884  0.4329  0.2946  0.6151
 6820SOL    HW232097   4.520   1.609  16.957 -1.1200  0.4090 -0.1577
 6821SOL     OW32098   1.470   3.797   8.504 -0.8626  0.1774  0.3206
 6821SOL    HW132099   1.532   3.732   8.538 -1.8093  0.1077  1.9273
 6821SOL    HW232100   1.400   3.767   8.561 -2.2137  2.6808 -0.0383
 6822SOL     OW32101   2.299   3.987   7.560  0.0070  0.1364 -0.0929
 6822SOL    HW132102   2.320   4.002   7.467 -0.4174  1.2898  0.0012
 6822SOL    HW232103   2.330   3.898   7.575  1.9956  0.4732 -2.2446
 6823SOL     OW32104   3.573   2.457   3.790 -1.0043 -0.4754  0.9474
 6823SOL    HW132105   3.551   2.475   3.882 -0.6294  0.6246  0.8248
 6823SOL    HW232106   3.520   2.380   3.773  0.3253 -0.8787 -1.3157
 6824SOL     OW32107   4.054   3.340   2.272  1.0364 -0.1845 -0.1155
 6824SOL    HW132108   4.085   3.286   2.344  2.4191 -0.4413 -0.9145
 6824SOL    HW232109   3.966   3.304   2.261  0.5014  1.0424  0.0628
 6825SOL     OW32110   0.480   4.029   0.349 -0.0569 -0.2296 -0.1450
 6825SOL    HW132111   0.548   4.092   0.372  1.0802 -1.9867  1.1819
 6825SOL    HW232112   0.536   3.962   0.310  1.4004  1.7238 -1.4346
 6826SOL     OW32113   4.561   1.383   6.232  0.4337  0.0427 -0.0663
 6826SOL    HW132114   4.505   1.308   6.216 -0.3624  0.9665 -1.5642
 6826SOL    HW232115   4.642   1.340   6.205 -0.1462  0.1311 -1.9299
 6827SOL     OW32116   0.438   0.263   5.102 -0.7911 -0.4242  0.3044
 6827SOL    HW132117   0.454   0.329   5.170 -1.5897 -0.0238  0.1013
 6827SOL    HW232118   0.414   0.312   5.023  0.4131 -2.0945 -1.0995
 6828SOL     OW32119   2.598   0.664  11.571  0.1527 -0.3134  0.1668
 6828SOL    HW132120   2.573   0.629  11.486  0.6190 -2.4322  0.9163
 6828SOL    HW232121   2.518   0.641  11.619  1.6621 -1.3491  2.1935
 6829SOL     OW32122   2.644   4.216  13.269 -0.2135  0.1362 -0.0401
 6829SOL    HW132123   2.623   4.297  13.222 -2.9592  0.5729  1.8816
 6829SOL    HW232124   2.556   4.179  13.264 -0.2885  0.2885  0.1542
 6830SOL     OW32125   0.666   3.006   2.550 -0.1988  0.2953 -0.4702
 6830SOL    HW132126   0.669   2.931   2.609 -2.9743 -0.4542 -1.2694
 6830SOL    HW232127   0.729   2.980   2.483 -1.6360  1.8507 -2.4377
 6831SOL     OW32128   3.761   0.221   4.190  0.5263 -0.2383 -0.5982
 6831SOL    HW132129   3.803   0.213   4.105  1.0767 -0.6349 -0.2873
 6831SOL    HW232130   3.712   0.303   4.180 -0.5497 -0.8083 -0.0263
 6832SOL     OW32131   0.625   0.147   4.609  0.1795  0.3516 -0.7554
 6832SOL    HW132132   0.646   0.229   4.654 -0.2600 -0.6970  1.3876
 6832SOL    HW232133   0.595   0.183   4.526 -1.0898 -1.0420 -0.9008
 6833SOL     OW32134   4.616   2.539   8.437  0.5330 -0.2052  0.5495
 6833SOL    HW132135   4.620   2.531   8.342  3.2335 -4.1018  0.9841
 6833SOL    HW232136   4.550   2.471   8.449 -1.8003  1.7635 -1.0350
 6834SOL     OW32137   4.360   0.913  10.141 -0.1533  0.0375 -0.5963
 6834SOL    HW132138   4.366   0.823  10.109 -1.4066 -0.3774  0.3333
 6834SOL    HW232139   4.406   0.906  10.225  0.5093  0.8773 -0.8827
 6835SOL     OW32140   4.528   1.055   9.890  0.1973  0.4940 -0.2271
 6835SOL    HW132141   4.473   1.056   9.968  0.4117  0.0820 -0.0718
 6835SOL    HW232142   4.595   0.994   9.919  0.7419  0.9726 -0.4744
 6836SOL     OW32143   0.264   2.213   5.133 -0.5155  0.2847  0.2392
 6836SOL    HW132144   0.304   2.130   5.160  0.8056  0.6688 -0.5395
 6836SOL    HW232145   0.244   2.249   5.219 -0.8001  0.0453  0.2758
 6837SOL     OW32146   3.196   2.854   5.685 -0.1111  0.0647  0.5269
 6837SOL    HW132147   3.131   2.795   5.648 -1.0908  1.4845 -0.0081
 6837SOL    HW232148   3.183   2.932   5.631 -1.6706 -1.3014 -1.0729
 6838SOL     OW32149   4.510   0.822   1.424 -0.1333 -0.1253  0.1729
 6838SOL    HW132150   4.571   0.895   1.435 -1.4057  1.4716 -3.4984
 6838SOL    HW232151   4.426   0.867   1.420  0.8814  1.6975 -0.8219
 6839SOL     OW32152   3.248   4.264   9.940 -0.0553 -0.1420 -0.6533
 6839SOL    HW132153   3.307   4.312   9.881  0.0165  1.8189  1.0090
 6839SOL    HW232154   3.184   4.228   9.878  0.6787  1.1555 -2.1637
 6840SOL     OW32155   0.221   2.893  11.542  0.1066  0.3664  0.0657
 6840SOL    HW132156   0.170   2.938  11.475  1.4095  1.7102 -0.0190
 6840SOL    HW232157   0.181   2.806  11.534 -1.1721  0.9740 -0.0269
 6841SOL     OW32158   0.581   4.728  14.569  0.6278  0.0911  0.2079
 6841SOL    HW132159   0.657   4.709  14.514  0.4633 -0.3970  0.1495
 6841SOL    HW232160   0.615   0.044  14.643  0.7683 -1.5203  1.2558
 6842SOL     OW32161   2.814   3.010   2.892 -0.2354  0.1419 -0.0701
 6842SOL    HW132162   2.796   2.962   2.973 -3.6658  1.6373  0.0542
 6842SOL    HW232163   2.736   3.066   2.890 -0.1744  0.1784 -1.3943
 6843SOL     OW32164   1.910   2.443   5.082  0.3929  0.7200 -0.2372
 6843SOL    HW132165   1.954   2.368   5.121  0.3582  0.6310 -0.3654
 6843SOL    HW232166   1.984   2.503   5.088  0.2636  0.7636  0.8125
 6844SOL     OW32167   4.625   3.802   7.184 -0.3658  0.2533  0.6434
 6844SOL    HW132168   4.569   3.855   7.240 -0.8658 -1.9655  2.2458
 6844SOL    HW232169   4.683   3.770   7.253 -1.1543 -1.0768  0.6960
 6845SOL     OW32170   0.033   4.451   9.615 -0.3178 -0.2725  0.7165
 6845SOL    HW132171   4.718   4.429   9.537 -0.4995  0.1156  0.7214
 6845SOL    HW232172   0.070   4.364   9.631 -0.1892 -0.1963  0.8349
 6846SOL     OW32173   2.516   4.140  10.731 -0.0623 -0.1803 -0.0060
 6846SOL    HW132174   2.585   4.194  10.691  1.6640 -3.0855 -0.9356
 6846SOL    HW232175   2.530   4.155  10.825 -2.5892  0.6492  0.2431
 6847SOL     OW32176   2.789   0.416   1.566 -0.0276 -0.1453  1.0405
 6847SOL    HW132177   2.846   0.488   1.590  0.2990 -0.5234  1.4004
 6847SOL    HW232178   2.712   0.454   1.608 -0.7166 -0.0690 -0.2674
 6848SOL     OW32179   2.821   1.542   9.383  0.6445  0.3999  0.1011
 6848SOL    HW132180   2.790   1.537   9.474 -0.5892 -1.1275 -0.3962
 6848SOL    HW232181   2.746   1.515   9.330 -0.1343 -1.3567  2.0749
 6849SOL     OW32182   3.731   1.851   4.844 -0.4087  0.4316 -0.5123
 6849SOL    HW132183   3.751   1.937   4.807 -1.8351  1.4250  1.0165
 6849SOL    HW232184   3.806   1.836   4.902  0.5503  0.7681 -1.6772
 6850SOL     OW32185   2.899   0.138   3.912  0.3854  0.4389  0.4223
 6850SOL    HW132186   2.891   0.171   3.823  2.1641  0.4029  0.2448
 6850SOL    HW232187   2.978   0.185   3.937  0.1754  1.3999 -0.7191
 6851SOL     OW32188   3.762   1.688   6.332 -0.5445  0.2171  0.0848
 6851SOL    HW132189   3.849   1.651   6.348 -0.1450  2.0511  2.1980
 6851SOL    HW232190   3.706   1.638   6.392 -1.2421 -0.4339 -1.1154
 6852SOL     OW32191   3.550   1.878  11.933  0.1750  0.6801 -0.7068
 6852SOL    HW132192   3.485   1.817  11.968  0.4236  0.7240 -0.1631
 6852SOL    HW232193   3.627   1.827  11.910 -1.6235 -1.9390 -0.9293
 6853SOL     OW32194   0.104   1.201   1.368 -0.1935 -0.6253 -0.2538
 6853SOL    HW132195   0.173   1.266   1.378 -0.7812 -0.0067 -0.2118
 6853SOL    HW232196   0.085   1.199   1.275 -2.1362 -0.0613  0.1217
 6854SOL     OW32197   0.194   0.111   0.886  0.2096 -0.1456 -0.0891
 6854SOL    HW132198   0.210   0.027   0.929 -3.9472 -1.0795 -0.4362
 6854SOL    HW232199   0.100   0.125   0.895  0.9830  2.9494  3.2716
 6855SOL     OW32200   3.316   3.533   3.616 -0.5468  0.1605  0.4721
 6855SOL    HW132201   3.410   3.544   3.606 -0.5331 -1.2477 -0.8721
 6855SOL    HW232202   3.316   3.509   3.709  0.2872 -0.2255  0.3638
 6856SOL     OW32203   0.812   1.551   2.116  0.6012 -0.3594 -0.5680
 6856SOL    HW132204   0.752   1.624   2.130  1.2129  0.1168 -0.4402
 6856SOL    HW232205   0.751   1.480   2.135  1.3770 -0.7746  0.3954
 6857SOL     OW32206   2.847   0.140  13.947 -0.6053  1.0527  0.4259
 6857SOL    HW132207   2.893   0.105  13.872 -0.5630  0.3367  0.7850
 6857SOL    HW232208   2.923   0.141  14.005 -0.7150 -1.3202  0.6125
 6858SOL     OW32209   2.691   1.329   2.091  0.5939 -0.1186 -0.3277
 6858SOL    HW132210   2.638   1.379   2.029 -2.8300  0.3693  3.0552
 6858SOL    HW232211   2.680   1.241   2.057  0.0022  0.4820 -1.6921
 6859SOL     OW32212   2.773   3.410   1.645  0.1840 -0.4273  0.0190
 6859SOL    HW132213   2.786   3.422   1.551 -2.8640  1.7392 -0.1131
 6859SOL    HW232214   2.813   3.493   1.670  2.2706 -1.3039 -0.3227
 6860SOL     OW32215   1.095   1.325   7.664 -0.0256 -0.4879 -0.3571
 6860SOL    HW132216   1.180   1.285   7.646  0.2140 -1.0151  1.9751
 6860SOL    HW232217   1.125   1.410   7.699  2.6154 -2.1601  1.4659
 6861SOL     OW32218   2.267   1.122   7.166  0.5449 -0.1785 -0.3992
 6861SOL    HW132219   2.269   1.058   7.094 -0.3176 -0.5650 -0.0851
 6861SOL    HW232220   2.347   1.094   7.212  1.1500  0.2030 -1.2224
 6862SOL     OW32221   0.289   0.034   5.198  0.3729  0.0981  0.0852
 6862SOL    HW132222   0.336   0.110   5.164  0.3229 -1.2056 -2.9754
 6862SOL    HW232223   0.309   4.690   5.146  0.5693 -0.0045  0.3141
 6863SOL     OW32224   4.603   0.766  14.542  0.2679  0.0836  0.1578
 6863SOL    HW132225   4.568   0.774  14.631  2.0136  0.9466  0.7636
 6863SOL    HW232226   4.685   0.815  14.548  0.9747 -0.4665 -5.3445
 6864SOL     OW32227   3.322   4.615   1.564  0.1045 -0.2661  0.1847
 6864SOL    HW132228   3.340   4.562   1.486  1.1838  1.2293 -0.5912
 6864SOL    HW232229   3.370   4.697   1.552  2.7560 -1.7332  0.6566
 6865SOL     OW32230   4.511   0.691  16.846  0.0729 -0.3601 -0.4156
 6865SOL    HW132231   4.581   0.641  16.888 -0.8282 -0.3075  1.1631
 6865SOL    HW232232   4.548   0.778  16.830 -1.7022  0.7275  1.4172
 6866SOL     OW32233   1.215   2.433  17.586 -0.0410 -0.0086 -0.3827
 6866SOL    HW132234   1.143   2.492  17.609 -1.4204 -2.3057  1.1212
 6866SOL    HW232235   1.217   2.366  17.654 -0.9844  0.0767 -0.2668
 6867SOL     OW32236   2.694   3.576  14.938 -0.3185  0.0831 -0.2416
 6867SOL    HW132237   2.636   3.507  14.908  0.2922  0.0863 -1.4208
 6867SOL    HW232238   2.743   3.540  15.012  0.9110  2.1051 -0.0726
 6868SOL     OW32239   4.477   3.948  17.084 -0.6510  0.6272  0.1797
 6868SOL    HW132240   4.491   4.038  17.113  1.0973  0.2964  0.3223
 6868SOL    HW232241   4.558   3.920  17.041 -0.9645 -1.4264  0.8848
 6869SOL     OW32242   0.684   4.729  15.792 -0.4335  0.4484  0.2241
 6869SOL    HW132243   0.735   0.058  15.742  2.1611 -1.2668  0.7215
 6869SOL    HW232244   0.755   4.689  15.842  0.0336 -1.0772 -1.6217
 6870SOL     OW32245   3.112   1.628   4.328 -0.1006 -0.0255 -0.5062
 6870SOL    HW132246   3.039   1.578   4.366  0.8426  0.9376  2.5918
 6870SOL    HW232247   3.080   1.718   4.330 -0.3777 -0.1260 -0.4186
 6871SOL     OW32248   3.851   3.280  17.127 -0.4082  0.3637  0.0116
 6871SOL    HW132249   3.865   3.198  17.080  2.2257 -0.5373  2.4123
 6871SOL    HW232250   3.757   3.284  17.148 -0.5559 -1.9973 -0.2586
 6872SOL     OW32251   3.242   1.015   3.774  0.0588  0.0913  0.4727
 6872SOL    HW132252   3.303   0.983   3.839 -0.6356 -1.0953  0.5379
 6872SOL    HW232253   3.301   1.031   3.700  0.7954  1.4517  1.3409
 6873SOL     OW32254   0.176   2.166   4.596 -0.0032 -0.2757  0.7445
 6873SOL    HW132255   0.082   2.181   4.601  0.3234  2.2067 -0.9726
 6873SOL    HW232256   0.203   2.183   4.686 -0.9388 -0.1967  1.0034
 6874SOL     OW32257   0.256   4.662   7.333 -0.9189  0.2001  0.0241
 6874SOL    HW132258   0.258   4.726   7.404 -0.1673 -0.4152  0.5618
 6874SOL    HW232259   0.164   4.639   7.343  0.0630 -2.3192  3.1988
 6875SOL     OW32260   4.727   1.046  15.169 -0.6195 -0.1722  0.1611
 6875SOL    HW132261   0.034   1.131  15.157  0.2034 -0.7690 -1.2321
 6875SOL    HW232262   0.066   1.006  15.214 -1.9105 -0.4526  2.0423
 6876SOL     OW32263   3.325   3.800  10.701 -0.6128  0.0954  0.1022
 6876SOL    HW132264   3.353   3.808  10.792  2.1304 -0.1039 -0.7448
 6876SOL    HW232265   3.389   3.746  10.656  0.2545  0.7789  0.5290
 6877SOL     OW32266   0.881   4.634   4.962  0.4963 -0.2161 -0.4342
 6877SOL    HW132267   0.969   4.667   4.947  1.6197 -2.8308  0.4672
 6877SOL    HW232268   0.837   4.697   5.019 -1.0905  0.2286 -2.1611
 6878SOL     OW32269   2.925   3.662   1.959  0.1386 -0.0405  0.1404
 6878SOL    HW132270   2.972   3.735   2.000  0.9901 -0.9632  0.7801
 6878SOL    HW232271   2.992   3.594   1.956  1.5432  1.3320  0.4669
 6879SOL     OW32272   2.981   3.377   8.483  0.3234 -0.1021  0.3606
 6879SOL    HW132273   3.021   3.460   8.458 -0.5104  0.3519  0.5081
 6879SOL    HW232274   3.053   3.344   8.536  1.3208  0.9800 -0.3156
 6880SOL     OW32275   0.551   0.242   4.356 -0.3835  0.5377 -0.2285
 6880SOL    HW132276   0.509   0.194   4.286  0.4131  1.6514 -1.4637
 6880SOL    HW232277   0.536   0.336   4.344  3.5053  0.9864 -1.5361
 6881SOL     OW32278   0.575   4.385   4.785  0.3927  0.0438 -0.1720
 6881SOL    HW132279   0.491   4.355   4.750  0.7295 -1.8216  0.6587
 6881SOL    HW232280   0.581   4.478   4.761  0.6038 -0.2096 -1.1017
 6882SOL     OW32281   0.353   4.389   6.238  0.3755 -0.2267 -0.3914
 6882SOL    HW132282   0.344   4.342   6.155  0.3252 -0.3817 -0.2998
 6882SOL    HW232283   0.303   4.469   6.221  2.8079  0.8870 -2.2965
 6883SOL     OW32284   3.841   1.395  17.709 -0.3301 -0.5545 -0.6062
 6883SOL    HW132285   3.790   1.315  17.699 -3.4792  1.3817  0.1753
 6883SOL    HW232286   3.795   1.437   0.043  0.7766 -1.6895  0.7789
 6884SOL     OW32287   2.716   3.398   5.368  0.0369  0.0396  0.1696
 6884SOL    HW132288   2.706   3.481   5.320  1.9527 -0.2194 -0.6790
 6884SOL    HW232289   2.628   3.361   5.357  0.3091 -0.5171 -0.1544
 6885SOL     OW32290   4.533   3.660   6.211 -0.1820 -1.0799  0.0481
 6885SOL    HW132291   4.504   3.748   6.237 -0.8248 -1.2585 -0.0513
 6885SOL    HW232292   4.535   3.664   6.115  1.3395 -0.9028  0.0869
 6886SOL     OW32293   0.339   1.014  14.667  0.1796  0.2511  0.2523
 6886SOL    HW132294   0.416   1.067  14.687  2.7089 -3.9220  1.6230
 6886SOL    HW232295   0.288   1.033  14.746 -0.5300  2.1927 -0.6782
 6887SOL     OW32296   4.456   2.461   2.428  0.1445 -0.1516  0.1293
 6887SOL    HW132297   4.385   2.407   2.463 -0.5461  0.3141 -0.5603
 6887SOL    HW232298   4.400   2.514   2.371 -0.9082 -1.8260 -0.4121
 6888SOL     OW32299   2.468   2.808   6.622  0.2460  0.1190 -0.4206
 6888SOL    HW132300   2.466   2.746   6.549  2.5797  1.3265 -1.5142
 6888SOL    HW232301   2.397   2.780   6.680 -0.1253 -1.7184 -1.7575
 6889SOL     OW32302   0.420   1.997   8.997 -0.2410  0.0148 -0.4286
 6889SOL    HW132303   0.457   1.952   9.073 -0.6808  1.2935  0.5477
 6889SOL    HW232304   0.480   2.071   9.007 -0.6716  0.2939  0.1175
 6890SOL     OW32305   4.331   3.975   1.856 -0.0673 -0.4568  0.2466
 6890SOL    HW132306   4.264   3.910   1.874  0.7493 -1.0283  1.2363
 6890SOL    HW232307   4.311   3.990   1.764 -0.0163  1.0018  0.4817
 6891SOL     OW32308   3.247   4.133  15.863 -0.0798 -0.1630  0.4763
 6891SOL    HW132309   3.227   4.174  15.779 -2.3465 -2.2619 -0.0249
 6891SOL    HW232310   3.330   4.089  15.846 -0.0334  0.2226 -0.2777
 6892SOL     OW32311   1.064   1.887   5.102 -0.4082  0.2542  0.0229
 6892SOL    HW132312   1.158   1.871   5.090 -0.4945 -0.2566  0.0430
 6892SOL    HW232313   1.032   1.798   5.090  0.6548 -0.2767  1.1100
 6893SOL     OW32314   3.104   4.520  13.218 -0.0188 -0.3587 -0.4972
 6893SOL    HW132315   3.169   4.580  13.254 -0.6668  0.5965 -0.9226
 6893SOL    HW232316   3.044   4.512  13.292 -1.1009 -1.0459 -1.4528
 6894SOL     OW32317   3.707   1.189   4.836  0.0735 -0.0706 -0.2817
 6894SOL    HW132318   3.784   1.240   4.810 -0.6845  0.5157 -1.4050
 6894SOL    HW232319   3.744   1.103   4.852  0.7533 -0.0453 -1.7132
 6895SOL     OW32320   0.315   3.585   7.699  0.5576  0.5265 -0.2945
 6895SOL    HW132321   0.224   3.605   7.722  0.1253 -4.1259  2.2125
 6895SOL    HW232322   0.314   3.495   7.733 -0.2127  0.7734  0.3391
 6896SOL     OW32323   3.156   2.553  10.711  0.3144 -0.1040 -0.1871
 6896SOL    HW132324   3.203   2.637  10.710  0.3201 -0.1300 -2.6253
 6896SOL    HW232325   3.069   2.581  10.684  0.4579 -1.1156 -1.7093
 6897SOL     OW32326   1.047   0.514   1.791 -1.0627  0.1630  0.2938
 6897SOL    HW132327   1.077   0.604   1.807 -1.7025  0.2812  0.8244
 6897SOL    HW232328   1.122   0.481   1.841 -1.0974  0.8540  0.8099
 6898SOL     OW32329   1.689   0.759   7.021  0.3182  0.4002 -0.2147
 6898SOL    HW132330   1.675   0.665   7.023  1.5858  0.2469  1.6415
 6898SOL    HW232331   1.676   0.781   7.113 -1.7043 -0.4631 -0.2973
 6899SOL     OW32332   0.171   0.014   1.147 -0.0962  0.0714  0.2379
 6899SOL    HW132333   0.255   4.708   1.166 -0.5982 -0.5345  1.1267
 6899SOL    HW232334   0.175   0.092   1.202  1.3901  0.2055 -0.0485
 6900SOL     OW32335   0.673   1.327   2.338  0.6514  0.1645  0.1281
 6900SOL    HW132336   0.583   1.344   2.365 -0.0419  0.0323 -2.0444
 6900SOL    HW232337   0.702   1.266   2.406 -0.9901  0.8938  1.4571
 6901SOL     OW32338   2.011   3.324   6.338  0.4602  0.1496  0.4485
 6901SOL    HW132339   1.999   3.232   6.312  1.4142 -0.2495  1.4282
 6901SOL    HW232340   2.075   3.319   6.409 -0.1767  0.4427  1.0425
 6902SOL     OW32341   1.350   2.840  10.361 -0.5241 -0.0251  0.2720
 6902SOL    HW132342   1.377   2.927  10.391  1.1187 -0.3257 -0.3089
 6902SOL    HW232343   1.430   2.804  10.324  0.0227  0.7249  0.7156
 6903SOL     OW32344   2.679   3.628   5.259 -0.5415 -0.0230  0.0644
 6903SOL    HW132345   2.601   3.677   5.286  0.7283  1.6406  0.6793
 6903SOL    HW232346   2.748   3.694   5.265 -2.2597  1.6841  1.1219
 6904SOL     OW32347   2.772   3.127   7.451  0.4824  0.1744  0.1323
 6904SOL    HW132348   2.760   3.165   7.538 -1.0678 -1.7358  0.7546
 6904SOL    HW232349   2.755   3.203   7.396 -0.6031  1.1706  1.8586
 6905SOL     OW32350   3.758   1.135   1.485  0.4478  0.1675 -0.3839
 6905SOL    HW132351   3.723   1.065   1.430  1.6366  1.5104 -2.8364
 6905SOL    HW232352   3.822   1.165   1.421  0.6335 -0.2140 -0.3799
 6906SOL     OW32353   1.551   1.653   5.390  0.0881  0.2304 -0.5952
 6906SOL    HW132354   1.617   1.718   5.415 -0.6372  1.5836 -2.1592
 6906SOL    HW232355   1.590   1.575   5.430 -0.9966  0.6123  1.2248
 6907SOL     OW32356   0.030   0.735   2.430 -0.0720  0.2210  0.2010
 6907SOL    HW132357   4.682   0.733   2.479 -0.0711  2.2187  0.2666
 6907SOL    HW232358   4.729   0.702   2.348 -0.8832  0.6443  0.3881
 6908SOL     OW32359   1.263   2.021   1.921 -0.3615 -0.1514 -0.6715
 6908SOL    HW132360   1.240   2.110   1.947 -0.6896 -0.2415 -0.6624
 6908SOL    HW232361   1.251   1.973   2.004  1.7691  0.7291  0.1476
 6909SOL     OW32362   2.555   1.107   5.601  0.9219  0.4268  0.6665
 6909SOL    HW132363   2.510   1.035   5.556  0.7466  1.4308 -0.7846
 6909SOL    HW232364   2.565   1.173   5.532 -0.5587  0.0712  0.0968
 6910SOL     OW32365   0.795   1.729   3.729 -0.4319 -0.0738 -0.2376
 6910SOL    HW132366   0.762   1.647   3.691  1.1573 -0.5563 -0.5524
 6910SOL    HW232367   0.885   1.704   3.748 -0.4764  0.4156  0.6087
 6911SOL     OW32368   0.406   3.177  10.119  0.4261  0.2203 -0.0486
 6911SOL    HW132369   0.489   3.155  10.077  1.5035 -1.6784  3.0967
 6911SOL    HW232370   0.435   3.233  10.192  1.9592 -0.9082  0.2109
 6912SOL     OW32371   4.598   4.666   8.783 -0.0779  0.4063  0.1136
 6912SOL    HW132372   4.518   4.706   8.749  1.1891  1.3636 -1.7472
 6912SOL    HW232373   4.649   4.693   8.707  0.1294 -0.3854 -0.0378
 6913SOL     OW32374   1.588   1.731   8.140  0.6859  0.1881 -0.4796
 6913SOL    HW132375   1.584   1.788   8.217 -2.1889 -1.0259  0.2640
 6913SOL    HW232376   1.621   1.649   8.178 -3.4689 -1.3847 -0.2658
 6914SOL     OW32377   4.001   3.124   3.674 -0.1099  0.1798 -0.2226
 6914SOL    HW132378   3.910   3.145   3.693 -0.5019 -0.7531 -1.1211
 6914SOL    HW232379   4.046   3.205   3.701  1.9641 -0.8186 -0.6631
 6915SOL     OW32380   3.783   4.287  16.909  0.1409 -0.0912 -0.0638
 6915SOL    HW132381   3.801   4.202  16.948 -0.8703 -0.2806 -0.0086
 6915SOL    HW232382   3.819   4.277  16.821 -2.3277 -1.6311 -0.8759
 6916SOL     OW32383   0.901   3.164   2.857  0.5482 -0.1608  0.1588
 6916SOL    HW132384   0.828   3.204   2.810  1.5443  0.0419 -1.2113
 6916SOL    HW232385   0.976   3.205   2.813  2.8124 -1.4722  2.7713
 6917SOL     OW32386   0.727   0.045   1.884  0.1940  0.2632 -0.0543
 6917SOL    HW132387   0.779   0.087   1.953  3.0623 -0.8444 -1.5198
 6917SOL    HW232388   0.655   0.015   1.938  1.2182  0.5939  1.5146
 6918SOL     OW32389   4.701   0.405   1.989  0.0194  0.5171  0.0462
 6918SOL    HW132390   0.036   0.448   1.939  2.1729 -2.5316  0.4630
 6918SOL    HW232391   4.642   0.382   1.917 -1.6229  2.0134  0.9315
 6919SOL     OW32392   1.466   4.494   6.255  0.0138  0.4911 -0.3394
 6919SOL    HW132393   1.456   4.403   6.230  1.4728 -0.1097  1.2225
 6919SOL    HW232394   1.380   4.535   6.242 -0.1435  0.6934  1.3411
 6920SOL     OW32395   0.709   1.904   2.707 -0.3760 -0.2586 -0.1976
 6920SOL    HW132396   0.784   1.909   2.767 -0.1744 -0.0803 -0.4649
 6920SOL    HW232397   0.635   1.891   2.766 -1.0968  1.7839 -0.6511
 6921SOL     OW32398   0.829   4.686   1.394 -0.1857  0.5164  0.5920
 6921SOL    HW132399   0.904   4.720   1.442  0.3347 -1.1544  0.9735
 6921SOL    HW232400   0.845   4.728   1.309  2.3526 -1.1061  0.2401
 6922SOL     OW32401   0.741   0.027   4.188  0.5758  0.1941 -0.3574
 6922SOL    HW132402   0.649   0.054   4.190  0.6598  0.4964 -0.5350
 6922SOL    HW232403   0.773   0.046   4.276 -3.3799  0.5745  1.0271
 6923SOL     OW32404   1.453   3.470   2.717 -0.0904 -0.0169 -0.5240
 6923SOL    HW132405   1.460   3.376   2.699  1.4052 -0.4330  2.1119
 6923SOL    HW232406   1.545   3.496   2.718 -0.8380  2.4804  2.7736
 6924SOL     OW32407   2.392   2.473   2.107 -0.4701  0.4801  0.1342
 6924SOL    HW132408   2.434   2.537   2.049 -1.2333  0.9629  0.1256
 6924SOL    HW232409   2.415   2.395   2.057 -0.4625  1.2205 -1.0378
 6925SOL     OW32410   3.806   2.659   1.503 -0.3757 -0.7278 -0.2235
 6925SOL    HW132411   3.772   2.670   1.592 -0.4841  0.8370 -0.4440
 6925SOL    HW232412   3.892   2.619   1.519 -0.6698 -1.1644  0.2551
 6926SOL     OW32413   1.460   0.150   0.950 -0.0051 -0.1921 -0.4487
 6926SOL    HW132414   1.383   0.171   0.896 -0.9091  1.5637  1.5254
 6926SOL    HW232415   1.462   0.054   0.953  0.6633 -0.1416  0.6107
 6927SOL     OW32416   2.222   0.818   3.532  0.0023  0.5396  0.0303
 6927SOL    HW132417   2.264   0.900   3.560  0.8085  1.3039 -3.3847
 6927SOL    HW232418   2.302   0.767   3.521 -0.5895  0.0696 -2.0082
 6928SOL     OW32419   1.578   1.806   3.393 -0.4430 -0.4215  0.4124
 6928SOL    HW132420   1.607   1.856   3.316 -3.9799  1.4833  0.3050
 6928SOL    HW232421   1.656   1.821   3.447 -0.2082  0.4017 -0.1527
 6929SOL     OW32422   0.835   0.655   2.543 -0.2081  0.2023 -0.1508
 6929SOL    HW132423   0.848   0.572   2.498 -0.6559 -0.8493  1.6525
 6929SOL    HW232424   0.810   0.714   2.472 -1.0603  1.5465  1.2577
 6930SOL     OW32425   0.696   0.662  16.450 -0.3943 -0.2991  0.5410
 6930SOL    HW132426   0.693   0.710  16.533  0.9715 -0.0290  0.4385
 6930SOL    HW232427   0.680   0.738  16.394  1.5474 -0.3706 -0.0955
 6931SOL     OW32428   4.015   2.395   3.485  0.0463  0.3143 -0.7162
 6931SOL    HW132429   3.930   2.394   3.528  1.9061 -0.6012  2.9699
 6931SOL    HW232430   4.064   2.455   3.541  0.5185  0.3094 -1.1178
 6932SOL     OW32431   2.953   1.904   4.304 -0.0724 -0.2632  0.1631
 6932SOL    HW132432   2.908   1.988   4.299  2.1874  1.0495  1.6618
 6932SOL    HW232433   2.882   1.846   4.278 -2.0826  2.7223 -0.9499
 6933SOL     OW32434   3.665   2.057  17.621  0.1864  0.0816 -0.3145
 6933SOL    HW132435   3.592   2.056  17.683 -0.1288 -2.1162 -0.7207
 6933SOL    HW232436   3.691   1.966  17.640  0.3207  0.1721 -0.0657
 6934SOL     OW32437   0.280   4.235   6.009  0.3998  0.0960 -0.2212
 6934SOL    HW132438   0.270   4.218   5.916 -2.7021  1.2455 -0.0912
 6934SOL    HW232439   0.225   4.165   6.044  1.9364 -0.3555  1.2956
 6935SOL     OW32440   0.668   1.456   5.459 -0.3979  0.0448 -0.1521
 6935SOL    HW132441   0.683   1.390   5.527 -3.8138  2.2977  2.8105
 6935SOL    HW232442   0.748   1.451   5.406 -1.0633 -1.3593 -1.0115
 6936SOL     OW32443   0.927   3.175   4.435 -0.6802 -0.4589 -0.1966
 6936SOL    HW132444   0.893   3.220   4.358 -1.7955  0.8657  1.0650
 6936SOL    HW232445   1.000   3.128   4.395  1.2572  1.6482  0.9062
 6937SOL     OW32446   0.729   3.963   6.313 -0.6363  0.1742 -0.2242
 6937SOL    HW132447   0.650   4.006   6.280 -0.2901  1.5135  0.7098
 6937SOL    HW232448   0.694   3.912   6.386 -2.6119 -0.5761 -1.6865
 6938SOL     OW32449   4.263   2.321   5.959  0.0559  0.3867 -0.4586
 6938SOL    HW132450   4.354   2.321   5.930  0.0700 -0.3346 -0.4231
 6938SOL    HW232451   4.218   2.264   5.896 -2.5071  1.0205  0.8363
 6939SOL     OW32452   0.690   3.577   2.748  0.3750 -0.4925  0.0309
 6939SOL    HW132453   0.745   3.616   2.816  2.2469 -1.0723 -1.1461
 6939SOL    HW232454   0.685   3.643   2.678 -1.5054 -3.3216 -2.5225
 6940SOL     OW32455   1.277   2.885   2.526  0.0700 -0.5046  0.5609
 6940SOL    HW132456   1.291   2.916   2.615  0.2049 -1.8651  1.0147
 6940SOL    HW232457   1.194   2.927   2.504 -0.0710 -1.9165 -1.5895
 6941SOL     OW32458   1.770   4.026   5.996 -0.6824 -0.0190 -0.1449
 6941SOL    HW132459   1.712   4.027   6.072  0.5638  1.3935  0.8057
 6941SOL    HW232460   1.782   4.120   5.992 -2.7154  0.1649 -1.8359
 6942SOL     OW32461   0.719   3.743   9.778  0.1132 -0.7923  0.1415
 6942SOL    HW132462   0.718   3.648   9.789  0.1013 -0.9170 -0.9262
 6942SOL    HW232463   0.772   3.770   9.853  1.0757  0.4430 -0.9991
 6943SOL     OW32464   0.925   3.876  11.122  0.1414 -0.1732  0.3530
 6943SOL    HW132465   0.989   3.896  11.053 -0.5680  0.2710 -0.1662
 6943SOL    HW232466   0.867   3.827  11.065  0.7708 -1.6860  0.9986
 6944SOL     OW32467   3.080   3.683   9.068 -0.0161  0.1449 -0.0038
 6944SOL    HW132468   3.000   3.724   9.101 -0.3065 -1.8089  1.7484
 6944SOL    HW232469   3.126   3.661   9.149  0.8196  0.3288 -0.4283
 6945SOL     OW32470   4.404   3.702  10.297  0.2717  0.0276 -0.1645
 6945SOL    HW132471   4.317   3.723  10.331 -0.2082 -0.3105 -1.2109
 6945SOL    HW232472   4.387   3.655  10.215  0.4596 -1.3346  0.5652
 6946SOL     OW32473   4.192   3.354   2.990 -0.1650  0.1754 -0.3146
 6946SOL    HW132474   4.131   3.417   3.027 -0.5450  0.8523 -2.0914
 6946SOL    HW232475   4.229   3.322   3.072 -0.5321  1.5222  0.3694
 6947SOL     OW32476   0.745   3.404   4.099 -0.3016 -0.2648  0.1562
 6947SOL    HW132477   0.733   3.309   4.088 -0.2077 -0.3302  0.6154
 6947SOL    HW232478   0.723   3.421   4.191  2.9011 -0.9933  1.0552
 6948SOL     OW32479   3.219   1.923  11.095 -1.0899  0.6515 -0.1197
 6948SOL    HW132480   3.169   2.004  11.083  0.1143  1.5008  0.4913
 6948SOL    HW232481   3.157   1.850  11.103  0.0042 -0.3332 -0.6528
 6949SOL     OW32482   3.040   1.720   3.147  0.2831  0.5778  0.3562
 6949SOL    HW132483   2.990   1.735   3.067  0.5261  0.2451  0.1380
 6949SOL    HW232484   2.978   1.664   3.195  2.5251 -1.4011  0.9469
 6950SOL     OW32485   3.052   3.775   3.102 -0.4106 -0.2309  0.3013
 6950SOL    HW132486   2.986   3.706   3.092  0.0793 -0.9830  2.1831
 6950SOL    HW232487   3.041   3.805   3.012  2.9225  1.0076  0.3069
 6951SOL     OW32488   3.430   1.574   8.564 -0.5022 -0.2389  0.2889
 6951SOL    HW132489   3.519   1.565   8.598  0.2045  1.7341 -1.0251
 6951SOL    HW232490   3.398   1.489   8.593  1.6973 -1.1589 -0.0034
 6952SOL     OW32491   3.797   4.211   2.099  0.2504 -0.4109  0.4753
 6952SOL    HW132492   3.833   4.145   2.040 -1.6028 -1.7547  0.8568
 6952SOL    HW232493   3.768   4.153   2.169  1.8379 -1.8713 -0.0827
 6953SOL     OW32494   3.876   3.729  12.673  0.1831  0.0399  0.1834
 6953SOL    HW132495   3.912   3.693  12.592  0.1411  0.5820 -0.0703
 6953SOL    HW232496   3.928   3.809  12.680  0.0801 -0.1246  2.9606
 6954SOL     OW32497   3.129   4.326  11.118 -0.0691 -0.3489  0.3698
 6954SOL    HW132498   3.121   4.238  11.155 -1.3895  0.1388  1.2236
 6954SOL    HW232499   3.095   4.305  11.031  2.1479 -0.6336 -0.4217
 6955SOL     OW32500   2.890   0.238  17.027 -0.4078  0.1490 -0.0008
 6955SOL    HW132501   2.808   0.262  17.070  0.7734 -0.6703  2.6813
 6955SOL    HW232502   2.869   0.283  16.945  1.6138 -0.7929 -1.0600
 6956SOL     OW32503   0.883   2.262  13.757  0.7171 -0.5020  0.5686
 6956SOL    HW132504   0.847   2.175  13.745  2.6738 -1.3189  0.6981
 6956SOL    HW232505   0.955   2.244  13.817  1.2981 -0.7559 -0.2069
 6957SOL     OW32506   2.393   3.657  14.497  0.3910 -0.1645  0.1615
 6957SOL    HW132507   2.480   3.685  14.470 -0.4056  1.5221 -0.6793
 6957SOL    HW232508   2.354   3.742  14.521  0.1192 -0.1898 -0.1872
 6958SOL     OW32509   4.133   0.490  12.782  0.1385 -1.0981 -0.1410
 6958SOL    HW132510   4.098   0.409  12.819 -1.0421 -0.5078  0.0235
 6958SOL    HW232511   4.061   0.545  12.813 -0.0261 -1.1749 -0.3916
 6959SOL     OW32512   2.438   3.348   5.744 -0.3597 -0.3956 -0.1551
 6959SOL    HW132513   2.381   3.387   5.677  0.2979  1.0297  0.1160
 6959SOL    HW232514   2.417   3.255   5.733 -1.9338  0.1056 -1.3961
 6960SOL     OW32515   1.471   4.523   1.972 -0.0998 -0.4367 -0.8548
 6960SOL    HW132516   1.433   4.603   1.935  0.4525  0.5690  0.7425
 6960SOL    HW232517   1.519   4.481   1.900 -1.0281  0.9434 -2.2943
 6961SOL     OW32518   0.153   3.066  10.682 -0.4925 -0.2531  0.0150
 6961SOL    HW132519   0.147   3.067  10.586 -0.3962 -0.9762  0.0003
 6961SOL    HW232520   0.067   3.090  10.715 -0.3742  0.9000 -0.5142
 6962SOL     OW32521   3.155   0.124  16.410 -0.1864 -0.0800  0.0189
 6962SOL    HW132522   3.241   0.143  16.447 -0.8051 -1.2101  2.0299
 6962SOL    HW232523   3.112   0.209  16.412  1.9802  1.0495 -2.1735
 6963SOL     OW32524   2.931   3.668   1.620  0.5326 -0.0084 -0.2969
 6963SOL    HW132525   2.997   3.610   1.658 -0.7868 -0.1589  1.7486
 6963SOL    HW232526   2.977   3.722   1.556  0.1543  0.2588 -0.3479
 6964SOL     OW32527   1.670   1.942   4.055  0.1240  0.3174  0.3280
 6964SOL    HW132528   1.650   1.945   3.962  2.2512  0.5855 -0.1230
 6964SOL    HW232529   1.665   2.033   4.085  0.7410  0.9266 -1.4575
 6965SOL     OW32530   2.523   4.372   3.971  0.0862 -0.1636  0.6460
 6965SOL    HW132531   2.591   4.426   3.930 -0.4116 -0.2584 -0.3152
 6965SOL    HW232532   2.559   4.285   3.954 -0.8409 -0.8879  2.4882
 6966SOL     OW32533   4.726   3.171   8.871 -0.4810 -0.2068  0.2490
 6966SOL    HW132534   0.009   3.204   8.959  1.9740 -0.3254 -0.1950
 6966SOL    HW232535   0.008   3.078   8.880  0.2647  0.0569  1.5673
 6967SOL     OW32536   1.598   3.432   3.039  0.3421 -0.1097 -0.1455
 6967SOL    HW132537   1.653   3.478   2.974  1.4999  1.0812  1.6579
 6967SOL    HW232538   1.649   3.355   3.066 -0.4546 -1.5203 -2.6963
 6968SOL     OW32539   0.160   3.616   6.861 -0.1339 -0.2161  0.1753
 6968SOL    HW132540   0.065   3.626   6.868  0.1434  1.0785  2.1532
 6968SOL    HW232541   0.169   3.555   6.788  1.4506 -0.0085  0.1953
 6969SOL     OW32542   3.302   3.413   7.099  0.2724 -0.6491 -0.1930
 6969SOL    HW132543   3.309   3.428   7.194 -1.0065 -0.9162 -0.0600
 6969SOL    HW232544   3.268   3.495   7.063  0.2828 -1.6854 -2.5054
 6970SOL     OW32545   3.747   2.750   6.368  0.5421  0.5754  0.3766
 6970SOL    HW132546   3.776   2.726   6.279 -2.0322  0.1292 -0.3337
 6970SOL    HW232547   3.819   2.806   6.398 -1.6781  2.9868  1.1271
 6971SOL     OW32548   3.691   1.781   7.963  0.3330  0.3039 -0.6720
 6971SOL    HW132549   3.774   1.749   7.929  0.2746  0.0988 -0.6280
 6971SOL    HW232550   3.711   1.874   7.973  0.2727  0.3687 -1.1702
 6972SOL     OW32551   4.593   2.698   7.959  0.2352  0.4701  0.0233
 6972SOL    HW132552   4.514   2.643   7.957 -0.2777  1.2461 -1.4784
 6972SOL    HW232553   4.557   2.787   7.963 -0.3078  0.2938 -0.7555
 6973SOL     OW32554   3.476   1.142   0.210  0.2681 -0.2994 -0.1834
 6973SOL    HW132555   3.416   1.180   0.274  0.2582  0.8858 -0.9110
 6973SOL    HW232556   3.419   1.112   0.140  0.7574 -0.9699 -0.2964
 6974SOL     OW32557   1.518   2.890   9.582  0.4637 -0.2024  0.1996
 6974SOL    HW132558   1.498   2.802   9.614 -0.9289  0.6761  1.7198
 6974SOL    HW232559   1.493   2.944   9.657 -0.1379 -1.7648  1.1347
 6975SOL     OW32560   2.985   0.115   4.187  0.5479  0.2274  0.5564
 6975SOL    HW132561   2.931   0.101   4.109  3.4104 -0.1723 -1.3609
 6975SOL    HW232562   3.063   0.064   4.169 -0.0498 -1.6245  3.1861
 6976SOL     OW32563   3.027   2.378   2.982 -0.1060 -0.7805 -0.2188
 6976SOL    HW132564   2.932   2.366   2.976 -0.1218 -1.2329  0.8778
 6976SOL    HW232565   3.042   2.322   3.059  0.0833 -0.8646 -0.3175
 6977SOL     OW32566   1.257   3.780   3.369 -0.3139  0.5745 -0.1154
 6977SOL    HW132567   1.180   3.742   3.412  1.3354 -1.1047  1.3397
 6977SOL    HW232568   1.221   3.830   3.296 -0.9889 -0.5551 -0.5616
 6978SOL     OW32569   3.542   4.411   5.591 -0.8344 -0.5060 -1.0447
 6978SOL    HW132570   3.628   4.394   5.552  0.6177  3.2100  0.5875
 6978SOL    HW232571   3.517   4.323   5.621  2.6123 -1.1721 -0.1383
 6979SOL     OW32572   1.778   1.003  10.999  0.0443 -0.1689 -0.2162
 6979SOL    HW132573   1.760   0.982  10.908  0.9915 -0.6956 -0.2847
 6979SOL    HW232574   1.704   0.962  11.045  0.3970 -0.2442  0.2929
 6980SOL     OW32575   0.796   3.227  14.135 -0.1167  0.3774  0.4885
 6980SOL    HW132576   0.785   3.202  14.044  0.3888 -2.2956  1.1712
 6980SOL    HW232577   0.706   3.205  14.159  0.4339 -2.1490  0.2121
 6981SOL     OW32578   0.949   4.561   1.896 -0.0975 -0.1172 -0.1998
 6981SOL    HW132579   0.856   4.556   1.915 -0.0352  0.0189  0.1517
 6981SOL    HW232580   0.964   4.479   1.942  1.1636 -0.5474 -1.3743
 6982SOL     OW32581   1.327   4.723   1.872  0.2434  0.3470 -0.1869
 6982SOL    HW132582   1.278   4.674   1.806  1.1538 -0.6624 -0.1107
 6982SOL    HW232583   1.297   0.076   1.851  1.6445  0.7259 -0.5933
 6983SOL     OW32584   0.305   1.079   0.291 -0.0970  0.3333  0.3655
 6983SOL    HW132585   0.299   0.991   0.328  1.1319  0.3117  0.5206
 6983SOL    HW232586   0.238   1.072   0.223 -0.2470  1.1652  0.4279
 6984SOL     OW32587   2.036   2.133   0.314 -0.1296  0.1180 -0.1435
 6984SOL    HW132588   2.124   2.108   0.286 -0.8173 -1.0340 -1.2813
 6984SOL    HW232589   2.017   2.204   0.253  0.6630  1.8700  1.6380
 6985SOL     OW32590   4.066   1.322  17.626  0.3110  0.7116 -0.2083
 6985SOL    HW132591   4.129   1.366  17.684  0.0500  1.9701 -0.8743
 6985SOL    HW232592   3.985   1.370  17.643  0.5300  0.3915  1.6816
 6986SOL     OW32593   0.484   3.555  16.436 -0.3604  0.0267 -1.0773
 6986SOL    HW132594   0.546   3.531  16.505 -2.5360  1.6002  1.4200
 6986SOL    HW232595   0.490   3.476  16.382 -0.8335 -0.3325 -0.6128
 6987SOL     OW32596   2.936   2.189   2.396  0.4922  0.2729 -0.5502
 6987SOL    HW132597   2.954   2.275   2.358  0.6302  0.6902  0.4579
 6987SOL    HW232598   2.842   2.186   2.381  0.0662  2.7863  1.5415
 6988SOL     OW32599   0.587   3.614   3.616  0.2283 -0.2306 -0.2146
 6988SOL    HW132600   0.679   3.585   3.611  0.2311  0.1921 -2.4116
 6988SOL    HW232601   0.564   3.610   3.523  2.1282  0.5575 -0.7267
 6989SOL     OW32602   0.301   3.728   3.295  0.8297 -0.2778 -0.0256
 6989SOL    HW132603   0.240   3.778   3.349 -1.6708 -2.9643 -0.3296
 6989SOL    HW232604   0.252   3.646   3.296  1.6439 -0.7727 -0.8227
 6990SOL     OW32605   0.881   3.943   7.012  0.1589  0.0580 -0.1307
 6990SOL    HW132606   0.916   4.001   6.944  1.9103 -2.4908 -1.4294
 6990SOL    HW232607   0.939   3.867   7.006 -0.8319 -0.6847 -0.2950
 6991SOL     OW32608   1.985   0.321   7.689  0.2664  0.1103  0.2277
 6991SOL    HW132609   1.928   0.300   7.763  0.8620  2.0653  1.2286
 6991SOL    HW232610   1.982   0.417   7.695 -0.2850  0.3195 -3.3361
 6992SOL     OW32611   0.478   4.346  15.866  0.2864 -0.7671  0.1777
 6992SOL    HW132612   0.573   4.342  15.851  0.1623  0.9278 -1.1210
 6992SOL    HW232613   0.464   4.440  15.859  0.8939 -0.6703  0.2066
 6993SOL     OW32614   1.560   0.903   8.097 -0.5922  0.2348  0.3032
 6993SOL    HW132615   1.511   0.985   8.107 -0.4443  0.1569  1.5961
 6993SOL    HW232616   1.642   0.940   8.063  0.0444  0.2532  1.8822
 6994SOL     OW32617   0.289   1.402   7.960 -0.6398 -0.0885 -0.2978
 6994SOL    HW132618   0.301   1.328   7.902 -0.3010 -1.3000  1.3163
 6994SOL    HW232619   0.278   1.469   7.892  0.0139  1.2014  0.8472
 6995SOL     OW32620   1.035   2.579   7.215  0.6489 -0.6586 -0.2238
 6995SOL    HW132621   1.022   2.674   7.213 -0.6793 -0.8876 -2.2306
 6995SOL    HW232622   0.958   2.551   7.265  0.5052 -1.9752 -1.1815
 6996SOL     OW32623   2.344   2.802  11.511 -0.0905 -0.2901 -0.2829
 6996SOL    HW132624   2.328   2.749  11.433  1.2582  1.5178 -1.7467
 6996SOL    HW232625   2.373   2.882  11.467  1.4723 -1.2290 -0.9594
 6997SOL     OW32626   0.296   0.076  16.009 -0.2749 -0.2005 -0.8640
 6997SOL    HW132627   0.271   0.168  16.023 -0.5145 -0.2127 -1.2445
 6997SOL    HW232628   0.208   0.048  16.034 -0.5872  1.1483 -0.4216
 6998SOL     OW32629   1.751   2.025   6.831 -0.5981  0.1496 -0.7602
 6998SOL    HW132630   1.670   2.041   6.879 -0.9885 -0.6127 -1.1599
 6998SOL    HW232631   1.787   1.961   6.892 -0.0176 -0.0831 -1.3457
 6999SOL     OW32632   3.171   2.710  13.652  0.3986 -0.1217  0.0538
 6999SOL    HW132633   3.175   2.804  13.636 -0.6688  0.2745  2.1124
 6999SOL    HW232634   3.222   2.667  13.583 -0.2350  1.3040 -1.3112
 7000SOL     OW32635   1.873   0.023   4.500  0.2795 -1.0580 -0.0760
 7000SOL    HW132636   1.877   4.679   4.446 -0.2801 -1.3706  0.3382
 7000SOL    HW232637   1.808   4.731   4.566 -0.7025  0.5715 -0.3710
 7001SOL     OW32638   0.960   0.246   6.757 -0.0211  0.3771  0.4079
 7001SOL    HW132639   1.022   0.185   6.717 -1.6785 -0.8088 -0.3685
 7001SOL    HW232640   0.890   0.235   6.693 -0.7930  1.4569  1.0739
 7002SOL     OW32641   3.852   1.814   4.274 -0.3850  0.7523 -0.7743
 7002SOL    HW132642   3.774   1.788   4.224 -0.1405  0.6229 -1.0825
 7002SOL    HW232643   3.822   1.824   4.365 -2.1344  1.5223 -1.4246
 7003SOL     OW32644   1.543   0.525   2.924 -0.0426 -0.1107 -0.1227
 7003SOL    HW132645   1.588   0.577   2.857 -0.3390  0.1196 -0.1450
 7003SOL    HW232646   1.618   0.503   2.979  1.6496  1.0417 -1.9805
 7004SOL     OW32647   2.622   2.927   1.996  0.7159  0.3775  0.0035
 7004SOL    HW132648   2.672   2.975   2.061  1.2512 -1.6384  1.0919
 7004SOL    HW232649   2.585   3.002   1.949  0.5951  0.6486  0.5376
 7005SOL     OW32650   3.030   1.882   8.991  0.3168 -0.0625 -0.4004
 7005SOL    HW132651   3.124   1.869   9.002 -0.3768 -2.7204  2.2224
 7005SOL    HW232652   3.014   1.896   8.897 -0.7316  0.5313 -0.1333
 7006SOL     OW32653   3.879   1.258   2.239 -0.0685 -0.4680 -0.2188
 7006SOL    HW132654   3.919   1.345   2.246  0.2399 -0.5850 -0.5307
 7006SOL    HW232655   3.813   1.281   2.173  0.7315 -2.3035 -1.6685
 7007SOL     OW32656   0.759   1.837   5.494  0.2593  0.5906 -0.6210
 7007SOL    HW132657   0.693   1.846   5.563 -1.0495 -2.7488 -1.4054
 7007SOL    HW232658   0.838   1.827   5.547 -0.5837 -0.5051  0.4659
 7008SOL     OW32659   2.530   0.446   1.139 -0.4554  0.4215 -0.2046
 7008SOL    HW132660   2.500   0.407   1.057 -0.7629 -0.4742  0.3446
 7008SOL    HW232661   2.604   0.387   1.154 -1.3363 -0.4596  0.6660
 7009SOL     OW32662   2.531   2.733   0.143 -0.3469 -0.0130  0.0844
 7009SOL    HW132663   2.588   2.761   0.215  0.4544  1.9532 -1.3234
 7009SOL    HW232664   2.464   2.682   0.188  0.5931  0.3204  1.8821
 7010SOL     OW32665   0.294   3.251   8.517 -0.8272 -0.5937  0.3996
 7010SOL    HW132666   0.359   3.269   8.450  0.0020 -0.1182  1.3198
 7010SOL    HW232667   0.348   3.204   8.581 -0.2392 -0.7254 -0.2032
 7011SOL     OW32668   1.832   4.248   7.580 -0.1998 -0.0152 -0.7337
 7011SOL    HW132669   1.784   4.176   7.621 -1.1304  0.2122 -1.4138
 7011SOL    HW232670   1.899   4.193   7.540  0.4365 -0.1760  0.5344
 7012SOL     OW32671   1.166   1.675   7.190 -0.5601  0.2019  0.2036
 7012SOL    HW132672   1.201   1.627   7.115 -1.0940 -1.4505  0.9915
 7012SOL    HW232673   1.109   1.728   7.136 -0.6387  0.0074  0.0954
 7013SOL     OW32674   0.774   0.406   6.448 -0.2198  0.3186 -0.1813
 7013SOL    HW132675   0.735   0.350   6.516 -1.6511  1.2671 -0.2244
 7013SOL    HW232676   0.716   0.482   6.449  0.3989  0.7949 -1.6033
 7014SOL     OW32677   2.900   3.228  14.726 -0.0605 -0.5523  0.1715
 7014SOL    HW132678   2.890   3.222  14.821  0.8413  0.5412  0.3386
 7014SOL    HW232679   2.816   3.259  14.694 -0.0833  0.3733  1.1219
 7015SOL     OW32680   1.111   1.544   7.821  0.3763 -0.4502  0.6025
 7015SOL    HW132681   1.087   1.635   7.836 -1.7857 -1.1012  1.1490
 7015SOL    HW232682   1.101   1.515   7.912  0.2004 -1.8963  0.1214
 7016SOL     OW32683   3.861   2.925   5.372  0.3754 -0.0007  0.2086
 7016SOL    HW132684   3.774   2.936   5.332  0.1288  0.5901  0.9190
 7016SOL    HW232685   3.865   2.829   5.377 -0.9971 -0.0106  1.1393
 7017SOL     OW32686   0.534   1.993   5.937  0.0847 -0.0533 -0.0424
 7017SOL    HW132687   0.532   1.974   5.843  2.1905  0.9129 -0.2842
 7017SOL    HW232688   0.570   2.081   5.937 -0.2067  0.0642  1.0583
 7018SOL     OW32689   1.163   3.278   5.036 -0.3930 -0.1385 -0.4937
 7018SOL    HW132690   1.102   3.339   5.077  0.1799 -1.0964  1.7929
 7018SOL    HW232691   1.239   3.283   5.094 -1.5230 -1.3294  1.1224
 7019SOL     OW32692   2.814   4.390   6.245 -0.0970  0.1725  0.0670
 7019SOL    HW132693   2.724   4.358   6.244  0.5290 -1.5320 -1.3249
 7019SOL    HW232694   2.792   4.479   6.215 -0.6867  0.9583  2.8484
 7020SOL     OW32695   2.866   3.939   7.638  0.0568  0.1450  0.3233
 7020SOL    HW132696   2.846   3.885   7.561 -2.2536  2.4568 -0.7250
 7020SOL    HW232697   2.939   3.993   7.607  0.7041 -1.7103 -1.3958
 7021SOL     OW32698   3.022   4.127   5.964  0.0647  0.3462  0.1168
 7021SOL    HW132699   3.002   4.185   5.891 -3.6187  0.4658  1.1866
 7021SOL    HW232700   3.086   4.177   6.014  2.1782 -1.3847 -0.8392
 7022SOL     OW32701   1.942   3.831   3.928  0.2284 -0.5775 -0.1823
 7022SOL    HW132702   1.905   3.865   4.009  2.4397 -0.1226  0.6479
 7022SOL    HW232703   1.990   3.907   3.894 -1.7099  1.1421  1.0097
 7023SOL     OW32704   1.741   3.739   8.706 -0.5090 -0.1868 -0.5237
 7023SOL    HW132705   1.819   3.764   8.756 -0.4073  0.4533 -1.0026
 7023SOL    HW232706   1.682   3.807   8.738 -0.3788 -0.3926  0.1379
 7024SOL     OW32707   0.938   0.526   8.087 -0.2504  0.4234 -0.0421
 7024SOL    HW132708   1.017   0.554   8.134  0.3676  2.2108 -2.1362
 7024SOL    HW232709   0.868   0.557   8.144  0.4405  1.3923  0.2742
 7025SOL     OW32710   1.798   0.492   4.361 -0.0880 -0.3781 -0.5461
 7025SOL    HW132711   1.833   0.406   4.341  0.2711 -0.5722  0.9559
 7025SOL    HW232712   1.785   0.526   4.272  1.8307  0.7879 -0.3823
 7026SOL     OW32713   1.239   2.417  12.225 -0.7469 -0.3731  0.2998
 7026SOL    HW132714   1.326   2.428  12.188 -0.9461 -0.5876 -0.2303
 7026SOL    HW232715   1.198   2.499  12.198  0.8791  0.9350  1.7966
 7027SOL     OW32716   2.341   1.244   6.012 -0.3355 -0.3676  0.1093
 7027SOL    HW132717   2.247   1.230   6.024 -0.6464  0.6862 -1.0774
 7027SOL    HW232718   2.374   1.162   5.973  2.2704  0.6528  0.1991
 7028SOL     OW32719   3.593   2.233   8.688  0.7371 -0.3493 -0.5221
 7028SOL    HW132720   3.552   2.292   8.625  0.9118 -1.6075 -1.8112
 7028SOL    HW232721   3.539   2.232   8.767  0.3002 -1.9888 -0.8526
 7029SOL     OW32722   3.833   3.221   2.436 -0.5944  0.2826 -0.1751
 7029SOL    HW132723   3.792   3.169   2.505  1.9473 -0.7770  0.5269
 7029SOL    HW232724   3.856   3.303   2.480 -0.1400 -1.1941  2.3580
 7030SOL     OW32725   2.100   2.368   1.249 -0.3144 -0.1524  0.0683
 7030SOL    HW132726   2.186   2.400   1.276 -0.4099  0.1267  0.0412
 7030SOL    HW232727   2.046   2.444   1.273  1.4886  1.6626 -1.6607
 7031SOL     OW32728   3.539   0.067  10.800  0.0045  0.4658 -0.3751
 7031SOL    HW132729   3.469   0.066  10.865  2.6478  0.8223  2.5027
 7031SOL    HW232730   3.565   0.155  10.826  1.1771 -0.1939  0.6883
 7032SOL     OW32731   4.121   4.419   6.827  0.1181 -0.5041 -0.3945
 7032SOL    HW132732   4.105   4.325   6.827  0.5045 -0.5696  1.3611
 7032SOL    HW232733   4.036   4.461   6.811  0.0568 -0.1549  0.8605
 7033SOL     OW32734   3.740   2.823  12.033  0.2184  0.5296  0.0676
 7033SOL    HW132735   3.687   2.755  11.993  0.5816  0.8706 -0.9888
 7033SOL    HW232736   3.770   2.789  12.117  0.1775  0.7742  0.1832
 7034SOL     OW32737   2.215   3.147   4.463  0.5152 -0.0209  0.0851
 7034SOL    HW132738   2.164   3.066   4.453 -0.6596  0.8382 -0.9640
 7034SOL    HW232739   2.195   3.167   4.554 -0.2450  1.0456 -0.3126
 7035SOL     OW32740   4.654   2.041   2.868  0.3595 -0.0672 -0.1272
 7035SOL    HW132741   4.708   2.107   2.913  1.7360 -0.6524 -0.9288
 7035SOL    HW232742   4.563   2.066   2.885  0.1361 -1.7718  1.1340
 7036SOL     OW32743   1.761   0.215   7.316 -0.4931  0.2593  0.2506
 7036SOL    HW132744   1.772   0.282   7.383  0.1966 -1.4767  1.8996
 7036SOL    HW232745   1.715   0.255   7.243 -0.4117  1.8922  1.1053
 7037SOL     OW32746   1.876   2.217   6.695 -0.5606 -0.1361  0.2714
 7037SOL    HW132747   1.868   2.170   6.613  1.7779  3.1653 -1.8580
 7037SOL    HW232748   1.851   2.146   6.754 -0.7811  0.4863  0.9318
 7038SOL     OW32749   0.260   2.633   4.810  0.0212 -0.4436 -0.3951
 7038SOL    HW132750   0.238   2.692   4.882 -0.8397  0.5052 -1.4469
 7038SOL    HW232751   0.239   2.549   4.850 -0.6652 -0.4419 -0.7568
 7039SOL     OW32752   3.867   0.789  17.690  0.2867  0.5776 -0.2501
 7039SOL    HW132753   3.856   0.784   0.046  1.3521  0.0933 -0.1466
 7039SOL    HW232754   3.845   0.878  17.664  1.2110  0.6278 -0.8538
 7040SOL     OW32755   0.709   3.035   4.869 -0.5647  0.1482 -0.4770
 7040SOL    HW132756   0.735   3.085   4.791  1.5113 -0.3099 -0.0900
 7040SOL    HW232757   0.718   3.087   4.948  1.7726 -0.3824 -0.3798
 7041SOL     OW32758   2.942   1.247   5.757  0.2382 -0.3511 -0.5444
 7041SOL    HW132759   2.990   1.241   5.840 -0.3004  1.8571 -0.0649
 7041SOL    HW232760   2.990   1.172   5.724 -1.9551 -1.8855 -0.2421
 7042SOL     OW32761   1.958   3.900   6.163  0.1668  0.4019  0.0628
 7042SOL    HW132762   2.044   3.866   6.138 -1.3191 -2.2369 -1.4308
 7042SOL    HW232763   1.934   3.936   6.078  0.1222 -1.5259 -0.7515
 7043SOL     OW32764   1.485   1.394   7.637  0.0247  0.4165  0.3243
 7043SOL    HW132765   1.489   1.385   7.733  1.2679  1.1828  0.3489
 7043SOL    HW232766   1.436   1.315   7.616  1.1976 -0.8726  2.4052
 7044SOL     OW32767   4.519   0.413   4.013  0.3626  0.1261  0.3562
 7044SOL    HW132768   4.572   0.414   3.933 -1.2345 -0.3054 -0.7138
 7044SOL    HW232769   4.586   0.412   4.082  1.1761 -2.0446 -0.4642
 7045SOL     OW32770   1.107   1.639  10.562 -0.1916  0.2260 -0.2536
 7045SOL    HW132771   1.037   1.609  10.504 -1.3600  1.6648  0.4504
 7045SOL    HW232772   1.138   1.705  10.500  0.6514  0.6042  0.5668
 7046SOL     OW32773   4.399   3.433   6.295  0.4223  0.0675  0.6326
 7046SOL    HW132774   4.434   3.521   6.284 -0.7950  0.1482 -2.4272
 7046SOL    HW232775   4.466   3.366   6.290 -0.6262 -0.9530  0.1936
 7047SOL     OW32776   0.256   0.885   4.176 -0.4800 -0.0464 -0.2593
 7047SOL    HW132777   0.161   0.885   4.165 -0.4582 -0.0903 -0.4470
 7047SOL    HW232778   0.276   0.976   4.196  0.2025 -1.0433  3.5530
 7048SOL     OW32779   2.879   2.487  16.066  0.0998 -0.3460 -0.1221
 7048SOL    HW132780   2.898   2.549  16.137  1.7413  0.0580 -0.9240
 7048SOL    HW232781   2.967   2.454  16.050  1.9986  3.8893  1.4885
 7049SOL     OW32782   0.158   3.168   6.855 -0.3254  0.3870 -0.6088
 7049SOL    HW132783   0.254   3.174   6.861 -0.1428 -1.9539 -1.4141
 7049SOL    HW232784   0.144   3.079   6.824  1.6010  0.3719 -1.4621
 7050SOL     OW32785   1.618   0.430   0.641 -0.3169 -0.1521 -0.6963
 7050SOL    HW132786   1.523   0.432   0.658 -0.1222  0.3076  0.3355
 7050SOL    HW232787   1.615   0.433   0.546  2.5108 -0.0151 -0.7636
 7051SOL     OW32788   3.753   2.999   1.294  0.8899 -0.1896  0.4063
 7051SOL    HW132789   3.714   2.935   1.353  2.7197  0.9199  2.8608
 7051SOL    HW232790   3.816   3.037   1.355  0.3675  0.2865  0.6386
 7052SOL     OW32791   3.172   2.787   1.793  0.2075  0.7743  0.5436
 7052SOL    HW132792   3.101   2.851   1.803  2.0822  3.0880 -0.8754
 7052SOL    HW232793   3.134   2.720   1.735 -0.4823  1.1788  0.5260
 7053SOL     OW32794   2.900   2.005   7.709  0.7296 -0.2775  0.4551
 7053SOL    HW132795   2.869   1.923   7.672  0.1669  0.7977 -1.4683
 7053SOL    HW232796   2.908   1.989   7.803  2.3263  1.1823  0.5931
 7054SOL     OW32797   3.845   2.625   5.094  0.1219 -0.2001  0.1871
 7054SOL    HW132798   3.862   2.625   5.188  1.5614 -0.1653 -0.0835
 7054SOL    HW232799   3.790   2.546   5.083  1.5316 -1.0167 -0.9238
 7055SOL     OW32800   4.690   0.303   8.503  0.0262  0.3899 -0.1400
 7055SOL    HW132801   0.029   0.292   8.563 -1.0801  0.3029  1.2155
 7055SOL    HW232802   4.731   0.275   8.422 -0.0979 -0.9362  0.2561
 7056SOL     OW32803   3.307   0.903  16.159  0.5908 -0.6212 -0.0640
 7056SOL    HW132804   3.357   0.949  16.092 -1.7448  1.0037 -0.6894
 7056SOL    HW232805   3.339   0.813  16.156 -1.1740 -1.2223 -0.8101
 7057SOL     OW32806   1.329   0.500   7.101  0.1030  0.0669  0.2330
 7057SOL    HW132807   1.357   0.440   7.170  1.4275 -0.0135 -0.3809
 7057SOL    HW232808   1.344   0.587   7.136 -2.3075  1.1767 -1.4666
 7058SOL     OW32809   1.451   0.865  13.004  0.1169  0.1594  0.3509
 7058SOL    HW132810   1.495   0.925  13.064  1.7182 -1.3572  0.6896
 7058SOL    HW232811   1.386   0.929  12.974 -0.3003  0.6455  2.2641
 7059SOL     OW32812   2.109   3.608   5.064  0.3252 -0.0541  0.0927
 7059SOL    HW132813   2.186   3.655   5.032  0.3933  0.4465  1.0059
 7059SOL    HW232814   2.037   3.650   5.018  1.7032  1.0537 -1.0467
 7060SOL     OW32815   0.312   2.135   6.727  0.2614 -0.3976 -0.5401
 7060SOL    HW132816   0.299   2.131   6.632 -0.4495  3.0735 -0.5840
 7060SOL    HW232817   0.366   2.058   6.746 -0.4220 -0.3243  1.6263
 7061SOL     OW32818   2.709   1.184   7.392  0.2202  0.1586  0.2033
 7061SOL    HW132819   2.664   1.173   7.308 -1.3415  1.1253  0.9228
 7061SOL    HW232820   2.792   1.140   7.371  0.7877  0.8434  0.9880
 7062SOL     OW32821   4.031   2.431   2.646 -0.0894  0.5616  0.0222
 7062SOL    HW132822   4.008   2.406   2.736 -0.4103  0.2810 -0.1402
 7062SOL    HW232823   4.031   2.526   2.659  0.7207  0.5432  0.2091
 7063SOL     OW32824   3.248   0.640   1.118  0.2559 -0.0530  0.3222
 7063SOL    HW132825   3.236   0.670   1.208 -0.3762  0.4353  0.0722
 7063SOL    HW232826   3.339   0.611   1.109  0.3544  0.2657  0.2957
 7064SOL     OW32827   0.152   2.906   6.772 -0.1521 -0.3117 -0.0168
 7064SOL    HW132828   0.141   2.889   6.678 -1.8699  0.5120  0.0430
 7064SOL    HW232829   0.115   2.833   6.821  0.6254 -0.2090  0.7245
 7065SOL     OW32830   0.312   4.201   8.607  0.3286 -0.2915  0.3565
 7065SOL    HW132831   0.287   4.138   8.539 -2.6641  0.4891  0.7346
 7065SOL    HW232832   0.403   4.174   8.621 -0.1996 -1.4920  1.4082
 7066SOL     OW32833   2.984   1.953   6.270  0.0378  0.0276  0.1625
 7066SOL    HW132834   2.932   2.020   6.225  1.3011  0.6938 -0.3089
 7066SOL    HW232835   2.977   1.890   6.199 -1.0954  1.1568 -0.7447
 7067SOL     OW32836   3.431   3.032   5.458  0.7043  0.0402 -0.1968
 7067SOL    HW132837   3.420   3.030   5.553  0.6855 -1.0149 -0.2176
 7067SOL    HW232838   3.473   2.947   5.445  0.8836 -0.0406  0.9166
 7068SOL     OW32839   1.831   0.998  12.257  0.6540 -0.3458  0.0616
 7068SOL    HW132840   1.922   1.021  12.242  0.3134 -1.7957 -4.1952
 7068SOL    HW232841   1.779   1.070  12.220  0.7526 -0.8501 -1.0315
 7069SOL     OW32842   4.401   0.862   8.801 -0.2976  0.5627 -0.2625
 7069SOL    HW132843   4.486   0.906   8.799  0.7675 -1.6024 -2.4674
 7069SOL    HW232844   4.369   0.880   8.890  0.7973 -0.2443  0.2907
 7070SOL     OW32845   3.820   1.062   3.855 -0.3765 -0.1631  0.2264
 7070SOL    HW132846   3.866   1.028   3.931 -0.1596 -1.7117 -0.5896
 7070SOL    HW232847   3.882   1.059   3.782  1.3928  2.7517  1.6090
 7071SOL     OW32848   4.264   4.548   2.603  0.8575  0.0231 -0.3113
 7071SOL    HW132849   4.215   4.581   2.678  2.2045 -0.9805  1.0106
 7071SOL    HW232850   4.339   4.510   2.648  1.9314  0.5008 -1.6899
 7072SOL     OW32851   2.393   3.437  14.324 -0.0938  0.2345 -0.5243
 7072SOL    HW132852   2.362   3.441  14.234 -2.1837  0.2016  0.1913
 7072SOL    HW232853   2.363   3.523  14.353 -0.5903  0.5360 -1.9179
 7073SOL     OW32854   1.040   4.622   5.396 -0.0440 -0.4813  0.1200
 7073SOL    HW132855   1.035   4.572   5.477  1.2055 -0.1216  0.4288
 7073SOL    HW232856   0.973   4.687   5.418  2.7164  2.5583 -0.3854
 7074SOL     OW32857   0.558   0.019   6.224 -0.0646 -0.1318 -0.1863
 7074SOL    HW132858   0.529   0.059   6.306  1.2798 -0.2957  0.3680
 7074SOL    HW232859   0.517   0.079   6.162 -1.7388  0.0789  1.1284
 7075SOL     OW32860   3.176   4.568  11.977  0.1742  0.1212 -0.2155
 7075SOL    HW132861   3.237   4.641  11.992 -1.1459  1.7080 -2.6249
 7075SOL    HW232862   3.141   4.546  12.063  1.0563  0.7205  0.3046
 7076SOL     OW32863   0.396   2.107   2.044  0.4236  0.8867  0.0794
 7076SOL    HW132864   0.356   2.038   1.990 -1.0743  2.8295 -1.2945
 7076SOL    HW232865   0.341   2.184   2.032  2.1277  2.3037  1.3314
 7077SOL     OW32866   2.328   3.146  14.454 -0.1181  0.2499  0.1868
 7077SOL    HW132867   2.263   3.182  14.393  1.2144  0.9123 -0.8398
 7077SOL    HW232868   2.367   3.071  14.409 -0.0200 -0.2966  1.1958
 7078SOL     OW32869   2.446   2.757   5.752 -0.3720 -0.4531 -0.3042
 7078SOL    HW132870   2.477   2.743   5.662  3.5301 -0.5758  1.0493
 7078SOL    HW232871   2.372   2.697   5.759 -1.0130  0.2507 -0.9841
 7079SOL     OW32872   0.624   2.718   2.808 -0.4999  0.0085  0.1242
 7079SOL    HW132873   0.687   2.671   2.863  1.7491  3.8067  0.7852
 7079SOL    HW232874   0.657   2.806   2.822  0.2523 -0.6466  2.6122
 7080SOL     OW32875   3.457   1.875   4.094 -0.9441 -0.3551  0.2982
 7080SOL    HW132876   3.363   1.892   4.103 -0.8445  0.4136 -0.1008
 7080SOL    HW232877   3.488   1.819   4.165  1.8785 -0.3070 -0.8608
 7081SOL     OW32878   3.489   2.670   2.422 -0.5307 -0.4140 -0.3479
 7081SOL    HW132879   3.482   2.649   2.516 -0.0657 -2.4305 -0.7714
 7081SOL    HW232880   3.515   2.762   2.427  0.3420 -0.6588 -0.4430
 7082SOL     OW32881   2.268   4.101   5.944  0.2565 -0.1790  0.5011
 7082SOL    HW132882   2.360   4.097   5.969  0.6779  4.0458 -0.2841
 7082SOL    HW232883   2.263   4.183   5.893 -2.1473 -0.0884  0.9053
 7083SOL     OW32884   0.238   0.317   0.525  0.1758 -0.2303 -0.3271
 7083SOL    HW132885   0.234   0.395   0.469 -0.6004  1.2396  1.7758
 7083SOL    HW232886   0.182   0.251   0.485 -1.1312  0.3382  0.5285
 7084SOL     OW32887   1.878   1.377  15.844  0.0086 -0.0059  0.4287
 7084SOL    HW132888   1.822   1.323  15.789  1.6569  0.2195 -1.4761
 7084SOL    HW232889   1.960   1.328  15.835 -0.1381 -0.3435  0.9464
 7085SOL     OW32890   2.130   4.455   6.908 -0.5970 -0.1722 -0.0365
 7085SOL    HW132891   2.077   4.429   6.833  0.5282 -1.6583 -0.3259
 7085SOL    HW232892   2.083   4.534   6.934 -0.4241  1.1326 -3.8369
 7086SOL     OW32893   3.511   3.195   4.840  0.0096 -0.0862  0.1217
 7086SOL    HW132894   3.558   3.188   4.923 -3.2157  0.3195  1.9578
 7086SOL    HW232895   3.522   3.103   4.815  0.2774 -0.0407  0.0740
 7087SOL     OW32896   3.487   4.612   4.914 -0.0581  0.1696  0.6925
 7087SOL    HW132897   3.533   4.622   4.830 -3.1034  1.1077 -0.8719
 7087SOL    HW232898   3.557   4.584   4.972  1.0853  1.5213 -0.0285
 7088SOL     OW32899   3.802   2.494  14.850 -1.0898  0.5799 -0.6742
 7088SOL    HW132900   3.848   2.521  14.771 -0.4643 -0.4764 -0.6662
 7088SOL    HW232901   3.800   2.399  14.836 -1.2305  0.7627 -1.9117
 7089SOL     OW32902   0.550   0.117  16.100  0.0662  0.4665 -0.1464
 7089SOL    HW132903   0.480   0.087  16.042 -0.9218  1.0119  0.7750
 7089SOL    HW232904   0.578   0.032  16.135 -2.1181 -1.5893 -3.2701
 7090SOL     OW32905   2.348   1.078   3.513  0.0607  0.1453  0.2292
 7090SOL    HW132906   2.444   1.080   3.505  0.1500 -2.1037  0.8184
 7090SOL    HW232907   2.350   1.091   3.608 -2.0755  0.4327  0.2343
 7091SOL     OW32908   3.273   1.233   3.418 -0.2048 -0.7943 -0.0383
 7091SOL    HW132909   3.325   1.183   3.482  0.8579  0.7498  0.2948
 7091SOL    HW232910   3.270   1.171   3.346 -1.7712 -0.6281 -0.1246
 7092SOL     OW32911   3.404   4.125   9.573  0.1988  0.4435  0.8652
 7092SOL    HW132912   3.389   4.060   9.504  1.2389  2.1015 -0.9291
 7092SOL    HW232913   3.426   4.066   9.645 -2.2418 -0.9863  0.4443
 7093SOL     OW32914   3.775   0.383  17.556  0.2810 -0.0419 -0.4487
 7093SOL    HW132915   3.764   0.433  17.637 -2.0446  0.5166 -1.1048
 7093SOL    HW232916   3.843   0.320  17.579 -1.3639 -1.1812  1.2970
 7094SOL     OW32917   2.494   0.183   8.812 -0.2470  0.3334  0.4760
 7094SOL    HW132918   2.446   0.124   8.870 -0.7917  1.1285  0.8407
 7094SOL    HW232919   2.546   0.122   8.760 -0.6924  0.9096 -0.6646
 7095SOL     OW32920   1.026   2.661  12.922  0.0348  0.9036 -0.1319
 7095SOL    HW132921   1.095   2.597  12.942  0.1046 -0.2137 -3.9791
 7095SOL    HW232922   0.976   2.654  13.003  1.3955 -2.1833  0.4492
 7096SOL     OW32923   1.907   3.476  17.146 -0.4535  0.0007 -0.0332
 7096SOL    HW132924   1.943   3.395  17.183 -0.9584 -1.4042 -2.5915
 7096SOL    HW232925   1.929   3.542  17.211  1.9771 -0.8262 -0.0178
 7097SOL     OW32926   0.830   3.379   5.280 -0.3297 -0.1898 -0.5173
 7097SOL    HW132927   0.920   3.404   5.259 -0.0916 -2.3219 -2.0234
 7097SOL    HW232928   0.775   3.437   5.227  0.4189  0.6797 -0.3405
 7098SOL     OW32929   4.402   3.941   1.452  0.5658 -0.1456  0.3948
 7098SOL    HW132930   4.492   3.913   1.431  1.6520  1.6206  2.7526
 7098SOL    HW232931   4.363   3.905   1.372  1.0924  2.5612 -1.0481
 7099SOL     OW32932   1.641   1.121   4.962  0.5413  0.0287  0.0162
 7099SOL    HW132933   1.608   1.128   4.873  1.3462  0.4593 -0.2452
 7099SOL    HW232934   1.626   1.207   5.001  0.3811 -0.3620  0.8135
 7100SOL     OW32935   2.438   2.270  11.578 -0.0872 -0.1079 -0.1992
 7100SOL    HW132936   2.488   2.198  11.616  0.4783 -0.7505 -2.2054
 7100SOL    HW232937   2.350   2.233  11.565  0.7479 -2.5314  0.9225
 7101SOL     OW32938   4.258   3.081   6.707 -0.2674 -0.6963  0.3351
 7101SOL    HW132939   4.347   3.085   6.672 -0.3626 -1.1144  0.0345
 7101SOL    HW232940   4.245   2.986   6.697  0.9070 -0.8579  0.3794
 7102SOL     OW32941   1.451   0.636  16.041 -0.6575  0.5607  0.6590
 7102SOL    HW132942   1.472   0.705  15.978  2.0521 -0.8881 -0.0270
 7102SOL    HW232943   1.511   0.659  16.112 -0.0275  1.0908 -0.0480
 7103SOL     OW32944   1.160   4.294   1.721 -0.1958  0.3649 -0.1010
 7103SOL    HW132945   1.115   4.228   1.774  0.2391  0.8777  0.9198
 7103SOL    HW232946   1.137   4.278   1.629  0.7319 -2.1908  0.1127
 7104SOL     OW32947   4.252   1.390   4.420  0.1349  0.1483  0.1219
 7104SOL    HW132948   4.289   1.433   4.343  0.1226 -0.4900 -0.2444
 7104SOL    HW232949   4.312   1.315   4.419 -0.4113 -0.2774 -0.6905
 7105SOL     OW32950   0.245   1.492   8.222  0.0071  0.1636 -0.2300
 7105SOL    HW132951   0.245   1.584   8.197  1.1205 -0.8068 -3.8805
 7105SOL    HW232952   0.238   1.449   8.136 -0.0924 -2.1500  0.9314
 7106SOL     OW32953   1.130   0.137  15.475 -0.0420  0.0378 -0.1630
 7106SOL    HW132954   1.211   0.168  15.433 -0.1466  1.0169  0.3566
 7106SOL    HW232955   1.110   0.213  15.529  0.7670  0.1803 -0.0599
 7107SOL     OW32956   2.474   2.617   6.434 -0.0464  0.0115  0.4189
 7107SOL    HW132957   2.495   2.524   6.421 -0.4694 -0.0061 -0.1500
 7107SOL    HW232958   2.379   2.616   6.451 -0.0271 -1.9398  0.4251
 7108SOL     OW32959   3.951   3.524   1.112  0.0450  0.2907 -0.0132
 7108SOL    HW132960   3.935   3.576   1.033 -2.8463  1.5939  1.4378
 7108SOL    HW232961   4.042   3.541   1.135  0.6290 -1.4553 -0.9913
 7109SOL     OW32962   4.163   0.347   3.184 -0.0016  0.4004 -0.7123
 7109SOL    HW132963   4.185   0.376   3.273 -0.7961  2.3510 -1.1715
 7109SOL    HW232964   4.069   0.332   3.187  0.0359  0.2495 -0.1684
 7110SOL     OW32965   3.359   4.326   3.340 -0.1091  0.5207 -0.0893
 7110SOL    HW132966   3.266   4.321   3.319  0.5323 -2.3174 -2.1861
 7110SOL    HW232967   3.346   4.314   3.435  1.0964  0.6432  0.0900
 7111SOL     OW32968   0.260   2.709   1.301  0.0701  0.4239  0.7763
 7111SOL    HW132969   0.242   2.677   1.389 -2.6174  0.8646  0.3981
 7111SOL    HW232970   0.274   2.630   1.248 -1.9800  0.3909  0.2806
 7112SOL     OW32971   4.134   0.487   5.224  0.0393 -0.0437 -0.0443
 7112SOL    HW132972   4.175   0.447   5.301  0.3195  0.2537 -0.0373
 7112SOL    HW232973   4.061   0.428   5.207 -1.3218  2.4167 -2.7637
 7113SOL     OW32974   2.852   4.300  12.961 -0.4822  0.3642 -1.2990
 7113SOL    HW132975   2.906   4.258  12.894 -0.5794  1.5456 -2.1179
 7113SOL    HW232976   2.903   4.381  12.971  1.5128 -0.9564 -0.9118
 7114SOL     OW32977   4.212   3.316   3.262  0.7036  0.0628  0.0928
 7114SOL    HW132978   4.209   3.399   3.310  1.9720  0.1918 -0.0677
 7114SOL    HW232979   4.173   3.254   3.323 -0.9424 -0.1641 -1.1741
 7115SOL     OW32980   0.534   2.461   5.813  0.2158  0.4044  0.0272
 7115SOL    HW132981   0.464   2.414   5.767  1.2332  0.8235 -1.9416
 7115SOL    HW232982   0.480   2.510   5.875 -3.0786 -3.1590  0.0300
 7116SOL     OW32983   3.480   0.457   1.761  0.3072 -0.2424 -0.1365
 7116SOL    HW132984   3.464   0.384   1.820  1.0234 -1.4377 -1.4222
 7116SOL    HW232985   3.408   0.521   1.765 -1.1900 -1.8892 -0.7727
 7117SOL     OW32986   0.713   1.969  16.828 -0.4510  0.0010  0.2237
 7117SOL    HW132987   0.760   2.052  16.839 -0.0268 -0.1717 -0.3110
 7117SOL    HW232988   0.657   1.997  16.755 -0.9152  0.1931  0.6511
 7118SOL     OW32989   0.468   0.359   7.410  0.1618  0.2303 -0.1697
 7118SOL    HW132990   0.445   0.411   7.486 -1.6139  0.4871 -0.8899
 7118SOL    HW232991   0.389   0.372   7.357  1.6298 -1.2917 -2.7816
 7119SOL     OW32992   4.675   0.583   4.546  0.4821  0.0664 -0.3297
 7119SOL    HW132993   0.007   0.633   4.592 -0.1931  0.5994  0.0603
 7119SOL    HW232994   4.704   0.491   4.551 -1.8013 -0.4989  2.4342
 7120SOL     OW32995   2.903   0.332  10.622  0.1539  0.2015  0.7507
 7120SOL    HW132996   2.840   0.265  10.647 -0.5292  1.2534  1.8239
 7120SOL    HW232997   2.844   0.388  10.572  0.5780  0.2418  0.2871
 7121SOL     OW32998   1.268   4.086   3.205 -0.3046  0.3913 -0.3589
 7121SOL    HW132999   1.346   4.137   3.183 -0.4308  0.9826  0.5514
 7121SOL    HW233000   1.196   4.133   3.164  0.9924  1.2548 -1.6269
 7122SOL     OW33001   0.810   3.613   1.907 -0.0265 -0.3540  0.0090
 7122SOL    HW133002   0.754   3.646   1.977  2.4531 -0.0332  1.8505
 7122SOL    HW233003   0.766   3.531   1.887 -2.0019  0.9560 -0.9885
 7123SOL     OW33004   2.023   4.001   5.585  0.5355  0.0335  0.2750
 7123SOL    HW133005   1.991   3.913   5.604  0.6505 -0.3679 -1.4522
 7123SOL    HW233006   2.015   4.041   5.672  0.9557 -1.5060  1.0175
 7124SOL     OW33007   4.334   1.754   4.453  0.1405 -0.1044 -0.1186
 7124SOL    HW133008   4.241   1.736   4.437  0.1068  0.6286 -0.7060
 7124SOL    HW233009   4.349   1.719   4.541 -0.7878 -0.5066 -0.1112
 7125SOL     OW33010   1.917   2.360   2.364  0.5345 -0.4006  0.2845
 7125SOL    HW133011   1.894   2.437   2.416  0.1788 -1.2716  1.4286
 7125SOL    HW233012   1.833   2.314   2.358  1.8576 -3.2370  3.1217
 7126SOL     OW33013   3.033   0.527   6.858 -0.1366 -0.0440 -0.3343
 7126SOL    HW133014   3.013   0.481   6.776 -2.0695  0.2981 -0.0514
 7126SOL    HW233015   3.018   0.457   6.922  1.1814 -0.0233 -0.0052
 7127SOL     OW33016   0.966   4.341  16.012  0.1358 -0.0856  0.1414
 7127SOL    HW133017   1.027   4.338  15.939 -0.5558 -0.9186 -0.3986
 7127SOL    HW233018   0.985   4.260  16.058  0.0272  1.6236  3.1781
 7128SOL     OW33019   3.466   4.512   8.973 -0.6094  0.0124 -0.5656
 7128SOL    HW133020   3.454   4.533   8.880 -3.8484  2.1975  0.3725
 7128SOL    HW233021   3.548   4.462   8.968  0.1350  1.0058  1.8949
 7129SOL     OW33022   2.238   0.551   7.969  0.4173  0.2324 -0.8414
 7129SOL    HW133023   2.299   0.619   7.997  0.5148 -0.2084  0.0278
 7129SOL    HW233024   2.202   0.522   8.053 -1.4361  0.9295 -1.3919
 7130SOL     OW33025   2.710   2.052   9.932 -0.5033  0.3063  0.8824
 7130SOL    HW133026   2.662   2.135   9.936 -0.4846  0.4292 -1.2139
 7130SOL    HW233027   2.717   2.031  10.025  0.6618  1.6556  1.1055
 7131SOL     OW33028   4.372   4.108   4.608  0.0130 -0.7712 -0.4355
 7131SOL    HW133029   4.434   4.040   4.635 -1.7053 -2.4535 -0.6617
 7131SOL    HW233030   4.287   4.063   4.604 -0.5919  0.3003  0.5747
 7132SOL     OW33031   1.398   2.042  15.845 -0.2313  0.2998  0.6449
 7132SOL    HW133032   1.343   2.008  15.915 -0.6307 -2.5612 -1.0558
 7132SOL    HW233033   1.359   2.127  15.826 -1.7614 -0.3716  0.7903
 7133SOL     OW33034   2.582   0.555  12.092 -0.3861  0.0886  0.4816
 7133SOL    HW133035   2.561   0.638  12.048  1.8409  0.7410  0.6835
 7133SOL    HW233036   2.591   0.590  12.180  1.5848 -0.9631  0.6936
 7134SOL     OW33037   2.185   4.185   2.553  0.0644 -0.0934 -0.1673
 7134SOL    HW133038   2.170   4.122   2.482  0.6395  0.1069 -0.4587
 7134SOL    HW233039   2.269   4.213   2.517  0.4217 -1.2864 -0.2822
 7135SOL     OW33040   4.482   0.811   1.097  0.2884 -0.3136  0.0452
 7135SOL    HW133041   4.554   0.869   1.121  0.4506 -0.4124 -0.2051
 7135SOL    HW233042   4.524   0.740   1.050  2.3439 -0.4102  2.0452
 7136SOL     OW33043   3.891   1.970  16.114 -0.0850  0.2291 -0.5754
 7136SOL    HW133044   3.955   1.977  16.044 -1.0978  2.2957 -1.3054
 7136SOL    HW233045   3.909   1.883  16.147 -0.3405  0.0056 -1.0262
 7137SOL     OW33046   1.572   2.398   4.259  0.2173 -0.0322  0.7144
 7137SOL    HW133047   1.483   2.383   4.226 -0.1544  1.1464  1.2019
 7137SOL    HW233048   1.571   2.494   4.259  1.2162 -0.0119 -0.8193
 7138SOL     OW33049   0.526   1.958  17.240 -0.1604 -0.3194  0.3798
 7138SOL    HW133050   0.589   2.028  17.224  0.1925 -0.5550  0.7435
 7138SOL    HW233051   0.570   1.910  17.310  2.0674 -0.5416 -1.1665
 7139SOL     OW33052   3.464   0.618   4.942  0.5168  0.3344  0.6956
 7139SOL    HW133053   3.518   0.693   4.917  2.3440 -0.1820  3.1034
 7139SOL    HW233054   3.379   0.659   4.961  0.8369  2.2405 -1.9068
 7140SOL     OW33055   2.657   0.625  14.607 -0.7208  0.3731  0.2480
 7140SOL    HW133056   2.614   0.705  14.575  0.8776  1.7215  1.4927
 7140SOL    HW233057   2.620   0.611  14.694  0.9482 -1.3758  0.6579
 7141SOL     OW33058   0.769   0.091   8.475  0.1262 -0.5096 -0.5127
 7141SOL    HW133059   0.694   0.147   8.493  0.2356 -0.5685  0.1407
 7141SOL    HW233060   0.840   0.153   8.459 -1.9544  1.4355 -2.2295
 7142SOL     OW33061   0.334   3.957  11.774 -0.1232  0.4145 -0.4212
 7142SOL    HW133062   0.385   3.926  11.849 -0.6851 -1.4637 -0.8141
 7142SOL    HW233063   0.304   4.044  11.801  1.4246  0.3264  1.5846
 7143SOL     OW33064   0.719   1.978   9.210  0.0368 -0.0937  0.1559
 7143SOL    HW133065   0.813   1.967   9.220  0.0594 -0.5881 -0.5865
 7143SOL    HW233066   0.720   2.026   9.128 -2.1450  1.4444  1.0346
 7144SOL     OW33067   4.043   3.005   2.000  0.0528 -0.0738  1.1691
 7144SOL    HW133068   4.138   2.996   1.995 -0.1890 -1.6748 -0.5649
 7144SOL    HW233069   4.030   2.978   2.091 -0.0445 -1.8175  0.6404
 7145SOL     OW33070   2.747   3.372   4.149  0.1685  0.0327  0.0883
 7145SOL    HW133071   2.676   3.402   4.093 -1.0631 -0.4633  1.3931
 7145SOL    HW233072   2.746   3.427   4.227  1.2867 -1.1768  0.9625
 7146SOL     OW33073   4.498   2.468   9.026 -0.6824  0.0078 -0.3510
 7146SOL    HW133074   4.473   2.509   9.108 -0.5276 -1.2504  0.3231
 7146SOL    HW233075   4.592   2.455   9.035 -0.5102  0.8647 -0.8814
 7147SOL     OW33076   3.545   1.096   4.650  0.1391 -0.1736 -0.6484
 7147SOL    HW133077   3.608   1.123   4.717 -0.8761  0.9503 -0.1340
 7147SOL    HW233078   3.578   1.147   4.576  2.1796  0.2008  0.5265
 7148SOL     OW33079   0.555   3.141   1.952 -0.3764  0.1461  0.0841
 7148SOL    HW133080   0.527   3.124   1.862 -0.6522  0.3349  0.1333
 7148SOL    HW233081   0.540   3.054   1.988  0.6689 -0.4162 -0.8680
 7149SOL     OW33082   3.718   0.819   2.458 -0.3889  1.0553 -0.1639
 7149SOL    HW133083   3.730   0.852   2.369  0.8123  0.8741 -0.0674
 7149SOL    HW233084   3.674   0.738   2.433  2.2700 -1.3288  2.8454
 7150SOL     OW33085   3.026   2.517   4.639  0.3357 -0.3325 -0.2170
 7150SOL    HW133086   3.096   2.452   4.637  0.8872  0.2636 -0.1827
 7150SOL    HW233087   2.961   2.455   4.672 -0.8522  0.3649 -1.2462
 7151SOL     OW33088   0.110   2.289   0.172 -0.6028 -0.5153 -0.0487
 7151SOL    HW133089   0.150   2.361   0.123 -1.4468 -1.8519 -2.6851
 7151SOL    HW233090   0.057   2.347   0.227 -0.7152  0.2166 -0.9379
 7152SOL     OW33091   3.605   0.181   8.951 -0.6522  0.8174  0.0000
 7152SOL    HW133092   3.539   0.136   9.004 -0.8706 -0.1220 -1.0641
 7152SOL    HW233093   3.675   0.188   9.016  0.6826  0.2177 -1.3912
 7153SOL     OW33094   2.510   3.488   4.471  0.0964 -0.3147 -0.7107
 7153SOL    HW133095   2.453   3.420   4.436 -0.1140 -0.2644 -0.4681
 7153SOL    HW233096   2.451   3.564   4.478 -1.4789 -1.5361 -0.6769
 7154SOL     OW33097   3.112   2.381   3.760 -0.3300 -0.2623 -0.1741
 7154SOL    HW133098   3.088   2.465   3.719  1.3187 -0.5967 -1.8356
 7154SOL    HW233099   3.189   2.359   3.707 -0.3037 -0.7771  0.0828
 7155SOL     OW33100   0.234   4.358   2.725  0.3560 -0.0060 -0.5487
 7155SOL    HW133101   0.172   4.309   2.779 -0.7924  0.3451 -1.5361
 7155SOL    HW233102   0.217   4.316   2.640 -0.4366  0.5977 -0.6824
 7156SOL     OW33103   4.548   1.929   4.560  0.4725  0.1013 -0.2855
 7156SOL    HW133104   4.488   1.883   4.502 -0.0722 -1.3221  1.3777
 7156SOL    HW233105   4.618   1.868   4.584 -0.9051 -1.5492 -0.5171
 7157SOL     OW33106   3.776   4.305   3.107 -0.0166 -0.3628 -0.0972
 7157SOL    HW133107   3.682   4.296   3.124 -0.0806  4.0671  1.9695
 7157SOL    HW233108   3.784   4.394   3.143 -0.3482  0.7822 -2.8194
 7158SOL     OW33109   3.235   1.319   2.832  0.3989 -0.0872  0.3800
 7158SOL    HW133110   3.213   1.283   2.746 -1.6801  0.3509  0.7182
 7158SOL    HW233111   3.296   1.251   2.860 -0.0460 -0.7421 -0.2214
 7159SOL     OW33112   4.279   2.718   1.536 -0.2786  0.1674  0.3029
 7159SOL    HW133113   4.341   2.666   1.586  0.7436  0.7705 -0.3247
 7159SOL    HW233114   4.219   2.753   1.602 -1.1095  0.6223 -0.6928
 7160SOL     OW33115   0.244   2.380   7.000 -0.4694 -0.3580  0.5980
 7160SOL    HW133116   0.295   2.430   6.936 -0.9495 -1.1780 -0.4277
 7160SOL    HW233117   0.318   2.335   7.043  0.1205 -2.2482 -2.4164
 7161SOL     OW33118   2.179   3.062  17.178 -0.1928  0.9969 -0.4463
 7161SOL    HW133119   2.230   3.034  17.102  2.3149 -0.3906  1.7429
 7161SOL    HW233120   2.186   2.985  17.235 -2.1045  0.4974 -0.8902
 7162SOL     OW33121   1.440   1.206   5.978 -0.0022 -0.5652  0.0787
 7162SOL    HW133122   1.446   1.302   5.973  0.1603 -0.5218  1.1658
 7162SOL    HW233123   1.485   1.183   5.897 -0.1803  0.8783 -0.4268
 7163SOL     OW33124   2.299   0.681  13.460 -0.0512 -0.0989 -0.2186
 7163SOL    HW133125   2.275   0.767  13.496 -0.0733  0.1658 -0.8681
 7163SOL    HW233126   2.262   0.630  13.533  0.1959 -1.3566 -0.9782
 7164SOL     OW33127   4.415   0.553   6.229 -0.5371 -0.8580 -0.4886
 7164SOL    HW133128   4.446   0.577   6.316 -0.4346 -0.7268 -0.5612
 7164SOL    HW233129   4.341   0.610   6.208  0.4113  0.7742  0.6257
 7165SOL     OW33130   3.766   2.715   7.361  0.3361  0.2097 -0.6386
 7165SOL    HW133131   3.712   2.785   7.324 -1.6606 -0.5983  0.7462
 7165SOL    HW233132   3.832   2.763   7.410 -1.4360  1.0176  0.9722
 7166SOL     OW33133   3.609   3.130   9.098  0.0739  0.6339  0.0409
 7166SOL    HW133134   3.590   3.214   9.056 -0.6825 -0.1635 -1.2302
 7166SOL    HW233135   3.679   3.110   9.035 -1.1592  0.7542 -1.3727
 7167SOL     OW33136   1.729   2.634  17.646  0.4972  0.3788  0.0028
 7167SOL    HW133137   1.715   2.721  17.683  3.0569  1.0587 -0.6420
 7167SOL    HW233138   1.639   2.609  17.627 -0.1049 -0.2768  3.6531
 7168SOL     OW33139   4.514   0.601   9.594 -0.4440 -0.3419  0.0056
 7168SOL    HW133140   4.507   0.548   9.515 -0.2820 -1.4303  0.7243
 7168SOL    HW233141   4.422   0.622   9.609 -1.2892 -3.2037 -1.1813
 7169SOL     OW33142   1.749   0.834   4.797  0.2431 -0.1083  0.1376
 7169SOL    HW133143   1.732   0.883   4.877 -0.4146  4.2111 -2.6360
 7169SOL    HW233144   1.659   0.803   4.780 -0.1067  0.3053  1.2572
 7170SOL     OW33145   3.636   1.432   6.472 -0.0820 -0.1147  0.6904
 7170SOL    HW133146   3.550   1.429   6.513 -0.1722  0.4371  0.5418
 7170SOL    HW233147   3.699   1.428   6.544  0.4614  0.6443  0.2657
 7171SOL     OW33148   4.416   4.557   3.281  0.4120 -0.1265 -0.2516
 7171SOL    HW133149   4.501   4.592   3.256  0.0293  0.3129 -0.9447
 7171SOL    HW233150   4.387   4.502   3.208  1.8534  0.8686 -1.5771
 7172SOL     OW33151   2.340   0.876   1.949 -0.1870 -0.1264 -0.0441
 7172SOL    HW133152   2.379   0.894   1.864 -1.3385 -0.4534 -0.6357
 7172SOL    HW233153   2.249   0.903   1.949 -0.5650 -1.4280 -0.6151
 7173SOL     OW33154   2.591   0.835   7.279  0.1045  0.5085 -0.3797
 7173SOL    HW133155   2.533   0.906   7.248 -4.2028 -3.2010 -0.8161
 7173SOL    HW233156   2.672   0.848   7.229 -0.1267  1.7075 -0.4460
 7174SOL     OW33157   3.527   3.159   2.659  0.1867  0.7158 -0.0947
 7174SOL    HW133158   3.505   3.167   2.752  4.2347  1.9747  0.7558
 7174SOL    HW233159   3.619   3.132   2.653 -0.8183 -2.5222 -0.4838
 7175SOL     OW33160   2.136   4.059  12.191  0.2905  0.4294  0.1311
 7175SOL    HW133161   2.214   4.046  12.246  1.2541  1.0700 -1.0853
 7175SOL    HW233162   2.077   3.993  12.228  2.9304 -1.5051  0.9028
 7176SOL     OW33163   3.219   3.724  13.867  0.2930 -0.5980  0.0113
 7176SOL    HW133164   3.252   3.778  13.795  2.9793 -0.9801  0.9395
 7176SOL    HW233165   3.298   3.687  13.908 -0.2314  0.7942  2.2712
 7177SOL     OW33166   0.759   3.483   6.162 -0.4599  0.4341 -0.1567
 7177SOL    HW133167   0.810   3.407   6.189 -1.8289 -0.5526 -0.3688
 7177SOL    HW233168   0.815   3.552   6.197 -0.3516  1.5552 -2.5118
 7178SOL     OW33169   1.506   2.732   2.518 -0.1213  0.2222  0.1226
 7178SOL    HW133170   1.430   2.789   2.522  0.3810  1.1472 -3.5593
 7178SOL    HW233171   1.572   2.780   2.569 -0.5544  0.8632  0.0657
 7179SOL     OW33172   0.091   2.034  13.067  0.3861 -0.0841  0.5541
 7179SOL    HW133173   0.078   1.952  13.019 -0.0792 -0.7652  1.8423
 7179SOL    HW233174   0.057   2.021  13.155  1.2497 -0.1998  0.8590
 7180SOL     OW33175   0.729   4.412   8.051 -0.2969 -0.4772 -0.1360
 7180SOL    HW133176   0.762   4.438   8.137 -1.4963  0.8210 -0.0580
 7180SOL    HW233177   0.757   4.481   7.990 -1.3827 -1.6769 -1.9942
 7181SOL     OW33178   0.323   2.408   9.105  0.0556 -0.2433  0.7267
 7181SOL    HW133179   0.399   2.399   9.047 -0.7413 -2.1771 -0.0241
 7181SOL    HW233180   0.329   2.322   9.147  1.1208  0.4223  1.9475
 7182SOL     OW33181   1.888   3.865  14.095  0.0530  0.1948 -0.1802
 7182SOL    HW133182   1.826   3.876  14.167 -1.9951 -1.7330 -1.6429
 7182SOL    HW233183   1.841   3.899  14.019 -0.8181  0.2993  0.4017
 7183SOL     OW33184   3.330   0.041  10.990 -0.1308 -0.4371  0.0739
 7183SOL    HW133185   3.374   0.070  11.070  0.1139 -1.3629  0.2816
 7183SOL    HW233186   3.238   0.035  11.017 -0.2380  1.6840  0.1283
 7184SOL     OW33187   1.642   0.315   5.673  0.1564  0.2310 -0.2437
 7184SOL    HW133188   1.591   0.370   5.614 -0.9473  0.3037  0.7705
 7184SOL    HW233189   1.703   0.383   5.701  0.5396  0.5261 -1.8171
 7185SOL     OW33190   1.965   0.808   4.636  0.5665  0.0277  0.0625
 7185SOL    HW133191   2.003   0.896   4.638  0.1362  0.1942  0.9479
 7185SOL    HW233192   1.883   0.818   4.684  1.1737 -0.3230  1.1753
 7186SOL     OW33193   1.229   2.423   5.388  0.2671  0.2482 -0.0055
 7186SOL    HW133194   1.155   2.367   5.412 -0.5081  1.1802 -0.1857
 7186SOL    HW233195   1.270   2.377   5.315 -0.9571  3.1750 -2.5750
 7187SOL     OW33196   0.637   3.368   6.794  0.8955  0.5576  0.0568
 7187SOL    HW133197   0.671   3.372   6.705 -0.0835  0.9252 -0.3025
 7187SOL    HW233198   0.709   3.318   6.832 -0.0978  0.8454  2.2962
 7188SOL     OW33199   0.360   3.537   9.292  0.0188 -0.2786  0.3127
 7188SOL    HW133200   0.309   3.586   9.227 -0.4295  0.4476  1.2049
 7188SOL    HW233201   0.372   3.604   9.360 -0.5479 -0.5987  0.7298
 7189SOL     OW33202   0.145   2.403   5.889  0.3386 -0.3321  0.1505
 7189SOL    HW133203   0.211   2.372   5.826 -0.4407 -1.5599 -0.0558
 7189SOL    HW233204   0.196   2.478   5.920  0.9316 -1.0278  0.8549
 7190SOL     OW33205   3.408   1.335   5.443 -0.3467  0.6516  0.5757
 7190SOL    HW133206   3.344   1.388   5.490 -0.1272  0.8989  0.6001
 7190SOL    HW233207   3.460   1.399   5.393 -1.1456  0.6170 -0.3066
 7191SOL     OW33208   3.378   0.843   7.669  0.6690  0.1152 -0.1182
 7191SOL    HW133209   3.451   0.792   7.704  2.5177  2.5604 -0.4694
 7191SOL    HW233210   3.331   0.858   7.752  2.5194 -1.1714  1.1655
 7192SOL     OW33211   1.747   0.066   5.770  0.6304 -0.6655 -0.0225
 7192SOL    HW133212   1.693   0.142   5.748  0.4398 -0.9910 -0.6976
 7192SOL    HW233213   1.676   0.001   5.774  1.7674 -1.7358  2.7047
 7193SOL     OW33214   4.576   4.240   9.151 -0.1703 -0.0139  0.3444
 7193SOL    HW133215   4.616   4.244   9.064  0.4155 -0.8122  0.5831
 7193SOL    HW233216   4.490   4.275   9.127 -0.1488  0.9175  1.6196
 7194SOL     OW33217   3.704   3.716   9.441  0.8627  0.4452  0.3842
 7194SOL    HW133218   3.763   3.719   9.516 -0.3701 -0.0023  1.3873
 7194SOL    HW233219   3.764   3.680   9.377  0.1264  1.2946 -0.7757
 7195SOL     OW33220   4.377   1.554   6.067  0.1905 -0.2704  0.1366
 7195SOL    HW133221   4.423   1.493   6.125 -0.3807  0.1480  1.0313
 7195SOL    HW233222   4.442   1.582   6.002  0.5333  1.2994  1.1696
 7196SOL     OW33223   1.638   0.389   2.555  0.7103  0.1425  0.0501
 7196SOL    HW133224   1.547   0.416   2.552  0.7928  0.4892  0.5828
 7196SOL    HW233225   1.666   0.414   2.467 -2.7685 -1.5289 -1.5085
 7197SOL     OW33226   3.209   2.874  15.256 -0.4342  0.9378 -0.0707
 7197SOL    HW133227   3.276   2.824  15.210  1.7218  2.7191  1.1186
 7197SOL    HW233228   3.175   2.816  15.324  1.3111 -0.6462 -0.5306
 7198SOL     OW33229   1.922   1.658   7.982 -0.9588 -0.9415  0.2120
 7198SOL    HW133230   1.855   1.643   7.916  0.5921 -0.0258 -1.5783
 7198SOL    HW233231   1.969   1.731   7.941 -2.3738 -0.0899  0.1024
 7199SOL     OW33232   4.317   3.143   7.948  0.3364 -0.3127 -0.0766
 7199SOL    HW133233   4.367   3.207   7.898  0.1963  0.2895  0.5552
 7199SOL    HW233234   4.236   3.192   7.956  0.3627 -0.5655  1.7310
 7200SOL     OW33235   0.244   1.839   1.288 -0.2263  0.3831  0.4580
 7200SOL    HW133236   0.302   1.764   1.272  0.6026  1.5101 -1.7942
 7200SOL    HW233237   0.206   1.846   1.201  3.6832 -0.1648 -1.2851
 7201SOL     OW33238   2.758   3.463   8.860  0.3723 -0.1771  0.1442
 7201SOL    HW133239   2.709   3.381   8.852  0.9159 -0.7948  3.0972
 7201SOL    HW233240   2.731   3.485   8.949 -0.7865 -4.3041  0.8179
 7202SOL     OW33241   2.874   0.151   1.165  0.2984 -0.1673  0.2665
 7202SOL    HW133242   2.890   0.206   1.242  0.7760  0.5419 -0.3467
 7202SOL    HW233243   2.781   0.129   1.171  0.2110  0.6763  2.0980
 7203SOL     OW33244   3.455   1.224  17.578  0.1329  0.4793 -0.1754
 7203SOL    HW133245   3.368   1.228  17.539 -0.6157  4.2929  1.9761
 7203SOL    HW233246   3.508   1.227  17.498 -1.1734 -1.9767 -1.1561
 7204SOL     OW33247   2.912   3.731   8.483 -0.1244 -0.4100  0.0557
 7204SOL    HW133248   2.861   3.794   8.534  0.3544  0.3863 -0.4448
 7204SOL    HW233249   2.991   3.714   8.535  1.9716  0.4711 -2.8322
 7205SOL     OW33250   3.767   3.696  15.799 -0.2364  0.2319 -0.0545
 7205SOL    HW133251   3.824   3.771  15.818 -0.2602  0.6477 -1.5844
 7205SOL    HW233252   3.826   3.621  15.804 -1.1493 -0.4749  0.1108
 7206SOL     OW33253   1.250   4.409   3.678  0.1854  0.7071  0.7434
 7206SOL    HW133254   1.303   4.382   3.753  2.4344 -1.4234 -1.6364
 7206SOL    HW233255   1.314   4.408   3.607 -1.1349 -0.6422 -0.4346
 7207SOL     OW33256   0.498   0.864  15.177 -0.1632  0.4645 -0.1278
 7207SOL    HW133257   0.549   0.877  15.257 -1.1039  0.1235  0.5246
 7207SOL    HW233258   0.563   0.872  15.108 -0.3918  0.6522 -0.3218
 7208SOL     OW33259   2.445   3.739   2.136  0.0798  0.5263  0.3970
 7208SOL    HW133260   2.492   3.822   2.140  0.2821  0.3805  0.9884
 7208SOL    HW233261   2.358   3.772   2.115 -0.0852  0.8874  1.6682
 7209SOL     OW33262   2.787   1.714   5.010  0.0229 -0.0251 -0.1121
 7209SOL    HW133263   2.756   1.648   5.072  0.3565  1.5254  1.6834
 7209SOL    HW233264   2.830   1.772   5.072 -1.0569  2.3679 -1.6023
 7210SOL     OW33265   3.717   3.348  13.204  0.2680  0.4179  0.4622
 7210SOL    HW133266   3.637   3.336  13.152  1.6704 -2.3795 -1.0892
 7210SOL    HW233267   3.787   3.321  13.144 -0.8274  0.2883 -0.7561
 7211SOL     OW33268   1.965   3.454   3.652 -0.1450 -0.7546 -0.1822
 7211SOL    HW133269   1.936   3.364   3.668  3.8058 -1.7331  1.3992
 7211SOL    HW233270   2.002   3.478   3.737 -1.2701  0.7695 -0.1320
 7212SOL     OW33271   2.065   4.119  13.957  0.2651  0.6297  0.0476
 7212SOL    HW133272   1.982   4.150  13.994 -0.0451 -0.9655  0.6557
 7212SOL    HW233273   2.047   4.043  13.902  0.7317 -0.0019  0.7814
 7213SOL     OW33274   2.550   2.511   5.203  0.5437 -0.0159 -0.0433
 7213SOL    HW133275   2.640   2.477   5.208  1.0926  1.5425  0.5099
 7213SOL    HW233276   2.530   2.545   5.290  0.7388  0.7897 -0.3149
 7214SOL     OW33277   1.394   4.584   1.042  0.3539 -0.2268  0.2530
 7214SOL    HW133278   1.327   4.632   1.091  0.5661 -1.5228  1.8293
 7214SOL    HW233279   1.407   4.501   1.089 -0.7653 -1.2639 -1.3035
 7215SOL     OW33280   2.875   3.624   2.360  0.3845  0.1148  0.2446
 7215SOL    HW133281   2.865   3.713   2.326  0.5615  0.3377  0.7625
 7215SOL    HW233282   2.967   3.603   2.346  1.0824  2.3606  1.4405
 7216SOL     OW33283   0.602   4.379  10.203  0.4480  0.0745 -0.1115
 7216SOL    HW133284   0.651   4.453  10.166 -0.1560 -0.2361 -1.5280
 7216SOL    HW233285   0.652   4.371  10.284 -0.4527 -0.1972  0.4160
 7217SOL     OW33286   0.861   3.821   2.235  0.3535  0.2981 -0.4753
 7217SOL    HW133287   0.954   3.799   2.225  0.1849 -1.4415  1.8576
 7217SOL    HW233288   0.868   3.876   2.313 -0.9636  0.5447 -0.5419
 7218SOL     OW33289   4.700   3.794  16.996 -0.6231 -0.1760  0.8284
 7218SOL    HW133290   4.704   3.732  17.069  4.2340 -2.6055 -1.5055
 7218SOL    HW233291   0.050   3.837  17.001 -1.5261  1.5711  1.2527
 7219SOL     OW33292   2.558   3.111   2.914  0.1997  0.4642  0.2239
 7219SOL    HW133293   2.478   3.082   2.956  2.4727 -0.9518  3.5638
 7219SOL    HW233294   2.560   3.050   2.840 -1.1325 -1.3269  1.6494
 7220SOL     OW33295   0.571   4.285   2.452 -0.1354 -0.1912  0.3180
 7220SOL    HW133296   0.617   4.362   2.418  0.1357 -0.3554  0.3084
 7220SOL    HW233297   0.482   4.318   2.449 -1.0658 -2.7663 -0.1943
 7221SOL     OW33298   4.250   0.411  15.891  0.1429 -0.1933  0.2456
 7221SOL    HW133299   4.332   0.364  15.908 -1.0906 -2.9935 -1.5886
 7221SOL    HW233300   4.189   0.338  15.903 -0.7108  0.5634  0.5150
 7222SOL     OW33301   2.643   1.016   1.336 -0.1548 -0.3225 -0.1229
 7222SOL    HW133302   2.648   0.979   1.248  0.9020  0.3570 -0.3548
 7222SOL    HW233303   2.613   1.105   1.321 -2.4835 -1.4902 -2.2278
 7223SOL     OW33304   0.016   4.250   4.417 -0.8082  0.2466 -0.4417
 7223SOL    HW133305   0.061   4.232   4.334  0.5911 -0.9793  0.6014
 7223SOL    HW233306   0.065   4.197   4.480  0.2858  1.9778  0.1401
 7224SOL     OW33307   4.646   1.581   0.983  0.1712 -0.0825  0.4028
 7224SOL    HW133308   4.557   1.547   0.969 -0.7774  3.7805 -2.8981
 7224SOL    HW233309   4.677   1.576   0.892 -0.4939 -1.9908  0.2781
 7225SOL     OW33310   1.165   1.064   1.178 -0.3800  0.2215 -0.4538
 7225SOL    HW133311   1.107   1.027   1.112  1.5538  0.3492 -2.2408
 7225SOL    HW233312   1.102   1.110   1.234 -0.3759 -0.1751 -0.1243
 7226SOL     OW33313   1.185   0.445   3.438 -0.7287  0.1353  0.6633
 7226SOL    HW133314   1.161   0.466   3.348  2.0445 -1.8254 -0.5128
 7226SOL    HW233315   1.167   0.522   3.492 -2.7390 -0.8515  1.4312
 7227SOL     OW33316   0.157   3.347  10.710 -0.4768  0.1764 -0.1419
 7227SOL    HW133317   0.068   3.378  10.694 -0.3484 -1.0869 -3.1340
 7227SOL    HW233318   0.158   3.346  10.806  0.0268 -0.7055 -0.1562
 7228SOL     OW33319   2.100   0.546   0.636  0.0346  0.1027  0.4960
 7228SOL    HW133320   2.022   0.495   0.657 -0.0923  0.7142  1.5153
 7228SOL    HW233321   2.069   0.594   0.559  1.7566 -1.3055 -1.0726
 7229SOL     OW33322   1.053   4.116  16.497 -0.7596  0.2654  0.1599
 7229SOL    HW133323   1.086   4.200  16.465 -0.2754  0.7173  1.8939
 7229SOL    HW233324   0.967   4.148  16.526 -0.1616  1.7175  0.2977
 7230SOL     OW33325   3.745   3.069   0.216  0.3036  0.0995  0.2035
 7230SOL    HW133326   3.837   3.058   0.193 -0.1933 -2.2896 -0.6089
 7230SOL    HW233327   3.731   3.158   0.182  0.6503  0.0878  0.0382
 7231SOL     OW33328   1.032   1.355   6.413 -0.4657  0.0406 -0.8843
 7231SOL    HW133329   1.040   1.270   6.368  1.6944 -1.5383  2.5435
 7231SOL    HW233330   0.965   1.340   6.479 -0.6085  2.0221 -0.5949
 7232SOL     OW33331   0.528   2.392  15.507 -0.1420 -0.1702  0.2220
 7232SOL    HW133332   0.446   2.441  15.511 -0.8847 -1.3847  0.1259
 7232SOL    HW233333   0.596   2.456  15.524  0.8137 -0.4778 -2.4865
 7233SOL     OW33334   2.861   3.790   4.406 -0.5175  0.6638  0.0011
 7233SOL    HW133335   2.910   3.864   4.370 -2.0506 -0.1949 -3.7783
 7233SOL    HW233336   2.826   3.741   4.332 -2.3047  0.0580  1.2406
 7234SOL     OW33337   1.041   1.936   7.523 -0.3328  0.0518  0.6578
 7234SOL    HW133338   1.065   1.844   7.534  1.4550  0.5328  0.8475
 7234SOL    HW233339   1.031   1.952   7.429 -0.9043 -1.6589  0.4262
 7235SOL     OW33340   4.389   3.629   7.530 -0.5823  0.4175  0.5346
 7235SOL    HW133341   4.320   3.696   7.524 -0.2329  0.6347 -1.0392
 7235SOL    HW233342   4.374   3.590   7.444 -1.8438 -0.0024  0.9429
 7236SOL     OW33343   2.693   3.710   8.117 -0.1486  0.1253  0.2943
 7236SOL    HW133344   2.658   3.642   8.175  1.4509 -0.7058  0.2807
 7236SOL    HW233345   2.673   3.682   8.028 -2.1579  0.1170  0.7507
 7237SOL     OW33346   0.397   3.586   1.442 -0.4068  0.0850  0.2975
 7237SOL    HW133347   0.366   3.552   1.526 -0.9739 -0.9189 -0.3208
 7237SOL    HW233348   0.371   3.521   1.376  1.6939 -0.9705  0.5130
 7238SOL     OW33349   1.115   0.126   2.532 -0.4246 -0.5642 -0.1937
 7238SOL    HW133350   1.058   0.136   2.608 -0.2603  0.6073 -0.2228
 7238SOL    HW233351   1.054   0.092   2.466 -0.1779 -3.5201  1.1056
 7239SOL     OW33352   2.694   1.590   9.620  0.7426  0.1048 -0.3453
 7239SOL    HW133353   2.714   1.628   9.706 -3.2154  0.0487  0.5793
 7239SOL    HW233354   2.641   1.660   9.582 -0.7659 -1.1092 -0.4759
 7240SOL     OW33355   2.068   4.719   3.664 -0.1161  0.4098 -0.1627
 7240SOL    HW133356   2.137   4.670   3.619 -0.4616  1.4599 -1.8453
 7240SOL    HW233357   2.001   4.653   3.682  0.3744 -1.2485 -4.5418
 7241SOL     OW33358   3.453   4.577   3.255  0.0479  0.1786 -0.4691
 7241SOL    HW133359   3.427   4.494   3.295 -0.4061  1.2926  1.5576
 7241SOL    HW233360   3.548   4.566   3.251 -0.0149 -1.0987  1.4561
 7242SOL     OW33361   3.390   3.177   0.701  0.6097 -0.1121  0.2460
 7242SOL    HW133362   3.333   3.112   0.741 -0.7456  0.5326 -0.6511
 7242SOL    HW233363   3.430   3.214   0.781 -2.0144  0.4664  1.2895
 7243SOL     OW33364   2.017   0.807   3.361 -0.5292 -0.1758 -0.9068
 7243SOL    HW133365   2.060   0.808   3.447 -3.8378 -0.4178  0.7414
 7243SOL    HW233366   2.022   0.901   3.342 -3.1249  0.0927 -0.2030
 7244SOL     OW33367   2.846   4.444   5.525  0.3684 -0.1418  0.0550
 7244SOL    HW133368   2.912   4.464   5.459 -0.1859  1.2913 -0.0439
 7244SOL    HW233369   2.820   4.533   5.547 -1.3853 -0.6066 -0.1176
 7245SOL     OW33370   4.079   2.864   6.892  0.0675 -0.1684  0.0313
 7245SOL    HW133371   4.035   2.828   6.969  0.7085 -2.6171 -0.7379
 7245SOL    HW233372   4.095   2.954   6.921 -2.1387  0.0096  0.7299
 7246SOL     OW33373   0.324   1.507   4.500  0.1698 -0.4338  0.1202
 7246SOL    HW133374   0.269   1.553   4.436  1.8278 -0.8543 -1.6121
 7246SOL    HW233375   0.367   1.578   4.547 -0.7950  0.8073 -0.8696
 7247SOL     OW33376   3.182   0.489   4.190  0.1644  0.4664 -0.0021
 7247SOL    HW133377   3.090   0.469   4.170 -0.0653  2.0297 -0.5488
 7247SOL    HW233378   3.177   0.485   4.285 -0.4864  1.2855  0.0021
 7248SOL     OW33379   2.898   0.958   3.047  0.2203  0.0118 -0.1550
 7248SOL    HW133380   2.970   0.948   2.985 -1.1110  0.8664 -1.8413
 7248SOL    HW233381   2.836   0.998   2.987 -2.2111  0.4578  2.6542
 7249SOL     OW33382   4.620   3.064   6.976  0.2119  0.2228 -0.3010
 7249SOL    HW133383   4.555   3.056   6.906 -0.8081  1.6019  0.4753
 7249SOL    HW233384   4.689   3.107   6.925 -0.1688 -1.0071 -1.8641
 7250SOL     OW33385   0.712   2.715   1.499  0.1107 -0.1120 -0.2395
 7250SOL    HW133386   0.783   2.690   1.440  3.2596 -1.6073  4.2567
 7250SOL    HW233387   0.643   2.722   1.433  0.3962  0.1318 -0.5157
 7251SOL     OW33388   0.498   2.763  10.013  0.2397 -0.3513 -0.7098
 7251SOL    HW133389   0.530   2.802  10.095  0.0708 -1.9968  0.1556
 7251SOL    HW233390   0.555   2.805   9.949  3.1821 -1.2081  1.3165
 7252SOL     OW33391   1.341   2.691   7.330 -0.6696  0.1890  0.0264
 7252SOL    HW133392   1.421   2.642   7.350 -0.8972 -0.0796  0.2752
 7252SOL    HW233393   1.359   2.687   7.236 -2.0779 -0.3308 -0.2159
 7253SOL     OW33394   3.537   0.474   5.649 -0.3579  0.3409  0.0408
 7253SOL    HW133395   3.492   0.422   5.583 -1.8216  1.2331  0.3407
 7253SOL    HW233396   3.549   0.555   5.599  1.5021 -0.2691 -0.4854
 7254SOL     OW33397   1.956   0.864   6.929  0.3056 -0.6436  0.1825
 7254SOL    HW133398   1.976   0.850   6.836  1.3625  0.6370  0.2081
 7254SOL    HW233399   1.871   0.833   6.957 -0.5480 -0.4068 -2.1116
 7255SOL     OW33400   0.790   3.301   7.166  0.4881 -0.0058 -0.2995
 7255SOL    HW133401   0.840   3.329   7.243  1.3271  0.6359 -1.0825
 7255SOL    HW233402   0.737   3.227   7.196  2.5419 -2.3527 -2.4011
 7256SOL     OW33403   3.623   3.281  13.448 -0.0917  0.3063  0.0005
 7256SOL    HW133404   3.665   3.206  13.489 -0.0868  0.5850  0.5097
 7256SOL    HW233405   3.663   3.285  13.361  0.0768  1.0601  0.1102
 7257SOL     OW33406   4.326   0.744  13.640 -0.3097 -0.2412  0.2338
 7257SOL    HW133407   4.325   0.666  13.695  2.6169 -0.5807 -0.1982
 7257SOL    HW233408   4.321   0.819  13.700 -3.7671 -0.2414 -0.0573
 7258SOL     OW33409   3.006   1.736   8.397  0.4651 -0.2344 -0.3736
 7258SOL    HW133410   2.994   1.774   8.310  2.6155  1.1356 -0.0769
 7258SOL    HW233411   3.084   1.682   8.384  1.4962  0.8532  1.3103
 7259SOL     OW33412   1.949   4.338   2.452 -0.0733 -0.0762 -0.4024
 7259SOL    HW133413   1.983   4.294   2.530 -1.1039  0.5525  0.3919
 7259SOL    HW233414   2.021   4.393   2.422 -0.3939 -0.1348 -1.2966
 7260SOL     OW33415   1.349   4.719  15.213 -0.2138 -0.4524 -0.1254
 7260SOL    HW133416   1.426   4.686  15.167  0.9514  3.0142 -0.6461
 7260SOL    HW233417   1.328   4.646  15.271 -0.5553 -0.0500  0.2641
 7261SOL     OW33418   1.316   4.374  15.093  0.1738 -0.1823 -0.3413
 7261SOL    HW133419   1.300   4.280  15.104  1.7176 -0.4188  0.0214
 7261SOL    HW233420   1.254   4.420  15.149  0.3120  0.2726 -0.5685
 7262SOL     OW33421   3.937   0.610   8.038 -0.1682  0.0942 -0.4561
 7262SOL    HW133422   4.011   0.619   7.977  0.1923  1.2459  0.1563
 7262SOL    HW233423   3.984   0.565   8.108 -2.6672 -0.3642  0.8957
 7263SOL     OW33424   1.592   3.332   7.572  0.4767  0.0668  0.2374
 7263SOL    HW133425   1.625   3.253   7.528  0.3254 -0.7803  1.6518
 7263SOL    HW233426   1.671   3.370   7.610  1.1498  0.8748 -1.9651
 7264SOL     OW33427   2.016   0.555  12.459 -0.1145  0.3539 -0.2706
 7264SOL    HW133428   2.012   0.493  12.531 -2.0161  2.3110  1.3048
 7264SOL    HW233429   1.934   0.603  12.470 -1.4448 -1.0041 -4.3235
 7265SOL     OW33430   1.049   3.396   3.569  0.3622  0.1685  0.9194
 7265SOL    HW133431   0.960   3.421   3.593  0.7987  1.4696  1.2027
 7265SOL    HW233432   1.030   3.316   3.521 -0.1935  0.1792  1.1276
 7266SOL     OW33433   0.794   2.282   0.162 -0.1687  0.1715 -0.2231
 7266SOL    HW133434   0.721   2.230   0.197 -0.7204  1.7016  0.9070
 7266SOL    HW233435   0.744   2.346   0.110 -0.9754  0.3561  0.7727
 7267SOL     OW33436   2.296   2.178   4.703  0.6419  0.1526  0.6088
 7267SOL    HW133437   2.301   2.134   4.788 -0.5397 -0.9087  0.1269
 7267SOL    HW233438   2.210   2.146   4.677  0.7445  0.8834 -0.6177
 7268SOL     OW33439   1.461   2.707  17.377  0.3465  0.1258  0.0909
 7268SOL    HW133440   1.504   2.783  17.337 -0.6880 -0.1213 -1.4841
 7268SOL    HW233441   1.451   2.657  17.296 -4.1764 -3.6474  3.0586
 7269SOL     OW33442   4.696   2.806   7.402  0.3967  0.3965  0.4978
 7269SOL    HW133443   4.684   2.833   7.311  0.8407 -3.0166 -0.5664
 7269SOL    HW233444   0.053   2.830   7.411  1.4551 -3.5234  0.2185
 7270SOL     OW33445   2.734   1.445   5.473 -0.1759 -0.4010 -0.1509
 7270SOL    HW133446   2.653   1.394   5.467  0.6759 -2.2115  3.6180
 7270SOL    HW233447   2.805   1.382   5.460  0.5712  0.7798 -1.7905
 7271SOL     OW33448   3.255   0.995   0.857 -0.3287  0.1063  0.5272
 7271SOL    HW133449   3.246   1.090   0.859 -1.1191  0.0465 -0.1004
 7271SOL    HW233450   3.209   0.975   0.776 -0.3751  2.3727 -0.0131
 7272SOL     OW33451   0.265   2.894   7.752  0.6018  0.0503  0.3005
 7272SOL    HW133452   0.180   2.898   7.708  1.5302 -0.6238 -1.5768
 7272SOL    HW233453   0.318   2.928   7.679 -0.2752 -0.7746 -0.7249
 7273SOL     OW33454   2.233   2.287  14.571  0.4475 -0.7060 -0.1763
 7273SOL    HW133455   2.218   2.314  14.481 -0.6923  0.3271  0.3303
 7273SOL    HW233456   2.328   2.303  14.574  0.0473  1.3578  1.4253
 7274SOL     OW33457   3.848   2.041   8.294  0.1035  0.0435  0.1093
 7274SOL    HW133458   3.777   2.094   8.258  1.7168  0.5084 -2.3642
 7274SOL    HW233459   3.876   1.999   8.213 -2.3919 -1.6982  0.1510
 7275SOL     OW33460   4.326   2.844   5.687 -0.0663  0.1421  0.1907
 7275SOL    HW133461   4.259   2.826   5.621  1.7750 -1.9697 -1.1183
 7275SOL    HW233462   4.273   2.841   5.767 -0.5188 -0.7825 -0.1487
 7276SOL     OW33463   2.159   3.838  15.379 -0.0761  0.3606 -0.2851
 7276SOL    HW133464   2.242   3.790  15.376 -1.0179 -1.4003  1.3972
 7276SOL    HW233465   2.171   3.911  15.319  1.8331  1.0632  0.9665
 7277SOL     OW33466   0.769   2.686   5.349  0.3169 -0.7139 -0.0310
 7277SOL    HW133467   0.688   2.663   5.303  0.6366 -1.0316 -0.4320
 7277SOL    HW233468   0.735   2.735   5.424 -1.0486  1.2108 -1.9170
 7278SOL     OW33469   3.370   2.831   4.510  0.3711 -0.1217  0.3841
 7278SOL    HW133470   3.436   2.775   4.552  0.1544 -0.1320  0.7105
 7278SOL    HW233471   3.352   2.788   4.427 -1.2798 -2.7410  2.1046
 7279SOL     OW33472   4.494   1.240   2.202  0.0668  0.4801  0.1838
 7279SOL    HW133473   4.482   1.145   2.192 -0.9875  0.5630  0.5909
 7279SOL    HW233474   4.545   1.240   2.283 -0.7677 -1.4751  0.7161
 7280SOL     OW33475   4.687   0.752   8.527  0.0102  0.0476  0.3070
 7280SOL    HW133476   4.647   0.825   8.479 -2.1441 -1.5162 -0.3062
 7280SOL    HW233477   4.614   0.690   8.534 -1.6211  2.0563  1.2053
 7281SOL     OW33478   2.148   1.359   3.091 -0.2010  0.1885  0.4691
 7281SOL    HW133479   2.115   1.286   3.039  1.6494 -0.7219  0.5667
 7281SOL    HW233480   2.141   1.322   3.178  1.7403  0.9394  0.9560
 7282SOL     OW33481   4.416   2.508   7.886 -0.1136 -0.6582 -0.3194
 7282SOL    HW133482   4.470   2.488   7.810  1.6644 -3.6509  1.7519
 7282SOL    HW233483   4.423   2.436   7.948 -2.2148 -0.2951  0.3541
 7283SOL     OW33484   1.557   2.116   6.037  0.1421 -0.0033  0.6558
 7283SOL    HW133485   1.647   2.146   6.046  0.3184 -1.1574  2.5912
 7283SOL    HW233486   1.512   2.198   6.056  2.2196  1.8193 -2.2499
 7284SOL     OW33487   4.073   1.056  17.659 -0.6645  0.4787  0.6250
 7284SOL    HW133488   4.078   1.151  17.645 -3.2800  0.8134  2.1247
 7284SOL    HW233489   3.983   1.035  17.634  0.1036  1.6297 -3.1406
 7285SOL     OW33490   2.013   2.391  13.316 -0.9169 -0.0470  0.2891
 7285SOL    HW133491   1.992   2.300  13.335  0.3479 -0.0965  1.4466
 7285SOL    HW233492   2.082   2.423  13.374  0.3184 -0.2682 -1.0506
 7286SOL     OW33493   0.658   1.454   8.958 -0.2788 -0.0690 -0.2406
 7286SOL    HW133494   0.583   1.429   8.904 -1.4417  0.9528  0.9113
 7286SOL    HW233495   0.622   1.519   9.018 -1.1730 -1.8601  1.1466
 7287SOL     OW33496   1.623   3.394   4.052 -0.5922 -0.6830 -0.9108
 7287SOL    HW133497   1.663   3.479   4.036  0.5967 -1.0308  0.2098
 7287SOL    HW233498   1.662   3.340   3.984  0.4295 -1.1261  0.0326
 7288SOL     OW33499   3.429   2.577   2.707 -0.4544 -0.4358  0.0512
 7288SOL    HW133500   3.341   2.556   2.738 -0.1412  1.5986  2.3708
 7288SOL    HW233501   3.462   2.489   2.694  0.4282 -0.4755  2.5583
 7289SOL     OW33502   3.443   2.132   7.285  0.6548  0.1936  0.3376
 7289SOL    HW133503   3.531   2.155   7.314  0.9335  0.5572 -0.8294
 7289SOL    HW233504   3.447   2.191   7.210  2.6644 -0.2565  0.0976
 7290SOL     OW33505   4.367   0.627   7.722 -0.0947 -0.3215 -0.1552
 7290SOL    HW133506   4.428   0.696   7.748  1.1159 -1.3176 -0.3365
 7290SOL    HW233507   4.285   0.656   7.761  0.7701  2.4592 -0.4452
 7291SOL     OW33508   0.552   0.776   4.086 -0.1341 -0.0886  0.6239
 7291SOL    HW133509   0.598   0.713   4.031  1.0719  0.9748  0.4140
 7291SOL    HW233510   0.474   0.788   4.032 -0.0760  0.6088  0.6913
 7292SOL     OW33511   1.090   2.159   4.965  0.3113  0.6841 -0.2798
 7292SOL    HW133512   1.082   2.069   4.996 -1.1343  0.1792 -2.1395
 7292SOL    HW233513   1.182   2.180   4.983  0.5665  0.9957 -2.0025
 7293SOL     OW33514   4.444   4.619  16.509  0.1743 -0.7419 -0.1198
 7293SOL    HW133515   4.458   4.665  16.426  1.3913 -2.1407 -0.6905
 7293SOL    HW233516   4.534   4.605  16.539  0.7893 -0.0527 -1.6524
 7294SOL     OW33517   2.939   4.270   9.950 -0.6582 -0.0423 -0.2525
 7294SOL    HW133518   2.976   4.193   9.994 -0.6560 -0.7179 -1.4248
 7294SOL    HW233519   2.961   4.248   9.860  0.3386 -1.3749  0.3080
 7295SOL     OW33520   3.714   2.765   8.401  0.3800  0.4757  0.5406
 7295SOL    HW133521   3.668   2.798   8.324  0.9168 -0.0016  0.0191
 7295SOL    HW233522   3.640   2.743   8.458  0.6212  0.7033  0.9471
 7296SOL     OW33523   0.957   4.545   3.014  0.1022 -0.3906 -0.2482
 7296SOL    HW133524   0.896   4.614   2.990  3.8554  2.4650 -1.5414
 7296SOL    HW233525   0.914   4.526   3.098  1.5724  0.7609  0.7674
 7297SOL     OW33526   4.256   0.049   3.296  0.6727  0.2643 -0.5630
 7297SOL    HW133527   4.308   4.707   3.275 -3.2262 -2.7525  0.8527
 7297SOL    HW233528   4.307   0.112   3.245  0.0018  1.2069 -0.0762
 7298SOL     OW33529   4.261   2.751   1.156  0.2727 -0.6646 -0.5713
 7298SOL    HW133530   4.328   2.788   1.213  2.4148 -1.6657 -2.4383
 7298SOL    HW233531   4.303   2.702   1.085 -0.5410 -1.2986 -0.6287
 7299SOL     OW33532   0.120   2.763   2.511  0.7523  0.0806  0.1217
 7299SOL    HW133533   0.154   2.673   2.517 -0.4920 -0.4403 -0.5207
 7299SOL    HW233534   0.191   2.826   2.521 -0.1535  1.1073  0.0609
 7300SOL     OW33535   4.697   1.257   9.812  0.5379 -0.0711 -0.0659
 7300SOL    HW133536   4.666   1.343   9.840  0.6405  0.3917 -1.3698
 7300SOL    HW233537   4.623   1.199   9.830  0.3627  0.9092  2.4739
 7301SOL     OW33538   2.631   4.605   2.281  0.0754 -0.2798  0.1654
 7301SOL    HW133539   2.593   4.583   2.366  2.4911  2.5044  1.9641
 7301SOL    HW233540   2.688   4.530   2.263  0.5312  0.2020 -0.3991
 7302SOL     OW33541   3.052   3.037   2.430 -0.4304  0.3205  0.0919
 7302SOL    HW133542   3.050   3.022   2.525  2.0704  0.5507  0.1829
 7302SOL    HW233543   3.012   3.124   2.424 -0.5085  0.0813 -2.5155
 7303SOL     OW33544   1.052   1.655  10.184 -0.1892  0.0018  0.4891
 7303SOL    HW133545   1.120   1.666  10.250 -2.2670  0.5878  2.5455
 7303SOL    HW233546   0.980   1.646  10.246 -1.3798 -0.7828 -1.0207
 7304SOL     OW33547   2.667   3.460   3.259 -0.0225  0.6166 -0.4282
 7304SOL    HW133548   2.690   3.523   3.327  2.0032 -0.0403 -0.5029
 7304SOL    HW233549   2.588   3.498   3.220 -1.9674 -1.8438  1.1285
 7305SOL     OW33550   2.136   2.078   6.928  0.8770 -0.1249 -0.3620
 7305SOL    HW133551   2.059   2.087   6.984  2.1456  2.7390  0.9222
 7305SOL    HW233552   2.185   2.153   6.961  0.9026 -1.1851  2.0276
 7306SOL     OW33553   1.360   3.850   7.313 -0.6072 -0.4202 -0.1436
 7306SOL    HW133554   1.289   3.819   7.369  0.3395  0.2793  1.4451
 7306SOL    HW233555   1.316   3.836   7.229  0.0591 -0.5958 -0.4618
 7307SOL     OW33556   4.469   2.594   1.696  0.1799  0.3405 -0.3122
 7307SOL    HW133557   4.442   2.530   1.761  1.1061 -0.1514 -0.4063
 7307SOL    HW233558   4.533   2.542   1.648  0.2393 -0.2909  0.4493
 7308SOL     OW33559   3.658   2.342   4.707  0.4859 -0.5871 -0.2868
 7308SOL    HW133560   3.747   2.350   4.742 -0.0764 -2.7247  1.6953
 7308SOL    HW233561   3.616   2.408   4.763  1.0701  0.9135 -1.6321
 7309SOL     OW33562   1.484   2.925   3.407 -0.6128 -0.0037  0.1136
 7309SOL    HW133563   1.463   2.930   3.500  0.2346 -0.8011  0.3427
 7309SOL    HW233564   1.432   2.997   3.371 -1.4675 -1.1647 -0.9920
 7310SOL     OW33565   0.506   3.065   4.214  0.2757 -0.3646 -0.1870
 7310SOL    HW133566   0.527   3.068   4.308 -0.3476 -1.3420 -0.0048
 7310SOL    HW233567   0.436   3.000   4.224  0.2149 -0.5690 -2.0291
 7311SOL     OW33568   0.860   4.138  13.099 -0.2022 -0.2608 -0.2318
 7311SOL    HW133569   0.901   4.075  13.158  0.9158  0.1104 -0.6113
 7311SOL    HW233570   0.769   4.108  13.101 -0.0720 -0.5806  0.6153
 7312SOL     OW33571   1.857   0.983   7.440  0.0066  0.2746  0.0543
 7312SOL    HW133572   1.914   1.058   7.424 -0.1181  0.8760  2.4092
 7312SOL    HW233573   1.921   0.913   7.457 -1.2689 -0.6650  1.0071
 7313SOL     OW33574   0.779   2.531  17.717 -0.0637 -0.1795 -0.4325
 7313SOL    HW133575   0.694   2.551   0.018  0.7264  2.3721 -0.1020
 7313SOL    HW233576   0.827   2.598   0.026  0.9285 -0.1880 -1.4119
 7314SOL     OW33577   0.771   2.798   9.933 -0.7922  0.4191 -0.0939
 7314SOL    HW133578   0.778   2.877   9.987 -0.0267  0.0357  0.3678
 7314SOL    HW233579   0.862   2.800   9.901 -0.2205  1.1168  1.5796
 7315SOL     OW33580   3.725   1.812   0.327  0.2118  0.5982 -0.2241
 7315SOL    HW133581   3.786   1.836   0.397 -2.3449 -0.3490  2.3389
 7315SOL    HW233582   3.648   1.807   0.383 -1.4628 -0.2964 -2.5806
 7316SOL     OW33583   3.398   2.402  13.289 -0.1276 -0.1858  0.0224
 7316SOL    HW133584   3.477   2.360  13.322  0.9430  0.6176 -1.5088
 7316SOL    HW233585   3.350   2.331  13.245 -0.0203  0.4321 -1.0879
 7317SOL     OW33586   4.337   2.358   5.311 -0.5443 -0.1909  0.0955
 7317SOL    HW133587   4.425   2.368   5.346 -0.4281 -0.4752 -0.1133
 7317SOL    HW233588   4.315   2.267   5.333 -1.3257 -0.1194 -0.3919
 7318SOL     OW33589   1.052   4.371   7.095 -0.4852 -0.6487 -0.3267
 7318SOL    HW133590   1.067   4.465   7.089  0.5570 -0.6848  1.6080
 7318SOL    HW233591   1.131   4.333   7.133 -0.0171  2.3399  1.6387
 7319SOL     OW33592   3.774   4.004   5.440 -0.4734  0.1920  0.1192
 7319SOL    HW133593   3.743   3.926   5.486 -2.5831  0.0966 -1.4867
 7319SOL    HW233594   3.727   3.994   5.358  0.8071  0.4305 -0.6507
 7320SOL     OW33595   0.117   1.065   2.993  0.2256  0.5181  0.2502
 7320SOL    HW133596   0.075   1.135   3.043  0.8041  1.1598 -0.1593
 7320SOL    HW233597   0.078   1.089   2.909 -0.4908  0.5035  0.5832
 7321SOL     OW33598   1.101   3.231   4.140  0.4616  0.0795 -0.5061
 7321SOL    HW133599   1.043   3.175   4.088 -0.0030 -1.2687  1.4440
 7321SOL    HW233600   1.177   3.227   4.082  0.8695  1.9605 -0.0771
 7322SOL     OW33601   2.075   3.380   7.287  0.0930  0.4912 -0.6892
 7322SOL    HW133602   2.012   3.426   7.344 -1.6344  1.9481 -3.7704
 7322SOL    HW233603   2.029   3.393   7.204  1.1013 -1.2166 -1.5113
 7323SOL     OW33604   3.363   2.393  17.690 -0.0529 -0.2117 -0.0235
 7323SOL    HW133605   3.314   2.432   0.023  1.0681 -2.0249  1.7163
 7323SOL    HW233606   3.405   2.469  17.648 -0.6160 -0.0841 -0.3575
 7324SOL     OW33607   1.630   2.308   2.394  0.3441  0.7122  0.9349
 7324SOL    HW133608   1.572   2.359   2.450 -0.8665  0.3946 -0.0438
 7324SOL    HW233609   1.620   2.223   2.436 -0.4686  0.5113  0.3260
 7325SOL     OW33610   2.416   0.702   3.282 -0.2749  0.4871 -0.0352
 7325SOL    HW133611   2.507   0.683   3.260 -0.2536  0.8222 -0.2389
 7325SOL    HW233612   2.412   0.671   3.372  2.9225 -1.9967 -0.7801
 7326SOL     OW33613   2.862   1.294   1.224 -0.1258 -0.3485  0.5066
 7326SOL    HW133614   2.942   1.246   1.200  0.2948  1.0447 -0.8888
 7326SOL    HW233615   2.788   1.258   1.175  1.3881  0.8170 -2.5985
 7327SOL     OW33616   0.295   3.012   1.334 -0.2381 -0.1483 -0.1894
 7327SOL    HW133617   0.220   3.043   1.284 -1.4586 -2.4308  0.2740
 7327SOL    HW233618   0.302   2.918   1.323  2.4964 -0.0113  0.1879
 7328SOL     OW33619   2.617   1.005   8.683 -0.2045 -0.0113 -0.4172
 7328SOL    HW133620   2.649   1.070   8.746  2.2619 -1.2800 -0.3821
 7328SOL    HW233621   2.578   1.064   8.618 -2.2584  1.5768  2.2226
 7329SOL     OW33622   4.503   0.969   2.120  0.0701 -0.1431 -0.4683
 7329SOL    HW133623   4.548   0.890   2.150 -0.9088  0.1146  1.6875
 7329SOL    HW233624   4.466   0.934   2.039 -0.7414 -0.6617  0.1238
 7330SOL     OW33625   4.141   0.703  10.373 -0.3200  0.5586 -0.1821
 7330SOL    HW133626   4.164   0.656  10.293  1.5528  1.7978 -0.3680
 7330SOL    HW233627   4.067   0.651  10.405  1.1691 -0.8447  0.9749
 7331SOL     OW33628   2.042   0.977  10.949 -0.3609  0.2603  0.1075
 7331SOL    HW133629   2.048   1.052  10.891 -0.1442  0.0583 -0.1331
 7331SOL    HW233630   1.955   0.989  10.986  0.4612  2.6291  1.2639
 7332SOL     OW33631   2.857   1.573   6.438 -0.1409  0.0516 -0.1954
 7332SOL    HW133632   2.832   1.612   6.354  1.5149 -0.8942 -1.1286
 7332SOL    HW233633   2.778   1.592   6.489  0.0192 -0.9237  0.4068
 7333SOL     OW33634   1.480   3.262   5.798  0.1122 -0.1187  0.1850
 7333SOL    HW133635   1.540   3.256   5.872  1.5434  1.0207 -0.8818
 7333SOL    HW233636   1.488   3.176   5.758  1.6526  0.5392 -0.8993
 7334SOL     OW33637   1.215   2.651   6.718  0.6375  0.8924  0.5470
 7334SOL    HW133638   1.156   2.724   6.699 -1.4249 -0.7795  0.5207
 7334SOL    HW233639   1.165   2.600   6.782 -1.2591  0.6688 -1.0777
 7335SOL     OW33640   2.008   1.574   2.386 -0.1562  0.1691  0.0851
 7335SOL    HW133641   2.079   1.639   2.386 -2.4634  2.6411 -0.5143
 7335SOL    HW233642   1.937   1.635   2.365 -1.9726 -1.9015  0.2578
 7336SOL     OW33643   3.625   3.233   6.148 -0.3161 -0.3387 -0.1170
 7336SOL    HW133644   3.695   3.190   6.099  0.4536  0.9468 -0.1365
 7336SOL    HW233645   3.655   3.324   6.144 -0.5541 -0.2256  0.6652
 7337SOL     OW33646   4.065   3.228   6.018 -0.3059  0.2173  0.1288
 7337SOL    HW133647   4.151   3.198   5.988  0.0312 -0.0132  1.3409
 7337SOL    HW233648   4.083   3.224   6.112  1.9810  1.1023 -0.2608
 7338SOL     OW33649   0.516   4.162   0.786  0.4202  0.0573 -0.5263
 7338SOL    HW133650   0.583   4.181   0.852 -0.6496  0.8067  0.3506
 7338SOL    HW233651   0.520   4.071   0.758  0.8809 -0.1913  0.3365
 7339SOL     OW33652   3.931   0.509   3.962  0.4854  0.8122 -0.3468
 7339SOL    HW133653   4.013   0.473   3.928  1.0324  0.5506  1.2494
 7339SOL    HW233654   3.905   0.576   3.900  0.6659  1.9048  0.7602
 7340SOL     OW33655   2.302   4.390   7.535  0.4761 -0.2600 -0.1565
 7340SOL    HW133656   2.300   4.310   7.587  2.1374  0.2207  0.6246
 7340SOL    HW233657   2.266   4.458   7.593  0.7678 -0.0271 -0.2479
 7341SOL     OW33658   1.656   4.525  16.853 -0.2076  0.0168  0.2612
 7341SOL    HW133659   1.596   4.481  16.914  0.5879 -1.1381  0.2204
 7341SOL    HW233660   1.705   4.573  16.919  1.0644  1.4377 -1.7054
 7342SOL     OW33661   2.799   4.016   2.027 -0.0545 -0.3930 -0.2215
 7342SOL    HW133662   2.873   4.070   2.053  0.6940 -1.2517 -0.5573
 7342SOL    HW233663   2.795   4.022   1.931  1.1509  0.8385 -0.2014
 7343SOL     OW33664   0.496   0.137   6.472 -0.2273  0.1135 -0.0465
 7343SOL    HW133665   0.469   0.228   6.469  1.4298  0.6172  0.1550
 7343SOL    HW233666   0.457   0.107   6.554  0.6481 -0.7590  0.0584
 7344SOL     OW33667   1.073   0.401  15.648 -0.5235 -0.2305 -0.4878
 7344SOL    HW133668   1.160   0.389  15.686 -0.2955  1.4200 -0.4657
 7344SOL    HW233669   1.064   0.493  15.675  1.4642 -0.1420 -0.1629
 7345SOL     OW33670   2.933   2.579   7.436 -0.3209 -0.4326  0.3786
 7345SOL    HW133671   2.988   2.606   7.509  0.0803  2.0276 -0.8329
 7345SOL    HW233672   2.890   2.660   7.410  0.1450  0.2293  1.6995
 7346SOL     OW33673   2.971   2.167  12.702 -0.5498  0.0550 -0.2441
 7346SOL    HW133674   2.914   2.240  12.677  0.3645  1.6423  2.3388
 7346SOL    HW233675   3.008   2.201  12.784 -0.2238  1.5232 -1.0134
 7347SOL     OW33676   1.885   1.951   0.111 -0.1705 -0.7730 -1.2237
 7347SOL    HW133677   1.891   2.006   0.033  2.6860 -0.8874 -1.0785
 7347SOL    HW233678   1.970   1.963   0.153 -0.3573 -0.3568 -0.9672
 7348SOL     OW33679   3.469   2.077  12.097  0.3466 -0.5447  0.2213
 7348SOL    HW133680   3.489   2.001  12.042 -2.0290 -0.0229 -1.3408
 7348SOL    HW233681   3.378   2.052  12.109 -0.3163  0.9734 -1.6791
 7349SOL     OW33682   3.386   0.822   2.993 -0.1151 -0.3603 -0.3302
 7349SOL    HW133683   3.353   0.751   2.937 -2.4141  1.3388 -1.1370
 7349SOL    HW233684   3.425   0.779   3.069  0.7615 -1.0252 -1.1513
 7350SOL     OW33685   3.441   0.444   6.207  0.2609 -0.1121 -0.2192
 7350SOL    HW133686   3.506   0.471   6.272 -1.7943  4.1180  0.0258
 7350SOL    HW233687   3.486   0.457   6.124  0.7537 -1.7592 -0.2160
 7351SOL     OW33688   3.348   0.197   2.546 -0.5130  0.9895 -0.2265
 7351SOL    HW133689   3.394   0.158   2.472 -1.6863 -0.5127 -0.1646
 7351SOL    HW233690   3.357   0.127   2.611  1.1524  1.1633 -0.2622
 7352SOL     OW33691   2.256   0.468   5.015 -0.6604  0.1030 -0.0259
 7352SOL    HW133692   2.331   0.432   5.063  0.9864  1.4221 -1.6315
 7352SOL    HW233693   2.191   0.400   5.034 -0.4411  0.2703  1.3275
 7353SOL     OW33694   3.005   0.578   5.735 -0.1454  0.2797  0.3312
 7353SOL    HW133695   3.095   0.579   5.768 -0.8070  1.9477  2.0447
 7353SOL    HW233696   2.949   0.610   5.806  0.1750 -0.6289  0.9890
 7354SOL     OW33697   4.050   1.519  16.315  0.6728 -0.1531  0.1881
 7354SOL    HW133698   3.971   1.517  16.260  1.3340  0.3575 -0.7812
 7354SOL    HW233699   4.026   1.576  16.388  2.6540  0.9134  0.0072
 7355SOL     OW33700   3.196   0.856  12.689 -0.1455  0.0231 -0.1394
 7355SOL    HW133701   3.284   0.893  12.699  0.6491 -1.8010 -0.4589
 7355SOL    HW233702   3.134   0.920  12.726 -1.6208 -1.7675  0.4807
 7356SOL     OW33703   3.568   0.954  11.369  0.0947 -0.3088  0.2516
 7356SOL    HW133704   3.584   1.013  11.296 -0.8627 -1.2506 -0.7064
 7356SOL    HW233705   3.604   0.870  11.338  0.9009 -0.1863  0.8368
 7357SOL     OW33706   0.849   1.990   1.717 -0.0189  0.2511 -0.5763
 7357SOL    HW133707   0.910   2.033   1.657  1.1751 -0.1286  0.3889
 7357SOL    HW233708   0.868   2.044   1.793  0.0542  1.1276 -1.2115
 7358SOL     OW33709   4.363   0.113   2.751  0.2249  0.0122  0.0236
 7358SOL    HW133710   4.351   0.141   2.842  0.7010 -1.3387  0.4889
 7358SOL    HW233711   4.270   0.105   2.728  0.6758  1.5496 -2.4425
 7359SOL     OW33712   3.464   2.645   7.181 -0.1394 -0.1687 -0.4210
 7359SOL    HW133713   3.522   2.606   7.116 -0.5576 -1.1027 -0.2367
 7359SOL    HW233714   3.500   2.734   7.172 -1.5391  0.1888 -2.5357
 7360SOL     OW33715   3.419   1.120  11.740 -0.1190 -0.0610 -0.2342
 7360SOL    HW133716   3.437   1.050  11.803  2.8904  1.6372  0.7700
 7360SOL    HW233717   3.335   1.091  11.705 -0.5849 -1.5604  2.0886
 7361SOL     OW33718   0.074   3.543   4.186  0.0550 -0.7416 -0.6278
 7361SOL    HW133719   0.138   3.495   4.133 -0.6744 -0.9613 -1.3125
 7361SOL    HW233720   0.121   3.608   4.238 -2.3254  0.5789 -0.1136
 7362SOL     OW33721   3.531   3.859  11.189 -0.7207  0.0342 -0.1562
 7362SOL    HW133722   3.548   3.950  11.216 -3.0396 -0.3761  2.6340
 7362SOL    HW233723   3.550   3.812  11.270 -1.7582 -1.4711 -0.7931
 7363SOL     OW33724   1.790   2.347   3.413 -0.7543 -0.0714  0.6219
 7363SOL    HW133725   1.726   2.365   3.482 -2.4602 -2.2809 -0.3736
 7363SOL    HW233726   1.786   2.252   3.414 -1.3939 -0.0449  0.6394
 7364SOL     OW33727   2.355   4.569  17.458 -0.1220 -0.1719 -0.0115
 7364SOL    HW133728   2.262   4.580  17.437 -0.2898  0.3293  0.9896
 7364SOL    HW233729   2.399   4.578  17.374 -0.0849 -1.4015 -0.1309
 7365SOL     OW33730   1.279   0.028   4.636  0.2203 -0.0810 -0.6336
 7365SOL    HW133731   1.259   4.701   4.707 -1.7238 -0.4509 -1.5067
 7365SOL    HW233732   1.374   0.022   4.634  0.2598  0.3784 -0.0141
 7366SOL     OW33733   4.358   0.816  11.101  0.1290  0.0932  0.6896
 7366SOL    HW133734   4.279   0.795  11.150  0.9507 -1.8423  1.2093
 7366SOL    HW233735   4.372   0.729  11.065  0.6571 -0.9634  3.4320
 7367SOL     OW33736   4.294   1.975  16.761  0.2247 -0.3559  0.0463
 7367SOL    HW133737   4.357   1.985  16.832 -1.0198 -1.4731  1.3079
 7367SOL    HW233738   4.321   1.890  16.725 -1.1822 -1.4444  1.5708
 7368SOL     OW33739   3.993   4.460   3.443  0.4673  0.0500  0.0648
 7368SOL    HW133740   4.010   4.373   3.409 -1.1294 -0.0454 -0.4922
 7368SOL    HW233741   4.060   4.464   3.511  0.0892  0.1464  0.4329
 7369SOL     OW33742   3.683   2.321  13.402 -0.7057  0.5595 -0.7303
 7369SOL    HW133743   3.725   2.386  13.459  1.3303 -0.4161 -1.1088
 7369SOL    HW233744   3.659   2.253  13.466  0.3498  0.7081 -0.1727
 7370SOL     OW33745   4.571   0.537   2.769 -1.0007 -0.0212 -0.4057
 7370SOL    HW133746   4.637   0.470   2.788 -0.4558  0.7112  0.3081
 7370SOL    HW233747   4.515   0.532   2.847  0.5045 -3.3420  0.4733
 7371SOL     OW33748   1.746   3.056  13.903  0.6489 -0.1988 -0.3087
 7371SOL    HW133749   1.794   3.093  13.977  2.0713 -2.2312 -0.2291
 7371SOL    HW233750   1.691   2.992  13.948 -2.0000  1.7660 -0.7068
 7372SOL     OW33751   4.344   2.908   4.127 -0.7424  0.6145 -0.2650
 7372SOL    HW133752   4.298   2.924   4.210  1.0153  2.5558  0.3260
 7372SOL    HW233753   4.406   2.974   4.156 -0.6488  0.3335  0.1692
 7373SOL     OW33754   0.176   1.278  14.998 -0.3129 -0.0184  0.2041
 7373SOL    HW133755   0.163   1.254  15.090  1.1429  0.5054  0.5370
 7373SOL    HW233756   0.155   1.203  14.942  1.7122 -0.9316  0.6499
 7374SOL     OW33757   1.174   2.292   1.271  0.0170  0.2961  0.2234
 7374SOL    HW133758   1.256   2.253   1.300 -0.2622 -1.8845 -1.9769
 7374SOL    HW233759   1.162   2.343   1.351  0.7502 -0.2043  0.6442
 7375SOL     OW33760   1.831   3.475  10.202  0.4345  0.2226 -0.4294
 7375SOL    HW133761   1.780   3.394  10.199  2.2923 -1.0176  2.1056
 7375SOL    HW233762   1.908   3.448  10.251 -1.1593 -1.5929  1.0868
 7376SOL     OW33763   1.523   1.655   7.160 -0.4691  0.9452 -0.5423
 7376SOL    HW133764   1.430   1.634   7.148 -0.4562  0.7397 -0.2739
 7376SOL    HW233765   1.514   1.705   7.241  2.1320  0.0978  0.2538
 7377SOL     OW33766   2.180   4.171  10.012 -0.6273 -1.1381 -0.6446
 7377SOL    HW133767   2.217   4.166  10.100 -1.5811  0.0681 -0.1700
 7377SOL    HW233768   2.131   4.088  10.017 -0.7471 -1.1245 -1.6319
 7378SOL     OW33769   3.675   3.802   2.434 -0.2332  0.1210  0.2010
 7378SOL    HW133770   3.595   3.759   2.463  0.7559 -1.7192  0.1725
 7378SOL    HW233771   3.640   3.891   2.426 -1.2672 -0.1762  1.3203
 7379SOL     OW33772   1.755   3.479   8.396  0.4084 -0.2772  0.1755
 7379SOL    HW133773   1.842   3.471   8.435  0.4738  0.4192  0.1695
 7379SOL    HW233774   1.701   3.423   8.452  0.5134  1.5581  2.1036
 7380SOL     OW33775   4.521   0.628   4.307  0.3204  0.2833 -0.5932
 7380SOL    HW133776   4.550   0.600   4.393  2.0846 -0.3456 -1.4107
 7380SOL    HW233777   4.461   0.557   4.285  1.7934 -1.1312  0.0362
 7381SOL     OW33778   1.799   4.195   4.973  0.0302 -0.1244  0.2903
 7381SOL    HW133779   1.856   4.243   5.032 -0.2449 -0.4192  0.7992
 7381SOL    HW233780   1.719   4.207   5.024 -0.6016  1.2023 -1.0177
 7382SOL     OW33781   0.618   2.845   3.409  0.7366 -0.2389 -0.0516
 7382SOL    HW133782   0.673   2.780   3.453  0.5655  0.1995  0.8139
 7382SOL    HW233783   0.630   2.926   3.458  0.5763 -0.4698  0.3720
 7383SOL     OW33784   2.022   4.093   8.744 -0.2198  0.0850 -0.1551
 7383SOL    HW133785   1.999   4.010   8.786  2.1383 -0.2802  0.4374
 7383SOL    HW233786   2.101   4.117   8.793 -0.2734 -2.0867  1.0360
 7384SOL     OW33787   3.428   1.063   8.943 -0.6386 -0.3044 -0.0943
 7384SOL    HW133788   3.356   1.088   8.886 -0.1641  1.6300  0.1596
 7384SOL    HW233789   3.389   1.077   9.029  0.6239  0.7461  0.3023
 7385SOL     OW33790   2.239   0.529   2.348  0.2453  0.5015 -0.0746
 7385SOL    HW133791   2.161   0.493   2.306  1.0379 -1.0871 -0.2178
 7385SOL    HW233792   2.253   0.608   2.296 -1.4119  0.7197 -0.1655
 7386SOL     OW33793   4.295   4.390   5.090  0.0529  0.0080 -0.4158
 7386SOL    HW133794   4.237   4.395   5.166 -0.3787 -1.0410 -0.6881
 7386SOL    HW233795   4.237   4.349   5.026 -0.1738  2.1739 -1.6067
 7387SOL     OW33796   4.433   1.312   5.282 -0.0670 -0.1870  0.4585
 7387SOL    HW133797   4.410   1.260   5.359  0.7007  3.1680  2.9500
 7387SOL    HW233798   4.368   1.282   5.218 -0.5974  2.6033 -0.3322
 7388SOL     OW33799   1.802   3.020   3.513  0.4823  0.0990 -0.0319
 7388SOL    HW133800   1.774   2.934   3.545 -1.8706  1.0548  0.4286
 7388SOL    HW233801   1.722   3.072   3.516  0.1514 -0.4091 -0.0743
 7389SOL     OW33802   0.085   3.960   8.182  0.0418 -0.6129  0.1157
 7389SOL    HW133803   0.058   3.882   8.232 -1.3002  0.0107  0.3449
 7389SOL    HW233804   0.177   3.935   8.169  0.0644 -0.4996  0.0575
 7390SOL     OW33805   3.546   1.756   6.567  0.1404  0.7697  0.6718
 7390SOL    HW133806   3.474   1.740   6.506  1.1810 -0.5869 -0.2011
 7390SOL    HW233807   3.494   1.781   6.644 -2.4297  0.8464 -1.0998
 7391SOL     OW33808   3.097   0.836   6.957 -0.5339 -0.1542  0.2544
 7391SOL    HW133809   3.060   0.863   6.873  0.3011  2.1279  0.6187
 7391SOL    HW233810   3.097   0.742   6.941 -1.9871 -0.1293  0.1254
 7392SOL     OW33811   1.769   3.604   6.675 -0.0082  0.6306 -0.0512
 7392SOL    HW133812   1.793   3.528   6.622 -0.9573 -0.8931  1.6718
 7392SOL    HW233813   1.796   3.567   6.759  0.3201 -0.5605 -0.6886
 7393SOL     OW33814   0.547   0.089   6.975 -0.0241  0.2390  0.5840
 7393SOL    HW133815   0.627   0.142   6.975  0.6181 -0.7384  0.0752
 7393SOL    HW233816   0.581   0.002   6.998 -0.2498  0.3318  1.2891
 7394SOL     OW33817   3.619   1.050  16.488 -0.0414 -0.4964  0.3403
 7394SOL    HW133818   3.523   1.055  16.486  0.0513 -0.0723 -3.5745
 7394SOL    HW233819   3.625   0.954  16.494 -2.1957 -0.5467  1.7579
 7395SOL     OW33820   1.756   1.417   7.644  0.3963 -0.4328  0.0470
 7395SOL    HW133821   1.782   1.337   7.596 -0.3254  0.3717 -1.6991
 7395SOL    HW233822   1.666   1.414   7.610  0.0118 -1.7614  1.1831
 7396SOL     OW33823   0.127   0.834   8.709 -0.3716  0.0762 -0.1062
 7396SOL    HW133824   0.098   0.925   8.704  0.1341  0.2045 -0.7222
 7396SOL    HW233825   0.064   0.793   8.650 -0.9981 -0.1704  0.7238
 7397SOL     OW33826   1.968   2.057  17.612  0.6289 -0.8343 -0.7379
 7397SOL    HW133827   1.982   1.977  17.562  0.9357 -2.0543  1.2639
 7397SOL    HW233828   2.054   2.099  17.619 -0.5598  1.5513 -0.3646
 7398SOL     OW33829   4.176   1.481   2.512 -0.2499  0.2294 -0.6183
 7398SOL    HW133830   4.254   1.441   2.474  0.0466 -1.2016  1.4907
 7398SOL    HW233831   4.215   1.549   2.566 -1.6415 -0.1564  0.8764
 7399SOL     OW33832   1.292   3.304   6.066 -0.3108 -0.3202 -0.1077
 7399SOL    HW133833   1.228   3.315   5.996 -0.1849 -2.8616 -0.5939
 7399SOL    HW233834   1.263   3.226   6.113 -0.1528 -0.6290 -0.5256
 7400SOL     OW33835   2.889   0.809   4.077  0.4742  0.0447 -0.0545
 7400SOL    HW133836   2.922   0.879   4.133 -0.6666  0.0549  0.6020
 7400SOL    HW233837   2.933   0.732   4.113 -0.8050 -0.9839 -0.6568
 7401SOL     OW33838   3.067   0.829   8.201  0.3148  0.2027  0.0754
 7401SOL    HW133839   2.977   0.797   8.208 -0.3217  1.8906 -0.2676
 7401SOL    HW233840   3.052   0.920   8.175 -1.7436 -0.2185 -0.1941
 7402SOL     OW33841   4.556   4.654   2.676 -0.5687 -0.0771 -0.6167
 7402SOL    HW133842   4.565   4.666   2.582  1.1223 -0.5562 -0.5127
 7402SOL    HW233843   4.472   4.699   2.688 -0.3494  0.4243 -0.9608
 7403SOL     OW33844   3.708   0.534  15.018  0.5122 -0.2345  0.2876
 7403SOL    HW133845   3.634   0.494  14.973 -0.0538  1.7060 -0.4778
 7403SOL    HW233846   3.771   0.524  14.947  0.5918 -1.0471  0.4739
 7404SOL     OW33847   0.748   3.318   5.538 -0.1160  0.1932  0.0273
 7404SOL    HW133848   0.656   3.334   5.519 -0.1774 -0.0565  0.1271
 7404SOL    HW233849   0.780   3.344   5.451  1.3389 -1.8807 -0.0692
 7405SOL     OW33850   3.552   0.812   3.907 -0.0036  0.2955  0.5667
 7405SOL    HW133851   3.515   0.724   3.912 -0.3676  0.4011 -0.1990
 7405SOL    HW233852   3.604   0.811   3.826  0.0936 -0.6011  0.6453
 7406SOL     OW33853   0.112   4.064  17.314  0.5429 -0.4280  0.1861
 7406SOL    HW133854   0.151   3.997  17.369 -0.3297 -0.8683  0.2700
 7406SOL    HW233855   0.157   4.140  17.352  0.4572  0.1291 -0.8284
 7407SOL     OW33856   3.945   0.465   2.162 -0.0601 -0.3211  0.1594
 7407SOL    HW133857   4.020   0.525   2.168 -1.1931  0.7685  3.4857
 7407SOL    HW233858   3.983   0.377   2.169  1.3079  0.3585  1.1779
 7408SOL     OW33859   0.478   3.187   2.329 -0.0960  0.2854 -0.2097
 7408SOL    HW133860   0.490   3.254   2.396  0.7366  0.1427 -0.2148
 7408SOL    HW233861   0.536   3.119   2.362  0.5784  0.8877 -0.1708
 7409SOL     OW33862   0.500   4.052  13.506 -0.3660  0.1361  0.1860
 7409SOL    HW133863   0.545   3.982  13.553 -0.9343 -0.8753 -0.7827
 7409SOL    HW233864   0.568   4.105  13.465  0.6067 -0.4013  1.0963
 7410SOL     OW33865   0.371   0.087   2.431  0.4190 -0.9806 -0.2551
 7410SOL    HW133866   0.312   0.064   2.502 -1.4400  2.2887 -0.7111
 7410SOL    HW233867   0.317   0.104   2.353  1.0830  1.5941 -0.1769
 7411SOL     OW33868   2.625   0.646   1.662 -0.4224  0.4899  0.7609
 7411SOL    HW133869   2.629   0.714   1.728  2.3360  0.6146  0.4536
 7411SOL    HW233870   2.580   0.682   1.585  1.1985  0.5719 -0.1539
 7412SOL     OW33871   0.081   3.272   1.961  0.0087  0.5569 -0.2116
 7412SOL    HW133872   0.130   3.206   2.010 -0.5459 -0.5831 -1.1891
 7412SOL    HW233873   0.137   3.344   1.990  1.2249  0.4018 -2.1587
 7413SOL     OW33874   3.463   2.087   2.335 -0.0601 -0.3862  0.3965
 7413SOL    HW133875   3.446   2.171   2.377  0.1920 -0.5321  0.7888
 7413SOL    HW233876   3.537   2.056   2.387 -0.0333 -0.9253  0.0395
 7414SOL     OW33877   4.622   1.447  14.969 -0.3924  0.1794 -0.6846
 7414SOL    HW133878   4.592   1.356  14.971 -1.8276  0.7122  2.5221
 7414SOL    HW233879   4.705   1.439  14.922 -0.2587  1.0687 -0.6043
 7415SOL     OW33880   1.881   3.135   6.068  0.1702 -0.4942  0.3922
 7415SOL    HW133881   1.926   3.094   6.142  0.0729 -0.2881  0.5652
 7415SOL    HW233882   1.950   3.195   6.041 -0.8213  0.7471  0.6367
 7416SOL     OW33883   3.277   4.239   2.062 -0.2089 -0.9418  0.4010
 7416SOL    HW133884   3.273   4.209   1.971  1.6428 -1.6915  0.5633
 7416SOL    HW233885   3.371   4.256   2.066 -0.6959  1.2012  2.4999
 7417SOL     OW33886   1.943   3.953   1.764 -0.3685 -0.4271 -0.5251
 7417SOL    HW133887   1.955   4.028   1.822  0.1949 -2.7031  2.2763
 7417SOL    HW233888   1.905   3.886   1.820  1.7333 -0.7343  0.5513
 7418SOL     OW33889   3.766   2.848  14.746  0.3988  0.3991  0.2193
 7418SOL    HW133890   3.697   2.851  14.812 -0.8624  0.0105 -1.0710
 7418SOL    HW233891   3.734   2.790  14.676  1.0095 -0.1144  0.3627
 7419SOL     OW33892   3.858   2.038   6.358  0.4897  0.4029 -0.1251
 7419SOL    HW133893   3.934   2.036   6.299 -0.3944  1.1520 -1.2983
 7419SOL    HW233894   3.822   2.127   6.351  0.5824  0.3479 -1.4529
 7420SOL     OW33895   2.906   0.648  12.015 -0.4832 -0.5150  0.2600
 7420SOL    HW133896   2.866   0.563  12.033 -1.0472 -0.5126 -0.9790
 7420SOL    HW233897   2.850   0.674  11.942  1.2282  3.3242  0.2959
 7421SOL     OW33898   2.837   0.092   9.523  0.3662  0.3544 -0.1545
 7421SOL    HW133899   2.914   0.141   9.496  0.0339 -1.3413 -4.2642
 7421SOL    HW233900   2.766   0.156   9.524 -0.7997 -0.9115 -1.5401
 7422SOL     OW33901   1.907   3.776   1.030  0.2608 -0.3495 -0.1357
 7422SOL    HW133902   1.898   3.691   1.074 -2.3699  0.5347  1.0127
 7422SOL    HW233903   1.938   3.834   1.099  0.4685 -0.8603  0.2015
 7423SOL     OW33904   2.048   0.584   4.486  0.0560  0.1276 -0.3008
 7423SOL    HW133905   1.959   0.559   4.461  1.0837 -1.7700 -2.0880
 7423SOL    HW233906   2.030   0.661   4.540  0.6980  1.0355 -1.4075
 7424SOL     OW33907   0.819   3.941   0.612  0.8536  0.0395  0.4913
 7424SOL    HW133908   0.798   3.967   0.522  1.8790  3.0142  1.0742
 7424SOL    HW233909   0.906   3.905   0.594 -0.1430 -1.2492 -1.7021
 7425SOL     OW33910   1.984   3.152   3.658  0.0225  0.2559  0.5233
 7425SOL    HW133911   2.053   3.094   3.688 -1.1301 -1.6712 -0.4794
 7425SOL    HW233912   1.962   3.116   3.572  0.5592 -0.3884  0.6562
 7426SOL     OW33913   3.194   4.571   7.018 -0.0429  0.3179 -0.0493
 7426SOL    HW133914   3.198   4.665   7.005 -1.4254  0.7056  2.3375
 7426SOL    HW233915   3.149   4.562   6.934 -0.3463 -0.0669  0.1481
 7427SOL     OW33916   3.774   2.385   0.632 -0.2058 -0.4480  0.5250
 7427SOL    HW133917   3.727   2.327   0.692  0.5247 -3.0477 -1.4156
 7427SOL    HW233918   3.844   2.428   0.682  0.4009 -1.1537  0.2824
 7428SOL     OW33919   1.803   2.061  10.410  0.0655 -0.2697 -0.1330
 7428SOL    HW133920   1.804   2.025  10.321  2.5883 -0.4576 -0.0285
 7428SOL    HW233921   1.721   2.109  10.409 -0.3872 -1.0793 -1.9454
 7429SOL     OW33922   4.339   3.100   2.708 -0.4748  0.5435  1.1713
 7429SOL    HW133923   4.401   3.135   2.643  0.3432 -1.0385  1.1126
 7429SOL    HW233924   4.320   3.170   2.771  0.4848  1.2867  0.6272
 7430SOL     OW33925   1.414   4.124   2.215 -0.4154 -0.5047 -0.1703
 7430SOL    HW133926   1.391   4.213   2.187 -1.0056 -0.0509  1.7749
 7430SOL    HW233927   1.488   4.133   2.275 -2.0945 -3.5025  2.3283
 7431SOL     OW33928   0.786   3.422  14.948 -0.0077  0.2993  0.0048
 7431SOL    HW133929   0.738   3.352  14.992  0.5717 -0.0599  0.0573
 7431SOL    HW233930   0.711   3.482  14.940 -1.0600 -1.1501 -1.0323
 7432SOL     OW33931   0.196   2.668   8.501 -0.0411  0.2736 -1.0180
 7432SOL    HW133932   0.229   2.622   8.424  1.5634  0.1123 -0.2538
 7432SOL    HW233933   0.266   2.731   8.518 -1.4818  1.4389  0.5156
 7433SOL     OW33934   3.383   2.664   1.148  0.1604 -0.0659 -0.5226
 7433SOL    HW133935   3.350   2.577   1.125 -0.8304  0.8250 -2.3971
 7433SOL    HW233936   3.473   2.651   1.118  0.1239 -0.6487 -0.3864
 7434SOL     OW33937   3.816   0.042   6.028 -0.3793  0.0746 -0.1388
 7434SOL    HW133938   3.818   0.115   6.089  2.2151  0.8415 -1.1738
 7434SOL    HW233939   3.899   0.063   5.985 -0.3979 -2.4629 -1.3940
 7435SOL     OW33940   2.417   2.585  14.238  0.5019 -0.0165  0.4764
 7435SOL    HW133941   2.484   2.524  14.209 -0.1867  0.0240 -1.1927
 7435SOL    HW233942   2.464   2.631  14.307  2.1285 -1.8927  0.6111
 7436SOL     OW33943   3.390   0.850  17.580 -0.4427 -0.3074 -0.7316
 7436SOL    HW133944   3.465   0.793  17.595  0.0324  0.4676 -0.1696
 7436SOL    HW233945   3.343   0.823  17.501  0.0046 -0.6022 -0.8997
 7437SOL     OW33946   1.160   3.153   7.904 -0.1204 -0.6725 -0.0798
 7437SOL    HW133947   1.238   3.182   7.856 -2.0321  3.8921 -0.3924
 7437SOL    HW233948   1.198   3.142   7.991 -1.2105  2.5360  0.7890
 7438SOL     OW33949   3.227   2.455   6.213 -0.2034  0.2538 -0.3330
 7438SOL    HW133950   3.231   2.503   6.296  0.3787 -1.2831  0.5221
 7438SOL    HW233951   3.288   2.384   6.231 -1.3231 -0.2129  1.5592
 7439SOL     OW33952   4.531   0.530   3.348  0.0170 -0.3864 -0.3016
 7439SOL    HW133953   4.515   0.616   3.388  0.3865 -1.1472  1.5129
 7439SOL    HW233954   4.621   0.542   3.316 -0.6395 -0.1938 -2.0257
 7440SOL     OW33955   3.720   4.540   6.151 -0.0404 -0.3169  0.1258
 7440SOL    HW133956   3.775   4.542   6.230  1.4059 -0.4551 -0.8686
 7440SOL    HW233957   3.750   4.611   6.095 -2.5060 -0.1560 -0.9831
 7441SOL     OW33958   0.109   4.660   4.589  0.0239 -0.4783 -0.3666
 7441SOL    HW133959   0.152   4.591   4.639  0.3643  0.0498  0.0771
 7441SOL    HW233960   0.033   4.617   4.550  0.0171 -0.2674 -0.5867
 7442SOL     OW33961   1.327   3.083   5.504 -0.2368  0.5455  0.2406
 7442SOL    HW133962   1.308   3.074   5.597  2.4434 -2.7120  0.4767
 7442SOL    HW233963   1.269   3.153   5.472  2.2890  2.0744 -0.9309
 7443SOL     OW33964   2.368   1.047   2.283  0.5451 -0.3923  0.1313
 7443SOL    HW133965   2.368   1.143   2.281 -0.8432 -0.3257  3.4100
 7443SOL    HW233966   2.462   1.038   2.298  0.8632 -1.2472 -2.3586
 7444SOL     OW33967   0.120   2.622   1.931 -0.1872 -0.3650  0.1861
 7444SOL    HW133968   0.081   2.563   1.867 -0.9723 -0.4857  0.7858
 7444SOL    HW233969   0.214   2.615   1.915 -0.2776 -0.6991 -0.1858
 7445SOL     OW33970   4.524   3.357   6.740 -0.3881 -0.0147 -0.7095
 7445SOL    HW133971   4.587   3.362   6.812 -0.9009  2.7853 -0.4508
 7445SOL    HW233972   4.550   3.434   6.690  1.7289  0.3110  0.8954
 7446SOL     OW33973   0.489   2.373   7.349 -0.0206 -0.6893  0.4008
 7446SOL    HW133974   0.505   2.317   7.425  0.2283  1.1824  1.7306
 7446SOL    HW233975   0.418   2.422   7.390 -0.0399 -0.1405 -0.3012
 7447SOL     OW33976   1.109   1.928   2.737  0.8659 -0.4063  0.6495
 7447SOL    HW133977   1.095   1.891   2.824  2.3471 -1.2978  0.5019
 7447SOL    HW233978   1.113   1.847   2.686 -0.1131 -0.3726  0.5158
 7448SOL     OW33979   1.617   1.061  11.656 -0.2646 -0.2333 -0.1100
 7448SOL    HW133980   1.551   1.007  11.699 -0.1857 -1.7476 -1.8523
 7448SOL    HW233981   1.635   1.016  11.573  1.0133 -1.2625  0.7250
 7449SOL     OW33982   3.720   4.682   8.862  0.1628  0.8158  0.1638
 7449SOL    HW133983   3.708   4.701   8.769 -1.5854 -1.3892 -0.0709
 7449SOL    HW233984   3.666   0.020   8.892  0.4099 -0.4483  3.7344
 7450SOL     OW33985   0.993   4.248   9.458 -0.3398 -0.0492  0.2423
 7450SOL    HW133986   0.990   4.343   9.468 -1.2831 -0.1347  0.7088
 7450SOL    HW233987   0.926   4.210   9.515  1.3242 -2.3538  0.6656
 7451SOL     OW33988   3.891   3.941   6.423  0.5727  0.0292  0.2977
 7451SOL    HW133989   3.931   3.927   6.337 -0.9018 -0.6017 -0.2818
 7451SOL    HW233990   3.907   3.860   6.472 -1.2079  0.8505  2.2069
 7452SOL     OW33991   2.966   0.165  11.019  0.3193 -0.2945 -0.1567
 7452SOL    HW133992   2.893   0.104  11.014 -0.1598  0.1292  1.7005
 7452SOL    HW233993   3.018   0.133  11.093 -2.6475 -4.9316 -0.1381
 7453SOL     OW33994   0.205   3.353  11.009 -0.5680 -0.1892  0.3599
 7453SOL    HW133995   0.245   3.364  11.095  0.5989 -2.3178  0.0887
 7453SOL    HW233996   0.127   3.306  11.039 -0.3299  0.4807  2.0516
 7454SOL     OW33997   0.731   3.499   9.868 -0.2933  0.5129 -0.0524
 7454SOL    HW133998   0.795   3.428   9.877 -1.3935 -0.2413  1.8071
 7454SOL    HW233999   0.656   3.440   9.859  1.0153 -1.1396 -0.1577
 7455SOL     OW34000   2.869   4.658   1.904 -0.1382  0.4951 -0.0913
 7455SOL    HW134001   2.776   4.647   1.924 -0.1617 -1.2169 -1.1814
 7455SOL    HW234002   2.876   4.595   1.832 -1.4044 -0.9015  1.0243
 7456SOL     OW34003   2.746   1.634   2.640  0.1716 -0.1691  0.2448
 7456SOL    HW134004   2.801   1.711   2.655 -0.0360  0.2380 -1.1209
 7456SOL    HW234005   2.677   1.674   2.587  1.5173  1.4824 -0.2653
 7457SOL     OW34006   2.165   2.445   4.483  0.3106 -0.3427 -0.3106
 7457SOL    HW134007   2.085   2.438   4.535  0.6686  0.0252  0.2789
 7457SOL    HW234008   2.233   2.497   4.524  0.3301 -0.7784  0.2103
 7458SOL     OW34009   4.227   4.417   5.653  0.6090  0.5549 -0.0635
 7458SOL    HW134010   4.224   4.345   5.591 -1.0876 -0.7575  1.5192
 7458SOL    HW234011   4.226   4.371   5.737  0.9991  1.3086  0.3534
 7459SOL     OW34012   0.659   0.488   4.104 -0.3751 -0.1861 -0.3299
 7459SOL    HW134013   0.721   0.552   4.069 -0.0974 -1.2956 -1.8608
 7459SOL    HW234014   0.718   0.426   4.145  0.4809  1.2765  0.6416
 7460SOL     OW34015   2.457   1.552   2.179  0.1555 -0.5638 -0.6656
 7460SOL    HW134016   2.380   1.533   2.125 -0.0170  0.2846 -0.7262
 7460SOL    HW234017   2.485   1.627   2.126 -2.8888  0.7147 -0.4943
 7461SOL     OW34018   2.764   4.303   2.475 -0.4529  0.4934  0.2256
 7461SOL    HW134019   2.669   4.300   2.460 -0.8573 -0.3683  2.8670
 7461SOL    HW234020   2.770   4.289   2.569 -3.6148  1.9092  0.6576
 7462SOL     OW34021   3.305   3.274   1.886  0.1145  0.0723 -0.3787
 7462SOL    HW134022   3.223   3.283   1.838  0.5361  0.6431 -1.0063
 7462SOL    HW234023   3.304   3.184   1.918  2.0977  0.0267 -0.4348
 7463SOL     OW34024   4.716   1.656   0.724  0.2511  0.0966  0.4423
 7463SOL    HW134025   4.637   1.683   0.677  0.3641 -3.1507 -1.6602
 7463SOL    HW234026   0.045   1.725   0.706 -0.0270 -0.0074 -0.9779
 7464SOL     OW34027   1.157   3.477   4.216 -1.0235  0.0329  0.3281
 7464SOL    HW134028   1.109   3.398   4.188  0.9865 -1.2353  0.4621
 7464SOL    HW234029   1.102   3.515   4.285 -1.8468  2.2382 -1.5441
 7465SOL     OW34030   2.588   3.887   6.488  0.3138 -0.6936 -0.4943
 7465SOL    HW134031   2.590   3.932   6.403  2.4093  2.1954  1.0773
 7465SOL    HW234032   2.639   3.948   6.542  0.0260 -0.0463 -0.9586
 7466SOL     OW34033   1.437   0.100   2.768 -0.2094 -0.2055  0.3827
 7466SOL    HW134034   1.402   0.179   2.726 -1.2081 -0.0477  1.4792
 7466SOL    HW234035   1.417   0.119   2.860 -0.8687 -0.1267  0.2215
 7467SOL     OW34036   2.241   0.649  12.360 -0.0662  0.0803 -0.1355
 7467SOL    HW134037   2.308   0.581  12.368 -0.3472 -0.2166 -0.3278
 7467SOL    HW234038   2.163   0.599  12.383 -0.6387  0.9276 -0.2487
 7468SOL     OW34039   4.184   0.308  10.357 -0.6188 -0.3173 -0.0861
 7468SOL    HW134040   4.240   0.282  10.430 -1.5387 -1.9986  0.0213
 7468SOL    HW234041   4.101   0.271  10.386 -0.5975 -0.8923 -0.7433
 7469SOL     OW34042   0.082   2.310  12.153  0.2250 -0.0852 -0.7782
 7469SOL    HW134043   0.165   2.277  12.118  0.7034  2.1878 -1.8166
 7469SOL    HW234044   0.105   2.339  12.241 -3.8508  2.6768 -0.6298
 7470SOL     OW34045   2.283   1.196   8.205  0.0664  0.2721 -0.3213
 7470SOL    HW134046   2.239   1.281   8.204  0.0894  0.2910  1.0713
 7470SOL    HW234047   2.205   1.141   8.207 -0.1732  0.5606 -1.8210
 7471SOL     OW34048   3.781   0.051   1.788 -0.0039  0.0383  0.5849
 7471SOL    HW134049   3.812   0.141   1.775  1.8462 -0.5306  0.9458
 7471SOL    HW234050   3.845   0.013   1.849 -0.9894  0.3454  1.8209
 7472SOL     OW34051   3.890   3.325   9.162  1.1242 -0.5316  0.3328
 7472SOL    HW134052   3.818   3.263   9.146  1.7675 -0.8428 -1.3704
 7472SOL    HW234053   3.961   3.297   9.105  0.4544 -0.6116 -0.4641
 7473SOL     OW34054   2.460   3.600   2.729  0.1459 -0.6087  0.7564
 7473SOL    HW134055   2.486   3.509   2.712 -1.9576 -1.1790  0.6555
 7473SOL    HW234056   2.510   3.639   2.657  1.2282 -0.8515  1.3762
 7474SOL     OW34057   4.079   3.912   9.389 -0.0958 -0.1032  0.0351
 7474SOL    HW134058   4.117   3.901   9.476  0.6509 -1.0617 -0.4138
 7474SOL    HW234059   4.049   3.822   9.376 -2.7628  0.9472 -0.9759
 7475SOL     OW34060   1.499   4.449   5.596 -0.2595 -0.2214 -0.4733
 7475SOL    HW134061   1.557   4.524   5.582  0.6081 -0.7507  0.3161
 7475SOL    HW234062   1.483   4.442   5.502  1.8986  0.5448 -0.8924
 7476SOL     OW34063   3.828   4.400   9.951 -0.1509  0.1202 -0.1950
 7476SOL    HW134064   3.738   4.368   9.948  0.2107 -0.8088 -1.0886
 7476SOL    HW234065   3.841   4.416  10.044 -2.6343 -3.5828  0.7952
 7477SOL     OW34066   2.846   1.492  14.370 -0.3750  0.5646  0.0001
 7477SOL    HW134067   2.843   1.497  14.465  2.6914 -2.4868  0.2681
 7477SOL    HW234068   2.810   1.578  14.350 -0.5284  0.6503  0.6757
 7478SOL     OW34069   3.283   3.202   2.565 -0.1564 -0.2988 -0.1826
 7478SOL    HW134070   3.245   3.123   2.528 -0.1644  0.4720 -1.8320
 7478SOL    HW234071   3.373   3.184   2.592  0.5903  1.6531 -1.3684
 7479SOL     OW34072   2.407   2.670  15.476 -0.1488 -0.0258 -0.3878
 7479SOL    HW134073   2.501   2.673  15.460  0.1633 -1.7468  1.1336
 7479SOL    HW234074   2.388   2.761  15.495 -0.1009  0.3897 -2.2965
 7480SOL     OW34075   0.645   3.923   8.759 -0.8750  0.1235 -0.1859
 7480SOL    HW134076   0.595   4.002   8.779  0.0780  0.1017  2.4108
 7480SOL    HW234077   0.735   3.947   8.781 -0.5700 -0.7697 -0.4506
 7481SOL     OW34078   3.603   0.619  12.529 -0.4542  0.0172  0.3351
 7481SOL    HW134079   3.634   0.708  12.518  3.4311 -0.9662  3.1601
 7481SOL    HW234080   3.655   0.598  12.607 -1.3911  0.5947  1.1193
 7482SOL     OW34081   2.844   1.004   6.507 -0.0287  0.0530  0.3681
 7482SOL    HW134082   2.794   1.082   6.484 -1.4016 -0.8606  0.2664
 7482SOL    HW234083   2.875   1.021   6.596  0.9952 -0.6744  0.1633
 7483SOL     OW34084   1.077   0.749   1.106 -0.9356 -0.2418 -0.3093
 7483SOL    HW134085   1.140   0.784   1.168 -0.6287 -0.2716 -0.6071
 7483SOL    HW234086   1.054   0.668   1.152 -0.4233  0.5626  1.3490
 7484SOL     OW34087   0.649   1.321   7.395  0.1672  0.2022 -0.1815
 7484SOL    HW134088   0.584   1.377   7.436  0.1222 -0.6075  0.8583
 7484SOL    HW234089   0.646   1.363   7.309 -1.4444 -0.0774 -0.2744
 7485SOL     OW34090   0.163   2.677  16.121 -0.4471  0.4050 -0.0528
 7485SOL    HW134091   0.071   2.693  16.100 -0.5507 -0.9888 -0.6609
 7485SOL    HW234092   0.213   2.747  16.079 -1.0201  1.0826  0.4023
 7486SOL     OW34093   0.587   1.669  17.143 -0.0000  0.3241  0.5418
 7486SOL    HW134094   0.641   1.748  17.135  1.6643 -0.8891 -0.1157
 7486SOL    HW234095   0.655   1.605  17.124 -0.3435 -0.0013  0.4277
 7487SOL     OW34096   2.122   3.066   8.780  0.5724  0.3387  0.1601
 7487SOL    HW134097   2.060   3.026   8.718  1.9032 -1.3693 -0.0761
 7487SOL    HW234098   2.069   3.079   8.858  0.4295 -0.9376  0.2858
 7488SOL     OW34099   4.665   1.700   8.211 -0.1585 -0.0360 -0.1983
 7488SOL    HW134100   4.675   1.622   8.266  2.8000 -0.2684 -1.0969
 7488SOL    HW234101   4.700   1.762   8.274 -2.1371  0.1750  0.7130
 7489SOL     OW34102   2.139   1.276   7.806  0.3899  0.2788 -0.2340
 7489SOL    HW134103   2.233   1.260   7.803 -0.0843 -2.5454 -0.2538
 7489SOL    HW234104   2.142   1.350   7.745 -1.8298  0.9747  0.4906
 7490SOL     OW34105   0.261   0.631   8.826 -0.0085 -0.1465 -0.9381
 7490SOL    HW134106   0.344   0.672   8.848 -0.0541 -1.2037  1.2600
 7490SOL    HW234107   0.220   0.709   8.789  0.7461  1.5506  1.8325
 7491SOL     OW34108   1.651   0.349   4.019  0.1998  0.6572 -0.1246
 7491SOL    HW134109   1.722   0.285   4.011 -0.8048 -0.4360 -0.3105
 7491SOL    HW234110   1.602   0.336   3.938  3.0634  2.5409 -2.1116
 7492SOL     OW34111   3.526   1.901   3.713 -0.4094  0.4478  0.0273
 7492SOL    HW134112   3.522   1.849   3.794 -0.7094  0.3605 -0.0437
 7492SOL    HW234113   3.482   1.844   3.650 -1.1078  1.5183 -0.4391
 7493SOL     OW34114   0.850   3.956   1.128  0.7488  0.1293  0.4549
 7493SOL    HW134115   0.881   3.866   1.141 -0.3160  0.2156  3.8164
 7493SOL    HW234116   0.870   3.991   1.215 -0.9808 -3.0642  2.1261
 7494SOL     OW34117   3.534   3.869   4.664 -0.1499  0.1765 -0.7946
 7494SOL    HW134118   3.534   3.806   4.592  2.5128 -0.6798 -0.0465
 7494SOL    HW234119   3.534   3.811   4.740 -0.8117  0.2558 -0.7297
 7495SOL     OW34120   3.870   1.861   0.546 -0.5181 -0.3289 -0.3283
 7495SOL    HW134121   3.851   1.800   0.616 -1.2220  3.7414  3.0046
 7495SOL    HW234122   3.877   1.942   0.596  0.1737 -0.3008 -0.4580
 7496SOL     OW34123   4.467   2.440   8.200  0.2824 -0.1557 -0.1613
 7496SOL    HW134124   4.391   2.385   8.182 -0.2521  0.7935 -0.8580
 7496SOL    HW234125   4.435   2.517   8.152 -2.2641 -1.5088 -0.6384
 7497SOL     OW34126   2.508   0.560   5.345 -0.2399  0.3489  0.1605
 7497SOL    HW134127   2.544   0.559   5.434 -3.5561  0.4073  1.4872
 7497SOL    HW234128   2.590   0.566   5.295 -0.8540  1.1504 -0.7516
 7498SOL     OW34129   4.592   3.416   7.314 -0.4770  0.2784 -0.0142
 7498SOL    HW134130   4.658   3.384   7.253  0.5258  2.4532 -0.0943
 7498SOL    HW234131   4.650   3.427   7.390 -2.0747 -0.9915  1.3849
 7499SOL     OW34132   1.493   4.278   4.761 -0.5929  0.1931 -0.8960
 7499SOL    HW134133   1.405   4.291   4.726 -0.4214  0.6615 -1.1650
 7499SOL    HW234134   1.479   4.266   4.854 -1.8513  0.5404 -1.0447
 7500SOL     OW34135   2.222   0.654   6.076  0.2767 -0.3713  0.1859
 7500SOL    HW134136   2.191   0.573   6.035  2.4697 -0.3440 -1.5588
 7500SOL    HW234137   2.314   0.629   6.070  0.5598  0.5355  0.7715
 7501SOL     OW34138   2.302   0.697   4.875 -0.2839  0.1979 -0.6224
 7501SOL    HW134139   2.296   0.606   4.904  1.5572 -0.3504 -1.9667
 7501SOL    HW234140   2.318   0.686   4.781  0.5109 -1.6177 -0.2811
 7502SOL     OW34141   4.504   3.927   6.278  0.0593 -0.4867 -0.5444
 7502SOL    HW134142   4.450   3.994   6.319 -0.6113 -2.6949  2.2116
 7502SOL    HW234143   4.535   3.981   6.206 -0.3123  2.2684  1.3852
 7503SOL     OW34144   2.415   1.100  11.023 -0.2976 -0.2610  0.2407
 7503SOL    HW134145   2.440   1.192  11.015 -2.8153  0.4976  1.1841
 7503SOL    HW234146   2.435   1.066  10.936 -0.2944  0.3846 -0.0110
 7504SOL     OW34147   1.981   2.854  12.419 -0.0666  0.0694  0.5473
 7504SOL    HW134148   2.002   2.783  12.480  0.4681 -1.1082 -1.0178
 7504SOL    HW234149   2.002   2.819  12.333  0.2256  0.5990  0.4018
 7505SOL     OW34150   3.590   4.534   6.633 -0.6705 -0.2613  0.3699
 7505SOL    HW134151   3.622   4.472   6.568  0.6260  0.2539  0.5153
 7505SOL    HW234152   3.525   4.478   6.676 -0.6328  0.0457  0.8230
 7506SOL     OW34153   2.238   0.414   1.769 -0.2895  0.0970 -0.7459
 7506SOL    HW134154   2.173   0.458   1.823  0.9761  3.2852 -1.8200
 7506SOL    HW234155   2.277   0.355   1.834 -1.4312  1.3436  1.0711
 7507SOL     OW34156   3.022   3.577  10.727  0.3902 -0.3023 -0.0118
 7507SOL    HW134157   3.099   3.552  10.778  0.0522  0.2760  0.7665
 7507SOL    HW234158   2.960   3.577  10.799  1.2127 -0.8992  0.7011
 7508SOL     OW34159   2.121   1.127   6.791  0.1502  0.0144  0.6254
 7508SOL    HW134160   2.034   1.090   6.808  1.0042 -1.5308  1.6915
 7508SOL    HW234161   2.100   1.220   6.792 -0.6930 -0.1724  0.6826
 7509SOL     OW34162   3.452   1.418   4.753 -0.1144  0.1434  0.3343
 7509SOL    HW134163   3.480   1.351   4.691  1.7964  1.4908 -0.2806
 7509SOL    HW234164   3.530   1.416   4.807 -0.3274 -3.9473  0.4386
 7510SOL     OW34165   0.376   1.826  12.540  0.1480 -0.4528 -0.3404
 7510SOL    HW134166   0.440   1.828  12.469  1.0564 -1.2645  0.4573
 7510SOL    HW234167   0.414   1.760  12.598 -0.6410 -0.6878 -0.0982
 7511SOL     OW34168   4.467   0.284   0.704 -0.1327 -0.0338 -0.0241
 7511SOL    HW134169   4.485   0.368   0.746  0.8118  0.5261 -1.5189
 7511SOL    HW234170   4.535   0.235   0.750  0.7385 -0.3735 -1.6500
 7512SOL     OW34171   3.431   4.177  12.901  0.1149  0.1710  0.1464
 7512SOL    HW134172   3.435   4.267  12.867  0.5353  0.3423  0.6443
 7512SOL    HW234173   3.502   4.184  12.965  0.6857 -3.3149 -0.1171
 7513SOL     OW34174   0.778   3.248   8.730  0.5429  0.1303 -0.6900
 7513SOL    HW134175   0.856   3.284   8.688  0.9806 -2.6961 -2.3187
 7513SOL    HW234176   0.779   3.293   8.814 -3.0938 -0.5742 -0.2806
 7514SOL     OW34177   2.598   2.548  17.677 -0.0714  0.0997  0.4899
 7514SOL    HW134178   2.677   2.574  17.629 -0.5249 -0.7460 -0.7254
 7514SOL    HW234179   2.587   2.629  17.726 -2.3280 -0.0075  0.1684
 7515SOL     OW34180   1.894   4.029   7.871  0.7166 -0.5233  0.0831
 7515SOL    HW134181   1.927   3.968   7.936 -2.1096 -1.8994  0.2385
 7515SOL    HW234182   1.919   4.111   7.913  0.3808 -0.4308  0.1048
 7516SOL     OW34183   4.136   1.302  16.008 -0.0173 -0.3648 -0.6570
 7516SOL    HW134184   4.122   1.226  16.065 -0.6178  0.7629  0.6927
 7516SOL    HW234185   4.192   1.346  16.072 -0.1511  0.7651 -1.3212
 7517SOL     OW34186   2.272   3.536   7.625 -0.2120  0.7184 -0.2336
 7517SOL    HW134187   2.275   3.605   7.691 -0.2282  0.6305 -0.1412
 7517SOL    HW234188   2.255   3.580   7.543 -2.2538 -0.4379 -0.4313
 7518SOL     OW34189   0.536   1.758   9.135  0.4356  0.0782  0.3663
 7518SOL    HW134190   0.548   1.787   9.226 -0.7869  1.3129  0.1270
 7518SOL    HW234191   0.629   1.759   9.113  0.5717 -1.0647  0.8508
 7519SOL     OW34192   3.368   2.980   7.506 -0.2139  0.4735 -0.3468
 7519SOL    HW134193   3.459   2.999   7.482  0.2314 -0.3491  0.6534
 7519SOL    HW234194   3.319   2.958   7.427  0.9100  0.4276 -1.0292
 7520SOL     OW34195   1.936   1.508  17.128 -0.5989 -0.6553  0.1801
 7520SOL    HW134196   1.958   1.513  17.035 -1.9322  1.5731 -0.0374
 7520SOL    HW234197   1.847   1.541  17.138 -0.8662 -0.7870 -1.7884
 7521SOL     OW34198   4.483   1.293   5.795 -0.5955 -0.1580 -0.1253
 7521SOL    HW134199   4.463   1.200   5.802  1.4099 -0.5169  0.8100
 7521SOL    HW234200   4.394   1.322   5.774 -0.3871 -0.3572 -1.2684
 7522SOL     OW34201   1.943   3.810   2.129 -0.1706  0.1524  0.9537
 7522SOL    HW134202   1.889   3.824   2.052 -0.1213 -0.0534  0.8824
 7522SOL    HW234203   1.888   3.872   2.177  1.2467  0.8923  1.6417
 7523SOL     OW34204   2.994   3.323   8.854  0.0978 -0.1160  0.4448
 7523SOL    HW134205   2.920   3.379   8.833 -0.1758 -0.1943  1.1993
 7523SOL    HW234206   2.959   3.254   8.911  0.2042 -0.1174  0.5081
 7524SOL     OW34207   3.861   4.131   6.648  0.5282 -0.3888  0.7156
 7524SOL    HW134208   3.788   4.192   6.655  0.5463 -0.4554  1.5019
 7524SOL    HW234209   3.830   4.061   6.591 -0.5675  0.1770  0.6110
 7525SOL     OW34210   2.129   2.035   3.545 -0.0233 -0.8285  0.0299
 7525SOL    HW134211   2.185   2.100   3.501  0.8016 -1.2486  0.4455
 7525SOL    HW234212   2.087   2.094   3.607 -1.8889 -1.5822 -0.5163
 7526SOL     OW34213   2.207   2.966   7.254  0.1009  0.3564  0.4912
 7526SOL    HW134214   2.272   3.033   7.233 -0.7030  0.9876  0.0003
 7526SOL    HW234215   2.241   2.896   7.199 -1.7685  0.6099 -0.9864
 7527SOL     OW34216   1.056   3.631   5.909 -0.6317  0.6203  0.0664
 7527SOL    HW134217   1.098   3.716   5.918  0.1298  0.3534 -0.9632
 7527SOL    HW234218   0.994   3.629   5.982  0.7884 -0.3188  1.2400
 7528SOL     OW34219   4.534   4.699  10.993  0.9313 -0.1635 -0.4705
 7528SOL    HW134220   4.509   4.607  10.991  1.2877 -0.3183  2.4117
 7528SOL    HW234221   4.629   4.687  11.000  0.7834 -1.0267  0.1277
 7529SOL     OW34222   1.724   1.548   7.014 -0.0986 -0.0196 -0.4538
 7529SOL    HW134223   1.691   1.606   6.946 -0.8876  0.4426  0.3224
 7529SOL    HW234224   1.646   1.550   7.070  0.0048  1.3036 -0.3677
 7530SOL     OW34225   1.289   2.187   5.226 -0.1091 -0.3525 -0.2835
 7530SOL    HW134226   1.367   2.137   5.251  0.1785 -0.3110 -1.1099
 7530SOL    HW234227   1.224   2.122   5.252 -1.9546  1.9406  0.8433
 7531SOL     OW34228   3.480   4.537   8.701  0.5047 -0.3979 -0.6827
 7531SOL    HW134229   3.524   4.452   8.700 -0.3411 -0.8448  0.2660
 7531SOL    HW234230   3.409   4.509   8.643  0.3205 -0.4777 -0.4164
 7532SOL     OW34231   0.693   3.881   8.451 -0.3741 -0.4579 -0.6780
 7532SOL    HW134232   0.652   3.924   8.526  1.8640 -1.7622  1.2855
 7532SOL    HW234233   0.703   3.954   8.390 -1.9693  0.8082  0.5835
 7533SOL     OW34234   3.125   3.562   8.346 -0.2024 -0.9045  0.2225
 7533SOL    HW134235   3.151   3.654   8.340  0.0485 -0.9700  0.2901
 7533SOL    HW234236   3.110   3.539   8.254  1.9712  2.0480 -0.8663
 7534SOL     OW34237   3.045   2.926   3.273 -0.3662 -0.1227 -0.1168
 7534SOL    HW134238   3.082   2.865   3.337  0.5099  0.6711  0.1284
 7534SOL    HW234239   3.107   2.999   3.275  0.7219 -1.1084  1.9492
 7535SOL     OW34240   3.886   1.402   6.238 -0.4872 -0.5843 -0.1195
 7535SOL    HW134241   3.943   1.413   6.314 -0.8933  0.5398  0.0192
 7535SOL    HW234242   3.801   1.382   6.278  0.8671 -0.4578  2.8337
 7536SOL     OW34243   2.053   2.505   4.144  0.3652  0.7228  0.4267
 7536SOL    HW134244   2.138   2.548   4.142  1.0578 -0.6207  1.0988
 7536SOL    HW234245   2.033   2.503   4.050  0.3283  0.1643  0.4453
 7537SOL     OW34246   0.430   1.825  15.452 -0.2794  0.0786 -0.3493
 7537SOL    HW134247   0.440   1.914  15.418 -1.3595 -0.1986 -1.4008
 7537SOL    HW234248   0.499   1.772  15.414 -0.4667  1.6608 -2.8960
 7538SOL     OW34249   3.596   3.685   2.885  0.3861  0.7482  0.3058
 7538SOL    HW134250   3.505   3.663   2.865  0.5171  2.2599 -2.0007
 7538SOL    HW234251   3.612   3.755   2.822 -1.0548  2.1318  1.4691
 7539SOL     OW34252   3.029   3.719   7.243 -0.1517  0.6797  0.5524
 7539SOL    HW134253   3.066   3.805   7.222  1.1050 -0.1797 -0.7367
 7539SOL    HW234254   3.111   3.675   7.263  1.1139  1.9631 -1.9351
 7540SOL     OW34255   1.546   1.856   1.829  0.1303 -0.0102  0.0144
 7540SOL    HW134256   1.571   1.922   1.894 -0.4665  0.9037 -0.6916
 7540SOL    HW234257   1.457   1.851   1.864  0.0878  0.2846 -0.0554
 7541SOL     OW34258   2.887   1.563   2.958 -0.3179 -0.0419 -0.5985
 7541SOL    HW134259   2.805   1.514   2.951  0.5348 -1.3089 -1.7266
 7541SOL    HW234260   2.911   1.575   2.866  0.7217 -3.3216 -0.7444
 7542SOL     OW34261   4.132   1.582   1.711  0.0691 -0.4753 -0.1392
 7542SOL    HW134262   4.072   1.553   1.781 -0.0339 -0.6831 -0.3156
 7542SOL    HW234263   4.070   1.635   1.661 -0.5700 -0.7993  0.2988
 7543SOL     OW34264   4.000   0.009  13.365  0.2146  0.5860 -0.7039
 7543SOL    HW134265   4.070   4.686  13.336  0.2014  0.8808 -1.3266
 7543SOL    HW234266   3.938   4.727  13.294 -0.1323  0.6489 -0.4160
 7544SOL     OW34267   0.007   4.714  17.551 -0.5194 -0.5267 -0.5132
 7544SOL    HW134268   4.665   4.696  17.604 -1.2750 -0.3635 -1.5693
 7544SOL    HW234269   0.058   0.043  17.601  1.1786 -0.9774 -1.6526
 7545SOL     OW34270   1.332   0.262  15.336 -0.0922  0.3314  0.1710
 7545SOL    HW134271   1.265   0.263  15.268  1.2348 -4.0315 -1.1652
 7545SOL    HW234272   1.389   0.191  15.309 -0.5663  0.2350 -0.5692
 7546SOL     OW34273   1.282   3.247   4.438  0.7283 -0.1518  0.2048
 7546SOL    HW134274   1.200   3.297   4.442  0.2668 -0.8862 -0.0107
 7546SOL    HW234275   1.346   3.313   4.413 -1.4219  1.8898  0.1163
 7547SOL     OW34276   1.077   3.856  11.956  0.4388  0.4398 -0.0363
 7547SOL    HW134277   1.027   3.796  12.011 -1.5989  0.3388 -2.0131
 7547SOL    HW234278   1.086   3.930  12.016 -0.7472 -1.0400  1.9912
 7548SOL     OW34279   2.409   2.109   9.221  0.0485 -0.3254 -0.1286
 7548SOL    HW134280   2.407   2.030   9.167 -1.3648 -0.2735 -0.1380
 7548SOL    HW234281   2.497   2.142   9.199 -0.0646 -0.2981 -0.5309
 7549SOL     OW34282   1.689   0.925  12.603 -0.1698 -0.0969  0.4054
 7549SOL    HW134283   1.686   0.831  12.587  1.9857  0.1859 -1.6989
 7549SOL    HW234284   1.723   0.944  12.515  0.0322 -2.2454  0.0208
 7550SOL     OW34285   2.754   1.279   9.178  0.4719  0.2366  0.0421
 7550SOL    HW134286   2.699   1.356   9.169  2.2298  1.5481  0.5958
 7550SOL    HW234287   2.711   1.217   9.118 -0.7563  0.5951  0.5480
 7551SOL     OW34288   1.732   0.571   5.544  0.3308  0.4735  0.0780
 7551SOL    HW134289   1.817   0.610   5.562 -1.0633  2.7675  1.6818
 7551SOL    HW234290   1.759   0.509   5.477  1.1435 -0.3668  1.1966
 7552SOL     OW34291   3.165   1.588   6.208  0.2653  0.2051  0.4692
 7552SOL    HW134292   3.189   1.572   6.299 -0.5796  1.3941  0.9021
 7552SOL    HW234293   3.136   1.503   6.177 -0.9934  0.0209  2.1386
 7553SOL     OW34294   1.877   2.160   4.912 -0.1857 -0.2677 -0.0433
 7553SOL    HW134295   1.866   2.252   4.939  0.5386 -0.6530  1.5508
 7553SOL    HW234296   1.788   2.127   4.906  0.3020 -1.4134 -0.9249
 7554SOL     OW34297   1.451   0.905   5.521 -0.5002  0.0946 -0.2008
 7554SOL    HW134298   1.398   0.928   5.445 -2.3154 -0.9643  0.7539
 7554SOL    HW234299   1.424   0.813   5.523 -1.4992  0.4337  2.6605
 7555SOL     OW34300   0.727   3.588  10.550 -0.0687 -0.1169 -0.0476
 7555SOL    HW134301   0.727   3.601  10.455  0.6207 -0.6369 -0.1160
 7555SOL    HW234302   0.816   3.567  10.577 -0.3378 -2.2645 -0.8167
 7556SOL     OW34303   3.173   0.012   7.929  0.4798 -0.5494 -0.4801
 7556SOL    HW134304   3.230   0.061   7.870  2.0143 -1.8609 -0.1137
 7556SOL    HW234305   3.152   0.081   7.992 -0.8724 -2.1857  0.8772
 7557SOL     OW34306   1.955   2.142   3.742  0.0286 -0.1351 -0.1704
 7557SOL    HW134307   1.934   2.049   3.748  1.0339 -0.3414  0.1717
 7557SOL    HW234308   1.906   2.172   3.818  0.2552 -0.4552  0.1013
 7558SOL     OW34309   0.067   2.530   6.496 -0.2007  0.0899  0.3341
 7558SOL    HW134310   0.064   2.478   6.416 -2.7510  0.4127  0.2368
 7558SOL    HW234311   0.092   2.614   6.457 -3.8941  0.0101 -2.1784
 7559SOL     OW34312   4.081   4.243   2.689  0.0975 -0.5879  0.2193
 7559SOL    HW134313   4.174   4.264   2.693  0.2745 -1.5827  1.0448
 7559SOL    HW234314   4.047   4.327   2.658  1.9097 -0.0479 -0.2981
 7560SOL     OW34315   3.496   1.693   2.363 -0.0789 -0.0228 -0.4862
 7560SOL    HW134316   3.484   1.751   2.288 -1.6546  1.2941  0.8054
 7560SOL    HW234317   3.419   1.636   2.362 -1.7326  2.2091 -0.7024
 7561SOL     OW34318   2.119   2.773   1.018  0.3553  0.1521  0.2837
 7561SOL    HW134319   2.078   2.833   0.955  0.0764  0.3114  0.6158
 7561SOL    HW234320   2.158   2.834   1.081 -0.9417  1.9733 -0.6843
 7562SOL     OW34321   2.549   3.403  10.421  0.4669 -0.1000  0.1537
 7562SOL    HW134322   2.579   3.491  10.439  0.9229 -0.4514  1.1133
 7562SOL    HW234323   2.608   3.370  10.352  0.3945  2.8633 -1.3241
 7563SOL     OW34324   0.595   4.185   8.774  0.2783 -0.4112 -0.3806
 7563SOL    HW134325   0.634   4.270   8.754 -0.1435  0.1918  1.3234
 7563SOL    HW234326   0.586   4.199   8.868  0.4241  0.2586 -0.4655
 7564SOL     OW34327   2.062   2.433   7.763  0.3002  0.1162 -0.1571
 7564SOL    HW134328   2.108   2.350   7.756  1.5711  0.8873 -0.7763
 7564SOL    HW234329   2.032   2.446   7.673  1.5269  0.4176 -0.5185
 7565SOL     OW34330   0.050   0.255   3.472  0.3081 -0.0635 -0.1071
 7565SOL    HW134331   0.117   0.323   3.459 -1.1002  1.2324 -0.5930
 7565SOL    HW234332   0.109   0.182   3.490 -1.1416 -1.6165 -1.6102
 7566SOL     OW34333   3.103   2.824  12.762 -0.3555 -0.3838  0.7193
 7566SOL    HW134334   3.116   2.784  12.676  1.5179 -0.8085  1.1806
 7566SOL    HW234335   3.086   2.746  12.814 -0.5635 -0.9581 -0.2017
 7567SOL     OW34336   4.480   0.038   8.147 -0.3185  0.9143  0.3514
 7567SOL    HW134337   4.491   0.120   8.197  0.8381  0.3131  1.0895
 7567SOL    HW234338   4.566   4.735   8.166 -0.6401  0.8900  1.7836
 7568SOL     OW34339   1.701   0.590   6.764 -0.3373 -0.0116 -0.3984
 7568SOL    HW134340   1.642   0.547   6.826 -0.6900 -1.3262 -1.6555
 7568SOL    HW234341   1.788   0.574   6.801 -1.0706 -1.0091  0.8978
 7569SOL     OW34342   2.318   3.906   7.975 -0.8142 -0.3351 -0.5800
 7569SOL    HW134343   2.283   3.995   7.978 -1.6164 -0.6703  0.2547
 7569SOL    HW234344   2.241   3.862   8.011 -0.5021  1.1976  1.9831
 7570SOL     OW34345   3.667   0.679   1.746 -0.4330  0.0507 -0.2918
 7570SOL    HW134346   3.590   0.735   1.759 -0.3225  0.1024  0.1229
 7570SOL    HW234347   3.635   0.605   1.797  1.7111 -0.2459  0.6189
 7571SOL     OW34348   2.592   3.316  15.697 -0.0797 -0.7451 -0.3633
 7571SOL    HW134349   2.665   3.254  15.695 -0.8897 -1.6658 -1.6610
 7571SOL    HW234350   2.527   3.252  15.727 -0.3944 -1.3726 -2.3393
 7572SOL     OW34351   3.518   3.149   1.540 -0.3912 -0.6199 -0.1758
 7572SOL    HW134352   3.511   3.054   1.531 -4.3967 -0.3530  0.1196
 7572SOL    HW234353   3.610   3.162   1.518  0.2325 -3.0464  0.9540
 7573SOL     OW34354   4.064   3.995   5.561  0.4619  0.1466 -0.1497
 7573SOL    HW134355   3.979   4.014   5.521  1.1522 -0.5213 -1.9505
 7573SOL    HW234356   4.072   4.070   5.621 -2.9309 -0.6450  1.2788
 7574SOL     OW34357   0.743   1.264   5.949  0.7579 -0.1397  0.2069
 7574SOL    HW134358   0.678   1.327   5.979  0.2530 -0.6024  0.0990
 7574SOL    HW234359   0.736   1.271   5.854 -0.4471  0.4060  0.3443
 7575SOL     OW34360   4.381   1.616   2.764  0.1977  0.0800  0.0207
 7575SOL    HW134361   4.438   1.656   2.830  1.2149  0.1645 -0.8911
 7575SOL    HW234362   4.384   1.684   2.697  1.2424 -1.7803 -1.8217
 7576SOL     OW34363   4.471   2.831  11.080  0.0537 -0.9067  0.7938
 7576SOL    HW134364   4.394   2.789  11.118  0.4865 -0.4178  2.2090
 7576SOL    HW234365   4.528   2.756  11.098  1.7060 -0.1443 -1.3107
 7577SOL     OW34366   1.883   0.004  11.305 -0.0460  0.6527  0.1429
 7577SOL    HW134367   1.861   0.028  11.395  1.7981 -0.2434  0.8301
 7577SOL    HW234368   1.815   4.675  11.285  1.0952 -0.4618 -0.1726
 7578SOL     OW34369   2.943   0.183  16.595  0.0389  0.2294 -0.0684
 7578SOL    HW134370   2.899   0.218  16.673 -0.3631  0.8810 -0.5877
 7578SOL    HW234371   3.012   0.249  16.591  1.2963 -1.1595 -0.9563
 7579SOL     OW34372   1.176   0.429   6.573  0.1659 -0.0145 -0.1817
 7579SOL    HW134373   1.212   0.492   6.635 -2.3084  0.6632  0.5618
 7579SOL    HW234374   1.250   0.374   6.548  0.4651  0.2596  0.1077
 7580SOL     OW34375   2.097   4.442   8.713 -0.0090  0.6313  0.5789
 7580SOL    HW134376   2.073   4.428   8.805 -3.9109 -0.2699 -0.5595
 7580SOL    HW234377   2.077   4.535   8.703  2.5762  1.2498  1.2910
 7581SOL     OW34378   2.743   0.705   1.216  0.1393  0.2848 -0.2352
 7581SOL    HW134379   2.667   0.649   1.201  1.1549 -0.5477 -2.2910
 7581SOL    HW234380   2.795   0.654   1.278 -0.2795 -1.6665 -1.4789
 7582SOL     OW34381   3.588   4.052   8.288 -0.4829 -0.3210  0.0574
 7582SOL    HW134382   3.677   4.058   8.320 -0.8329 -0.6331  1.0988
 7582SOL    HW234383   3.606   4.006   8.205 -1.0226  1.6378 -1.1424
 7583SOL     OW34384   3.217   3.845   8.759 -0.0410 -0.2102  0.5425
 7583SOL    HW134385   3.158   3.888   8.697  1.2196  0.9541  0.1529
 7583SOL    HW234386   3.168   3.767   8.784 -0.2053  0.1111  1.2277
 7584SOL     OW34387   3.545   4.679   1.814 -0.0545  0.1489 -0.3361
 7584SOL    HW134388   3.553   4.605   1.753  0.6051 -0.6297  0.7081
 7584SOL    HW234389   3.627   4.722   1.788 -0.1992  0.9996  0.6261
 7585SOL     OW34390   1.264   2.952   2.031  0.2729 -0.0708 -0.3395
 7585SOL    HW134391   1.352   2.927   2.058  1.1893  1.9136 -1.4920
 7585SOL    HW234392   1.249   3.021   2.096  1.8508  0.2164 -0.2881
 7586SOL     OW34393   3.062   3.554   5.604 -0.1742  0.4124  0.3614
 7586SOL    HW134394   3.018   3.625   5.651  0.6518  0.8134  0.5262
 7586SOL    HW234395   2.991   3.490   5.609 -0.6232  0.9840  1.2869
 7587SOL     OW34396   0.043   3.129   1.753 -0.4341 -0.3548  0.3457
 7587SOL    HW134397   0.042   3.196   1.821 -2.4979 -2.5741  2.4894
 7587SOL    HW234398   0.047   3.049   1.806 -1.1326  0.3587  1.4560
 7588SOL     OW34399   0.259   4.663   0.118 -0.0679  0.0235  0.2910
 7588SOL    HW134400   0.347   4.668   0.155 -0.1436  4.0373 -0.0538
 7588SOL    HW234401   0.273   4.720   0.043 -1.2969 -0.4704 -0.3145
 7589SOL     OW34402   0.849   1.643   2.610  0.0203 -0.5561 -0.4164
 7589SOL    HW134403   0.833   1.732   2.639  0.6276 -0.0560 -1.5993
 7589SOL    HW234404   0.945   1.634   2.611  0.0615 -0.1306 -1.4286
 7590SOL     OW34405   4.636   3.254  14.550  0.1772  1.1432  0.1914
 7590SOL    HW134406   4.559   3.297  14.588 -1.5213 -1.1261 -0.6441
 7590SOL    HW234407   4.684   3.334  14.533 -0.1972  1.0479 -1.2709
 7591SOL     OW34408   1.875   4.456   7.762  0.2534  0.1214  0.1836
 7591SOL    HW134409   1.820   4.377   7.755 -1.3040  0.9773  2.7648
 7591SOL    HW234410   1.899   4.469   7.670 -0.9689 -0.3013 -0.1983
 7592SOL     OW34411   3.232   3.870   6.594  0.6322 -0.3168  0.0157
 7592SOL    HW134412   3.316   3.847   6.555  0.8292 -0.8004  0.7324
 7592SOL    HW234413   3.245   3.872   6.689 -0.0148 -1.4526  0.1280
 7593SOL     OW34414   2.143   1.586   1.615  0.4155  0.3140 -0.1323
 7593SOL    HW134415   2.183   1.501   1.635  0.7305  0.6588  0.7071
 7593SOL    HW234416   2.052   1.556   1.614  0.4950  0.0826 -0.5598
 7594SOL     OW34417   4.434   4.621   5.012 -0.1271 -0.0299  0.4525
 7594SOL    HW134418   4.453   4.606   4.920 -1.3131 -1.1895  0.3957
 7594SOL    HW234419   4.398   4.540   5.049  0.0467  0.1380  0.9934
 7595SOL     OW34420   2.523   2.895   8.586 -0.5688  0.2571  0.2291
 7595SOL    HW134421   2.461   2.866   8.520 -0.7071  0.1380  0.4099
 7595SOL    HW234422   2.601   2.907   8.532 -0.2873 -0.1326  0.5425
 7596SOL     OW34423   0.082   1.081  17.527 -0.2889  0.0362 -0.1830
 7596SOL    HW134424   0.123   1.050  17.447  0.1826 -1.0671  0.4792
 7596SOL    HW234425   0.138   1.152  17.559  1.3405 -1.3928  0.1123
 7597SOL     OW34426   1.533   2.533  10.141 -0.1438  0.2195  0.4047
 7597SOL    HW134427   1.555   2.463  10.080  2.6903  1.3194  0.1491
 7597SOL    HW234428   1.478   2.497  10.211  1.3076  1.5886  2.2521
 7598SOL     OW34429   3.112   0.812   9.529  0.2514  0.6082 -0.4863
 7598SOL    HW134430   3.072   0.888   9.572  0.1334  0.9300 -1.1680
 7598SOL    HW234431   3.179   0.860   9.480 -0.1568  2.3419  0.6452
 7599SOL     OW34432   0.079   2.353   8.018 -0.3083 -0.5645  0.5331
 7599SOL    HW134433   0.017   2.304   8.073 -0.8361 -1.0188 -0.4750
 7599SOL    HW234434   0.061   2.316   7.932  2.3723 -1.1894  0.2553
 7600SOL     OW34435   3.952   2.895   4.072 -0.0366 -0.4967  0.0913
 7600SOL    HW134436   3.979   2.977   4.113  2.2421 -0.5180 -1.3705
 7600SOL    HW234437   4.017   2.830   4.098 -1.1440 -1.7774 -0.3171
 7601SOL     OW34438   3.740   4.040   1.529 -0.4063 -0.5638  0.5825
 7601SOL    HW134439   3.672   4.071   1.471  1.9355  1.0244 -1.3104
 7601SOL    HW234440   3.686   3.984   1.585 -1.4319  0.9159  1.0686
 7602SOL     OW34441   0.703   2.887   8.225 -0.3811  0.2026 -0.2754
 7602SOL    HW134442   0.711   2.794   8.248 -1.3700  0.4240  1.0390
 7602SOL    HW234443   0.760   2.926   8.291  0.9135 -0.8931 -0.7624
 7603SOL     OW34444   0.090   3.197   1.446  0.1364  0.3008  0.3241
 7603SOL    HW134445   0.069   3.159   1.531 -0.0730 -2.4507 -0.9381
 7603SOL    HW234446   0.045   3.133   1.391  1.9403  0.5966 -1.5090
 7604SOL     OW34447   2.242   1.414   5.644 -0.5540  0.0298 -0.0014
 7604SOL    HW134448   2.328   1.393   5.607 -0.3094 -1.9345  1.6835
 7604SOL    HW234449   2.191   1.394   5.565  0.0951  0.2041 -0.4659
 7605SOL     OW34450   3.191   3.933   2.699  0.0809 -0.0673 -0.3102
 7605SOL    HW134451   3.111   3.898   2.738 -0.0062  0.2873 -0.1728
 7605SOL    HW234452   3.252   3.859   2.701  0.3334  0.2422  2.8762
 7606SOL     OW34453   2.092   2.052  14.278  0.5838  0.2834 -0.5796
 7606SOL    HW134454   2.060   2.132  14.236 -0.0167  0.1974 -0.2944
 7606SOL    HW234455   2.079   2.070  14.371 -0.1763  0.0254 -0.6369
 7607SOL     OW34456   1.460   1.987   5.289  0.2591  0.4114  0.3968
 7607SOL    HW134457   1.531   1.947   5.238  0.6009  1.9533 -0.3278
 7607SOL    HW234458   1.501   2.012   5.371  0.5652  0.0423  0.3577
 7608SOL     OW34459   1.547   1.289   1.251  0.3887  0.0560  0.3008
 7608SOL    HW134460   1.633   1.248   1.244 -0.3332 -1.3596 -0.4823
 7608SOL    HW234461   1.556   1.362   1.190  0.6791  1.0827  1.5659
 7609SOL     OW34462   2.936   1.840   5.245  0.8709  0.4367  0.6734
 7609SOL    HW134463   3.022   1.821   5.207 -0.8137 -1.1909 -2.2926
 7609SOL    HW234464   2.942   1.796   5.330 -2.8164 -0.8560  0.2776
 7610SOL     OW34465   3.550   3.254  11.872 -0.4842  0.5947  1.3161
 7610SOL    HW134466   3.474   3.219  11.919  0.4954 -0.9803  1.7405
 7610SOL    HW234467   3.618   3.188  11.885  1.0737  1.8351 -0.7049
 7611SOL     OW34468   4.598   0.842   0.189 -0.5281 -0.1612 -0.2831
 7611SOL    HW134469   4.531   0.790   0.145 -1.4629  1.9629 -1.3715
 7611SOL    HW234470   4.661   0.842   0.117  2.3799  1.8350  2.2845
 7612SOL     OW34471   0.923   0.903   4.736  0.1049  0.3856 -0.1596
 7612SOL    HW134472   0.885   0.912   4.649 -0.5692  2.6109  0.3645
 7612SOL    HW234473   0.857   0.964   4.769  0.2846  0.3401  0.2918
 7613SOL     OW34474   3.317   3.286   4.518 -0.5668 -0.2018  0.0386
 7613SOL    HW134475   3.314   3.304   4.612  1.4429 -0.8412  0.2195
 7613SOL    HW234476   3.226   3.305   4.495 -1.5144 -2.4568  1.9984
 7614SOL     OW34477   0.331   1.631   1.061  0.3876  0.6575 -0.2695
 7614SOL    HW134478   0.405   1.639   1.121 -0.0977  0.1498  0.3996
 7614SOL    HW234479   0.351   1.694   0.992 -0.8302  0.3429 -0.9130
 7615SOL     OW34480   2.827   0.060   5.602  0.3777  0.4318  0.0155
 7615SOL    HW134481   2.903   0.111   5.575  1.8326 -1.9264 -0.3153
 7615SOL    HW234482   2.857   0.028   5.687  1.9704  0.3970 -0.5720
 7616SOL     OW34483   2.156   0.107   5.260  0.0750 -0.5018 -0.3775
 7616SOL    HW134484   2.148   0.194   5.300  1.3295 -0.2207 -0.7503
 7616SOL    HW234485   2.125   0.135   5.174  1.2280  1.7313 -0.0706
 7617SOL     OW34486   1.728   2.530  11.372  0.1268  0.1766 -0.0767
 7617SOL    HW134487   1.764   2.498  11.455  2.6787  1.5660 -0.6495
 7617SOL    HW234488   1.710   2.451  11.321  0.2758 -0.1074  0.3130
 7618SOL     OW34489   1.800   0.690  12.683 -0.2834  0.2874  0.1124
 7618SOL    HW134490   1.794   0.636  12.762  0.6187 -1.0951 -0.7500
 7618SOL    HW234491   1.854   0.764  12.712  1.4968 -1.1089  0.4203
 7619SOL     OW34492   3.689   1.618   8.681 -0.2053 -0.1236 -0.2845
 7619SOL    HW134493   3.735   1.559   8.741  1.2151  0.2405 -1.0145
 7619SOL    HW234494   3.740   1.698   8.685  1.9435 -1.4915 -0.4218
 7620SOL     OW34495   1.578   4.365  17.543 -0.1445 -0.1627 -0.0298
 7620SOL    HW134496   1.642   4.367  17.614  0.4530  2.0738 -0.6405
 7620SOL    HW234497   1.618   4.435  17.491  0.2843 -1.3146 -1.2340
 7621SOL     OW34498   4.377   2.726  11.800  0.6283 -0.0523 -0.2973
 7621SOL    HW134499   4.451   2.729  11.861  0.4449 -2.2212  0.0377
 7621SOL    HW234500   4.332   2.647  11.830 -0.7326  0.4005 -1.1587
 7622SOL     OW34501   1.429   4.352   9.442  0.2688 -0.0873 -0.5143
 7622SOL    HW134502   1.364   4.296   9.400 -0.2583 -0.5843  0.9611
 7622SOL    HW234503   1.452   4.300   9.519 -0.3563  2.6474  1.5286
 7623SOL     OW34504   1.618   1.857   0.179  0.2002  0.2084  0.0423
 7623SOL    HW134505   1.557   1.924   0.209 -1.4760 -0.4529 -1.8281
 7623SOL    HW234506   1.695   1.910   0.157 -0.1400 -0.4125 -2.7171
 7624SOL     OW34507   0.499   1.532   9.624  0.4841 -0.4036  0.0300
 7624SOL    HW134508   0.452   1.532   9.707  0.5579 -0.7639  0.0723
 7624SOL    HW234509   0.547   1.613   9.640 -0.4127  0.2710 -0.6633
 7625SOL     OW34510   1.028   3.960   0.904 -0.0782 -0.0542  0.0550
 7625SOL    HW134511   0.965   3.950   0.975 -0.5253 -1.3695 -0.5336
 7625SOL    HW234512   1.104   3.922   0.948  0.2135  0.2704 -0.1656
 7626SOL     OW34513   2.708   2.103   3.228  0.4030 -0.5607  0.3170
 7626SOL    HW134514   2.721   2.197   3.236  1.6591 -0.7019 -0.0532
 7626SOL    HW234515   2.672   2.086   3.141 -1.2856 -2.1580  1.3197
 7627SOL     OW34516   3.891   2.002   4.615 -0.6049  0.4623 -0.3744
 7627SOL    HW134517   3.803   1.972   4.593 -1.3006  1.0555  1.6676
 7627SOL    HW234518   3.927   2.032   4.531 -0.8432 -0.7806 -0.9267
 7628SOL     OW34519   4.477   4.041   2.130 -0.5950 -0.0801  0.5140
 7628SOL    HW134520   4.439   4.059   2.044 -1.8271 -1.2448  0.8145
 7628SOL    HW234521   4.431   3.963   2.160  0.1216 -1.0561 -0.9124
 7629SOL     OW34522   3.802   1.167  14.187  0.2046  0.5583 -0.0342
 7629SOL    HW134523   3.834   1.195  14.101  0.1188 -0.1751 -0.3087
 7629SOL    HW234524   3.876   1.119  14.225  0.0182  0.3587  0.0780
 7630SOL     OW34525   3.128   0.718  15.990  0.1822  0.3172  0.0412
 7630SOL    HW134526   3.092   0.629  15.986  1.4482 -0.2337  0.8132
 7630SOL    HW234527   3.217   0.708  15.957 -0.4501  1.4887 -2.0293
 7631SOL     OW34528   0.631   0.108   0.962 -0.1784  0.2096 -0.0968
 7631SOL    HW134529   0.636   0.136   0.871 -0.3753  1.3017  0.2226
 7631SOL    HW234530   0.594   0.023   0.939  3.4385 -1.2075 -0.7509
 7632SOL     OW34531   0.928   2.690  14.940 -0.2909  0.0915 -0.2129
 7632SOL    HW134532   1.023   2.681  14.947 -0.4469 -0.6427  1.0338
 7632SOL    HW234533   0.915   2.698  15.035 -1.0013  0.4020 -0.3334
 7633SOL     OW34534   2.475   3.445   3.643  0.7264 -0.0036  0.2036
 7633SOL    HW134535   2.399   3.475   3.592  0.8381  4.0537  2.3718
 7633SOL    HW234536   2.540   3.500   3.599 -0.3370  0.6798 -0.5276
 7634SOL     OW34537   4.358   0.239  10.552  0.0581  0.6475 -0.1435
 7634SOL    HW134538   4.449   0.265  10.561  0.6826 -1.9407  0.9854
 7634SOL    HW234539   4.357   0.162  10.609  2.2044  0.6097 -0.1473
 7635SOL     OW34540   3.640   4.187   6.050  0.4670  0.2118 -0.0764
 7635SOL    HW134541   3.563   4.138   6.021  0.0593  0.2136  1.0092
 7635SOL    HW234542   3.606   4.273   6.028  0.2702 -0.2974 -1.8115
 7636SOL     OW34543   4.163   2.511  14.996  0.4516  0.3976  0.2884
 7636SOL    HW134544   4.244   2.503  15.047 -0.8441  0.0591  2.3080
 7636SOL    HW234545   4.141   2.594  15.038  1.7304 -0.1714  2.0838
 7637SOL     OW34546   2.215   0.872   2.561  0.2844 -0.8449 -0.1731
 7637SOL    HW134547   2.140   0.847   2.615  1.0317 -0.6929  0.9314
 7637SOL    HW234548   2.281   0.806   2.582 -1.1866 -2.3296 -0.2265
 7638SOL     OW34549   4.256   0.962  12.117 -0.0852  0.2092 -0.2044
 7638SOL    HW134550   4.272   0.889  12.178 -1.0746 -0.8387 -1.1849
 7638SOL    HW234551   4.288   0.917  12.039 -0.0407 -1.0086  0.5119
 7639SOL     OW34552   2.268   2.379   2.351  0.3506  0.1675  0.3642
 7639SOL    HW134553   2.225   2.454   2.392  1.6716 -0.9831  3.8499
 7639SOL    HW234554   2.307   2.414   2.272  2.2374 -0.9857  0.7942
 7640SOL     OW34555   2.829   0.228   3.207  0.4466  0.3232  0.1458
 7640SOL    HW134556   2.790   0.260   3.126 -3.3619  2.2844  2.7715
 7640SOL    HW234557   2.886   0.303   3.226  1.0799 -0.3631  0.9813
 7641SOL     OW34558   2.424   2.096   2.053  0.3931  0.0835 -0.3150
 7641SOL    HW134559   2.401   2.050   1.972  0.5899  0.8126 -0.7881
 7641SOL    HW234560   2.400   2.186   2.033  1.0384  0.4588  0.6339
 7642SOL     OW34561   0.207   2.333   1.983 -0.5658 -0.2247  0.2079
 7642SOL    HW134562   0.157   2.302   1.908 -1.3044  3.1996 -0.7127
 7642SOL    HW234563   0.145   2.324   2.055 -1.8594 -0.2244 -0.9116
 7643SOL     OW34564   0.434   1.412   3.199 -0.3268  0.3247  1.0724
 7643SOL    HW134565   0.381   1.348   3.248 -0.3600 -0.4710 -0.0216
 7643SOL    HW234566   0.381   1.491   3.210  0.7756  1.0239  1.3360
 7644SOL     OW34567   2.423   0.229   5.476  0.0097  0.1264 -0.7367
 7644SOL    HW134568   2.353   0.292   5.458 -0.7865 -0.4342  0.4491
 7644SOL    HW234569   2.470   0.267   5.550  0.5790  0.0839 -1.0787
 7645SOL     OW34570   2.791   4.077   3.062 -0.2185  0.9269 -0.5607
 7645SOL    HW134571   2.744   4.154   3.094 -1.5619  0.6391 -1.7840
 7645SOL    HW234572   2.752   4.007   3.115  0.4597  1.7559  1.0044
 7646SOL     OW34573   0.286   0.118   8.836  0.3610 -0.7211 -0.6944
 7646SOL    HW134574   0.355   0.055   8.860 -0.5251 -1.5660 -0.3718
 7646SOL    HW234575   0.272   0.169   8.915 -0.1526 -0.4255 -0.9758
 7647SOL     OW34576   4.366   0.211   2.143 -0.2257 -0.8263 -0.3340
 7647SOL    HW134577   4.372   0.121   2.110 -1.7602 -1.8200  2.1194
 7647SOL    HW234578   4.460   0.231   2.146 -0.8515  1.4410  3.9348
 7648SOL     OW34579   1.762   1.325   2.033 -0.2723  0.0520 -0.6126
 7648SOL    HW134580   1.738   1.416   2.043  0.3333 -0.0369  1.8182
 7648SOL    HW234581   1.837   1.316   2.093 -0.9854  0.5547  0.3462
 7649SOL     OW34582   4.218   0.135   5.450  0.7509 -0.1744 -0.3614
 7649SOL    HW134583   4.150   0.140   5.383 -0.4467 -1.0199  0.7711
 7649SOL    HW234584   4.268   0.217   5.446  1.0916 -0.3183  0.8571
 7650SOL     OW34585   0.795   1.929   4.868  0.2027 -0.4504  0.2276
 7650SOL    HW134586   0.745   1.961   4.943  0.6815 -0.7485  0.6641
 7650SOL    HW234587   0.875   1.942   4.918 -0.8906  0.6720  1.6946
 7651SOL     OW34588   2.982   1.115   6.728  0.1064  0.7248  1.0479
 7651SOL    HW134589   3.066   1.159   6.718  0.4010  0.0115  0.3295
 7651SOL    HW234590   2.936   1.174   6.787  0.6888  0.8700  1.3495
 7652SOL     OW34591   3.294   3.615  13.511  0.2054 -0.4595  0.4687
 7652SOL    HW134592   3.320   3.524  13.521  2.3738  0.2159  1.0074
 7652SOL    HW234593   3.329   3.648  13.594 -0.1141  0.3187  0.2990
 7653SOL     OW34594   2.424   3.974   6.993  0.0813 -0.1640 -0.1688
 7653SOL    HW134595   2.334   3.960   6.963  0.2633  0.1535 -0.8560
 7653SOL    HW234596   2.461   4.053   6.953 -0.1830 -1.1678 -2.3736
 7654SOL     OW34597   2.139   0.861  12.498  0.1021  0.1145  0.4374
 7654SOL    HW134598   2.140   0.824  12.586 -0.8498 -0.2857  0.2776
 7654SOL    HW234599   2.183   0.793  12.446 -0.1486  0.1109  0.2325
 7655SOL     OW34600   4.158   3.610   3.818  0.2357  0.2360  0.5241
 7655SOL    HW134601   4.093   3.643   3.755  1.3451  0.0641 -0.7143
 7655SOL    HW234602   4.159   3.517   3.795 -0.3309  0.4018 -0.1945
 7656SOL     OW34603   0.891   3.942  13.441  0.2950  0.8224 -0.1249
 7656SOL    HW134604   0.855   3.924  13.354 -0.7007 -1.4687  0.7500
 7656SOL    HW234605   0.891   3.855  13.481 -0.2792  0.9823  0.2299
 7657SOL     OW34606   1.100   3.534  12.294  0.4364 -0.4425  0.1342
 7657SOL    HW134607   1.157   3.529  12.217 -0.8021  0.2098 -0.8440
 7657SOL    HW234608   1.151   3.501  12.368  1.5568  1.0059  0.0033
 7658SOL     OW34609   3.493   3.691   5.518 -0.1904  0.8981 -0.1607
 7658SOL    HW134610   3.420   3.674   5.458  0.1230  0.2387 -0.3590
 7658SOL    HW234611   3.500   3.607   5.564 -0.5185 -0.0330 -1.8128
 7659SOL     OW34612   1.796   4.425  17.169 -0.1066 -0.0468  0.2623
 7659SOL    HW134613   1.774   4.517  17.157 -0.8541 -0.3996 -1.0367
 7659SOL    HW234614   1.805   4.436  17.264 -0.5053 -0.3767  0.3378
 7660SOL     OW34615   2.634   1.859   1.774 -0.3007 -0.1245 -0.8683
 7660SOL    HW134616   2.615   1.766   1.765 -0.3861 -0.0939 -1.0012
 7660SOL    HW234617   2.556   1.897   1.734 -1.0215 -0.2522  0.4011
 7661SOL     OW34618   3.898   4.609   4.342  0.4950 -0.0881  0.7630
 7661SOL    HW134619   3.942   4.577   4.263  1.0514  0.1549  0.9674
 7661SOL    HW234620   3.818   4.652   4.311 -0.3017 -2.1858 -0.0483
 7662SOL     OW34621   3.822   0.315   4.804  0.0233 -0.1359  0.0280
 7662SOL    HW134622   3.858   0.338   4.719 -0.4644 -0.7229 -0.3333
 7662SOL    HW234623   3.756   0.382   4.822  1.5753  0.8529  2.0933
 7663SOL     OW34624   2.485   0.942   8.261 -0.0074 -0.1766  0.3362
 7663SOL    HW134625   2.429   1.009   8.299 -0.5329 -0.7727  0.6106
 7663SOL    HW234626   2.549   1.001   8.221 -2.1633  1.7076 -0.2954
 7664SOL     OW34627   3.710   0.083   8.200  0.4277  0.2362 -0.1798
 7664SOL    HW134628   3.709   0.153   8.266 -1.2080  2.4038 -2.4931
 7664SOL    HW234629   3.624   0.102   8.165 -0.1162  1.3948  1.7592
 7665SOL     OW34630   1.316   0.507   6.825  0.1954 -0.5651 -0.1832
 7665SOL    HW134631   1.291   0.414   6.821  1.3221 -0.9887  2.5797
 7665SOL    HW234632   1.378   0.513   6.897  0.1216 -0.1738 -0.1532
 7666SOL     OW34633   1.132   0.514  16.171 -0.3223 -0.0395 -0.0205
 7666SOL    HW134634   1.076   0.535  16.245 -0.9977 -2.9078  0.3010
 7666SOL    HW234635   1.216   0.546  16.203  0.4375 -0.4291 -1.5966
 7667SOL     OW34636   1.222   3.546   6.795 -0.8357  0.1944  0.3623
 7667SOL    HW134637   1.292   3.581   6.740 -0.2618  0.2377  1.1166
 7667SOL    HW234638   1.266   3.512   6.873 -0.0712 -1.1816 -0.6801
 7668SOL     OW34639   0.147   0.000   1.915 -0.2107  0.0891  0.0390
 7668SOL    HW134640   0.158   0.069   1.850 -1.9847  2.6854  2.4992
 7668SOL    HW234641   0.129   4.661   1.858 -0.3346  0.0617  0.1136
 7669SOL     OW34642   1.660   1.233   0.015  0.1042  0.3114 -0.0987
 7669SOL    HW134643   1.637   1.203  17.666 -1.0385  0.1333  0.2582
 7669SOL    HW234644   1.584   1.289   0.032 -0.6370 -0.7525  0.0283
 7670SOL     OW34645   3.669   3.964   1.897 -0.0946  0.5520 -0.5100
 7670SOL    HW134646   3.707   3.898   1.839  1.7575  1.6227 -0.5382
 7670SOL    HW234647   3.576   3.955   1.878 -0.2407 -0.8978  0.8926
 7671SOL     OW34648   3.949   2.968   8.270 -0.0544  0.1591  0.0450
 7671SOL    HW134649   3.934   3.028   8.343 -1.0960  0.2368 -0.2321
 7671SOL    HW234650   4.045   2.973   8.271 -0.0002 -0.9459  0.9600
 7672SOL     OW34651   2.254   2.475  15.367 -0.0991  0.0609 -0.0377
 7672SOL    HW134652   2.231   2.513  15.283  0.1291 -1.2024 -0.6712
 7672SOL    HW234653   2.309   2.542  15.407  0.4856 -0.9218  0.8157
 7673SOL     OW34654   3.377   0.376   2.784 -0.3680 -0.8821  0.3083
 7673SOL    HW134655   3.367   0.294   2.833  1.3870 -0.7080  0.9541
 7673SOL    HW234656   3.377   0.339   2.696  3.2671  2.7113 -1.2129
 7674SOL     OW34657   1.508   3.444   4.912 -0.3863 -0.3657 -0.0621
 7674SOL    HW134658   1.533   3.365   4.863 -1.1378 -1.1102  0.7542
 7674SOL    HW234659   1.465   3.414   4.992  1.1613 -1.0381  0.5103
 7675SOL     OW34660   2.016   0.055   7.601 -0.4200  0.3020  0.2408
 7675SOL    HW134661   2.046   0.081   7.514 -0.8510 -0.1367 -0.0412
 7675SOL    HW234662   2.040   0.135   7.647 -2.8041  2.3218 -2.0654
 7676SOL     OW34663   3.495   4.439   6.023 -0.4248  0.0132 -0.0990
 7676SOL    HW134664   3.548   4.470   6.096  0.3942  2.7255 -1.8737
 7676SOL    HW234665   3.469   4.523   5.987  2.6003  0.2207 -1.7196
 7677SOL     OW34666   3.405   2.522   7.414  0.6524 -0.0776  0.2502
 7677SOL    HW134667   3.427   2.572   7.492  1.1007  0.2814 -0.1028
 7677SOL    HW234668   3.414   2.576   7.335 -1.9266 -0.6064 -0.3938
 7678SOL     OW34669   0.291   4.256   7.552 -0.3461 -0.0385  0.2534
 7678SOL    HW134670   0.241   4.182   7.519 -0.8247 -0.0102  0.9171
 7678SOL    HW234671   0.381   4.226   7.540 -1.1436 -2.5058  0.6248
 7679SOL     OW34672   3.952   4.169   5.737  0.0689 -0.0064 -0.6914
 7679SOL    HW134673   3.930   4.253   5.778 -1.6562 -0.1464 -1.3326
 7679SOL    HW234674   3.939   4.108   5.810  1.4517  0.8724  0.2900
 7680SOL     OW34675   1.693   0.874   3.772  0.0710  0.2581  0.3121
 7680SOL    HW134676   1.606   0.834   3.778 -0.0928  0.6298  0.4460
 7680SOL    HW234677   1.718   0.899   3.861 -3.4667 -0.3039  1.4531
 7681SOL     OW34678   2.340   2.077   7.223 -0.9783  0.1862 -0.0909
 7681SOL    HW134679   2.386   2.001   7.186  1.8695  1.4643  0.8291
 7681SOL    HW234680   2.396   2.149   7.195  2.0056 -1.7463  0.8851
 7682SOL     OW34681   1.282   4.367   2.517 -0.3943 -0.1699  0.5706
 7682SOL    HW134682   1.318   4.455   2.531 -0.2498 -0.3641  1.4494
 7682SOL    HW234683   1.191   4.394   2.504  0.3382  0.1352 -4.0657
 7683SOL     OW34684   0.118   3.029  10.409 -0.5252 -0.3219 -0.2009
 7683SOL    HW134685   0.036   2.988  10.382 -0.9966  0.6743 -0.2941
 7683SOL    HW234686   0.184   2.975  10.365  1.3075  0.0847  2.0219
 7684SOL     OW34687   3.395   1.671   9.116 -0.1121 -0.3174  0.5138
 7684SOL    HW134688   3.388   1.688   9.210  1.6338  1.5603  0.3045
 7684SOL    HW234689   3.488   1.651   9.105  0.0989  1.2946 -0.7386
 7685SOL     OW34690   2.855   2.868   1.791  0.5596 -0.0810 -0.2021
 7685SOL    HW134691   2.860   2.837   1.881  3.0843 -1.2816 -0.7544
 7685SOL    HW234692   2.787   2.935   1.791  2.2427  1.6172  1.2892
 7686SOL     OW34693   0.360   0.654  10.170 -0.4098  0.4594  0.1174
 7686SOL    HW134694   0.441   0.603  10.172 -0.4664  0.2073 -3.1735
 7686SOL    HW234695   0.329   0.621  10.086  0.5418 -1.7004  0.6224
 7687SOL     OW34696   2.692   2.415   4.256 -0.2213 -0.3046  0.0079
 7687SOL    HW134697   2.756   2.466   4.207  0.1092 -0.4336  0.2984
 7687SOL    HW234698   2.745   2.348   4.299 -1.4373 -1.1876  0.1396
 7688SOL     OW34699   4.557   2.184   4.552 -0.4572  0.2216  0.2010
 7688SOL    HW134700   4.581   2.093   4.537  0.9180  0.1129  3.0385
 7688SOL    HW234701   4.493   2.172   4.623 -0.6313 -0.8224 -0.1376
 7689SOL     OW34702   1.843   4.712  17.391  0.2409 -0.8313 -0.5678
 7689SOL    HW134703   1.861   0.065  17.357 -1.4597 -0.5525 -0.7406
 7689SOL    HW234704   1.919   4.681  17.439 -0.8571 -0.3000  1.4916
 7690SOL     OW34705   3.894   1.513   2.645  0.3673 -0.7565  0.2175
 7690SOL    HW134706   3.863   1.457   2.717  0.9027  0.7571  1.6455
 7690SOL    HW234707   3.945   1.455   2.589  1.1051  1.3939 -1.2936
 7691SOL     OW34708   2.351   3.157   9.812 -0.2882 -0.3227  0.1654
 7691SOL    HW134709   2.305   3.237   9.786  0.6242  0.5336  1.2096
 7691SOL    HW234710   2.383   3.122   9.729 -0.3343  0.2623 -0.0964
 7692SOL     OW34711   3.801   0.861   6.573 -0.5809 -0.3776 -0.7281
 7692SOL    HW134712   3.717   0.899   6.545 -0.1521  0.8210 -0.3562
 7692SOL    HW234713   3.860   0.933   6.553 -0.5649 -0.7977 -2.2221
 7693SOL     OW34714   3.255   2.586   5.814 -0.2038  0.2026 -0.7305
 7693SOL    HW134715   3.187   2.583   5.747 -1.3233 -1.4166  0.4684
 7693SOL    HW234716   3.207   2.647   5.870  1.4682  3.6244 -3.0628
 7694SOL     OW34717   4.283   4.570  15.671 -0.0461  0.4525  0.4135
 7694SOL    HW134718   4.321   4.516  15.740  1.9732  0.8379 -0.3950
 7694SOL    HW234719   4.227   4.504  15.630  2.6891 -0.5035 -1.7405
 7695SOL     OW34720   2.274   2.406   8.378 -0.2222  0.2387 -0.3101
 7695SOL    HW134721   2.260   2.354   8.298 -1.0115 -0.7169  0.4404
 7695SOL    HW234722   2.369   2.397   8.380 -0.1172  1.3717 -0.2866
 7696SOL     OW34723   0.066   1.527   6.814  0.9388 -0.1342 -0.4385
 7696SOL    HW134724   0.102   1.534   6.726  2.8393  0.2781  0.3691
 7696SOL    HW234725   4.709   1.528   6.789  0.7238  0.7758  0.4101
 7697SOL     OW34726   1.164   1.560   3.005  0.1745  0.1375  0.1604
 7697SOL    HW134727   1.170   1.556   3.101  0.8011  2.9682  0.2338
 7697SOL    HW234728   1.146   1.468   2.985  2.3237  0.1901 -1.8871
 7698SOL     OW34729   2.896   1.334   2.278  0.6628 -0.1719 -0.9416
 7698SOL    HW134730   2.871   1.415   2.323  1.3235 -1.3585  1.5582
 7698SOL    HW234731   2.834   1.345   2.206 -0.9996 -0.6134  0.4261
 7699SOL     OW34732   3.628   0.198  13.604  0.3821 -0.4042  0.0476
 7699SOL    HW134733   3.626   0.110  13.640  0.1557 -0.2129  0.4985
 7699SOL    HW234734   3.703   0.197  13.544  0.9063 -0.4826  0.7108
 7700SOL     OW34735   2.418   2.385   3.289 -0.3824 -0.0754  0.5813
 7700SOL    HW134736   2.415   2.380   3.194 -1.1318 -2.1211  0.7072
 7700SOL    HW234737   2.511   2.385   3.312 -0.2076  1.2288 -0.1828
 7701SOL     OW34738   4.289   2.441   6.393 -0.2355 -0.4203 -0.5503
 7701SOL    HW134739   4.214   2.477   6.345  1.9647  1.9695 -2.1843
 7701SOL    HW234740   4.302   2.363   6.339  0.2618  0.2390 -1.3869
 7702SOL     OW34741   2.668   3.799  16.547 -1.0019  0.1219  0.2541
 7702SOL    HW134742   2.728   3.811  16.621  1.2070 -0.5198 -1.4494
 7702SOL    HW234743   2.690   3.882  16.504  0.0639 -0.4733 -0.3595
 7703SOL     OW34744   1.340   0.254   5.785 -0.7864  0.7815 -0.2476
 7703SOL    HW134745   1.411   0.272   5.723 -0.7707  0.7038 -0.2520
 7703SOL    HW234746   1.352   0.331   5.840 -2.4096  0.8725 -0.0350
 7704SOL     OW34747   2.890   2.959   9.422 -0.0395 -0.0745 -0.6139
 7704SOL    HW134748   2.936   3.000   9.350 -0.2488  1.5309  0.1640
 7704SOL    HW234749   2.884   2.873   9.380 -3.0849  1.5624 -3.5215
 7705SOL     OW34750   1.964   3.718  11.721 -0.3330 -0.3864  0.6333
 7705SOL    HW134751   1.924   3.631  11.716  0.5528 -0.6640 -1.8736
 7705SOL    HW234752   2.053   3.686  11.736  0.4029  0.2442 -2.3202
 7706SOL     OW34753   3.547   1.123  15.097 -0.1124  0.5218  0.0343
 7706SOL    HW134754   3.621   1.069  15.126 -0.2837 -1.1867 -2.7174
 7706SOL    HW234755   3.478   1.065  15.130 -0.8171  0.5682 -1.3804
 7707SOL     OW34756   2.877   4.541   3.713  0.2198 -0.6047 -0.5346
 7707SOL    HW134757   2.913   4.460   3.677  1.2479  0.2380 -1.4256
 7707SOL    HW234758   2.908   4.597   3.642  0.9062  0.1052  0.3256
 7708SOL     OW34759   3.435   3.065   4.148 -0.7231  0.3797  0.1746
 7708SOL    HW134760   3.339   3.060   4.150 -0.5969 -1.6352  1.3653
 7708SOL    HW234761   3.439   3.069   4.244  0.9834 -4.0847  0.2839
 7709SOL     OW34762   4.093   4.148   6.792  0.3865  0.5106 -0.2657
 7709SOL    HW134763   4.008   4.125   6.753  0.0344 -0.3154  0.9803
 7709SOL    HW234764   4.130   4.060   6.797 -1.9567 -0.4530  0.5203
 7710SOL     OW34765   0.770   1.697   1.748 -0.1162 -0.8448 -0.4139
 7710SOL    HW134766   0.824   1.775   1.736 -0.7621 -0.3123  0.0705
 7710SOL    HW234767   0.706   1.734   1.810  1.1769 -0.6646  0.8218
 7711SOL     OW34768   0.562   1.325  15.999 -0.1310 -0.1894  0.6067
 7711SOL    HW134769   0.488   1.296  15.946  0.7353  1.1697 -1.3337
 7711SOL    HW234770   0.575   1.412  15.963  1.0310 -1.1826 -1.3736
 7712SOL     OW34771   2.776   2.313  14.571  0.6923  0.2545 -0.0618
 7712SOL    HW134772   2.822   2.315  14.487 -1.0209 -0.4513 -0.9938
 7712SOL    HW234773   2.853   2.317  14.629  2.8183 -0.7481 -2.8113
 7713SOL     OW34774   3.281   1.311   5.100 -0.1816  0.0735 -0.3607
 7713SOL    HW134775   3.375   1.303   5.084 -0.0310  1.1290 -0.0264
 7713SOL    HW234776   3.258   1.383   5.041  1.6862  0.7746 -0.2216
 7714SOL     OW34777   0.605   1.719   5.083  0.1368 -0.6285  0.7055
 7714SOL    HW134778   0.594   1.807   5.049  0.6480 -0.5662  0.6953
 7714SOL    HW234779   0.549   1.668   5.024  1.3128 -2.0207  0.7931
 7715SOL     OW34780   1.894   3.937   1.262 -0.1445  0.5734 -0.3227
 7715SOL    HW134781   1.855   3.884   1.331 -0.5280 -1.9083 -2.4222
 7715SOL    HW234782   1.944   4.000   1.313 -0.3929 -0.1752  0.8507
 7716SOL     OW34783   3.544   0.552   3.913 -0.8546 -0.1073 -0.8505
 7716SOL    HW134784   3.580   0.547   4.002  0.7152  2.9033 -1.3009
 7716SOL    HW234785   3.582   0.475   3.872 -1.9243 -0.0199 -2.0215
 7717SOL     OW34786   4.308   2.736   8.349  0.2759  0.5735 -0.4503
 7717SOL    HW134787   4.379   2.794   8.321  0.3900  1.0899  0.8786
 7717SOL    HW234788   4.256   2.800   8.398  0.9495  0.4044  0.4968
 7718SOL     OW34789   3.504   1.617  11.674  0.2609 -0.0486  0.6181
 7718SOL    HW134790   3.572   1.651  11.731 -1.4140  1.5658  1.6723
 7718SOL    HW234791   3.549   1.590  11.594  1.3887  0.3364  1.1247
 7719SOL     OW34792   3.803   0.987   2.187  0.5613 -0.5030 -0.2528
 7719SOL    HW134793   3.821   1.081   2.184  0.6736 -0.4991  0.5811
 7719SOL    HW234794   3.888   0.944   2.181 -0.3650 -2.4486  0.5544
 7720SOL     OW34795   4.345   4.158   2.411 -0.1534 -0.2573  0.1501
 7720SOL    HW134796   4.431   4.117   2.400 -0.1131 -1.1552  3.7175
 7720SOL    HW234797   4.357   4.187   2.501  1.0722 -0.7357  0.1366
 7721SOL     OW34798   4.039   4.658   2.168 -0.3247 -0.1959  0.2354
 7721SOL    HW134799   4.099   4.616   2.230  0.3884  1.4301  0.6556
 7721SOL    HW234800   3.951   4.649   2.203 -0.1280  1.0194  1.0262
 7722SOL     OW34801   3.284   1.458  11.349  0.1785 -0.2210  0.8183
 7722SOL    HW134802   3.373   1.436  11.323 -0.0821  0.3616 -0.5515
 7722SOL    HW234803   3.296   1.542  11.394  2.6287  0.2619 -0.7331
 7723SOL     OW34804   0.691   4.213   4.571  0.4404  0.3962  0.0036
 7723SOL    HW134805   0.638   4.134   4.560  0.6785 -0.2992  3.6146
 7723SOL    HW234806   0.635   4.261   4.632 -1.4579 -0.5598 -0.9893
 7724SOL     OW34807   3.987   0.758   5.949 -1.1283 -0.1474  0.4005
 7724SOL    HW134808   4.067   0.757   5.897 -1.0392  0.6158  0.5265
 7724SOL    HW234809   3.966   0.850   5.965  1.3049  0.2848  0.9828
 7725SOL     OW34810   2.476   4.303   5.098 -0.5633  0.4509  0.6527
 7725SOL    HW134811   2.401   4.287   5.156  0.2248  0.9654  1.8155
 7725SOL    HW234812   2.458   4.393   5.068 -0.0592  1.2751  2.8286
 7726SOL     OW34813   2.032   1.382   3.623  0.0926  0.1924  0.5811
 7726SOL    HW134814   2.126   1.395   3.630 -0.3068  3.8080 -0.5486
 7726SOL    HW234815   2.016   1.317   3.554 -0.8316  0.8119  0.2088
 7727SOL     OW34816   4.712   0.696   1.743 -0.2378  0.4711 -0.9219
 7727SOL    HW134817   4.732   0.786   1.720 -1.3760  0.7160 -0.9323
 7727SOL    HW234818   4.618   0.707   1.758 -0.0129  0.0336  0.8777
 7728SOL     OW34819   3.711   0.102   3.620 -0.2656 -0.1626  0.1486
 7728SOL    HW134820   3.677   0.123   3.532  0.7893  1.4737  0.1435
 7728SOL    HW234821   3.696   0.008   3.631 -2.0402  0.2465  1.2841
 7729SOL     OW34822   1.096   2.721   4.599  0.5770 -0.0643  0.3122
 7729SOL    HW134823   1.141   2.704   4.681  0.5660 -0.5731  0.2142
 7729SOL    HW234824   1.032   2.787   4.626 -1.0989 -1.6314  0.2072
 7730SOL     OW34825   1.315   2.508   5.628 -0.0024 -0.4701  0.2318
 7730SOL    HW134826   1.377   2.435   5.629 -0.6701 -1.0340  0.3764
 7730SOL    HW234827   1.259   2.480   5.557 -0.6562 -0.0120  0.5673
 7731SOL     OW34828   1.381   4.411  14.070  0.3015 -1.0080 -0.2995
 7731SOL    HW134829   1.324   4.342  14.037  0.0848 -0.7939 -0.3774
 7731SOL    HW234830   1.464   4.368  14.051 -0.6278 -1.7734 -2.5940
 7732SOL     OW34831   0.550   2.012   4.393  0.0045  0.5710  0.6007
 7732SOL    HW134832   0.645   2.011   4.407  0.1179  1.2958 -0.1006
 7732SOL    HW234833   0.531   1.983   4.303 -1.7626  0.5159  0.9903
 7733SOL     OW34834   3.316   1.020   3.246 -0.1537  0.2013 -0.2567
 7733SOL    HW134835   3.400   0.990   3.281 -0.5762 -1.7458 -0.8888
 7733SOL    HW234836   3.263   0.941   3.230  0.2721 -0.1474  0.0684
 7734SOL     OW34837   3.791   3.790   4.012 -0.4519  0.3023  0.0793
 7734SOL    HW134838   3.825   3.705   3.985 -1.3687  0.3012 -1.0784
 7734SOL    HW234839   3.852   3.835   3.954 -0.2638 -0.5770 -0.3963
 7735SOL     OW34840   4.707   0.005  10.764  0.2345  0.1386  0.4891
 7735SOL    HW134841   4.735   4.650  10.745  1.5969  1.1550 -2.4798
 7735SOL    HW234842   4.675   4.732  10.853  1.6608  0.1695  1.0130
 7736SOL     OW34843   2.415   0.433   4.719  0.1216 -0.0752  0.3917
 7736SOL    HW134844   2.417   0.346   4.757  1.7893 -0.8132 -1.3947
 7736SOL    HW234845   2.490   0.428   4.660  0.5326  1.0192  0.8218
 7737SOL     OW34846   1.380   1.845   6.784  0.5526  0.3366  0.3197
 7737SOL    HW134847   1.377   1.861   6.690  0.3709 -1.1387  0.0827
 7737SOL    HW234848   1.355   1.933   6.813  0.3250  0.8840 -1.5836
 7738SOL     OW34849   0.080   2.292   2.941 -0.0866  0.0612  0.6022
 7738SOL    HW134850   0.055   2.288   3.033 -1.3204 -1.9014  0.1941
 7738SOL    HW234851   0.159   2.238   2.936 -0.0629  0.0449  1.2259
 7739SOL     OW34852   3.990   1.825   8.006 -0.0905  0.0847  0.0788
 7739SOL    HW134853   4.060   1.760   8.011 -0.2655 -0.1779 -0.7580
 7739SOL    HW234854   4.011   1.874   7.926  1.8398 -1.4442 -0.3625
 7740SOL     OW34855   0.016   4.608   0.215  0.3481 -0.1215  0.4187
 7740SOL    HW134856   0.098   4.610   0.167  0.5019 -1.4099  0.6271
 7740SOL    HW234857   0.012   4.518   0.248 -1.0093 -0.4560 -0.6614
 7741SOL     OW34858   2.729   2.590  16.969  0.0676 -0.1353 -0.6023
 7741SOL    HW134859   2.672   2.521  16.934 -1.2420 -0.8017  2.8887
 7741SOL    HW234860   2.711   2.661  16.907  0.9412 -0.1615 -0.8881
 7742SOL     OW34861   4.272   3.646  12.362  0.5268 -0.4393  0.3993
 7742SOL    HW134862   4.291   3.565  12.313 -1.3736  0.2301 -1.4517
 7742SOL    HW234863   4.326   3.709  12.313 -3.1115 -0.3522 -3.5507
 7743SOL     OW34864   3.607   4.719   1.247  0.4586  0.2946 -0.0103
 7743SOL    HW134865   3.671   0.048   1.216  1.4954 -0.1004  1.3199
 7743SOL    HW234866   3.531   4.734   1.190  1.8834  0.3299 -1.8838
 7744SOL     OW34867   0.850   4.651   7.063  0.2115 -0.1888 -0.7787
 7744SOL    HW134868   0.938   4.670   7.031  0.6480  0.0171  0.5510
 7744SOL    HW234869   0.822   4.574   7.013  0.2842 -0.3586 -0.5576
 7745SOL     OW34870   0.562   1.005   8.369  0.4797  0.2869  0.5166
 7745SOL    HW134871   0.488   1.006   8.429  0.1656  4.4866  0.0427
 7745SOL    HW234872   0.634   0.999   8.433 -0.4506  1.0283  1.6478
 7746SOL     OW34873   0.107   2.151   1.819 -0.5810 -0.3048 -0.0583
 7746SOL    HW134874   0.124   2.090   1.891  2.5369  0.3719 -0.2281
 7746SOL    HW234875   0.029   2.112   1.779  1.2725 -3.1294 -0.8857
 7747SOL     OW34876   2.028   2.864   4.409  0.5802 -0.7725  0.1700
 7747SOL    HW134877   1.998   2.773   4.415 -3.9020  0.7479  1.3453
 7747SOL    HW234878   2.060   2.866   4.319  1.5621 -1.4753  0.5138
 7748SOL     OW34879   3.761   0.454   6.073  0.2389 -0.8666  0.1531
 7748SOL    HW134880   3.772   0.541   6.113  1.0945  0.0721 -2.1574
 7748SOL    HW234881   3.783   0.472   5.982 -3.4585 -0.8504 -0.7567
 7749SOL     OW34882   2.008   3.388   3.950 -0.7763  0.4362 -0.4610
 7749SOL    HW134883   2.063   3.372   4.028 -0.3452  1.1766 -0.6129
 7749SOL    HW234884   1.973   3.471   3.980 -1.0272 -0.5203  1.9520
 7750SOL     OW34885   1.868   4.670   7.939  0.3019  0.5481  0.9519
 7750SOL    HW134886   1.781   4.699   7.968 -0.6452 -1.2888  0.0270
 7750SOL    HW234887   1.841   4.595   7.886  0.5633  2.0469 -1.2925
 7751SOL     OW34888   3.718   1.083   6.170  0.1950 -0.0379  0.3601
 7751SOL    HW134889   3.644   1.144   6.167  0.6979  0.4656 -1.9720
 7751SOL    HW234890   3.743   1.095   6.262  0.0450  0.3055  0.3597
 7752SOL     OW34891   0.604   3.211  11.489  0.2196 -0.0468  0.0544
 7752SOL    HW134892   0.549   3.145  11.447  3.3483 -3.2419  1.0229
 7752SOL    HW234893   0.690   3.176  11.467  0.7108  0.2797  1.4374
 7753SOL     OW34894   0.929   1.386   4.734  0.5503  0.1354  0.2358
 7753SOL    HW134895   0.911   1.455   4.797 -0.2759 -0.3245  0.5039
 7753SOL    HW234896   0.842   1.347   4.733  0.7564 -0.2838 -1.1561
 7754SOL     OW34897   1.115   3.129   9.430 -0.0368  0.1223 -0.0165
 7754SOL    HW134898   1.152   3.158   9.513  0.8044  0.9643 -0.6924
 7754SOL    HW234899   1.106   3.218   9.395 -0.3774  0.3825  0.7353
 7755SOL     OW34900   1.776   3.935   6.973 -0.4632  0.4307  0.2619
 7755SOL    HW134901   1.813   3.956   6.887 -0.0333 -1.2743  0.0331
 7755SOL    HW234902   1.685   3.914   6.953 -0.3018  0.0172 -0.0492
 7756SOL     OW34903   3.568   2.887   0.114 -0.0886  0.0740 -0.1434
 7756SOL    HW134904   3.635   2.933   0.164  0.9835  0.3743 -1.8772
 7756SOL    HW234905   3.564   2.945   0.038  1.4946  0.5552  0.1371
 7757SOL     OW34906   4.248   3.876   5.989 -0.9066  0.3452  0.9322
 7757SOL    HW134907   4.247   3.882   6.084  0.9149 -2.2964  1.0963
 7757SOL    HW234908   4.167   3.825   5.984 -0.8648  0.5021 -1.8719
 7758SOL     OW34909   0.783   2.948   3.171 -0.5868  0.5112  0.0684
 7758SOL    HW134910   0.723   2.887   3.214  1.7251 -1.3458  0.6109
 7758SOL    HW234911   0.865   2.919   3.211 -0.2725  0.1104 -0.8557
 7759SOL     OW34912   0.780   1.281  15.294 -0.6337 -1.1066  0.4804
 7759SOL    HW134913   0.735   1.309  15.374  0.0209  1.5342 -0.0733
 7759SOL    HW234914   0.781   1.360  15.241  0.0043 -0.5342  1.3428
 7760SOL     OW34915   4.177   3.458   6.531 -0.3961 -0.1252  0.1883
 7760SOL    HW134916   4.207   3.527   6.591 -1.7384  0.1007  0.5985
 7760SOL    HW234917   4.262   3.419   6.509 -1.2601 -0.9843 -1.5383
 7761SOL     OW34918   3.927   3.723   2.490  0.0123 -0.5544  0.3452
 7761SOL    HW134919   3.953   3.815   2.490  1.4371 -0.9526  0.3969
 7761SOL    HW234920   3.833   3.739   2.489 -0.1266 -1.5507 -1.7366
 7762SOL     OW34921   4.157   2.709   9.266  0.5225  0.0603  0.2608
 7762SOL    HW134922   4.192   2.771   9.202  1.1231 -0.2981  0.2371
 7762SOL    HW234923   4.065   2.717   9.243  0.9359 -1.5142 -1.8716
 7763SOL     OW34924   3.280   4.489   0.755 -0.0479 -0.0775 -0.0451
 7763SOL    HW134925   3.359   4.521   0.711 -1.3260 -0.4040 -2.5132
 7763SOL    HW234926   3.214   4.553   0.730  2.1268  2.7248  1.2983
 7764SOL     OW34927   3.403   0.201  13.055  0.5155 -0.1159 -0.0039
 7764SOL    HW134928   3.415   0.285  13.100  0.1420  0.3116 -0.6948
 7764SOL    HW234929   3.310   0.213  13.035  0.6502 -3.3361 -2.4472
 7765SOL     OW34930   2.063   4.261  14.564 -0.1304 -0.1736 -0.3732
 7765SOL    HW134931   1.997   4.265  14.633 -1.6680  0.4459 -1.9120
 7765SOL    HW234932   2.047   4.176  14.523 -1.2719  0.4835 -1.2616
 7766SOL     OW34933   0.585   3.892   3.718 -0.1385  0.3132  0.1477
 7766SOL    HW134934   0.588   3.819   3.656  0.6040  1.3067 -0.9972
 7766SOL    HW234935   0.679   3.913   3.718 -0.5115  1.9578  0.9423
 7767SOL     OW34936   0.911   2.362   7.600 -0.0218 -0.2156 -0.1823
 7767SOL    HW134937   0.880   2.341   7.512 -2.6080  1.9507  0.2024
 7767SOL    HW234938   0.930   2.272   7.626 -0.7436  0.3047  2.1818
 7768SOL     OW34939   1.583   1.016   6.530  0.2350  0.0713 -0.0498
 7768SOL    HW134940   1.586   1.009   6.625  1.6164 -0.5461 -0.1298
 7768SOL    HW234941   1.677   1.011   6.512  0.6363  1.7809  1.5632
 7769SOL     OW34942   4.491   2.266   5.863 -0.2785  0.0990  0.1108
 7769SOL    HW134943   4.513   2.176   5.837  1.3112  0.5159  0.0363
 7769SOL    HW234944   4.500   2.310   5.778 -1.2704 -0.1744 -0.1456
 7770SOL     OW34945   3.191   1.927   4.152  0.8591  0.2577 -0.1455
 7770SOL    HW134946   3.102   1.890   4.146  1.2558 -0.9541  1.4337
 7770SOL    HW234947   3.200   1.939   4.246 -1.9143 -1.7523  0.4003
 7771SOL     OW34948   3.815   3.157   4.406  0.1921 -0.6403  0.0516
 7771SOL    HW134949   3.829   3.085   4.344  2.1992  0.3545 -0.6559
 7771SOL    HW234950   3.731   3.187   4.369  0.2862 -0.2456  0.1547
 7772SOL     OW34951   0.388   1.588   1.344 -0.4462 -0.1517 -0.5197
 7772SOL    HW134952   0.293   1.578   1.343 -0.2720 -1.6610 -1.8394
 7772SOL    HW234953   0.402   1.493   1.352  0.7473  0.2181  1.8848
 7773SOL     OW34954   1.770   2.366  17.733  0.4490 -0.1119 -0.3434
 7773SOL    HW134955   1.781   2.453  17.696 -2.5869  0.3193 -0.2655
 7773SOL    HW234956   1.861   2.351   0.020 -0.6103 -3.3820  1.4542
 7774SOL     OW34957   3.592   1.214  17.354  0.1420 -0.2528 -0.9541
 7774SOL    HW134958   3.533   1.176  17.289 -1.1387  1.6888 -0.9176
 7774SOL    HW234959   3.616   1.296  17.311  0.5068  0.5851  0.8559
 7775SOL     OW34960   1.276   2.550   7.718 -0.2106 -0.0907 -0.4020
 7775SOL    HW134961   1.301   2.603   7.793 -1.0067  0.1851 -0.3308
 7775SOL    HW234962   1.214   2.609   7.676 -0.4979  0.7243  1.2041
 7776SOL     OW34963   0.767   1.706  12.615  0.3195 -0.6180  0.1864
 7776SOL    HW134964   0.672   1.693  12.622  0.3106 -0.4329  0.4011
 7776SOL    HW234965   0.803   1.684  12.701 -0.5218 -1.3972  0.3322
 7777SOL     OW34966   0.759   1.827   8.670  0.4938 -0.0641 -0.5504
 7777SOL    HW134967   0.771   1.743   8.625  0.4859 -0.6224  0.5121
 7777SOL    HW234968   0.712   1.871   8.598  0.6807  0.9399 -0.0658
 7778SOL     OW34969   2.059   2.399   3.574  0.1846  0.7251  0.3201
 7778SOL    HW134970   1.983   2.355   3.538  2.1506 -1.5535 -1.0696
 7778SOL    HW234971   2.127   2.335   3.553 -0.0628  1.0657 -1.4468
 7779SOL     OW34972   1.817   0.569   4.072  0.2939 -0.1113  0.3493
 7779SOL    HW134973   1.737   0.517   4.072  0.6440 -0.6378 -1.2685
 7779SOL    HW234974   1.852   0.554   3.984  1.8737 -0.2162  0.9809
 7780SOL     OW34975   2.153   2.562   5.163  0.1872 -0.3845  0.1308
 7780SOL    HW134976   2.192   2.557   5.250 -0.5760  0.6789  0.5482
 7780SOL    HW234977   2.194   2.492   5.113  0.5352 -1.9478  2.6038
 7781SOL     OW34978   2.425   0.360   9.495 -0.1191  0.2847  0.7643
 7781SOL    HW134979   2.497   0.367   9.432  0.6173  1.3968  1.7348
 7781SOL    HW234980   2.475   0.321   9.566  2.0322  1.5038 -0.0696
 7782SOL     OW34981   0.317   0.822  16.357 -0.5527  0.4562 -0.2918
 7782SOL    HW134982   0.291   0.907  16.394  0.2055  0.3764  0.4272
 7782SOL    HW234983   0.231   0.781  16.347 -1.9416  3.0016  0.8402
 7783SOL     OW34984   4.300   4.581  16.768  0.4135 -0.3211 -0.8659
 7783SOL    HW134985   4.207   4.605  16.765  0.2266 -1.3693 -3.1797
 7783SOL    HW234986   4.333   4.576  16.679  1.4364 -1.1609 -0.4351
 7784SOL     OW34987   4.569   3.720   1.329  0.2081 -0.1383 -0.0144
 7784SOL    HW134988   4.647   3.676   1.295  1.9803  2.0128  1.2747
 7784SOL    HW234989   4.528   3.650   1.379 -0.3422 -1.0893 -1.7932
 7785SOL     OW34990   2.667   4.657   2.634  0.7398  0.3013  0.6683
 7785SOL    HW134991   2.618   0.002   2.615  0.4512 -0.3007 -1.0542
 7785SOL    HW234992   2.602   4.590   2.615 -0.3051  0.3906  3.9277
 7786SOL     OW34993   0.459   2.272   4.154 -0.1786 -0.4921 -0.2079
 7786SOL    HW134994   0.528   2.246   4.092  0.7486 -1.1992  1.0995
 7786SOL    HW234995   0.395   2.201   4.148  0.8925 -1.4744 -0.1931
 7787SOL     OW34996   2.743   0.336   9.517 -0.0769  0.2084  0.5764
 7787SOL    HW134997   2.784   0.389   9.585 -1.0561  1.1985  0.3973
 7787SOL    HW234998   2.745   0.403   9.448 -0.0537 -0.0338  0.3430
 7788SOL     OW34999   1.024   4.366   9.155  0.4160  0.1388 -0.9537
 7788SOL    HW135000   1.077   4.426   9.208 -0.7840 -0.2102  0.6558
 7788SOL    HW235001   0.947   4.421   9.139 -0.6517 -0.9137  0.5528
 7789SOL     OW35002   0.936   3.898  14.203  0.1152 -0.1925  0.1399
 7789SOL    HW135003   1.012   3.842  14.187 -0.3545 -0.6406 -0.5081
 7789SOL    HW235004   0.967   3.979  14.164 -0.8566 -0.5866 -1.4471
 7790SOL     OW35005   0.048   1.654   1.521 -0.0693 -0.9342  0.3070
 7790SOL    HW135006   0.029   1.572   1.567  0.7766 -1.1721  0.2482
 7790SOL    HW235007   4.696   1.691   1.511 -0.3737 -1.7490 -0.0655
 7791SOL     OW35008   0.964   4.661   4.659  0.2920  0.3766 -0.0316
 7791SOL    HW135009   0.879   4.654   4.614  0.8475 -0.8586 -0.8964
 7791SOL    HW235010   0.997   4.573   4.643  1.6640  0.5421  1.8969
 7792SOL     OW35011   3.025   0.868   3.273  0.0936  0.6873 -0.2263
 7792SOL    HW135012   3.014   0.962   3.259 -0.9370  0.6824  0.5610
 7792SOL    HW235013   2.999   0.838   3.186 -1.2319  0.6627  0.1844
 7793SOL     OW35014   3.249   4.514   4.845 -0.0992  0.5489  0.3998
 7793SOL    HW135015   3.337   4.543   4.868 -0.0282  0.3753  0.3510
 7793SOL    HW235016   3.215   4.598   4.816 -1.5671 -1.2495 -3.1268
 7794SOL     OW35017   1.593   3.573   1.083 -0.0199 -0.3140  0.2267
 7794SOL    HW135018   1.674   3.606   1.121  1.3793 -3.0002 -0.4197
 7794SOL    HW235019   1.589   3.485   1.122  1.7288 -1.1358 -1.4509
 7795SOL     OW35020   1.944   1.283  12.439 -0.5230  0.5315 -0.0672
 7795SOL    HW135021   1.881   1.217  12.410  0.3622 -0.0036 -0.7921
 7795SOL    HW235022   1.982   1.234  12.512  1.4048  0.8538 -0.8641
 7796SOL     OW35023   3.170   2.929   8.966 -0.2530 -0.1266  0.7577
 7796SOL    HW135024   3.208   3.011   8.933 -2.4585  0.2497 -0.8316
 7796SOL    HW235025   3.107   2.966   9.027  0.2721 -0.3479  1.4408
 7797SOL     OW35026   4.008   2.337   1.900 -0.4226 -0.0692  0.3443
 7797SOL    HW135027   4.016   2.354   1.994  0.0393  0.7313  0.1691
 7797SOL    HW235028   3.944   2.267   1.905  0.2066 -0.7013 -0.3749
 7798SOL     OW35029   4.315   2.291  15.621  0.1304 -0.0847  0.2500
 7798SOL    HW135030   4.221   2.308  15.615 -0.0223 -1.6707 -1.8662
 7798SOL    HW235031   4.356   2.376  15.638 -1.5762  1.0319 -1.3428
 7799SOL     OW35032   2.472   0.245  16.427 -0.1638 -0.2358 -0.1987
 7799SOL    HW135033   2.514   0.191  16.360  1.9521 -0.0160  0.9325
 7799SOL    HW235034   2.399   0.187  16.445  0.1337 -0.4204  0.4302
 7800SOL     OW35035   3.268   4.700   8.278  0.0537 -0.2544 -0.3814
 7800SOL    HW135036   3.309   4.627   8.325  0.0881 -1.5911 -2.5239
 7800SOL    HW235037   3.186   4.662   8.249  0.3643 -1.4215  0.2694
 7801SOL     OW35038   4.593   4.020   2.351 -0.2087  0.0826  0.6222
 7801SOL    HW135039   4.582   4.036   2.257  2.5382  1.1074  0.4821
 7801SOL    HW235040   4.610   3.928   2.334 -1.8639  0.6503 -4.0663
 7802SOL     OW35041   2.259   1.862  14.158 -0.2118 -0.4399 -0.4019
 7802SOL    HW135042   2.208   1.927  14.207  0.9171  1.2743 -1.5445
 7802SOL    HW235043   2.248   1.906  14.074  1.4471  1.9130  0.6096
 7803SOL     OW35044   3.965   2.468   0.807  1.1199 -0.6480  0.3226
 7803SOL    HW135045   3.987   2.550   0.852 -1.5280 -0.8993  2.0704
 7803SOL    HW235046   4.042   2.416   0.828 -0.3964 -3.7962 -2.0001
 7804SOL     OW35047   0.547   2.328  15.222 -0.1725  0.1110 -0.1879
 7804SOL    HW135048   0.542   2.375  15.306  0.2155 -1.2226  0.5840
 7804SOL    HW235049   0.456   2.327  15.191  0.6583 -0.6103 -2.5690
 7805SOL     OW35050   3.355   1.565   0.626 -0.0385  0.3487  0.1583
 7805SOL    HW135051   3.361   1.473   0.650 -2.8082  0.2125  0.3225
 7805SOL    HW235052   3.397   1.571   0.540 -0.4666  3.0257  0.1316
 7806SOL     OW35053   3.753   2.630   4.795  0.1219 -0.4636  0.5936
 7806SOL    HW135054   3.794   2.566   4.737  2.2714  1.0838  0.4167
 7806SOL    HW235055   3.771   2.581   4.876  2.5202  1.2666  1.0994
 7807SOL     OW35056   3.306   2.206   4.423 -0.3994 -0.6114 -0.6099
 7807SOL    HW135057   3.322   2.193   4.517 -1.7975  0.1688 -0.2590
 7807SOL    HW235058   3.390   2.177   4.387  0.4325  2.1460 -0.9354
 7808SOL     OW35059   2.482   2.981   0.001 -0.4898  0.4072  0.1881
 7808SOL    HW135060   2.517   2.897   0.029 -1.8621 -0.1344  0.2908
 7808SOL    HW235061   2.543   3.037   0.049  0.5305 -0.1056 -0.5124
 7809SOL     OW35062   4.159   0.188   9.772  0.2861 -0.0501  0.1324
 7809SOL    HW135063   4.231   0.125   9.764  0.9623  0.4453  2.2594
 7809SOL    HW235064   4.095   0.148   9.713 -0.8072 -1.0294  1.9797
 7810SOL     OW35065   3.024   0.886   7.573  0.0164 -0.4803 -0.1278
 7810SOL    HW135066   2.973   0.806   7.581 -1.0024  0.2264  0.4374
 7810SOL    HW235067   2.995   0.922   7.656  1.8831 -0.8739  0.6992
 7811SOL     OW35068   3.942   1.022   5.135  0.1143  0.1930 -0.0055
 7811SOL    HW135069   4.023   1.000   5.182  0.1449  0.0750 -0.1146
 7811SOL    HW235070   3.896   1.078   5.198 -1.7964 -0.4978 -0.7986
 7812SOL     OW35071   1.803   2.508   0.298 -0.0003  0.2805 -0.1206
 7812SOL    HW135072   1.777   2.519   0.206 -0.8343 -0.6771  0.0012
 7812SOL    HW235073   1.791   2.414   0.310  0.4918  0.2056 -0.2130
 7813SOL     OW35074   0.464   4.547   3.386 -0.1192 -0.0856  0.0602
 7813SOL    HW135075   0.493   4.592   3.466  0.7882 -1.0397  0.2649
 7813SOL    HW235076   0.388   4.510   3.430  0.6726 -0.6743  0.9356
 7814SOL     OW35077   3.836   2.057   5.929 -0.5502 -0.5335  0.2317
 7814SOL    HW135078   3.808   2.012   6.008 -1.7388 -1.2801 -0.6122
 7814SOL    HW235079   3.793   2.000   5.865  1.2874  0.4465 -1.8921
 7815SOL     OW35080   4.216   1.681  12.342 -0.1104  0.6060 -0.0975
 7815SOL    HW135081   4.130   1.722  12.344 -0.4899 -0.2097  0.1379
 7815SOL    HW235082   4.205   1.588  12.326 -1.2936  0.8549 -0.7361
 7816SOL     OW35083   3.974   1.205   8.065  0.4452 -0.2862 -0.0575
 7816SOL    HW135084   3.927   1.236   8.142  0.3017 -1.1962  0.2265
 7816SOL    HW235085   3.955   1.113   8.085 -2.3500  0.2329 -0.2922
 7817SOL     OW35086   3.077   1.950   2.421 -0.0161  0.2657 -0.0681
 7817SOL    HW135087   3.034   2.035   2.411 -1.1329 -0.2445  0.4550
 7817SOL    HW235088   3.135   1.960   2.345 -0.6181  2.1186 -0.2867
 7818SOL     OW35089   0.784   0.482   7.732  0.1626  0.0263 -0.0957
 7818SOL    HW135090   0.797   0.426   7.808 -1.5812  0.4258  0.4958
 7818SOL    HW235091   0.703   0.442   7.701  0.1166  0.5693 -0.6857
 7819SOL     OW35092   4.654   2.757   4.581  0.4088  0.1036 -0.0542
 7819SOL    HW135093   4.579   2.701   4.601 -0.0347  1.4465  2.0558
 7819SOL    HW235094   4.617   2.806   4.508  0.5716  0.8756  0.3758
 7820SOL     OW35095   3.875   2.305  12.009 -0.0756  0.4628  0.2946
 7820SOL    HW135096   3.908   2.238  12.070  0.6225  0.8483  0.3362
 7820SOL    HW235097   3.787   2.270  11.993 -0.3293  1.2509 -0.0079
 7821SOL     OW35098   1.439   3.870   2.642  0.4773 -0.2694  0.6502
 7821SOL    HW135099   1.394   3.954   2.632  0.4794  0.1125  3.9224
 7821SOL    HW235100   1.451   3.873   2.737  1.5624 -0.1324  0.5107
 7822SOL     OW35101   3.089   2.573  11.357 -0.4600 -0.2208  0.1206
 7822SOL    HW135102   3.084   2.668  11.347 -1.2195 -0.1607  1.0815
 7822SOL    HW235103   3.040   2.538  11.282  0.4404 -2.6730  0.6548
 7823SOL     OW35104   4.597   3.582   6.989  0.0999 -0.5257 -0.3875
 7823SOL    HW135105   4.647   3.646   7.041  0.4457 -1.2009  0.1013
 7823SOL    HW235106   4.661   3.513   6.972 -0.9165 -1.3137 -1.0355
 7824SOL     OW35107   3.771   2.014   7.037  0.3040  0.5649 -0.2415
 7824SOL    HW135108   3.762   2.064   6.956  1.5234 -1.1357 -1.4308
 7824SOL    HW235109   3.830   2.080   7.074 -1.8256  1.2934  1.7846
 7825SOL     OW35110   2.222   0.725  14.471 -0.3429  0.4488 -0.2615
 7825SOL    HW135111   2.157   0.700  14.404  0.2867  0.9283 -1.0531
 7825SOL    HW235112   2.168   0.787  14.521 -1.0053  0.8794 -1.4975
 7826SOL     OW35113   1.343   0.283   8.067  0.2863  0.4198 -0.0575
 7826SOL    HW135114   1.277   0.245   8.008 -0.2435  0.0536  0.7721
 7826SOL    HW235115   1.293   0.298   8.147 -1.2878  0.3599 -1.0043
 7827SOL     OW35116   4.649   3.415   5.016  0.1482 -0.2057  0.0059
 7827SOL    HW135117   4.603   3.445   4.938  0.7807 -1.3416 -0.8179
 7827SOL    HW235118   4.593   3.339   5.035 -0.6250  0.1311 -0.9381
 7828SOL     OW35119   4.462   3.514   4.011 -0.5287 -0.7567 -0.5856
 7828SOL    HW135120   4.533   3.549   3.958 -1.8544  1.0486 -1.2157
 7828SOL    HW235121   4.454   3.596   4.060  0.9365 -0.0822 -1.4644
 7829SOL     OW35122   3.806   2.328   6.413  0.2472  0.7173  0.7734
 7829SOL    HW135123   3.772   2.385   6.481  3.7135  1.9987  1.4370
 7829SOL    HW235124   3.886   2.289   6.449 -0.4556 -0.4396  1.0626
 7830SOL     OW35125   4.121   2.361  17.583 -0.1601 -0.3418  0.2715
 7830SOL    HW135126   4.123   2.329  17.673  0.5831 -0.7386  0.1114
 7830SOL    HW235127   4.130   2.280  17.533  1.9600 -0.1476  0.3150
 7831SOL     OW35128   4.221   1.343   1.568  0.7245 -0.3514  0.4926
 7831SOL    HW135129   4.215   1.405   1.641  0.4069 -0.1911  0.3295
 7831SOL    HW235130   4.193   1.263   1.613  1.3106 -0.7723  0.1079
 7832SOL     OW35131   4.244   4.232   5.449 -0.5563  0.3380 -0.1462
 7832SOL    HW135132   4.184   4.160   5.430  1.0597 -1.1988  0.5846
 7832SOL    HW235133   4.213   4.295   5.384 -1.0261  2.5776  2.2574
 7833SOL     OW35134   0.705   0.380   0.232  0.4076  0.5753 -0.9460
 7833SOL    HW135135   0.732   0.472   0.222  2.3637  0.1185  0.1159
 7833SOL    HW235136   0.675   0.359   0.144 -1.6479 -0.2251 -0.0477
 7834SOL     OW35137   3.138   2.941   5.942 -0.0322 -0.1679 -0.4998
 7834SOL    HW135138   3.154   2.939   5.848  3.4317  0.3318  0.0548
 7834SOL    HW235139   3.043   2.943   5.945 -0.0198 -0.6858  0.4929
 7835SOL     OW35140   1.336   1.165   0.190 -0.0011  0.2869 -0.3736
 7835SOL    HW135141   1.269   1.208   0.243  1.9297 -0.5946  2.7398
 7835SOL    HW235142   1.402   1.146   0.256 -0.8581  0.7253  0.6057
 7836SOL     OW35143   4.559   0.066   3.121 -0.1227 -0.0211  0.4061
 7836SOL    HW135144   4.573   0.120   3.198  1.4049  0.8449 -0.4851
 7836SOL    HW235145   4.494   0.125   3.082 -0.0380 -0.4587 -0.3891
 7837SOL     OW35146   0.625   2.043  11.528 -0.0131 -0.2416 -0.0663
 7837SOL    HW135147   0.644   2.045  11.434  1.6384  1.2976  0.3024
 7837SOL    HW235148   0.715   2.040  11.560 -0.4791 -2.2820  1.0228
 7838SOL     OW35149   1.900   1.651   3.645  0.1878  0.1521 -0.1703
 7838SOL    HW135150   1.931   1.723   3.591 -1.4319  1.1633  0.2376
 7838SOL    HW235151   1.951   1.574   3.620  1.1474  0.1383  1.8423
 7839SOL     OW35152   4.057   4.706   1.911  0.9380 -0.0598 -0.1432
 7839SOL    HW135153   4.111   4.629   1.896 -2.3423 -2.0982 -1.4007
 7839SOL    HW235154   4.036   4.686   2.002 -1.4903  0.5122 -0.5758
 7840SOL     OW35155   0.753   3.691   6.662  0.4805 -0.7259  0.7049
 7840SOL    HW135156   0.826   3.749   6.641  0.2054  0.6261  3.4771
 7840SOL    HW235157   0.752   3.688   6.757  0.4397 -1.0782  0.6944
 7841SOL     OW35158   4.484   4.437   0.504 -0.2421  0.6863  0.2339
 7841SOL    HW135159   4.480   4.365   0.441  1.4967 -0.4162  1.4094
 7841SOL    HW235160   4.444   4.389   0.577 -2.4330 -1.1281 -2.1609
 7842SOL     OW35161   0.012   2.648   7.717 -0.5083 -0.0697 -0.7811
 7842SOL    HW135162   4.699   2.675   7.796 -2.8977 -0.7961 -1.9730
 7842SOL    HW235163   4.724   2.720   7.658  0.1125 -0.9864 -2.1304
 7843SOL     OW35164   1.120   0.035   6.637  0.2651 -0.1071 -0.2209
 7843SOL    HW135165   1.109   4.677   6.656 -2.1144  0.7936  2.9095
 7843SOL    HW235166   1.098   0.040   6.544 -1.6256 -3.2303  0.0548
 7844SOL     OW35167   3.260   2.864   8.172 -0.3140  0.3460 -0.2891
 7844SOL    HW135168   3.282   2.772   8.187  2.6262  1.0163 -0.4467
 7844SOL    HW235169   3.328   2.909   8.223 -0.1221 -0.1013 -0.1549
 7845SOL     OW35170   4.520   0.562  17.459  0.5911  0.5849 -0.3377
 7845SOL    HW135171   4.447   0.561  17.398  0.2142 -0.6690  0.1224
 7845SOL    HW235172   4.516   0.649  17.499 -1.4587 -0.0381  0.7990
 7846SOL     OW35173   3.799   4.631  16.726 -0.0959 -0.0315  0.6556
 7846SOL    HW135174   3.785   4.722  16.701 -0.7260 -0.3547 -0.1251
 7846SOL    HW235175   3.895   4.640  16.731 -0.1594  1.1711 -0.6074
 7847SOL     OW35176   4.249   4.570   2.343  0.1309  0.3650 -0.1372
 7847SOL    HW135177   4.234   4.483   2.307 -0.1932 -0.1027  1.1238
 7847SOL    HW235178   4.249   4.563   2.439  0.7587  0.6187 -0.1126
 7848SOL     OW35179   0.630   0.398   9.888  0.1796  0.4890 -0.2546
 7848SOL    HW135180   0.571   0.467   9.918  1.4699  0.8750  1.4359
 7848SOL    HW235181   0.577   0.321   9.907 -1.3173  1.2422 -1.4470
 7849SOL     OW35182   3.179   2.203   2.586  0.3529  0.1962  0.0189
 7849SOL    HW135183   3.180   2.231   2.494  0.1211 -1.0815 -0.3810
 7849SOL    HW235184   3.101   2.243   2.624  0.1850 -0.5560  0.4769
 7850SOL     OW35185   2.901   2.800   2.046  0.0143 -0.0250 -0.1176
 7850SOL    HW135186   2.951   2.719   2.056 -2.5201 -1.7208 -1.4276
 7850SOL    HW235187   2.966   2.858   2.087  0.1132  1.1212 -1.9267
 7851SOL     OW35188   1.297   4.429  14.580  0.1889 -0.0335  0.3208
 7851SOL    HW135189   1.252   4.387  14.506  0.9082 -0.5568  0.1892
 7851SOL    HW235190   1.332   4.502  14.530 -2.3007  0.4125 -0.7865
 7852SOL     OW35191   0.327   2.543   4.143  0.1468  0.4883  0.3940
 7852SOL    HW135192   0.343   2.453   4.170  0.7205 -0.0558 -1.7437
 7852SOL    HW235193   0.252   2.564   4.200 -0.3948  2.1844 -0.9220
 7853SOL     OW35194   3.033   4.508   6.787  0.3858  0.7023  0.3649
 7853SOL    HW135195   2.998   4.446   6.851 -0.6614  1.2650  0.3481
 7853SOL    HW235196   3.048   4.460   6.706 -0.8923  0.5561  0.2085
 7854SOL     OW35197   3.790   2.623   4.320 -0.0825  0.0413  0.0584
 7854SOL    HW135198   3.724   2.572   4.367 -2.6785  2.5657 -0.8106
 7854SOL    HW235199   3.825   2.558   4.259 -0.5977  0.5778 -0.8085
 7855SOL     OW35200   3.575   0.754   4.631  0.4670  0.5921 -0.0410
 7855SOL    HW135201   3.650   0.734   4.688  0.9762  0.6894 -0.6704
 7855SOL    HW235202   3.576   0.849   4.635 -1.2605  0.5427  1.4808
 7856SOL     OW35203   4.477   3.286   8.860 -0.0844 -0.7861 -0.1019
 7856SOL    HW135204   4.496   3.297   8.767  1.8279 -0.8511  0.2800
 7856SOL    HW235205   4.566   3.268   8.891  0.4410 -1.7689 -2.1707
 7857SOL     OW35206   4.292   3.429   7.930  0.4115  0.4168  0.1043
 7857SOL    HW135207   4.278   3.397   7.841 -0.4783  0.7749  0.1234
 7857SOL    HW235208   4.204   3.420   7.965  0.6810 -2.1973  0.1029
 7858SOL     OW35209   3.712   2.979   2.921  0.1522  0.4293  0.3787
 7858SOL    HW135210   3.739   2.935   3.002 -0.2604 -0.6671 -0.0863
 7858SOL    HW235211   3.617   2.971   2.922  0.2163 -0.4005 -0.2472
 7859SOL     OW35212   1.626   0.713  15.528  0.1817 -0.1059 -0.0703
 7859SOL    HW135213   1.537   0.720  15.494  0.6093 -0.6082 -1.3055
 7859SOL    HW235214   1.668   0.798  15.515 -0.3621  0.2748  0.6492
 7860SOL     OW35215   4.729   2.139  16.307  0.1354 -0.1781  0.1788
 7860SOL    HW135216   0.009   2.090  16.226 -3.0562 -0.5940 -0.1328
 7860SOL    HW235217   4.726   2.070  16.373 -1.1123 -1.1572 -0.9034
 7861SOL     OW35218   4.378   0.144   4.857 -1.0123  0.2695  0.0823
 7861SOL    HW135219   4.291   0.114   4.829 -0.4357 -1.0944 -0.2562
 7861SOL    HW235220   4.401   0.077   4.922 -1.3061 -0.1732 -0.2732
 7862SOL     OW35221   2.700   1.698   3.213 -0.2223  0.1367 -0.1999
 7862SOL    HW135222   2.625   1.680   3.270  1.5940  0.8688  2.4438
 7862SOL    HW235223   2.748   1.616   3.209 -2.7676 -1.3480 -0.1608
 7863SOL     OW35224   2.257   2.017  13.931  0.2205 -0.2046 -0.9090
 7863SOL    HW135225   2.185   2.054  13.879 -2.4229 -1.1451  2.0823
 7863SOL    HW235226   2.298   1.958  13.867  1.2590  0.4977 -0.8790
 7864SOL     OW35227   0.587   2.062   8.220  0.2806  0.6485  0.1454
 7864SOL    HW135228   0.679   2.036   8.220 -0.0133 -0.3852  2.4051
 7864SOL    HW235229   0.554   1.972   8.229 -0.8110  0.9414 -0.9292
 7865SOL     OW35230   2.964   4.380  17.584 -0.2961  0.1742  0.1364
 7865SOL    HW135231   3.022   4.342  17.519 -0.0423 -0.2894  0.6296
 7865SOL    HW235232   3.031   4.425  17.637 -0.5377 -1.4547  1.8315
 7866SOL     OW35233   0.583   4.293   9.178  0.3031  0.1610 -0.3838
 7866SOL    HW135234   0.497   4.295   9.136 -0.4645 -1.6577  1.1313
 7866SOL    HW235235   0.609   4.381   9.151 -0.9656  0.1577 -1.6214
 7867SOL     OW35236   0.552   1.363  16.500 -0.6008  0.0295 -0.0210
 7867SOL    HW135237   0.463   1.346  16.533 -0.4596 -0.3861  0.1448
 7867SOL    HW235238   0.546   1.459  16.510  4.0083  0.2526  0.5768
 7868SOL     OW35239   3.393   4.361  11.060  0.1150 -0.0926 -0.0012
 7868SOL    HW135240   3.416   4.364  11.154  1.9150  0.2050 -0.4419
 7868SOL    HW235241   3.299   4.342  11.063  0.2164 -0.7585 -1.5212
 7869SOL     OW35242   4.443   4.409   6.411 -0.1032  0.1164 -0.3310
 7869SOL    HW135243   4.404   4.361   6.484  1.9388 -1.2553 -0.1553
 7869SOL    HW235244   4.366   4.415   6.354  0.8031  3.1059 -1.2433
 7870SOL     OW35245   1.584   1.854   2.788  0.2585  0.0362 -0.4641
 7870SOL    HW135246   1.517   1.792   2.817 -0.2709  0.6574 -0.3592
 7870SOL    HW235247   1.565   1.932   2.840 -0.9099 -0.8204  0.3648
 7871SOL     OW35248   1.701   4.451   7.432  0.2578 -0.4298  0.0804
 7871SOL    HW135249   1.734   4.402   7.507  1.6907 -0.3242 -0.4727
 7871SOL    HW235250   1.711   4.541   7.462  1.4107 -0.3085 -0.6535
 7872SOL     OW35251   1.988   4.569   2.200  0.4677  0.3745 -0.1190
 7872SOL    HW135252   1.894   4.561   2.183  0.2468  1.4128  0.5825
 7872SOL    HW235253   1.988   4.640   2.264  0.6480  0.1141  0.1672
 7873SOL     OW35254   1.524   2.488   5.121  0.0431 -0.2768  0.3617
 7873SOL    HW135255   1.552   2.564   5.071  1.3260  0.0989  1.6820
 7873SOL    HW235256   1.500   2.425   5.053 -1.8273  0.7539  0.0782
 7874SOL     OW35257   0.499   3.349   2.120  0.7049  0.1865 -0.0961
 7874SOL    HW135258   0.522   3.282   2.055  2.1101  0.6643 -0.0915
 7874SOL    HW235259   0.514   3.303   2.203  0.4988  0.3046  0.0036
 7875SOL     OW35260   4.284   4.304   7.588  0.3769 -0.1503 -0.9740
 7875SOL    HW135261   4.229   4.262   7.522  2.0921 -0.7646 -2.0182
 7875SOL    HW235262   4.342   4.229   7.599 -0.8391 -1.0309 -0.6553
 7876SOL     OW35263   4.406   1.361   2.472 -0.4952  0.1082 -0.1406
 7876SOL    HW135264   4.417   1.316   2.388 -1.3389  0.6991 -0.5608
 7876SOL    HW235265   4.415   1.289   2.534  0.5723  0.1953 -0.1908
 7877SOL     OW35266   1.808   4.488  10.423 -0.1635 -0.2107 -1.1183
 7877SOL    HW135267   1.847   4.466  10.338  0.8243 -0.7830 -0.5155
 7877SOL    HW235268   1.860   4.441  10.488 -0.3172  1.4657  0.2173
 7878SOL     OW35269   1.711   2.085  13.786  0.4859 -0.0017  0.2920
 7878SOL    HW135270   1.681   2.166  13.745 -0.4274 -0.3877  0.1818
 7878SOL    HW235271   1.686   2.092  13.878  1.5361  0.6390  0.5229
 7879SOL     OW35272   1.540   1.385   3.655 -0.2874  0.1654  0.1704
 7879SOL    HW135273   1.482   1.337   3.596  0.3686 -0.7188  0.2437
 7879SOL    HW235274   1.562   1.312   3.713  3.7050  0.7428 -0.5984
 7880SOL     OW35275   1.339   2.342  12.451  0.4218 -0.3392  0.6170
 7880SOL    HW135276   1.268   2.405  12.461  0.4271 -0.4174  1.1374
 7880SOL    HW235277   1.335   2.321  12.358  2.7921  0.6790  0.2675
 7881SOL     OW35278   3.075   1.515   4.733  0.1599  0.7107 -0.0922
 7881SOL    HW135279   3.067   1.593   4.679 -1.8105 -0.9866 -2.2777
 7881SOL    HW235280   3.115   1.446   4.680 -0.3939  1.2454 -1.2100
 7882SOL     OW35281   1.469   1.461   9.470  0.0199 -0.4890  0.2803
 7882SOL    HW135282   1.417   1.517   9.414  1.4231 -2.3526 -2.8610
 7882SOL    HW235283   1.435   1.492   9.554  1.3424  4.3037 -0.9249
 7883SOL     OW35284   1.403   1.964   1.437 -0.5839  0.1882 -0.2939
 7883SOL    HW135285   1.415   1.874   1.467 -0.2784  0.7619  1.3083
 7883SOL    HW235286   1.403   1.952   1.342  0.4655  1.5897 -0.4720
 7884SOL     OW35287   1.368   0.133   6.041 -0.3708 -0.3206 -0.5970
 7884SOL    HW135288   1.315   0.175   5.972  0.6003 -1.8137 -2.2428
 7884SOL    HW235289   1.301   0.125   6.109 -0.6265 -0.0138 -0.8059
 7885SOL     OW35290   4.171   2.523   7.005  0.1989  0.0293 -0.3005
 7885SOL    HW135291   4.187   2.584   7.077  1.4016  1.2722 -1.6135
 7885SOL    HW235292   4.080   2.495   7.015  0.6159 -1.1449  0.1973
 7886SOL     OW35293   0.364   3.483   3.686 -0.2861  0.3825 -0.0211
 7886SOL    HW135294   0.377   3.460   3.778 -1.5298  0.9300  0.2957
 7886SOL    HW235295   0.452   3.521   3.680  0.6247 -1.8368 -0.7164
 7887SOL     OW35296   4.481   1.272   8.099 -0.1732 -0.2645  0.0545
 7887SOL    HW135297   4.460   1.343   8.160 -0.8177  1.2178 -1.9204
 7887SOL    HW235298   4.393   1.238   8.082 -0.6591  1.4385 -0.8064
 7888SOL     OW35299   0.103   4.445   5.142 -0.1431 -0.1667 -0.0768
 7888SOL    HW135300   0.110   4.433   5.047  0.5021 -0.0518 -0.0429
 7888SOL    HW235301   0.015   4.408   5.153 -0.6273  0.3341 -2.3102
 7889SOL     OW35302   2.347   0.009   8.995  0.2989  0.5674 -0.5105
 7889SOL    HW135303   2.341   0.079   9.060 -0.8955  0.2614 -0.2952
 7889SOL    HW235304   2.254   4.725   9.006  1.5161 -3.6983  2.1577
 7890SOL     OW35305   0.910   1.899   0.835 -0.1594 -0.0694 -0.3288
 7890SOL    HW135306   0.890   1.989   0.860 -1.0714 -0.6278  0.8925
 7890SOL    HW235307   0.870   1.887   0.749 -0.3306 -1.7817 -0.0054
 7891SOL     OW35308   4.622   0.244   7.114 -0.3241 -0.1374  0.3381
 7891SOL    HW135309   4.582   0.323   7.077  0.7345 -0.1601 -0.8868
 7891SOL    HW235310   4.685   0.217   7.047  1.0783  1.0330  1.1858
 7892SOL     OW35311   2.368   3.550   2.310  0.7836 -0.1191 -0.4616
 7892SOL    HW135312   2.358   3.490   2.236 -0.3843  0.1744 -0.5298
 7892SOL    HW235313   2.403   3.627   2.265  1.4424 -1.1746 -1.7562
 7893SOL     OW35314   3.723   2.865   5.008 -0.8243 -0.0644  0.7418
 7893SOL    HW135315   3.654   2.860   4.941  0.4187 -3.0045 -0.3253
 7893SOL    HW235316   3.746   2.772   5.008  1.8454  0.6013 -0.2034
 7894SOL     OW35317   2.627   3.642   3.473 -0.5276 -0.6890  0.0390
 7894SOL    HW135318   2.561   3.698   3.514  1.6421 -0.1259  2.7949
 7894SOL    HW235319   2.701   3.703   3.476  1.6899 -3.3528 -0.6052
 7895SOL     OW35320   4.209   2.100  15.147 -0.4590 -0.2086 -0.4182
 7895SOL    HW135321   4.229   2.020  15.195  0.9072 -0.7940 -1.9508
 7895SOL    HW235322   4.191   2.157  15.221  0.8288 -0.4526  0.0648
 7896SOL     OW35323   0.725   3.560  17.269  0.0384  0.0907  0.2907
 7896SOL    HW135324   0.745   3.635  17.324 -1.8819  0.7220  0.1283
 7896SOL    HW235325   0.804   3.506  17.273 -0.8388 -1.0769  1.7535
 7897SOL     OW35326   4.184   1.915   8.199 -0.6035  0.0531 -0.1043
 7897SOL    HW135327   4.106   1.895   8.147  0.3562  0.1807 -1.5877
 7897SOL    HW235328   4.208   2.000   8.160 -2.5708  0.2150 -0.9612
 7898SOL     OW35329   0.944   0.815   9.519 -0.3957  0.4294 -0.6276
 7898SOL    HW135330   0.888   0.793   9.593  0.6776 -0.3000 -0.0436
 7898SOL    HW235331   0.988   0.889   9.561 -0.7378 -0.9632  2.1756
 7899SOL     OW35332   0.227   0.954  15.281  0.0012  0.2062  0.2200
 7899SOL    HW135333   0.296   1.021  15.281 -1.2581  1.5012 -0.9760
 7899SOL    HW235334   0.270   0.885  15.332 -0.9440  0.2973  1.1310
 7900SOL     OW35335   4.641   1.174   2.833 -0.4295  0.0807  0.6840
 7900SOL    HW135336   4.643   1.267   2.807  0.2060 -0.5413 -1.4846
 7900SOL    HW235337   4.575   1.173   2.901 -1.5229  0.3771 -0.3697
 7901SOL     OW35338   4.464   0.694   4.690 -0.2355 -0.2374 -0.1019
 7901SOL    HW135339   4.523   0.634   4.643  2.6684  0.5590  2.5546
 7901SOL    HW235340   4.429   0.646   4.766 -1.1583 -0.9373 -0.9678
 7902SOL     OW35341   1.638   1.627  16.783 -0.2148  0.3691 -0.5412
 7902SOL    HW135342   1.647   1.534  16.802  0.4307  0.5521  0.0456
 7902SOL    HW235343   1.680   1.634  16.697 -0.3277 -3.2896 -0.9073
 7903SOL     OW35344   4.140   1.547  11.406 -0.0087  0.2396  0.8597
 7903SOL    HW135345   4.207   1.525  11.471  0.8043  1.7883  0.5372
 7903SOL    HW235346   4.058   1.559  11.454 -1.9154 -1.3774 -1.9423
 7904SOL     OW35347   0.753   0.995   8.579  0.3375  0.4960  0.3020
 7904SOL    HW135348   0.744   0.941   8.657 -1.0542  0.0196 -0.1761
 7904SOL    HW235349   0.707   1.076   8.602 -0.4898  0.4796 -1.3221
 7905SOL     OW35350   0.376   4.554   8.029 -0.3496 -0.2594  0.0661
 7905SOL    HW135351   0.447   4.512   7.981  1.2601  2.7559 -0.2341
 7905SOL    HW235352   0.413   4.600   8.105  1.5003  1.9629 -2.1784
 7906SOL     OW35353   0.107   1.347   2.586 -0.2872 -0.9479 -0.0897
 7906SOL    HW135354   0.028   1.382   2.627 -0.3453  0.1066 -1.0957
 7906SOL    HW235355   0.156   1.428   2.575  0.4264 -0.9423  3.1639
 7907SOL     OW35356   3.105   3.735   5.259 -0.6685 -0.2382  0.3189
 7907SOL    HW135357   3.122   3.829   5.264 -0.2343 -0.2746 -0.3716
 7907SOL    HW235358   3.013   3.743   5.233 -0.2330 -0.9337 -1.4927
 7908SOL     OW35359   1.871   2.413   3.171  0.2066  0.0338 -0.2779
 7908SOL    HW135360   1.785   2.446   3.146 -0.2707 -1.3414 -0.4383
 7908SOL    HW235361   1.864   2.401   3.266  1.1800  0.3624 -0.1597
 7909SOL     OW35362   2.773   3.859  13.998 -0.0895  0.4514 -0.3065
 7909SOL    HW135363   2.789   3.866  13.904 -2.3455 -1.4751 -0.8266
 7909SOL    HW235364   2.771   3.954  14.010  1.0239  0.5430 -0.8504
 7910SOL     OW35365   3.386   4.471   8.393 -0.1767 -0.1841  0.5901
 7910SOL    HW135366   3.366   4.378   8.384 -1.4821  0.1609 -0.0665
 7910SOL    HW235367   3.481   4.476   8.395 -0.2826  1.9737 -0.5596
 7911SOL     OW35368   2.482   3.700   6.739 -0.6212  0.2073  0.1828
 7911SOL    HW135369   2.538   3.628   6.709 -0.7164  0.6767 -1.1480
 7911SOL    HW235370   2.489   3.761   6.665  2.1267 -1.4664 -0.9251
 7912SOL     OW35371   2.495   1.407   3.325  0.1777 -0.2526  0.8927
 7912SOL    HW135372   2.584   1.375   3.310  0.4925  1.4192 -0.6619
 7912SOL    HW235373   2.512   1.490   3.369  1.6473 -1.1527  2.0298
 7913SOL     OW35374   3.424   1.784   3.482  0.4545  0.3991  0.6356
 7913SOL    HW135375   3.332   1.780   3.455  0.4820  0.4118  0.5413
 7913SOL    HW235376   3.448   1.865   3.437 -2.1146  0.5198 -0.5193
 7914SOL     OW35377   0.965   1.230   1.269  0.3547  0.3387 -0.2494
 7914SOL    HW135378   0.936   1.269   1.351  0.0202  0.5274 -0.4577
 7914SOL    HW235379   0.891   1.176   1.243  0.9899 -0.9136  0.5483
 7915SOL     OW35380   3.459   0.553   4.472  0.4172 -0.1218 -0.0229
 7915SOL    HW135381   3.398   0.627   4.480 -0.9404 -1.1620 -0.8793
 7915SOL    HW235382   3.531   0.584   4.528  1.3468 -0.3855 -1.0821
 7916SOL     OW35383   4.265   3.637   5.743  0.1809  0.2223  0.3517
 7916SOL    HW135384   4.183   3.683   5.722 -1.7113 -2.6626  1.4567
 7916SOL    HW235385   4.245   3.547   5.719  2.1255  0.0363 -0.5471
 7917SOL     OW35386   0.589   3.545   0.901 -0.8264  0.3523  0.1299
 7917SOL    HW135387   0.596   3.635   0.936  0.6143 -0.2889  1.5295
 7917SOL    HW235388   0.675   3.506   0.888 -1.1555 -0.2448 -0.2180
 7918SOL     OW35389   1.935   2.054   1.036 -0.0892  0.4195 -0.0768
 7918SOL    HW135390   1.952   2.139   0.995  0.4298  1.1524  1.6328
 7918SOL    HW235391   1.959   2.071   1.127 -0.1154 -1.6059  0.3003
 7919SOL     OW35392   1.468   3.848   2.260  0.7010  0.1136  0.0145
 7919SOL    HW135393   1.418   3.915   2.212  0.6124  1.5354  2.0800
 7919SOL    HW235394   1.523   3.890   2.325 -1.3893  0.3793  1.6265
 7920SOL     OW35395   3.060   4.451   5.322  0.2051 -0.0746  0.0592
 7920SOL    HW135396   3.154   4.440   5.306  0.3511 -0.3205  1.0814
 7920SOL    HW235397   3.039   4.535   5.281  0.5121  0.9464  1.9694
 7921SOL     OW35398   1.237   4.685   7.235 -0.7937 -0.0733 -0.0523
 7921SOL    HW135399   1.259   4.593   7.246 -0.5409 -0.1124 -0.8657
 7921SOL    HW235400   1.190   4.688   7.151  1.2812  0.6876 -1.1794
 7922SOL     OW35401   0.895   1.401  12.944  0.0124 -0.5027 -0.0056
 7922SOL    HW135402   0.817   1.355  12.911 -0.3633 -0.7790  1.2401
 7922SOL    HW235403   0.873   1.491  12.922  1.2746 -0.0295  0.7018
 7923SOL     OW35404   0.846   1.416   3.051  0.1476 -0.0138  0.2379
 7923SOL    HW135405   0.807   1.371   2.976 -1.1124 -0.3757  1.1052
 7923SOL    HW235406   0.829   1.364   3.129 -2.0078 -0.9179 -0.8081
 7924SOL     OW35407   4.367   4.005   7.594 -0.1669  0.1049  0.2117
 7924SOL    HW135408   4.298   3.966   7.540 -1.2441  3.0460 -0.5128
 7924SOL    HW235409   4.373   3.939   7.663 -0.6059  0.4478  0.5795
 7925SOL     OW35410   1.015   3.233   2.465 -0.1736 -0.4292  0.6282
 7925SOL    HW135411   1.088   3.286   2.497  0.5764 -2.0678  1.6224
 7925SOL    HW235412   1.020   3.162   2.529 -0.9329  0.6791  1.9205
 7926SOL     OW35413   0.453   4.015   2.045  0.0954 -0.0677  0.5538
 7926SOL    HW135414   0.472   3.946   2.109  0.0555  1.4247  2.1735
 7926SOL    HW235415   0.363   4.003   2.015  0.4106  0.4443 -0.5997
 7927SOL     OW35416   3.915   0.811  10.236  0.1823 -0.0619 -0.0512
 7927SOL    HW135417   4.004   0.834  10.263  0.1706  0.3397 -0.3440
 7927SOL    HW235418   3.867   0.822  10.318  2.5473  3.2532  0.8990
 7928SOL     OW35419   1.654   3.357  10.878 -0.4146  0.6164  0.0853
 7928SOL    HW135420   1.693   3.306  10.948 -1.1694 -1.7886 -1.2365
 7928SOL    HW235421   1.640   3.299  10.803 -1.7408  2.8587 -1.4336
 7929SOL     OW35422   1.857   1.070   0.105  0.1321 -0.2713  0.1941
 7929SOL    HW135423   1.863   1.002   0.039 -1.5473  1.4319 -1.7152
 7929SOL    HW235424   1.787   1.118   0.060  1.1563  0.1959 -0.8713
 7930SOL     OW35425   2.822   2.987  17.041 -0.2259  0.0995  0.1618
 7930SOL    HW135426   2.761   2.933  16.990 -0.6112  0.2090  0.5032
 7930SOL    HW235427   2.761   3.058  17.059  0.5189  0.7720  0.0594
 7931SOL     OW35428   0.233   3.264   6.095 -0.3153  0.0342 -0.1941
 7931SOL    HW135429   0.143   3.269   6.062 -0.1917  1.7137 -0.2769
 7931SOL    HW235430   0.263   3.355   6.098 -0.5518  0.0875  0.5153
 7932SOL     OW35431   4.360   2.601   5.935 -0.4975  0.1016  0.7877
 7932SOL    HW135432   4.319   2.515   5.926  0.5224 -0.0658 -2.2366
 7932SOL    HW235433   4.337   2.626   6.025 -3.2019  2.2366 -0.5056
 7933SOL     OW35434   4.265   4.457   7.061  0.2268 -0.6198  0.2081
 7933SOL    HW135435   4.238   4.548   7.070  1.1296 -0.2680 -0.6971
 7933SOL    HW235436   4.228   4.431   6.976  1.8040 -0.1708 -0.6138
 7934SOL     OW35437   3.847   1.071   1.755  0.4303 -0.7369 -0.3018
 7934SOL    HW135438   3.782   1.094   1.689  0.6132  0.5426 -0.0413
 7934SOL    HW235439   3.852   1.150   1.810 -1.3426  0.3341 -1.6603
 7935SOL     OW35440   0.494   2.631  17.725 -0.1099 -0.7763 -0.5079
 7935SOL    HW135441   0.489   2.664  17.635 -0.1715  2.7582  0.7667
 7935SOL    HW235442   0.440   2.692   0.036  1.9740 -0.0210  0.8532
 7936SOL     OW35443   3.345   2.182  17.504 -0.0092  0.2970  0.0220
 7936SOL    HW135444   3.372   2.232  17.581 -0.7613 -0.9228  1.0788
 7936SOL    HW235445   3.306   2.246  17.444 -0.0364  0.1295 -0.1398
 7937SOL     OW35446   3.111   3.188   6.946  0.3425  0.1384 -0.2421
 7937SOL    HW135447   3.050   3.118   6.922  1.0856 -0.4889 -0.2730
 7937SOL    HW235448   3.125   3.177   7.040 -0.5223 -1.8977 -0.3533
 7938SOL     OW35449   2.725   0.441  12.509 -0.5445 -0.1587  0.2712
 7938SOL    HW135450   2.787   0.369  12.499 -2.0613 -0.9035 -4.2638
 7938SOL    HW235451   2.650   0.411  12.456 -1.5453  2.2806  0.3148
 7939SOL     OW35452   2.571   0.315   9.808  0.3732 -0.2329  0.2068
 7939SOL    HW135453   2.639   0.254   9.836  0.5560  0.1494  0.5906
 7939SOL    HW235454   2.502   0.284   9.867 -1.9988  0.8178 -2.0133
 7940SOL     OW35455   1.413   1.611   3.472  0.2368 -0.4922  0.4694
 7940SOL    HW135456   1.478   1.591   3.539  2.7011 -0.3709 -1.9147
 7940SOL    HW235457   1.453   1.670   3.409  0.8713 -0.0508  1.2925
 7941SOL     OW35458   2.940   1.561   5.806  0.2220  0.2109 -0.2491
 7941SOL    HW135459   2.975   1.526   5.724  0.6237  0.1423 -0.0496
 7941SOL    HW235460   2.956   1.486   5.862 -0.6113 -0.0484 -0.3515
 7942SOL     OW35461   0.309   1.056   5.574  0.4268 -0.0999 -0.3024
 7942SOL    HW135462   0.285   1.012   5.656 -1.3224 -2.1085 -1.8901
 7942SOL    HW235463   0.335   1.143   5.602  1.9154 -0.7124  0.2422
 7943SOL     OW35464   0.949   4.263   1.117  0.0254 -0.5558  0.3335
 7943SOL    HW135465   0.950   4.192   1.053 -1.3925  0.4272 -0.7841
 7943SOL    HW235466   0.879   4.226   1.171 -2.5354  1.6486 -1.4794
 7944SOL     OW35467   4.458   4.153   9.547  0.3246  0.0856  0.0392
 7944SOL    HW135468   4.494   4.227   9.499 -3.0944  1.0397 -1.0693
 7944SOL    HW235469   4.424   4.097   9.477  0.8591  0.2027 -0.3092
 7945SOL     OW35470   1.700   1.469   4.547  0.7137  0.1615  0.8610
 7945SOL    HW135471   1.773   1.501   4.493  0.2779 -2.3149 -1.1983
 7945SOL    HW235472   1.734   1.381   4.568 -0.1557  0.0809  1.9321
 7946SOL     OW35473   3.614   2.904   5.287 -0.2150  0.2195  0.3911
 7946SOL    HW135474   3.550   2.976   5.282  0.2982  0.6233 -0.4157
 7946SOL    HW235475   3.640   2.873   5.200 -0.4549  0.8535  0.0893
 7947SOL     OW35476   2.470   4.483   2.502 -0.0808 -0.1287  0.5966
 7947SOL    HW135477   2.400   4.508   2.441 -0.6783 -2.1617  0.4329
 7947SOL    HW235478   2.426   4.457   2.583  0.1592 -0.6469  0.5607
 7948SOL     OW35479   4.212   2.701   8.803  0.0025  0.2449  0.4913
 7948SOL    HW135480   4.262   2.688   8.723 -0.8551 -0.3920  0.0684
 7948SOL    HW235481   4.231   2.619   8.849  0.1566 -2.4465 -4.4130
 7949SOL     OW35482   4.204   2.733  15.739  0.3175 -0.8304 -0.3235
 7949SOL    HW135483   4.267   2.668  15.711 -0.5464 -1.5630 -0.5813
 7949SOL    HW235484   4.177   2.770  15.655  1.6238 -0.6782 -0.6676
 7950SOL     OW35485   0.447   1.202   2.085 -0.1853  0.5472 -0.4540
 7950SOL    HW135486   0.429   1.122   2.135  0.2972  0.8193  0.1454
 7950SOL    HW235487   0.540   1.187   2.071  0.0289 -0.5585  2.1982
 7951SOL     OW35488   0.644   2.730   5.743  0.5888 -0.1274 -0.2068
 7951SOL    HW135489   0.558   2.764   5.719  0.9217 -0.1117 -1.3708
 7951SOL    HW235490   0.628   2.638   5.723 -1.3316  0.2223 -0.2602
 7952SOL     OW35491   1.118   2.510   3.932  0.3020 -0.5580 -0.1658
 7952SOL    HW135492   1.069   2.485   3.854 -0.1464 -2.1806  0.6446
 7952SOL    HW235493   1.053   2.511   4.002 -0.2442  0.9757 -0.6863
 7953SOL     OW35494   0.132   0.683   3.268 -0.3015  0.0946  0.1230
 7953SOL    HW135495   0.190   0.676   3.192  0.9864  0.6042  1.0632
 7953SOL    HW235496   0.066   0.740   3.229 -1.2227 -0.5635  0.7259
 7954SOL     OW35497   3.591   2.012  13.212 -0.3432 -0.6737 -1.2144
 7954SOL    HW135498   3.582   1.939  13.150 -0.5834 -2.2649  0.7048
 7954SOL    HW235499   3.686   2.023  13.206 -0.2850 -0.2229  0.4260
 7955SOL     OW35500   1.075   0.472   1.340 -0.0909  0.4981 -0.1651
 7955SOL    HW135501   1.072   0.562   1.371  3.3588  1.0892 -1.5684
 7955SOL    HW235502   1.158   0.438   1.372  0.9485  1.9782 -1.3137
 7956SOL     OW35503   1.604   2.255  10.365 -0.4005 -0.0655 -0.0529
 7956SOL    HW135504   1.592   2.273  10.458  0.5019 -1.9800  0.4278
 7956SOL    HW235505   1.514   2.244  10.333 -0.2472  1.3227 -0.9779
 7957SOL     OW35506   3.616   0.163   7.432  0.2630 -0.0403 -0.4047
 7957SOL    HW135507   3.646   0.240   7.384 -1.3892  0.7201 -0.2262
 7957SOL    HW235508   3.628   0.191   7.523  0.0497  1.7408 -0.9365
 7958SOL     OW35509   0.655   3.503   9.602  0.0644  0.5084  0.1133
 7958SOL    HW135510   0.612   3.578   9.642  0.5354  0.6715  0.3119
 7958SOL    HW235511   0.591   3.434   9.617 -0.4104  0.7945 -0.5942
 7959SOL     OW35512   2.697   1.662   7.051  0.0648 -0.3320  0.7827
 7959SOL    HW135513   2.654   1.578   7.068 -0.7842 -0.1128 -0.2890
 7959SOL    HW235514   2.698   1.688   7.143 -0.3866 -0.0368  0.7059
 7960SOL     OW35515   2.655   2.852   5.209 -0.3792  0.7583 -0.1240
 7960SOL    HW135516   2.710   2.888   5.279 -3.0026  0.8872  1.8421
 7960SOL    HW235517   2.704   2.882   5.132  1.8746 -1.1980  0.5662
 7961SOL     OW35518   3.449   1.662   3.862  0.2674  0.0586  0.2229
 7961SOL    HW135519   3.459   1.674   3.956 -1.1997 -2.4382  0.6804
 7961SOL    HW235520   3.354   1.669   3.852  0.4177 -0.0298 -1.2522
 7962SOL     OW35521   3.173   0.926   7.853  0.2439  0.1892 -0.0116
 7962SOL    HW135522   3.078   0.935   7.843  0.0342  0.9657  2.7331
 7962SOL    HW235523   3.190   1.007   7.901 -0.8840  0.3736  0.0733
 7963SOL     OW35524   1.550   2.960   7.233 -0.4818 -0.0580  0.9700
 7963SOL    HW135525   1.491   2.908   7.288 -0.8053 -0.2385  0.4543
 7963SOL    HW235526   1.607   2.996   7.301  1.1300  2.8521 -1.9458
 7964SOL     OW35527   1.186   2.378   6.194 -0.2755 -0.2893  0.2280
 7964SOL    HW135528   1.139   2.302   6.228  0.7463 -1.1650 -0.3226
 7964SOL    HW235529   1.116   2.424   6.148  0.3411 -1.0336 -1.4431
 7965SOL     OW35530   3.269   0.216   6.178 -0.4282  0.1715 -0.3648
 7965SOL    HW135531   3.335   0.149   6.197 -1.7204 -0.6052  1.3603
 7965SOL    HW235532   3.322   0.294   6.161 -2.6547  0.7428 -4.4193
 7966SOL     OW35533   4.430   3.711  10.720  0.0852 -0.6941  0.1313
 7966SOL    HW135534   4.489   3.736  10.791  1.3604 -0.1975 -1.1057
 7966SOL    HW235535   4.481   3.651  10.666 -0.4671 -0.6406 -0.4461
 7967SOL     OW35536   2.082   1.056   1.994  0.1000 -0.3826  0.1739
 7967SOL    HW135537   2.049   1.024   2.077  0.0370  0.6597  0.5529
 7967SOL    HW235538   2.023   0.995   1.950 -0.9363 -1.0942  2.5785
 7968SOL     OW35539   0.544   4.606   4.628 -0.2661  0.0546  0.3688
 7968SOL    HW135540   0.617   4.584   4.570  0.4027  0.1565  1.1746
 7968SOL    HW235541   0.558   4.699   4.646  0.5847 -0.2141  1.1114
 7969SOL     OW35542   4.101   1.434   3.195  0.3457  0.6075  0.1284
 7969SOL    HW135543   4.192   1.464   3.203  0.3791  0.6879 -0.6303
 7969SOL    HW235544   4.052   1.500   3.145  0.3167 -0.7477 -1.6107
 7970SOL     OW35545   2.791   0.025   9.253 -0.0095  0.1310  0.1675
 7970SOL    HW135546   2.789   0.038   9.348 -1.1920  0.3584  0.1112
 7970SOL    HW235547   2.781   0.116   9.226 -2.7509 -0.2488 -0.1282
 7971SOL     OW35548   1.587   1.870   3.114  0.5671  0.1227  0.2033
 7971SOL    HW135549   1.533   1.916   3.050 -1.2999 -0.2830  1.4706
 7971SOL    HW235550   1.538   1.788   3.114  0.2955  0.2939 -1.1607
 7972SOL     OW35551   2.499   1.454   8.044 -0.0427 -0.1580  0.4494
 7972SOL    HW135552   2.460   1.473   8.129 -1.1654  1.2466 -0.3761
 7972SOL    HW235553   2.580   1.503   8.060  0.0016  0.5351 -1.8157
 7973SOL     OW35554   1.384   3.614  10.178  0.2601 -0.2454 -0.2285
 7973SOL    HW135555   1.427   3.621  10.263 -0.4843 -0.2684  0.1482
 7973SOL    HW235556   1.464   3.616  10.126 -0.7707  0.1189 -1.8182
 7974SOL     OW35557   1.613   0.090   3.676  0.1152 -0.2580 -0.1040
 7974SOL    HW135558   1.589   0.156   3.742  1.3112 -1.8758  1.9772
 7974SOL    HW235559   1.658   0.147   3.615 -1.4893  0.6022 -0.4962
 7975SOL     OW35560   0.309   2.593   8.247 -0.4933  0.1671 -0.2147
 7975SOL    HW135561   0.368   2.574   8.175 -0.6137 -0.6524 -0.0977
 7975SOL    HW235562   0.234   2.612   8.191 -0.9618 -1.6939 -0.2297
 7976SOL     OW35563   3.396   4.102  10.930  0.6594  0.4136 -0.5809
 7976SOL    HW135564   3.454   4.166  10.971 -0.4313  0.6660  0.5772
 7976SOL    HW235565   3.382   4.151  10.849  2.3780 -1.1966 -1.8583
 7977SOL     OW35566   4.432   2.498   1.060  0.3825  0.0050 -0.2863
 7977SOL    HW135567   4.506   2.537   1.013 -0.4373 -0.2227 -1.7602
 7977SOL    HW235568   4.436   2.404   1.042 -0.5044 -0.2128  0.6708
 7978SOL     OW35569   3.229   0.208   3.603 -0.3649  0.2241  0.5050
 7978SOL    HW135570   3.270   0.294   3.590  0.2082 -0.2710 -0.9481
 7978SOL    HW235571   3.277   0.160   3.535  0.9001  0.5216  1.1703
 7979SOL     OW35572   4.246   2.459  11.864  0.1163 -0.1889  0.8498
 7979SOL    HW135573   4.262   2.487  11.954  1.5224  3.5357 -0.5460
 7979SOL    HW235574   4.162   2.498  11.841 -0.3407 -2.4039 -1.2718
 7980SOL     OW35575   3.709   0.228  11.703  0.7016 -0.1717 -0.3353
 7980SOL    HW135576   3.695   0.149  11.755  1.1767  0.4984  0.8252
 7980SOL    HW235577   3.673   0.295  11.762  1.8002  1.3856 -1.4528
 7981SOL     OW35578   2.397   0.137   7.773  0.8796 -0.3791  0.3256
 7981SOL    HW135579   2.393   0.089   7.691 -1.5851 -1.7268  1.2403
 7981SOL    HW235580   2.321   0.194   7.758  0.3215 -1.0486  0.6179
 7982SOL     OW35581   3.185   3.553   1.961 -0.3899  0.2580  0.3882
 7982SOL    HW135582   3.200   3.466   1.998  1.4480  0.5966  0.4654
 7982SOL    HW235583   3.232   3.609   2.023 -0.4824  0.1886  0.5217
 7983SOL     OW35584   0.489   1.715   4.608 -0.4339  0.1053 -0.0925
 7983SOL    HW135585   0.576   1.684   4.580 -1.1519 -1.2179 -0.8389
 7983SOL    HW235586   0.504   1.810   4.607 -0.2265  0.0635 -1.1209
 7984SOL     OW35587   4.091   3.400  16.727  0.1869 -0.0523  0.3809
 7984SOL    HW135588   4.123   3.392  16.637  0.1705 -1.5301  0.5199
 7984SOL    HW235589   4.051   3.486  16.712  1.7796  0.8219  1.0340
 7985SOL     OW35590   3.741   1.824   0.021 -0.6642  0.6145  0.7641
 7985SOL    HW135591   3.780   1.838   0.107  0.9776  0.1629  0.0984
 7985SOL    HW235592   3.649   1.833   0.043 -0.8931 -2.0432  0.9641
 7986SOL     OW35593   2.787   2.305   6.216 -0.0336 -0.1713 -0.0479
 7986SOL    HW135594   2.872   2.329   6.180 -0.9638  1.2165 -1.3401
 7986SOL    HW235595   2.784   2.212   6.193  2.7332 -0.2873  0.1430
 7987SOL     OW35596   1.467   3.185   2.712  0.2510  1.2718 -0.1668
 7987SOL    HW135597   1.556   3.181   2.748 -0.1944 -1.2083  0.6883
 7987SOL    HW235598   1.436   3.099   2.741  0.7880  1.3887  0.7904
 7988SOL     OW35599   1.384   1.819   7.995 -0.0602  0.0569  0.0808
 7988SOL    HW135600   1.450   1.764   8.037 -0.0844 -0.3115 -0.3681
 7988SOL    HW235601   1.340   1.833   8.079 -1.9116 -1.3060 -0.6676
 7989SOL     OW35602   0.394   1.640   5.826 -0.0119 -0.4283 -0.3092
 7989SOL    HW135603   0.345   1.670   5.903  0.0848  0.1796 -0.4844
 7989SOL    HW235604   0.344   1.681   5.756 -0.5439 -1.6655 -0.6572
 7990SOL     OW35605   4.682   2.087   2.411  0.2333 -0.1173 -0.0276
 7990SOL    HW135606   4.686   1.997   2.445 -0.0200 -0.4832 -0.9658
 7990SOL    HW235607   4.621   2.127   2.473  2.3366  0.6289  1.5559
 7991SOL     OW35608   2.598   4.133   4.928  0.0526 -0.3689 -0.5153
 7991SOL    HW135609   2.548   4.190   4.988 -0.2332 -0.8874 -0.2626
 7991SOL    HW235610   2.570   4.155   4.839 -0.1212 -1.3156 -0.6887
 7992SOL     OW35611   1.363   3.560   8.038  0.4083  0.0375 -0.0784
 7992SOL    HW135612   1.412   3.565   7.955 -0.0887 -0.7175 -0.4171
 7992SOL    HW235613   1.330   3.649   8.046  0.7620  0.3156 -1.6671
 7993SOL     OW35614   4.442   3.125   3.723 -0.6936 -0.0507  0.2044
 7993SOL    HW135615   4.460   3.218   3.721  0.9922 -0.4122 -0.8436
 7993SOL    HW235616   4.493   3.098   3.799  1.3451  1.6487 -0.5618
 7994SOL     OW35617   3.600   2.072  11.147 -0.5828  0.4319  0.0502
 7994SOL    HW135618   3.589   2.079  11.242 -1.9752  1.8242 -0.1979
 7994SOL    HW235619   3.553   1.991  11.129  0.8718 -0.2185 -0.7691
 7995SOL     OW35620   2.386   2.902   2.812  0.1900  0.5019  0.3698
 7995SOL    HW135621   2.409   2.853   2.733 -0.6563  1.3100 -0.3779
 7995SOL    HW235622   2.355   2.836   2.873  0.6958 -0.6291 -0.5932
 7996SOL     OW35623   1.159   3.831   2.775  0.1636  0.3342  0.4656
 7996SOL    HW135624   1.092   3.889   2.740  1.8852  0.9768 -1.7630
 7996SOL    HW235625   1.179   3.762   2.711  3.5858  0.6349  1.1855
 7997SOL     OW35626   0.130   4.329   3.001 -0.1628  0.4386 -0.0420
 7997SOL    HW135627   0.141   4.271   3.076  0.1198  0.9992  0.3575
 7997SOL    HW235628   0.185   4.402   3.029 -1.5901  0.5821  2.3850
 7998SOL     OW35629   3.697   0.858   8.213 -0.0239 -0.1799 -0.2517
 7998SOL    HW135630   3.627   0.820   8.267 -0.0672  3.0207  1.9776
 7998SOL    HW235631   3.662   0.947   8.213  2.1289  0.6800  0.0857
 7999SOL     OW35632   1.249   1.200   3.605  0.2642  0.0023  0.1093
 7999SOL    HW135633   1.249   1.286   3.646  2.0454 -1.5047  3.2619
 7999SOL    HW235634   1.333   1.159   3.626 -0.8584 -1.5127  1.6068
 8000SOL     OW35635   1.470   1.729  11.534 -0.2152 -0.1563 -0.0957
 8000SOL    HW135636   1.427   1.645  11.550  0.9411 -1.1377 -2.1347
 8000SOL    HW235637   1.540   1.724  11.599  0.4513 -2.1824 -0.9690
 8001SOL     OW35638   3.167   3.555   1.694  0.5488 -0.4512  0.5768
 8001SOL    HW135639   3.176   3.566   1.788  0.5314  0.6062  0.4536
 8001SOL    HW235640   3.246   3.599   1.661  1.0757 -0.5469  1.7457
 8002SOL     OW35641   2.371   4.317  10.954  0.0922  0.5498 -0.6993
 8002SOL    HW135642   2.301   4.251  10.962 -0.9243  1.8096  0.7993
 8002SOL    HW235643   2.416   4.302  11.038 -0.9102  0.3383 -0.1961
 8003SOL     OW35644   0.418   4.404   4.363 -0.1826 -0.0092  0.2599
 8003SOL    HW135645   0.344   4.450   4.323  0.5821  0.1309 -0.9786
 8003SOL    HW235646   0.481   4.374   4.297  1.4557  2.7519  0.5626
 8004SOL     OW35647   3.956   0.227   2.417 -0.0635  0.0012 -0.5482
 8004SOL    HW135648   3.908   0.238   2.335 -1.4245  1.8768  0.4812
 8004SOL    HW235649   4.046   0.221   2.386  0.2068  1.2705 -0.0360
 8005SOL     OW35650   4.542   3.917   4.262  0.1714  0.2040 -0.0782
 8005SOL    HW135651   4.495   3.968   4.329 -0.2472  0.0092 -0.2214
 8005SOL    HW235652   4.485   3.840   4.255  2.3372 -1.7775  3.9123
 8006SOL     OW35653   1.874   2.024   1.653 -0.1444 -0.0857 -0.3042
 8006SOL    HW135654   1.799   1.994   1.601 -0.0665 -0.2987 -0.2910
 8006SOL    HW235655   1.943   1.970   1.615 -1.0549 -1.5126  0.0869
 8007SOL     OW35656   3.099   1.410   8.042 -0.0243 -0.0745 -0.0397
 8007SOL    HW135657   3.190   1.389   8.018 -0.9794 -2.6549 -1.4500
 8007SOL    HW235658   3.097   1.487   7.985  2.6683  0.5419  0.7000
 8008SOL     OW35659   3.013   1.898   7.036 -0.2189 -0.1836  0.2125
 8008SOL    HW135660   3.069   1.949   7.094  0.0286  0.4284 -0.5522
 8008SOL    HW235661   2.998   1.946   6.954  1.0028  0.7794  0.5543
 8009SOL     OW35662   1.887   4.382   8.271 -0.3106 -0.0094 -0.4163
 8009SOL    HW135663   1.967   4.351   8.228 -1.1155 -0.4812 -1.5938
 8009SOL    HW235664   1.906   4.362   8.362 -1.8567  0.2307 -0.0395
 8010SOL     OW35665   2.734   1.099   4.700  0.3370  0.2124  0.6237
 8010SOL    HW135666   2.682   1.160   4.753  2.6110 -0.8896  4.1607
 8010SOL    HW235667   2.665   1.052   4.654  0.7126 -2.4423  2.7958
 8011SOL     OW35668   1.174   2.184   4.123  0.0550 -0.5459  0.0576
 8011SOL    HW135669   1.117   2.171   4.198  0.4860 -0.4395  0.4063
 8011SOL    HW235670   1.140   2.117   4.063 -0.6167  0.2791 -0.4814
 8012SOL     OW35671   0.999   3.359  12.063 -0.0909 -0.4385  0.4584
 8012SOL    HW135672   0.991   3.374  11.969  0.6859 -0.6995  0.3535
 8012SOL    HW235673   1.075   3.301  12.074 -1.2151 -1.9892 -0.1020
 8013SOL     OW35674   1.672   4.480   5.113 -0.1942  0.0863 -0.3349
 8013SOL    HW135675   1.737   4.456   5.179 -0.1993  0.6928 -0.1046
 8013SOL    HW235676   1.712   4.557   5.072  2.9547 -2.0818 -1.3214
 8014SOL     OW35677   3.272   2.422  10.248  0.3066  0.0782 -0.1596
 8014SOL    HW135678   3.287   2.414  10.342 -2.5087  1.1362  0.3834
 8014SOL    HW235679   3.180   2.448  10.240  0.7585  1.1324 -2.0359
 8015SOL     OW35680   2.178   3.392   6.540 -0.3449 -0.0017 -0.2746
 8015SOL    HW135681   2.234   3.436   6.476  0.5847  1.1409  1.3086
 8015SOL    HW235682   2.166   3.458   6.609  0.0899  1.1224 -1.2683
 8016SOL     OW35683   2.555   3.029  12.903 -0.0658  0.1997 -0.3122
 8016SOL    HW135684   2.466   3.064  12.903 -0.2679 -0.3107  0.5329
 8016SOL    HW235685   2.546   2.942  12.862  0.6050  0.9318 -2.0012
 8017SOL     OW35686   2.917   1.783   5.575 -0.1449 -0.0331  0.0920
 8017SOL    HW135687   2.830   1.745   5.587  0.7431 -0.8478  3.6999
 8017SOL    HW235688   2.972   1.706   5.562  1.1775  0.6761  1.5139
 8018SOL     OW35689   4.691   3.540  13.783 -0.2668  0.1289  0.0770
 8018SOL    HW135690   4.726   3.497  13.861 -2.1954  0.7497  1.2862
 8018SOL    HW235691   0.006   3.620  13.797 -1.0561  0.7953 -0.9601
 8019SOL     OW35692   2.689   2.328  15.948  0.7970  0.5554  0.3101
 8019SOL    HW135693   2.638   2.399  15.909 -1.2935  1.2346  4.3854
 8019SOL    HW235694   2.739   2.377  16.012 -0.0738  1.2916  0.4186
 8020SOL     OW35695   1.603   3.133   8.180 -0.3897  0.0943  0.2378
 8020SOL    HW135696   1.563   3.049   8.155  0.7231 -0.1538 -0.7131
 8020SOL    HW235697   1.682   3.135   8.125  0.2449  1.9982  1.2210
 8021SOL     OW35698   1.774   3.775   1.882  0.5260  0.0923 -0.0650
 8021SOL    HW135699   1.685   3.787   1.848 -0.5189 -2.1091  1.8341
 8021SOL    HW235700   1.773   3.684   1.852 -1.0458  0.9762 -2.6827
 8022SOL     OW35701   2.886   1.417  11.519  0.1591 -0.6442  0.1248
 8022SOL    HW135702   2.810   1.361  11.534 -0.4794  0.0131 -0.6290
 8022SOL    HW235703   2.850   1.501  11.549 -1.2625 -1.8539  1.7687
 8023SOL     OW35704   2.454   0.276   7.421 -0.5705  0.4740 -0.1991
 8023SOL    HW135705   2.513   0.309   7.489 -1.6246  1.8295  0.0702
 8023SOL    HW235706   2.392   0.224   7.472 -0.8055  1.1923  0.2547
 8024SOL     OW35707   2.523   0.936  11.559 -0.2296  0.4929 -0.4081
 8024SOL    HW135708   2.509   0.935  11.465  0.9449 -1.9859 -0.5659
 8024SOL    HW235709   2.543   0.842  11.569 -0.0963  0.3461 -2.1127
 8025SOL     OW35710   0.644   3.721   4.914 -0.1440  0.1949 -0.5741
 8025SOL    HW135711   0.656   3.772   4.994 -0.8607  0.3300 -0.5548
 8025SOL    HW235712   0.565   3.680   4.948  0.3501 -0.2547  0.0414
 8026SOL     OW35713   3.172   0.302   8.372  0.7155  0.0516  0.5912
 8026SOL    HW135714   3.133   0.385   8.344 -1.9262 -0.2395  3.4464
 8026SOL    HW235715   3.230   0.276   8.301  0.5892 -1.9165  1.2151
 8027SOL     OW35716   4.511   0.948   8.392 -0.2818 -0.0094  0.5814
 8027SOL    HW135717   4.502   0.885   8.321  0.9498  0.4152  0.0567
 8027SOL    HW235718   4.429   0.930   8.438 -0.5507  2.0766  0.9067
 8028SOL     OW35719   3.166   0.661   5.477  0.1605  0.0845  0.2590
 8028SOL    HW135720   3.154   0.570   5.503  0.5959 -0.1932 -0.5086
 8028SOL    HW235721   3.098   0.669   5.411 -1.1420  3.2698  2.0052
 8029SOL     OW35722   2.447   2.049   7.831  0.2587  0.0036 -0.1364
 8029SOL    HW135723   2.476   1.957   7.830 -1.0688 -0.4055 -0.3965
 8029SOL    HW235724   2.520   2.102   7.800  0.0146  0.0603 -0.6164
 8030SOL     OW35725   1.974   1.447   7.100  0.3016 -0.1957 -0.1977
 8030SOL    HW135726   1.895   1.492   7.071 -0.0981 -0.2116  0.8447
 8030SOL    HW235727   1.948   1.354   7.099  2.3518 -0.7584 -0.4116
 8031SOL     OW35728   2.738   2.466  15.085  0.2477 -0.4773  0.6222
 8031SOL    HW135729   2.668   2.427  15.034 -0.1742  0.5518  0.4128
 8031SOL    HW235730   2.703   2.548  15.120 -2.6457 -2.5585  2.5758
 8032SOL     OW35731   4.149   1.182  12.693  0.2702 -0.0805  0.6571
 8032SOL    HW135732   4.218   1.151  12.636  0.5306  0.9087  0.4424
 8032SOL    HW235733   4.183   1.155  12.778  2.8988 -1.0527 -0.7080
 8033SOL     OW35734   2.838   3.802   3.443 -0.0275 -0.0570  0.2589
 8033SOL    HW135735   2.822   3.842   3.357  2.8601 -0.0036 -0.2399
 8033SOL    HW235736   2.931   3.820   3.452  0.3928 -2.2194  0.0483
 8034SOL     OW35737   2.470   1.561   4.921 -0.0931  0.5665  0.4616
 8034SOL    HW135738   2.389   1.559   4.870  0.9833 -2.1345 -1.1501
 8034SOL    HW235739   2.495   1.652   4.905  0.6341  0.4177  0.7471
 8035SOL     OW35740   3.022   0.929   4.307 -0.3343 -0.3158 -0.0387
 8035SOL    HW135741   3.056   0.982   4.235 -0.9809  0.6586  0.3855
 8035SOL    HW235742   3.016   1.000   4.371 -3.1158  1.9320 -2.8059
 8036SOL     OW35743   0.220   3.793   4.586 -0.1900  0.4441 -0.1016
 8036SOL    HW135744   0.254   3.785   4.497 -1.0097 -0.1892 -0.3650
 8036SOL    HW235745   0.179   3.707   4.595 -1.5351  0.9646 -1.2750
 8037SOL     OW35746   2.638   1.193   2.370 -0.5737 -0.2657  0.6559
 8037SOL    HW135747   2.606   1.283   2.371 -0.4994 -0.2258 -1.8066
 8037SOL    HW235748   2.709   1.206   2.308  0.0530  0.7744  1.5818
 8038SOL     OW35749   0.442   2.621   2.957  0.3020  0.4757  0.1829
 8038SOL    HW135750   0.497   2.676   2.900  1.4929  0.4740  1.3255
 8038SOL    HW235751   0.459   2.652   3.045 -0.8528  1.6670 -0.0188
 8039SOL     OW35752   3.732   3.061  11.908 -0.3003  0.5759 -0.9582
 8039SOL    HW135753   3.722   2.990  11.971 -0.3022 -0.2411 -1.8836
 8039SOL    HW235754   3.821   3.089  11.931  0.3094 -0.3956 -2.0700
 8040SOL     OW35755   0.754   4.561   8.314  0.0183  0.6790 -0.0136
 8040SOL    HW135756   0.824   4.518   8.363 -0.1309  0.4467 -0.0030
 8040SOL    HW235757   0.757   4.643   8.362  1.1243  2.3938 -3.0055
 8041SOL     OW35758   0.248   0.200   2.179 -0.7390  0.6747  0.3886
 8041SOL    HW135759   0.332   0.196   2.132 -1.5460 -1.6491 -0.8269
 8041SOL    HW235760   0.230   0.290   2.208  2.3555  0.8184  1.9335
 8042SOL     OW35761   1.724   1.865   1.503 -0.2563  0.1825  0.6894
 8042SOL    HW135762   1.633   1.850   1.528 -0.2623 -2.4189 -0.8820
 8042SOL    HW235763   1.736   1.789   1.446 -0.7626 -0.7865  1.9090
 8043SOL     OW35764   3.994   3.909   1.468 -0.3002 -0.4218 -0.1823
 8043SOL    HW135765   3.900   3.921   1.459 -0.4241 -1.2302  0.0625
 8043SOL    HW235766   4.008   3.828   1.518 -0.5779 -0.7639 -0.6526
 8044SOL     OW35767   1.012   1.802   7.017 -0.6535 -0.1958  0.0117
 8044SOL    HW135768   0.925   1.762   7.006 -1.1991  0.4719  1.8992
 8044SOL    HW235769   1.011   1.895   6.995 -0.0318  0.5474  3.0186
 8045SOL     OW35770   1.192   4.488  14.868 -0.0748  0.2637 -0.1479
 8045SOL    HW135771   1.258   4.425  14.898  0.4563  0.0241 -1.8138
 8045SOL    HW235772   1.222   4.498  14.778  1.4090  0.2930  0.3559
 8046SOL     OW35773   0.787   4.454   6.518  0.5118  0.0687  0.2538
 8046SOL    HW135774   0.714   4.473   6.460  1.3665  0.2374 -0.7531
 8046SOL    HW235775   0.808   4.364   6.491 -0.4563 -0.2238  0.4736
 8047SOL     OW35776   1.486   2.625   1.014 -0.4017  0.3709  0.0356
 8047SOL    HW135777   1.452   2.577   1.090  1.5325 -0.2299  0.5303
 8047SOL    HW235778   1.579   2.615   1.034 -0.7423 -0.9474  0.9971
 8048SOL     OW35779   3.576   0.539   6.398 -0.4744  0.6584 -0.8731
 8048SOL    HW135780   3.663   0.562   6.431 -1.3179 -0.7577  2.2738
 8048SOL    HW235781   3.519   0.592   6.453  0.1442  1.6222 -1.1505
 8049SOL     OW35782   1.710   2.996   1.364 -0.0411 -0.6039 -0.6851
 8049SOL    HW135783   1.679   2.908   1.342  0.2108 -0.8015 -0.2382
 8049SOL    HW235784   1.803   2.981   1.347  1.1631  5.8104  0.0507
 8050SOL     OW35785   4.107   3.543   2.769  0.7218 -0.1299  0.2328
 8050SOL    HW135786   4.157   3.550   2.851  1.4197 -1.2499 -0.0967
 8050SOL    HW235787   4.131   3.629   2.735  0.7355  0.2972  1.2941
 8051SOL     OW35788   2.164   3.748   0.316 -0.2605  0.2292  0.2188
 8051SOL    HW135789   2.221   3.675   0.339 -1.4955 -0.4913  0.9950
 8051SOL    HW235790   2.161   3.799   0.397 -1.0213  0.0340  0.3146
 8052SOL     OW35791   1.303   0.487   1.904 -0.7984 -0.4669  0.4077
 8052SOL    HW135792   1.324   0.473   1.812  0.7221 -1.2723  0.8721
 8052SOL    HW235793   1.360   0.434   1.960  0.7631  0.1057 -0.6289
 8053SOL     OW35794   2.329   3.781   2.884  0.4981 -0.3153  0.9474
 8053SOL    HW135795   2.331   3.708   2.821 -1.6512 -0.7384  1.3957
 8053SOL    HW235796   2.399   3.831   2.841  0.1829  0.8878  1.8670
 8054SOL     OW35797   4.494   2.588   5.419 -0.4705  0.7487  0.7454
 8054SOL    HW135798   4.589   2.591   5.433 -0.1366 -1.1376 -1.0382
 8054SOL    HW235799   4.479   2.682   5.413  2.2541  1.0515 -1.2374
 8055SOL     OW35800   0.213   1.319   5.639 -0.4794 -0.2401 -0.5396
 8055SOL    HW135801   0.220   1.401   5.591  2.0768  0.8640  1.6951
 8055SOL    HW235802   0.134   1.333   5.691 -0.4359 -2.4272  0.0999
 8056SOL     OW35803   3.333   4.228  10.714  0.4361 -0.0864 -0.1134
 8056SOL    HW135804   3.306   4.170  10.642 -2.1963 -0.1061  0.8999
 8056SOL    HW235805   3.320   4.317  10.681 -1.3512 -0.3852 -0.1863
 8057SOL     OW35806   4.102   0.444   6.110 -0.3744 -0.2200  0.5772
 8057SOL    HW135807   4.073   0.403   6.028 -1.2483  0.0467  0.7552
 8057SOL    HW235808   4.147   0.369   6.150  2.1048 -0.0971 -1.9193
 8058SOL     OW35809   1.234   0.259   4.202  0.0903 -0.0164 -0.0971
 8058SOL    HW135810   1.279   0.178   4.177 -1.7398 -0.3684 -2.2251
 8058SOL    HW235811   1.230   0.250   4.297 -1.1124 -0.0307 -0.1569
 8059SOL     OW35812   2.446   2.908  17.458  0.1629 -0.5999  0.7901
 8059SOL    HW135813   2.429   2.937  17.548 -1.2203 -0.3459  0.4435
 8059SOL    HW235814   2.531   2.864  17.462  0.6840  0.1426 -2.4878
 8060SOL     OW35815   2.029   2.105   2.985 -0.0553 -0.5208 -0.6929
 8060SOL    HW135816   1.965   2.034   2.989 -0.0630 -0.4743  0.0405
 8060SOL    HW235817   2.077   2.082   2.906 -2.1818  0.8345 -2.3805
 8061SOL     OW35818   3.678   0.326   3.798  0.5192 -0.3516  0.0693
 8061SOL    HW135819   3.688   0.259   3.731  1.3087 -2.8378  2.7128
 8061SOL    HW235820   3.768   0.328   3.830  0.4532 -0.4928  0.2586
 8062SOL     OW35821   0.465   0.802   8.638  0.3891 -0.1255 -0.9763
 8062SOL    HW135822   0.548   0.832   8.675  0.6121 -0.6539 -1.0457
 8062SOL    HW235823   0.403   0.856   8.688  1.0248  1.5251 -1.9849
 8063SOL     OW35824   3.473   4.355  16.707  0.1737  0.2765 -0.1684
 8063SOL    HW135825   3.463   4.356  16.802 -1.2218 -0.4055 -0.2974
 8063SOL    HW235826   3.400   4.409  16.675  0.1468  0.1647 -0.2991
 8064SOL     OW35827   0.865   2.601   2.877 -0.3174  0.2803 -0.3731
 8064SOL    HW135828   0.837   2.616   2.968  1.7265  1.2199  0.1075
 8064SOL    HW235829   0.943   2.545   2.882 -0.1939  0.4729 -0.1349
 8065SOL     OW35830   1.092   0.785   2.391 -0.2783 -0.2332  0.5078
 8065SOL    HW135831   1.121   0.768   2.301 -0.1698  0.1982  0.4624
 8065SOL    HW235832   1.016   0.841   2.373 -0.9665 -0.7742  1.7203
 8066SOL     OW35833   3.794   1.162   6.438 -0.1533  0.1443 -0.3188
 8066SOL    HW135834   3.753   1.210   6.509 -1.2736 -1.0760 -0.1321
 8066SOL    HW235835   3.880   1.148   6.479 -0.0153  1.7522 -0.0484
 8067SOL     OW35836   3.633   4.489   1.647 -0.1744  0.1652  0.0145
 8067SOL    HW135837   3.729   4.495   1.646 -0.2074  0.9867  1.2238
 8067SOL    HW235838   3.623   4.472   1.553  0.1755 -0.6545  0.1226
 8068SOL     OW35839   4.717   3.876   2.782 -0.2183  0.2407 -0.0389
 8068SOL    HW135840   0.071   3.859   2.812 -0.5503  0.4042  1.0354
 8068SOL    HW235841   4.712   3.972   2.787 -0.0231  0.1423  1.8951
 8069SOL     OW35842   0.935   4.074  10.816 -0.3075 -0.0663 -0.1457
 8069SOL    HW135843   1.011   4.063  10.874  0.3067  1.1536 -0.7187
 8069SOL    HW235844   0.974   4.105  10.734 -1.0029  0.9884 -0.0776
 8070SOL     OW35845   2.206   0.537  13.913  0.1153 -0.6517 -0.2438
 8070SOL    HW135846   2.297   0.511  13.930  0.0452 -0.1538  0.8954
 8070SOL    HW235847   2.178   0.503  13.828  0.5428  1.1846 -1.1156
 8071SOL     OW35848   3.089   0.145   5.991  0.4267 -0.0603  0.0499
 8071SOL    HW135849   3.096   0.220   5.932  1.0420  0.8314  1.2441
 8071SOL    HW235850   3.147   0.186   6.055  0.7789  0.2887 -0.4901
 8072SOL     OW35851   1.158   4.707   7.927  0.1450 -0.7455 -0.1363
 8072SOL    HW135852   1.138   4.728   7.836  1.3178 -0.7941 -0.3992
 8072SOL    HW235853   1.142   4.613   7.922 -0.5335 -0.6606  0.4303
 8073SOL     OW35854   2.749   0.532  17.169 -0.1381 -0.2578 -0.1874
 8073SOL    HW135855   2.813   0.522  17.239  0.1122  0.0632 -0.3734
 8073SOL    HW235856   2.716   0.443  17.155 -0.4957  0.4065 -3.5765
 8074SOL     OW35857   0.799   0.218   9.231  0.3649  0.0119  0.0195
 8074SOL    HW135858   0.863   0.199   9.162 -0.0643  0.9576 -0.6318
 8074SOL    HW235859   0.848   0.266   9.298 -2.0028  0.0114  1.7562
 8075SOL     OW35860   1.023   0.853  16.604  0.3995 -0.2925  0.4186
 8075SOL    HW135861   1.026   0.831  16.697 -1.8091 -1.0516  0.2937
 8075SOL    HW235862   1.002   0.770  16.562  2.0651 -0.0157 -0.9816
 8076SOL     OW35863   0.556   0.095  13.593  0.0545 -0.0662 -0.3897
 8076SOL    HW135864   0.543   0.024  13.655 -2.7817  0.7991  0.0229
 8076SOL    HW235865   0.593   0.170  13.639  1.2549  0.1079 -1.6090
 8077SOL     OW35866   0.481   3.132   5.386  0.0046  0.2042 -0.3558
 8077SOL    HW135867   0.481   3.169   5.297 -1.6170  1.2360  0.0758
 8077SOL    HW235868   0.470   3.207   5.445  1.9169 -2.5016  3.3696
 8078SOL     OW35869   1.493   3.142   1.652  0.1148 -0.8575 -0.5078
 8078SOL    HW135870   1.448   3.058   1.663 -1.2742 -0.1163 -0.7099
 8078SOL    HW235871   1.545   3.144   1.733  1.1422 -1.3511 -1.1441
 8079SOL     OW35872   2.205   0.355   7.032 -0.7368  0.2371  0.0883
 8079SOL    HW135873   2.127   0.378   7.083 -2.6997 -2.2676 -1.8086
 8079SOL    HW235874   2.272   0.402   7.083 -1.9193  0.1321  1.7367
 8080SOL     OW35875   0.553   1.794   8.180  0.3372 -0.7161  0.3004
 8080SOL    HW135876   0.623   1.783   8.116 -1.5153 -3.1231 -1.3295
 8080SOL    HW235877   0.572   1.717   8.234 -0.2386  1.3200  3.4042
 8081SOL     OW35878   1.609   1.819   2.268  0.4710  0.2220 -0.0127
 8081SOL    HW135879   1.536   1.766   2.301 -0.6117  1.7237 -0.0263
 8081SOL    HW235880   1.611   1.879   2.343 -0.1800  0.1028  0.1035
 8082SOL     OW35881   2.042   3.707  16.970  0.1067  0.7323  0.1273
 8082SOL    HW135882   1.988   3.787  16.970  0.3789  0.9211  1.8377
 8082SOL    HW235883   1.994   3.638  16.923 -0.8711  0.3320  1.7091
 8083SOL     OW35884   4.601   3.912   1.742 -0.8242 -0.3134 -0.1691
 8083SOL    HW135885   4.506   3.921   1.751 -1.0382  0.8809 -3.8000
 8083SOL    HW235886   4.624   3.912   1.649  0.6300 -1.1421  0.1923
 8084SOL     OW35887   0.164   0.524  11.102 -0.2667 -0.0039  0.4667
 8084SOL    HW135888   0.127   0.473  11.175  1.5397 -0.4157  1.0964
 8084SOL    HW235889   0.095   0.588  11.086  0.2541  0.1729 -1.0181
 8085SOL     OW35890   4.542   3.490   5.392  0.6630  0.0108 -0.2384
 8085SOL    HW135891   4.574   3.549   5.324 -1.2086 -0.8427 -1.8790
 8085SOL    HW235892   4.501   3.417   5.345  1.3198 -0.8168  0.4798
 8086SOL     OW35893   1.918   3.212   5.340  0.3913  0.1551 -0.1982
 8086SOL    HW135894   1.870   3.209   5.422  1.6439 -2.5459  0.4461
 8086SOL    HW235895   1.972   3.291   5.346  0.8413 -0.3003  1.5208
 8087SOL     OW35896   3.364   3.069   5.213 -0.2225  0.1083 -0.1043
 8087SOL    HW135897   3.298   3.138   5.198 -1.3724 -0.5663  2.0044
 8087SOL    HW235898   3.368   3.086   5.307  0.4991 -0.1956 -0.0790
 8088SOL     OW35899   0.563   3.898   3.400  0.5112  0.0644  0.4931
 8088SOL    HW135900   0.548   3.993   3.406  2.8530  0.5418 -1.3277
 8088SOL    HW235901   0.471   3.875   3.385  0.0785  1.5045  0.9144
 8089SOL     OW35902   3.284   3.800  14.884 -0.1291 -0.5140  0.3165
 8089SOL    HW135903   3.194   3.786  14.854  0.0173  0.6232 -0.6430
 8089SOL    HW235904   3.324   3.716  14.860 -0.9994 -0.2648 -2.0125
 8090SOL     OW35905   3.237   1.291   0.370  0.4231 -0.3405 -0.3194
 8090SOL    HW135906   3.289   1.319   0.445 -3.1235  0.1187  1.9378
 8090SOL    HW235907   3.146   1.304   0.394  0.9121  1.3176  0.6668
 8091SOL     OW35908   3.156   3.418   7.664  0.3472  0.4631  0.2521
 8091SOL    HW135909   3.218   3.346   7.679  1.1840  1.1358  0.0335
 8091SOL    HW235910   3.144   3.460   7.749 -0.3960  0.4428  0.1618
 8092SOL     OW35911   0.027   0.126   6.915 -0.0879 -0.1956  0.3698
 8092SOL    HW135912   0.095   0.071   6.877 -2.0398 -1.6752 -0.9749
 8092SOL    HW235913   4.686   0.074   6.889 -0.6432  0.9084 -0.2365
 8093SOL     OW35914   3.734   1.780   7.477  0.3674  0.1323 -0.1946
 8093SOL    HW135915   3.750   1.743   7.390  3.9620 -0.1354  0.5785
 8093SOL    HW235916   3.800   1.849   7.467 -1.2358  1.7911  0.5489
 8094SOL     OW35917   3.080   0.225  13.531  0.1444  0.6022  0.4728
 8094SOL    HW135918   3.176   0.220  13.528  0.0797  0.6063 -2.0213
 8094SOL    HW235919   3.057   0.282  13.457 -0.4495 -1.6993 -1.1304
 8095SOL     OW35920   0.864   0.574   7.185  0.0039 -0.4180 -0.1260
 8095SOL    HW135921   0.896   0.549   7.098  0.8858  0.6238 -0.1023
 8095SOL    HW235922   0.927   0.643   7.208 -0.3066  0.3549 -1.5371
 8096SOL     OW35923   3.800   4.054   7.902 -0.1839  0.5784  0.1798
 8096SOL    HW135924   3.713   4.095   7.905 -0.7170 -0.6025  1.0332
 8096SOL    HW235925   3.845   4.124   7.855 -0.3448  0.4768 -0.1290
 8097SOL     OW35926   2.394   0.623   2.808 -0.3157 -0.2830 -0.1790
 8097SOL    HW135927   2.472   0.668   2.775  1.4708 -1.0195  3.0221
 8097SOL    HW235928   2.435   0.552   2.858 -1.4082 -0.1688  0.8769
 8098SOL     OW35929   4.674   4.211  12.482  0.0076 -0.2053 -0.2260
 8098SOL    HW135930   4.666   4.304  12.504 -1.1892 -0.4094  0.1891
 8098SOL    HW235931   4.704   4.217  12.391  1.5385 -1.0117  0.2199
 8099SOL     OW35932   1.549   2.305   3.604  0.1426  0.1371 -0.4904
 8099SOL    HW135933   1.572   2.380   3.658  1.5687 -1.6889  1.4839
 8099SOL    HW235934   1.468   2.334   3.564 -1.3119  0.2451  2.5135
 8100SOL     OW35935   0.808   1.900   0.588 -0.5183 -0.4660 -0.3370
 8100SOL    HW135936   0.736   1.854   0.544 -1.4608 -2.0046  2.8542
 8100SOL    HW235937   0.831   1.952   0.511  1.2874  0.8615  1.0884
 8101SOL     OW35938   3.755   3.484   1.972  0.3346  0.2205  0.1700
 8101SOL    HW135939   3.692   3.482   2.044  0.9429  0.7527  0.7254
 8101SOL    HW235940   3.824   3.533   2.017  2.1156 -0.2624 -2.0431
 8102SOL     OW35941   2.640   2.044   8.318 -0.0898  0.1860  0.1627
 8102SOL    HW135942   2.682   2.129   8.310  0.3028 -0.2421 -2.4515
 8102SOL    HW235943   2.676   2.014   8.402  3.2055 -1.3961 -1.7878
 8103SOL     OW35944   0.457   1.232  16.272  0.1420 -0.0440  0.3680
 8103SOL    HW135945   0.512   1.269  16.342  0.2349 -1.7068  1.1855
 8103SOL    HW235946   0.518   1.238  16.199  1.8292 -1.5557  1.6350
 8104SOL     OW35947   1.521   3.989  12.985  0.2965  0.2447 -0.8164
 8104SOL    HW135948   1.522   3.974  12.891 -0.4486 -1.6195 -0.5257
 8104SOL    HW235949   1.441   4.043  12.987  0.7274  0.8290  0.9056
 8105SOL     OW35950   1.020   2.643   6.061  0.4918 -0.3303  0.3522
 8105SOL    HW135951   0.933   2.672   6.034  1.5269  1.3883 -1.0797
 8105SOL    HW235952   1.075   2.645   5.982  2.0962 -0.4073  1.4611
 8106SOL     OW35953   1.505   4.500   5.341  0.2330  0.7541 -0.6008
 8106SOL    HW135954   1.421   4.516   5.298 -0.0485  1.0372  0.0585
 8106SOL    HW235955   1.559   4.462   5.271  1.1065  0.5202  0.2131
 8107SOL     OW35956   0.663   3.751   4.645  0.5718  0.0152 -0.3100
 8107SOL    HW135957   0.671   3.746   4.741  1.2675 -0.2549 -0.3848
 8107SOL    HW235958   0.620   3.668   4.627 -3.3295  1.2999  3.0434
 8108SOL     OW35959   1.121   1.836   3.284  0.0684  0.3473 -0.1452
 8108SOL    HW135960   1.050   1.799   3.335 -0.8554 -0.3092 -1.8937
 8108SOL    HW235961   1.168   1.761   3.247  0.3412  0.4004  0.0934
 8109SOL     OW35962   1.113   2.849  10.210  0.1125 -0.1469  0.5208
 8109SOL    HW135963   1.170   2.814  10.142 -0.3670 -0.0351  0.0644
 8109SOL    HW235964   1.176   2.867  10.280  0.5286 -0.4601  0.2264
 8110SOL     OW35965   2.564   0.260  17.720  0.1910  0.3830  0.1716
 8110SOL    HW135966   2.477   0.244   0.017  1.1953  0.0181  2.4230
 8110SOL    HW235967   2.564   0.183  17.664 -1.3441  1.4117 -1.2677
 8111SOL     OW35968   1.033   3.606  10.353  0.4537 -0.7149 -0.3281
 8111SOL    HW135969   0.945   3.627  10.319  1.1178  1.1521 -0.9148
 8111SOL    HW235970   1.078   3.680  10.311  0.0223 -1.6076 -2.3603
 8112SOL     OW35971   2.622   3.872   4.986  0.5748 -0.2158 -0.8067
 8112SOL    HW135972   2.590   3.882   5.076  1.8847  1.3573 -0.5188
 8112SOL    HW235973   2.606   3.962   4.957  1.1874  0.8933  2.3391
 8113SOL     OW35974   1.302   2.259   5.842  0.4421  0.2736 -0.1320
 8113SOL    HW135975   1.217   2.265   5.798 -0.6835  0.4398  2.1093
 8113SOL    HW235976   1.283   2.293   5.929  1.0540  0.2438  0.0180
 8114SOL     OW35977   1.129   0.665   2.157  0.5514 -0.2480  0.4325
 8114SOL    HW135978   1.203   0.689   2.102  1.3506 -0.2060  1.5293
 8114SOL    HW235979   1.072   0.633   2.088  1.2038 -1.1260  0.3018
 8115SOL     OW35980   2.190   2.140   9.587 -0.1000 -0.0572  0.0098
 8115SOL    HW135981   2.284   2.130   9.596 -0.0646  0.3719  0.1106
 8115SOL    HW235982   2.164   2.053   9.618 -0.6625 -0.2958 -1.0832
 8116SOL     OW35983   1.919   1.210   3.417 -0.2996 -0.3893 -0.3278
 8116SOL    HW135984   1.903   1.156   3.494  3.1251 -0.3995  0.3840
 8116SOL    HW235985   1.982   1.155   3.369 -1.7431 -3.9873  1.8907
 8117SOL     OW35986   4.344   2.136   4.197  0.5639  0.1954 -0.2166
 8117SOL    HW135987   4.250   2.140   4.179  0.1315  0.5245  2.0869
 8117SOL    HW235988   4.345   2.068   4.264 -2.4321  1.0719  0.7215
 8118SOL     OW35989   2.317   4.147   7.290  0.4060  0.2537 -0.2197
 8118SOL    HW135990   2.295   4.155   7.197  0.7224  1.1149 -0.2228
 8118SOL    HW235991   2.362   4.231   7.288  0.3903  0.2146 -2.7639
 8119SOL     OW35992   1.052   1.633   2.240 -0.5618 -0.3877 -0.0812
 8119SOL    HW135993   0.971   1.628   2.189 -0.1878 -0.0070 -0.7074
 8119SOL    HW235994   1.056   1.544   2.274  2.0281  0.7878  2.6770
 8120SOL     OW35995   0.225   0.237   5.654  0.1359  0.4053  0.3426
 8120SOL    HW135996   0.233   0.321   5.609 -0.6051  0.5877  0.5571
 8120SOL    HW235997   0.228   0.182   5.576 -3.3795 -1.3748  1.4861
 8121SOL     OW35998   1.691   1.924   5.178  0.3411 -0.1679  0.1011
 8121SOL    HW135999   1.745   1.860   5.132 -0.2030  0.8376 -1.9273
 8121SOL    HW236000   1.752   1.954   5.245  0.5367 -0.4833  0.0632
 8122SOL     OW36001   0.802   4.250   3.436  0.1380  0.2912 -0.4474
 8122SOL    HW136002   0.774   4.159   3.426 -0.9175  0.4690  0.9381
 8122SOL    HW236003   0.853   4.246   3.516 -2.3151 -2.4354  0.9981
 8123SOL     OW36004   1.045   2.713   9.874 -0.0472 -0.2569  0.0308
 8123SOL    HW136005   1.062   2.782   9.810  0.3648 -0.4433 -0.0614
 8123SOL    HW236006   1.133   2.679   9.890  0.5904  1.7290  0.7507
 8124SOL     OW36007   4.437   4.535   0.855 -0.1737 -0.1817  0.0229
 8124SOL    HW136008   4.369   4.478   0.819  0.3147 -0.9586  0.3309
 8124SOL    HW236009   4.518   4.493   0.827 -0.3345 -0.4443 -0.0568
 8125SOL     OW36010   3.928   1.282   1.919  0.1306 -0.4495  0.0627
 8125SOL    HW136011   4.014   1.242   1.911  1.7369  3.3149 -1.3471
 8125SOL    HW236012   3.964   1.370   1.931 -1.8632  0.3825 -0.0184
 8126SOL     OW36013   4.619   0.432   6.757 -0.1575  0.0536 -0.6513
 8126SOL    HW136014   4.639   0.411   6.848  0.5107 -2.1351 -1.3102
 8126SOL    HW236015   4.531   0.466   6.769 -0.5862 -1.3430  0.1289
 8127SOL     OW36016   2.365   4.481   6.749  0.7927 -0.1065 -0.1412
 8127SOL    HW136017   2.402   4.560   6.787  0.7166 -0.3758  0.4938
 8127SOL    HW236018   2.279   4.474   6.790  0.5615 -2.7691 -1.0653
 8128SOL     OW36019   2.624   1.824   2.979 -0.2889  0.2950  0.0300
 8128SOL    HW136020   2.543   1.776   2.963 -0.1795  0.6468 -1.6575
 8128SOL    HW236021   2.666   1.762   3.038  0.7000 -0.3557 -1.3615
 8129SOL     OW36022   0.115   1.016   7.796 -0.3377 -0.0626 -0.5590
 8129SOL    HW136023   0.182   0.978   7.853 -0.5098  1.0450  0.3642
 8129SOL    HW236024   0.053   1.070   7.845  0.3159  0.8106 -0.6933
 8130SOL     OW36025   4.203   2.173   5.120  0.3945  0.2896 -0.5296
 8130SOL    HW136026   4.275   2.115   5.097 -0.6733 -0.9453 -0.7858
 8130SOL    HW236027   4.249   2.255   5.134 -2.4414  1.6668  0.6656
 8131SOL     OW36028   0.936   3.214   1.754 -0.0585 -0.0189  0.5964
 8131SOL    HW136029   0.901   3.239   1.839 -0.6829  0.5844  0.1661
 8131SOL    HW236030   0.913   3.280   1.688 -1.4810 -2.2196 -1.1153
 8132SOL     OW36031   0.353   4.268   8.992  0.0406  0.0619 -0.5640
 8132SOL    HW136032   0.326   4.181   8.962 -1.6343 -0.6671  2.9536
 8132SOL    HW236033   0.298   4.319   8.933 -1.4524 -1.5896 -0.6123
 8133SOL     OW36034   1.444   3.791   5.323 -0.2395  0.2079 -0.2626
 8133SOL    HW136035   1.362   3.774   5.276  0.3381 -1.1271 -0.7969
 8133SOL    HW236036   1.513   3.759   5.264 -1.5500  0.4808 -1.9333
 8134SOL     OW36037   2.166   1.386   7.514  0.3074  0.4481 -0.1362
 8134SOL    HW136038   2.162   1.382   7.419  0.2229  1.2634 -0.1700
 8134SOL    HW236039   2.226   1.461   7.520  3.9844 -2.3265 -2.2480
 8135SOL     OW36040   2.456   0.726  15.182  0.1697  0.0336  0.3900
 8135SOL    HW136041   2.496   0.651  15.227 -3.7207 -3.5803 -2.2428
 8135SOL    HW236042   2.383   0.696  15.128  2.8939 -2.8287 -1.6731
 8136SOL     OW36043   1.019   4.578   7.516 -0.7054  0.6007 -0.2415
 8136SOL    HW136044   0.946   4.637   7.535 -0.9733 -0.9923  3.5788
 8136SOL    HW236045   0.976   4.505   7.471  0.5316 -0.5535  0.4416
 8137SOL     OW36046   1.493   1.501   2.181  0.3942 -0.3801 -0.6585
 8137SOL    HW136047   1.460   1.429   2.128  1.0310 -0.4685 -0.9305
 8137SOL    HW236048   1.551   1.538   2.115 -0.2462 -1.9497 -2.1008
 8138SOL     OW36049   4.051   2.113  17.497 -0.1557 -0.0878 -0.5328
 8138SOL    HW136050   4.026   2.029  17.535 -0.4834 -1.1768 -3.1480
 8138SOL    HW236051   4.120   2.088  17.435  0.9362  1.5554  0.0362
 8139SOL     OW36052   3.965   3.009   0.661  0.2217  0.5598 -0.3913
 8139SOL    HW136053   3.872   3.023   0.680  0.4559  1.0744  0.4265
 8139SOL    HW236054   3.993   3.100   0.671 -3.0516  1.7074 -1.6060
 8140SOL     OW36055   2.186   4.464   7.302 -0.2765 -0.2120  0.4665
 8140SOL    HW136056   2.095   4.434   7.299 -0.0027 -1.1099  0.9828
 8140SOL    HW236057   2.214   4.449   7.392 -1.7961 -3.0482  0.4767
 8141SOL     OW36058   1.022   0.772   6.896  0.2469 -0.2522 -0.1656
 8141SOL    HW136059   1.097   0.795   6.841  0.6682  1.5616  1.1712
 8141SOL    HW236060   0.947   0.776   6.836  0.0771 -2.2391 -0.0949
 8142SOL     OW36061   3.414   1.176   9.213 -0.8577 -0.0034 -0.4845
 8142SOL    HW136062   3.345   1.239   9.236  0.5487  0.9428  1.1266
 8142SOL    HW236063   3.496   1.224   9.224 -0.0118 -1.4796 -0.4110
 8143SOL     OW36064   3.011   4.381  11.628  0.3579  0.5258 -0.2058
 8143SOL    HW136065   2.927   4.348  11.660 -1.3223  3.3632 -1.6608
 8143SOL    HW236066   3.001   4.354  11.536 -3.2954  1.8312 -0.1966
 8144SOL     OW36067   2.674   1.043   1.625  0.6940  0.4626 -0.3896
 8144SOL    HW136068   2.594   0.992   1.612  1.9300 -1.7832  0.6998
 8144SOL    HW236069   2.695   1.048   1.532 -1.0395 -1.6351 -0.9018
 8145SOL     OW36070   3.541   4.332   2.054  0.0847  0.1207 -0.3439
 8145SOL    HW136071   3.631   4.302   2.063 -0.7490 -1.9561  1.1512
 8145SOL    HW236072   3.514   4.324   1.962 -0.8449  0.1202 -0.0780
 8146SOL     OW36073   3.037   3.987   8.612  0.2035 -0.7378 -0.5308
 8146SOL    HW136074   2.946   3.974   8.639  1.0484 -0.4322  2.5325
 8146SOL    HW236075   3.025   4.025   8.525  1.1697  0.8838  0.0511
 8147SOL     OW36076   1.370   0.774   1.421 -0.1485 -0.1553  0.0681
 8147SOL    HW136077   1.398   0.852   1.373 -1.5219  2.1252  2.9609
 8147SOL    HW236078   1.435   0.710   1.393 -0.1816  0.6853 -1.9867
 8148SOL     OW36079   3.149   1.547   7.234 -0.6146  0.0841 -0.3287
 8148SOL    HW136080   3.173   1.553   7.141  0.7582  0.3577  0.0495
 8148SOL    HW236081   3.238   1.532   7.264 -0.8630 -1.1441 -0.1926
 8149SOL     OW36082   3.603   3.549  11.542  0.1437 -0.4021 -0.1170
 8149SOL    HW136083   3.518   3.556  11.498 -1.2173 -1.8516  2.2571
 8149SOL    HW236084   3.650   3.619  11.496 -0.4433 -1.4079 -2.2534
 8150SOL     OW36085   3.704   4.164   2.766  0.3513 -0.4285 -0.0131
 8150SOL    HW136086   3.623   4.211   2.788 -1.5944 -3.6254 -0.3010
 8150SOL    HW236087   3.700   4.152   2.671 -0.5136  2.5880 -0.3484
 8151SOL     OW36088   2.240   0.428  14.233 -0.2246 -0.0521 -0.3050
 8151SOL    HW136089   2.276   0.393  14.152 -2.5290  2.1081 -2.2256
 8151SOL    HW236090   2.211   0.348  14.276 -0.3529 -0.4761 -1.2026
 8152SOL     OW36091   1.954   2.272   8.392 -0.2025 -0.4229 -0.0575
 8152SOL    HW136092   1.963   2.359   8.354 -0.0800 -0.9652 -1.2872
 8152SOL    HW236093   1.958   2.210   8.319  0.7229  0.2120 -0.5449
 8153SOL     OW36094   3.502   0.167   5.194 -0.5052 -0.4500  0.1822
 8153SOL    HW136095   3.546   0.209   5.120  1.8513 -3.5826 -0.1879
 8153SOL    HW236096   3.576   0.124   5.236 -0.0186 -0.2761 -0.5011
 8154SOL     OW36097   4.012   1.490   8.289 -0.1751 -0.2112  0.3702
 8154SOL    HW136098   3.948   1.527   8.228 -1.2464  0.4157  1.8926
 8154SOL    HW236099   3.963   1.483   8.370  2.0221 -0.2945  1.6788
 8155SOL     OW36100   2.798   0.983  10.503  0.5589  0.3119 -1.1222
 8155SOL    HW136101   2.841   0.947  10.581 -1.6833 -0.7729 -0.3829
 8155SOL    HW236102   2.862   1.046  10.468  1.2129  1.2688  1.7876
 8156SOL     OW36103   3.554   2.464   3.281 -0.0881  0.2839  0.8561
 8156SOL    HW136104   3.477   2.414   3.251 -0.2134  0.3407  1.0788
 8156SOL    HW236105   3.620   2.400   3.254 -0.1969 -0.2600  1.8477
 8157SOL     OW36106   1.156   0.231  12.142  0.0048  0.5855 -1.0580
 8157SOL    HW136107   1.105   0.157  12.108  0.1657 -0.3524  0.7352
 8157SOL    HW236108   1.185   0.201  12.228  3.0630  0.1623 -2.2456
 8158SOL     OW36109   2.969   3.389  12.120  0.8485 -0.4386 -0.5941
 8158SOL    HW136110   2.881   3.368  12.151  0.8190 -0.8903 -0.9813
 8158SOL    HW236111   3.003   3.301  12.105  2.2123  0.5528 -3.3336
 8159SOL     OW36112   2.583   4.629  13.965 -0.5922 -1.3322  0.0266
 8159SOL    HW136113   2.657   4.606  13.909  1.1436 -0.3486  1.9305
 8159SOL    HW236114   2.534   4.696  13.918 -0.0690 -0.1026  1.2557
 8160SOL     OW36115   3.422   3.509  10.112 -0.0263  0.2238  0.2354
 8160SOL    HW136116   3.393   3.458  10.036 -0.3982 -0.0888  0.5914
 8160SOL    HW236117   3.367   3.481  10.184  1.6221 -1.8676  0.6826
 8161SOL     OW36118   3.742   4.441   2.853 -0.1652  0.6559 -0.0807
 8161SOL    HW136119   3.742   4.379   2.926 -1.6918  1.4270  0.5667
 8161SOL    HW236120   3.716   4.392   2.775  2.2099  0.0777 -0.4877
 8162SOL     OW36121   0.138   4.349   0.109  0.4097 -0.2804  0.5248
 8162SOL    HW136122   0.206   4.394   0.059 -1.9386 -0.1772 -2.5516
 8162SOL    HW236123   0.183   4.277   0.155  1.8336 -0.8984 -1.8398
 8163SOL     OW36124   2.841   4.650  17.009  0.4003 -0.1985 -0.6462
 8163SOL    HW136125   2.907   4.660  17.077  1.1412  1.8278 -1.6499
 8163SOL    HW236126   2.839   0.008  16.987 -1.3402  0.6578  3.1549
 8164SOL     OW36127   0.551   4.214   1.864 -0.6142 -0.0260 -0.5385
 8164SOL    HW136128   0.508   4.162   1.795  0.8647 -2.5841  0.4606
 8164SOL    HW236129   0.527   4.163   1.942 -0.5311  1.6844  0.5888
 8165SOL     OW36130   2.548   3.268   1.575 -0.2149 -0.5940 -0.5397
 8165SOL    HW136131   2.598   3.333   1.624 -0.9446 -1.0323  0.7775
 8165SOL    HW236132   2.613   3.203   1.548  2.4120  1.2236  1.4234
 8166SOL     OW36133   3.602   3.983   6.932 -0.2256 -0.1103 -0.3813
 8166SOL    HW136134   3.543   4.004   7.004  0.5515 -0.9978  0.5158
 8166SOL    HW236135   3.642   4.068   6.917  0.2887  0.0117  1.7021
 8167SOL     OW36136   1.339   3.577   0.728  0.7300  0.1483 -0.3768
 8167SOL    HW136137   1.277   3.634   0.681  2.0738 -0.0077 -2.3423
 8167SOL    HW236138   1.277   3.504   0.727  0.2686  0.5853 -4.2892
 8168SOL     OW36139   1.152   3.855   1.839 -0.0273 -0.2477  0.0171
 8168SOL    HW136140   1.231   3.890   1.880 -2.1566 -1.0026  4.7290
 8168SOL    HW236141   1.148   3.767   1.878  1.4927  0.4440  1.7167
 8169SOL     OW36142   2.909   2.805  15.527 -0.4272 -0.4831  0.5162
 8169SOL    HW136143   2.952   2.841  15.605  4.0153 -0.0590 -2.1764
 8169SOL    HW236144   2.979   2.770  15.473 -0.4544  0.0642  0.1354
 8170SOL     OW36145   0.048   0.700   7.097  0.1687 -0.3198 -0.0392
 8170SOL    HW136146   0.040   0.717   7.191  0.4042  0.2799 -0.1282
 8170SOL    HW236147   0.130   0.651   7.087 -0.8302 -1.7569 -1.3552
 8171SOL     OW36148   3.118   3.432   7.391 -0.3568  0.4074 -0.3470
 8171SOL    HW136149   3.126   3.444   7.486 -0.6315 -1.5814 -0.0653
 8171SOL    HW236150   3.031   3.470   7.377  0.0213  1.5318  0.3634
 8172SOL     OW36151   3.341   2.407   1.695  0.4155  0.1850 -0.0792
 8172SOL    HW136152   3.420   2.409   1.640 -0.3178  1.0602 -1.1105
 8172SOL    HW236153   3.288   2.471   1.648  0.8864  1.3312  0.9471
 8173SOL     OW36154   0.781   3.979   2.027 -0.2491 -0.3724  0.6663
 8173SOL    HW136155   0.689   3.972   2.004 -0.3066  0.3423  0.7033
 8173SOL    HW236156   0.800   3.912   2.094  1.1099 -1.2181 -0.5535
 8174SOL     OW36157   2.529   0.440   3.605  0.3449 -0.0916 -0.5613
 8174SOL    HW136158   2.505   0.378   3.674  0.9548 -0.4583 -0.6837
 8174SOL    HW236159   2.622   0.440   3.626 -0.4031 -1.7915  2.7542
 8175SOL     OW36160   1.396   2.406  13.555  0.2345 -0.3472 -0.4968
 8175SOL    HW136161   1.491   2.409  13.565  0.1246  1.8977 -0.0425
 8175SOL    HW236162   1.370   2.357  13.633  0.4283  0.0527 -0.1781
 8176SOL     OW36163   2.397   2.559   8.634 -0.0540  0.3246  0.6819
 8176SOL    HW136164   2.315   2.586   8.593  1.3480  0.4658 -1.9828
 8176SOL    HW236165   2.383   2.511   8.715 -0.5574 -1.3198 -0.3977
 8177SOL     OW36166   0.148   4.513   1.772  0.1831  0.2140 -0.1631
 8177SOL    HW136167   0.070   4.459   1.764 -1.0706  2.0029 -0.2147
 8177SOL    HW236168   0.188   4.495   1.687  0.2917  1.7689 -0.4468
 8178SOL     OW36169   0.526   0.399   5.653  0.1505 -0.2810 -0.3180
 8178SOL    HW136170   0.527   0.392   5.749  0.1055  3.3174 -0.0535
 8178SOL    HW236171   0.619   0.399   5.632  0.3633 -0.3141  0.6088
 8179SOL     OW36172   2.093   3.801   7.197  0.1256  0.5911  0.8105
 8179SOL    HW136173   2.104   3.850   7.116  1.2505 -0.4862  0.3064
 8179SOL    HW236174   1.998   3.804   7.206 -0.0742 -1.7108 -0.4041
 8180SOL     OW36175   4.371   2.495   3.746  0.1138  0.0452  0.0317
 8180SOL    HW136176   4.454   2.446   3.749 -0.3209 -0.7251 -0.5608
 8180SOL    HW236177   4.315   2.434   3.794 -0.7563  0.5694 -0.3283
 8181SOL     OW36178   1.571   4.513   3.146  0.1383  0.1509  0.2097
 8181SOL    HW136179   1.591   4.537   3.056 -1.0648 -0.9549 -0.3493
 8181SOL    HW236180   1.486   4.471   3.131  0.3494 -0.7680  1.5150
 8182SOL     OW36181   1.210   2.368   7.300 -0.2708 -0.1076  0.0487
 8182SOL    HW136182   1.258   2.444   7.333  0.4464 -0.7252  0.4373
 8182SOL    HW236183   1.130   2.406   7.265 -0.0977 -0.3482 -0.6162
 8183SOL     OW36184   0.725   1.496   4.915  0.4064 -0.4918  0.4706
 8183SOL    HW136185   0.754   1.563   4.976 -0.3596 -1.3725  1.8181
 8183SOL    HW236186   0.644   1.461   4.952  0.8249  1.0671  2.8491
 8184SOL     OW36187   0.780   3.697   2.998 -0.2901 -0.1610  0.2443
 8184SOL    HW136188   0.739   3.612   3.011 -0.0540 -0.5470 -1.5929
 8184SOL    HW236189   0.856   3.691   3.056 -1.6735  0.7941  2.1712
 8185SOL     OW36190   2.547   3.221   5.978  0.5706  0.4652 -0.0642
 8185SOL    HW136191   2.534   3.307   5.939 -0.1287  0.2448 -0.3132
 8185SOL    HW236192   2.489   3.235   6.053  1.9809  0.3766  1.0563
 8186SOL     OW36193   2.647   2.475   9.237 -0.1061  0.3289  0.0402
 8186SOL    HW136194   2.555   2.466   9.213 -0.5138 -1.5310  2.2782
 8186SOL    HW236195   2.643   2.467   9.332  0.5740  1.6781  0.1821
 8187SOL     OW36196   4.141   3.526   4.704  0.2146 -0.4794  0.0703
 8187SOL    HW136197   4.125   3.598   4.765 -1.6939 -1.3906  0.6389
 8187SOL    HW236198   4.210   3.479   4.750  0.4256 -2.0980 -1.9148
 8188SOL     OW36199   4.607   4.733  11.486 -0.4771  0.4585  0.1013
 8188SOL    HW136200   4.652   4.719  11.569  0.9252 -0.0705 -0.7396
 8188SOL    HW236201   4.672   0.018  11.418 -3.7897  1.4464 -2.7373
 8189SOL     OW36202   1.480   4.587   2.379  0.2372  0.4816  0.0252
 8189SOL    HW136203   1.571   4.600   2.406  1.0301  2.0031 -3.3350
 8189SOL    HW236204   1.438   4.591   2.465  1.1997  2.2718  0.4162
 8190SOL     OW36205   2.129   4.553   4.257  0.3758  0.0423  0.5948
 8190SOL    HW136206   2.160   4.582   4.342  3.0183  0.5382 -0.5542
 8190SOL    HW236207   2.037   4.535   4.279  0.2347 -0.0938 -0.1024
 8191SOL     OW36208   4.604   2.274   5.369 -0.4501  0.3311 -0.1256
 8191SOL    HW136209   4.640   2.208   5.428  0.5390  1.4002  0.4742
 8191SOL    HW236210   4.676   2.337   5.380  0.5146 -0.6306 -0.8742
 8192SOL     OW36211   4.691   1.952   0.841 -0.2450 -0.0634 -0.2616
 8192SOL    HW136212   4.602   1.983   0.823  1.0806  3.3810 -0.9423
 8192SOL    HW236213   4.735   2.032   0.809  1.7680 -1.7065 -1.5806
 8193SOL     OW36214   3.977   0.045  13.969  0.9673  0.1335 -0.3330
 8193SOL    HW136215   4.067   0.049  14.002  0.8411  3.3780 -0.3955
 8193SOL    HW236216   3.960   0.138  13.957 -0.2764 -0.1565 -0.7437
 8194SOL     OW36217   0.530   4.692   8.822  0.3383 -0.2999  0.2684
 8194SOL    HW136218   0.602   0.012   8.791  1.5663 -0.9694  1.9478
 8194SOL    HW236219   0.520   4.638   8.744  4.3831 -1.2086  0.3920
 8195SOL     OW36220   1.277   4.491  16.044  0.4707 -0.3331  0.2424
 8195SOL    HW136221   1.280   4.438  16.123 -3.7632  0.0240  0.6381
 8195SOL    HW236222   1.233   4.424  15.991  1.2088  0.2018 -1.0604
 8196SOL     OW36223   0.144   1.029  12.331 -0.1885 -0.0322  0.1041
 8196SOL    HW136224   0.183   1.117  12.329 -1.8042  0.6744  0.3450
 8196SOL    HW236225   0.177   0.993  12.249 -0.9533 -0.9777  0.2202
 8197SOL     OW36226   0.464   2.524   8.008  0.0570 -0.0513 -0.4085
 8197SOL    HW136227   0.543   2.530   7.954 -0.4932 -0.7376 -1.2869
 8197SOL    HW236228   0.468   2.437   8.048  0.2168  0.0988 -0.0948
 8198SOL     OW36229   0.549   4.591   9.083  0.1534 -0.1900 -0.5160
 8198SOL    HW136230   0.505   4.666   9.122 -1.0095 -1.7884  1.2256
 8198SOL    HW236231   0.510   4.601   8.996  0.4029 -2.0649 -0.8446
 8199SOL     OW36232   0.389   1.835  11.695 -0.4778  0.3610  0.7488
 8199SOL    HW136233   0.427   1.910  11.648 -0.2078  1.3927  2.6115
 8199SOL    HW236234   0.310   1.831  11.641 -0.2911 -0.8782  0.5780
 8200SOL     OW36235   3.803   0.853   2.994 -0.2747  0.0750 -0.6034
 8200SOL    HW136236   3.774   0.897   2.914 -1.0047 -0.5563 -0.6867
 8200SOL    HW236237   3.876   0.906   3.026 -0.4964 -0.7310  1.2149
 8201SOL     OW36238   1.770   3.541  14.723 -0.2627 -0.8450 -0.5345
 8201SOL    HW136239   1.756   3.625  14.766 -0.8737 -0.4999 -1.3979
 8201SOL    HW236240   1.795   3.488  14.799  0.9568  0.6073  0.0772
 8202SOL     OW36241   3.921   3.240  13.034  0.0867 -0.6350 -0.3297
 8202SOL    HW136242   3.902   3.147  13.050 -0.7613 -0.2263  1.0967
 8202SOL    HW236243   4.009   3.232  12.997 -0.5186 -2.5416 -1.3623
 8203SOL     OW36244   3.130   2.205   1.863 -0.4089 -0.2820  0.4420
 8203SOL    HW136245   3.078   2.133   1.899  1.0248 -1.0737  0.9513
 8203SOL    HW236246   3.120   2.208   1.768  2.0699  4.1592  0.3028
 8204SOL     OW36247   3.749   0.985   1.217  0.4094 -0.1143 -0.2427
 8204SOL    HW136248   3.697   0.907   1.236  1.4347 -0.7015  0.1734
 8204SOL    HW236249   3.694   1.048   1.171 -0.6845 -0.5373  0.4752
 8205SOL     OW36250   4.692   4.243   2.029 -0.0006 -0.3746 -0.2220
 8205SOL    HW136251   4.690   4.330   2.068 -1.0907 -0.2637 -0.5524
 8205SOL    HW236252   4.602   4.213   2.027  0.5200 -1.7833 -2.1557
 8206SOL     OW36253   2.556   4.076   8.021 -0.1952  0.1578  0.0262
 8206SOL    HW136254   2.542   4.133   7.945  1.1028 -1.0149 -1.0917
 8206SOL    HW236255   2.493   4.005   8.007  0.0728  0.5796 -3.2189
 8207SOL     OW36256   0.841   2.620   7.586 -0.7993  0.1180  0.7641
 8207SOL    HW136257   0.900   2.644   7.658  2.9926 -1.5760 -1.7291
 8207SOL    HW236258   0.886   2.540   7.557  1.9159  0.7006  3.3391
 8208SOL     OW36259   0.838   0.000  11.474 -0.0509  0.4952  0.5756
 8208SOL    HW136260   0.749   4.702  11.489  0.5565 -1.1553  0.5441
 8208SOL    HW236261   0.831   4.727  11.379  2.0833 -2.4102  0.6531
 8209SOL     OW36262   4.609   0.920   5.685  0.5436 -0.6066 -0.0006
 8209SOL    HW136263   4.526   0.939   5.728  1.7747  1.3880  1.5420
 8209SOL    HW236264   4.667   0.883   5.752 -1.4407 -0.8427  1.5729
 8210SOL     OW36265   3.363   1.574   4.465 -0.1122 -0.0768  0.4264
 8210SOL    HW136266   3.287   1.584   4.408  0.6592  1.2786 -0.3783
 8210SOL    HW236267   3.341   1.499   4.521 -1.8424  0.4980  0.5192
 8211SOL     OW36268   1.715   0.580   8.302 -0.1656 -0.8514  0.1177
 8211SOL    HW136269   1.725   0.492   8.338 -3.5682 -1.4914 -0.4993
 8211SOL    HW236270   1.781   0.630   8.350  0.0275 -1.6955  0.7197
 8212SOL     OW36271   0.029   2.227   0.807  0.3978  0.2426 -0.0259
 8212SOL    HW136272   4.734   2.292   0.743 -0.4834 -1.1759 -1.0478
 8212SOL    HW236273   0.038   2.281   0.886 -1.9540 -0.6464  0.8491
 8213SOL     OW36274   0.407   4.263   4.611 -0.1308 -0.4115 -0.0282
 8213SOL    HW136275   0.420   4.299   4.523 -1.5174  2.1326  0.7852
 8213SOL    HW236276   0.336   4.200   4.601 -1.7992  1.8242 -2.5010
 8214SOL     OW36277   3.859   4.362   3.671 -0.2072 -0.2691  0.7105
 8214SOL    HW136278   3.897   4.403   3.593  1.3656  0.2726  1.7825
 8214SOL    HW236279   3.880   4.422   3.742  1.4018 -1.7161  1.4681
 8215SOL     OW36280   1.825   2.760   7.589 -0.1814 -0.0099 -0.0877
 8215SOL    HW136281   1.756   2.758   7.656 -0.5785 -1.3359 -0.5290
 8215SOL    HW236282   1.843   2.671   7.559  2.6057 -0.2145  2.2306
 8216SOL     OW36283   2.246   2.057   4.935  0.5214  0.2207  0.3545
 8216SOL    HW136284   2.160   2.059   4.977  0.2243 -1.2578 -0.1972
 8216SOL    HW236285   2.295   2.060   5.017  1.0936 -1.5722  0.0700
 8217SOL     OW36286   2.387   1.489   2.771  0.5903 -0.3332  0.0340
 8217SOL    HW136287   2.420   1.399   2.772 -1.1870 -0.9980  0.1545
 8217SOL    HW236288   2.307   1.473   2.720 -0.3451 -0.6942  1.5907
 8218SOL     OW36289   4.245   0.481   9.343 -0.0191  0.2638 -0.0374
 8218SOL    HW136290   4.218   0.548   9.280 -1.7252 -1.2759 -0.9502
 8218SOL    HW236291   4.340   0.478   9.330  0.1835 -0.8270  1.6782
 8219SOL     OW36292   0.649   3.338   5.967  0.4139  0.0604 -0.8230
 8219SOL    HW136293   0.692   3.368   6.048 -0.9612 -1.7619  0.5985
 8219SOL    HW236294   0.646   3.427   5.933  0.7297  0.2881 -0.2703
 8220SOL     OW36295   3.493   3.916   6.268 -0.9426 -0.1058 -0.1209
 8220SOL    HW136296   3.577   3.872   6.251 -0.6801  0.5110 -0.4078
 8220SOL    HW236297   3.474   3.895   6.359  0.6340 -2.5425 -0.3418
 8221SOL     OW36298   2.931   4.285   2.737  0.0151 -0.3734 -0.6284
 8221SOL    HW136299   3.023   4.290   2.711 -0.4434  0.1175 -2.1431
 8221SOL    HW236300   2.932   4.310   2.829  0.5320 -2.0294 -0.1879
 8222SOL     OW36301   2.022   3.918  11.992 -0.6576  0.3000 -0.0555
 8222SOL    HW136302   2.090   3.963  12.042 -0.1346 -1.1093  0.4831
 8222SOL    HW236303   1.987   4.000  11.956  0.9227  1.6263  1.4459
 8223SOL     OW36304   3.644   1.835   2.850 -0.0015 -0.2342 -0.4690
 8223SOL    HW136305   3.693   1.798   2.777  0.1022 -2.2385  0.5971
 8223SOL    HW236306   3.564   1.866   2.808  0.7357  0.8303 -1.0719
 8224SOL     OW36307   0.277   2.035   3.567  0.3468  0.3207 -0.1436
 8224SOL    HW136308   0.358   2.084   3.548  0.7055  0.3034  1.3031
 8224SOL    HW236309   0.205   2.093   3.543 -0.8226 -0.6910  0.9418
 8225SOL     OW36310   3.904   4.724   2.824  0.2077 -0.1791 -0.8793
 8225SOL    HW136311   3.846   4.655   2.790 -1.8734  0.2830  1.6692
 8225SOL    HW236312   3.984   4.674   2.838 -0.0439 -0.8255 -1.6879
 8226SOL     OW36313   4.228   3.059  17.702 -0.0481  0.1620  0.4442
 8226SOL    HW136314   4.308   3.079  17.655  1.1413 -1.7274  1.6693
 8226SOL    HW236315   4.157   3.069  17.638 -0.6363 -0.4428  0.9983
 8227SOL     OW36316   1.485   1.100  10.858  0.1125  0.7999 -0.1987
 8227SOL    HW136317   1.515   1.184  10.893 -0.2157 -0.9664  4.3293
 8227SOL    HW236318   1.571   1.059  10.848 -0.6341 -0.5828 -1.0577
 8228SOL     OW36319   0.392   2.526   2.621 -0.0533  0.0616 -1.0102
 8228SOL    HW136320   0.416   2.617   2.635  0.5038  0.0309 -1.7413
 8228SOL    HW236321   0.455   2.491   2.556  2.2788 -1.5336  2.1154
 8229SOL     OW36322   2.308   1.744   2.619 -0.4912  0.4328 -0.0895
 8229SOL    HW136323   2.252   1.753   2.542 -0.7885 -1.1435 -0.0404
 8229SOL    HW236324   2.241   1.749   2.686  1.2138  0.7925  1.5853
 8230SOL     OW36325   4.720   4.407  13.422 -0.2540  0.7138  0.1574
 8230SOL    HW136326   0.010   4.315  13.423 -0.5986  0.6171 -0.5334
 8230SOL    HW236327   0.076   4.437  13.421  0.5689 -1.7844  1.7392
 8231SOL     OW36328   2.690   0.680   6.246 -0.3402 -0.0787 -0.0302
 8231SOL    HW136329   2.658   0.755   6.296 -1.0258  0.6724 -1.5941
 8231SOL    HW236330   2.609   0.634   6.221  1.1535 -1.6017 -2.0860
 8232SOL     OW36331   3.808   4.431   4.544  0.2748  0.1255  0.4219
 8232SOL    HW136332   3.856   4.494   4.489 -0.1308  1.0084  1.0926
 8232SOL    HW236333   3.747   4.395   4.480  3.6772  0.1700 -2.8350
 8233SOL     OW36334   3.997   4.268   9.644  0.2569  0.4772 -0.3244
 8233SOL    HW136335   3.997   4.176   9.619  0.7793  0.3156  0.2838
 8233SOL    HW236336   3.921   4.267   9.703  0.4265  1.3173 -0.0954
 8234SOL     OW36337   1.062   1.607   5.049  0.6038  0.3044 -0.1314
 8234SOL    HW136338   1.136   1.549   5.031  1.4074  1.7606 -1.6177
 8234SOL    HW236339   1.016   1.564   5.120 -0.3334 -2.4527 -2.4004
 8235SOL     OW36340   1.517   2.576   8.161  0.4065  0.2316  0.8698
 8235SOL    HW136341   1.485   2.495   8.121  1.1443 -0.0148  0.7816
 8235SOL    HW236342   1.568   2.537   8.231 -0.3328  0.3567  1.4730
 8236SOL     OW36343   2.111   3.489  12.197  0.6819  0.5849 -0.1055
 8236SOL    HW136344   2.093   3.395  12.185 -0.6856  0.8788 -0.4018
 8236SOL    HW236345   2.035   3.529  12.155  0.7150 -0.0830 -0.8039
 8237SOL     OW36346   0.600   0.890   2.610  0.0938 -0.1692 -0.0243
 8237SOL    HW136347   0.605   0.883   2.705 -0.7528  2.2590  0.1911
 8237SOL    HW236348   0.522   0.840   2.585 -0.0131  0.8576 -1.7478
 8238SOL     OW36349   0.852   3.396   7.949  0.6986 -0.0473 -0.4831
 8238SOL    HW136350   0.941   3.424   7.971  0.0790 -0.9997  3.2440
 8238SOL    HW236351   0.859   3.402   7.854  1.2724  0.8890 -0.3895
 8239SOL     OW36352   4.450   0.187   8.439  0.0615  0.5299 -0.2825
 8239SOL    HW136353   4.536   0.228   8.446  1.0003 -1.6500  0.6953
 8239SOL    HW236354   4.408   0.254   8.385  0.8290  0.3323 -1.1243
 8240SOL     OW36355   3.116   0.766  16.331  0.3305  0.2313 -0.0844
 8240SOL    HW136356   3.117   0.823  16.408  1.0900 -0.2758  0.2907
 8240SOL    HW236357   3.198   0.720  16.351  2.0332  2.5593 -1.8279
 8241SOL     OW36358   2.040   0.424   2.181  0.3867 -0.2912 -0.1672
 8241SOL    HW136359   1.962   0.408   2.234  0.9183  2.3523  1.3684
 8241SOL    HW236360   2.067   0.340   2.144  0.6253 -0.4019  0.2597
 8242SOL     OW36361   2.021   4.273   5.986 -0.2506  0.7038  0.4670
 8242SOL    HW136362   1.956   4.343   5.977 -1.5127 -0.4546  0.4974
 8242SOL    HW236363   2.099   4.328   5.991 -0.6706  1.1214  2.5051
 8243SOL     OW36364   0.682   3.376  10.245  0.4859  0.2081 -0.0800
 8243SOL    HW136365   0.595   3.378  10.286  1.7740 -1.7097  2.7829
 8243SOL    HW236366   0.694   3.466  10.216  1.0508  0.0677 -0.2901
 8244SOL     OW36367   1.641   1.581   1.984 -0.7051 -0.8642 -0.3701
 8244SOL    HW136368   1.635   1.510   1.921  2.1454 -0.7529 -0.7559
 8244SOL    HW236369   1.664   1.657   1.930  0.1134 -1.3165 -0.6421
 8245SOL     OW36370   3.121   1.147   5.948 -0.4786  0.3178  0.0409
 8245SOL    HW136371   3.152   1.205   6.017 -0.2393 -1.6982  1.6421
 8245SOL    HW236372   3.206   1.134   5.906  0.1417  1.8117  0.8232
 8246SOL     OW36373   0.180   3.710   9.141 -0.1542 -0.2575  0.2314
 8246SOL    HW136374   0.131   3.792   9.136 -2.2408 -1.3959  1.7866
 8246SOL    HW236375   0.220   3.713   9.054  0.8276  1.7739  0.7510
 8247SOL     OW36376   4.101   1.569   1.309  0.5206  0.7335  0.0013
 8247SOL    HW136377   4.051   1.594   1.387  0.9207  0.5121  0.3291
 8247SOL    HW236378   4.189   1.552   1.343  0.7806  1.0890 -0.5027
 8248SOL     OW36379   2.330   2.851  16.833 -0.3886 -0.5473  0.0985
 8248SOL    HW136380   2.235   2.840  16.837 -0.2811 -0.8629  1.8382
 8248SOL    HW236381   2.335   2.915  16.763  1.0198  1.0516  1.6711
 8249SOL     OW36382   1.263   1.049   7.077  0.1539 -0.0136 -0.2277
 8249SOL    HW136383   1.170   1.042   7.055  0.6301 -0.4682 -2.0581
 8249SOL    HW236384   1.297   1.095   7.001  1.0329 -1.8120 -0.9187
 8250SOL     OW36385   1.407   1.006   4.138  0.1905 -0.1219  0.3319
 8250SOL    HW136386   1.415   1.083   4.194 -0.0103 -0.6685  1.1045
 8250SOL    HW236387   1.493   0.967   4.150  0.5406 -0.2934 -2.7076
 8251SOL     OW36388   2.630   4.596   7.164 -0.0589 -0.0247 -0.1644
 8251SOL    HW136389   2.725   4.601   7.166  0.0691 -2.1203 -0.9926
 8251SOL    HW236390   2.606   4.664   7.101  1.1065  0.9679  0.4819
 8252SOL     OW36391   1.665   2.290   9.601  0.2569  0.4111  0.2817
 8252SOL    HW136392   1.680   2.347   9.677  0.9353 -0.4333  0.7757
 8252SOL    HW236393   1.600   2.343   9.555 -1.6415  0.6724  3.2578
 8253SOL     OW36394   1.301   1.849   5.669  0.3108 -0.6577 -0.7312
 8253SOL    HW136395   1.378   1.795   5.653  0.5188 -0.5446 -0.1402
 8253SOL    HW236396   1.325   1.860   5.761 -0.3497  0.7350 -0.7194
 8254SOL     OW36397   2.785   2.579   4.818  0.6109 -0.0080 -0.3524
 8254SOL    HW136398   2.816   2.652   4.766  0.7456 -0.9076 -1.5457
 8254SOL    HW236399   2.703   2.620   4.847  1.4111  0.2744  1.4959
 8255SOL     OW36400   1.275   2.641   2.750  0.4059 -0.0361 -0.3652
 8255SOL    HW136401   1.359   2.678   2.723  0.9801 -1.1820 -0.1129
 8255SOL    HW236402   1.227   2.622   2.669 -0.9465 -0.9882  0.6559
 8256SOL     OW36403   3.778   3.725   4.709  0.6931  0.3009  0.2246
 8256SOL    HW136404   3.794   3.643   4.661 -3.7353 -0.2303 -0.3646
 8256SOL    HW236405   3.740   3.777   4.639  0.7566  1.4561  1.0502
 8257SOL     OW36406   0.795   0.663   8.258  0.4347  0.6639  0.5147
 8257SOL    HW136407   0.726   0.681   8.321 -0.3499  0.5301 -0.3176
 8257SOL    HW236408   0.873   0.700   8.300  1.3304 -1.3198  0.6146
 8258SOL     OW36409   1.790   1.031   5.203  0.1004  0.3321  0.0313
 8258SOL    HW136410   1.736   1.058   5.129 -1.2904  0.8376  1.2426
 8258SOL    HW236411   1.733   0.976   5.257  2.0513 -0.4909  1.2578
 8259SOL     OW36412   2.071   2.390  13.017 -0.9217  0.9484  0.0254
 8259SOL    HW136413   2.104   2.316  13.068  0.7775  1.1902 -0.7201
 8259SOL    HW236414   2.072   2.355  12.927 -0.1407 -1.1135  0.8319
 8260SOL     OW36415   3.733   1.755   6.075  0.2482 -0.6276  0.1819
 8260SOL    HW136416   3.752   1.745   6.168  1.0816 -0.8381 -0.0093
 8260SOL    HW236417   3.664   1.821   6.076  2.0874  1.3063 -0.0123
 8261SOL     OW36418   0.968   4.034   3.105  0.2895 -0.0168 -0.8814
 8261SOL    HW136419   1.029   3.962   3.092 -0.0588 -0.0756 -2.1006
 8261SOL    HW236420   0.935   4.013   3.193  0.7708  2.4106 -0.1215
 8262SOL     OW36421   2.011   3.843  17.366  0.6188  0.5468  0.1403
 8262SOL    HW136422   2.097   3.804  17.381  0.9764  1.5405  0.7151
 8262SOL    HW236423   2.033   3.932  17.338  0.1024  0.5409 -0.2741
 8263SOL     OW36424   3.929   4.345   9.367 -0.7415 -0.6908  0.0765
 8263SOL    HW136425   4.021   4.355   9.345 -1.3492  0.8812 -1.7637
 8263SOL    HW236426   3.927   4.348   9.463  0.0163 -2.7415  0.1594
 8264SOL     OW36427   3.814   3.365   3.604 -0.2187 -0.2088  0.2241
 8264SOL    HW136428   3.779   3.417   3.676  1.6956 -0.3391  1.2495
 8264SOL    HW236429   3.757   3.288   3.598 -1.6275  0.9146 -0.7050
 8265SOL     OW36430   2.577   2.672   2.019  0.5401 -0.5984  0.1142
 8265SOL    HW136431   2.670   2.659   2.002  0.8511 -0.5481  1.7527
 8265SOL    HW236432   2.573   2.767   2.034 -1.0623 -0.9210  1.6849
 8266SOL     OW36433   3.970   3.228   4.145 -0.2357  0.2385  0.4176
 8266SOL    HW136434   4.024   3.188   4.076  0.3896  1.8455 -0.0210
 8266SOL    HW236435   3.888   3.247   4.100 -0.1000  2.1859  0.9925
 8267SOL     OW36436   3.500   1.286   1.821  0.5545  0.7354 -0.2601
 8267SOL    HW136437   3.523   1.364   1.770 -2.3856  1.2508 -0.8453
 8267SOL    HW236438   3.567   1.292   1.888  2.0553  1.4305 -1.8222
 8268SOL     OW36439   0.480   2.808   7.312 -0.7720  0.3947 -0.6500
 8268SOL    HW136440   0.545   2.745   7.345 -1.7652 -0.3935 -0.1995
 8268SOL    HW236441   0.492   2.874   7.379  0.1544  0.0534 -0.4725
 8269SOL     OW36442   2.531   4.556   8.953 -0.6730  0.2155  0.0910
 8269SOL    HW136443   2.464   4.623   8.971 -1.5111 -0.9391  1.2497
 8269SOL    HW236444   2.527   4.549   8.858 -0.0785 -0.4009  0.1192
 8270SOL     OW36445   1.026   1.641   1.911 -0.0005 -0.4126 -0.1965
 8270SOL    HW136446   1.080   1.579   1.960 -2.2638 -0.9593  1.5943
 8270SOL    HW236447   0.938   1.646   1.947  0.4401  1.7625  0.5774
 8271SOL     OW36448   3.896   0.361   6.581 -0.8348 -0.2317  0.6593
 8271SOL    HW136449   3.879   0.446   6.541  0.4279 -1.0700 -1.6512
 8271SOL    HW236450   3.811   0.330   6.613 -1.4268 -0.5446 -1.2266
 8272SOL     OW36451   1.462   2.750  14.897 -0.6237  0.5735 -0.0595
 8272SOL    HW136452   1.491   2.779  14.810 -2.8034  0.1771 -0.9308
 8272SOL    HW236453   1.533   2.688  14.909  0.3156  2.1022  2.2542
 8273SOL     OW36454   0.658   3.672   8.867  0.1581 -0.1571 -0.3515
 8273SOL    HW136455   0.638   3.757   8.828 -1.4248 -0.7852 -0.8943
 8273SOL    HW236456   0.592   3.677   8.936 -1.5933  2.6986 -2.2584
 8274SOL     OW36457   2.105   2.449   0.315  0.0931  0.3711 -0.1921
 8274SOL    HW136458   2.099   2.448   0.410 -1.6041  0.0991 -0.3005
 8274SOL    HW236459   2.134   2.539   0.302  2.5416 -0.0688  2.2904
 8275SOL     OW36460   3.679   0.107  13.119 -0.6351  0.5186  0.0131
 8275SOL    HW136461   3.591   0.117  13.082 -0.0712 -2.6978 -2.1958
 8275SOL    HW236462   3.712   0.196  13.117  0.0139  0.3104  2.0510
 8276SOL     OW36463   0.520   0.236  14.169 -0.5461  0.3271  0.2158
 8276SOL    HW136464   0.610   0.222  14.197 -0.0248  1.6449 -0.8251
 8276SOL    HW236465   0.526   0.281  14.085 -0.5965 -2.8013 -1.4757
 8277SOL     OW36466   3.851   2.882   3.621  0.1841 -0.2437 -0.3726
 8277SOL    HW136467   3.802   2.816   3.671 -2.0307 -0.7482 -3.2540
 8277SOL    HW236468   3.780   2.940   3.596 -0.3187 -1.2425 -1.2349
 8278SOL     OW36469   3.069   3.992   0.769  0.3509 -0.5700 -0.5831
 8278SOL    HW136470   3.127   3.940   0.824 -1.0986 -3.2430 -1.6031
 8278SOL    HW236471   3.125   4.018   0.695 -2.3509  0.7838 -2.1527
 8279SOL     OW36472   0.249   2.144  14.750 -0.2461  0.4791  0.0449
 8279SOL    HW136473   0.295   2.176  14.673 -0.1775 -0.0381 -0.1268
 8279SOL    HW236474   0.243   2.223  14.805  1.4662 -0.0147  0.9294
 8280SOL     OW36475   0.734   0.126   8.079 -0.2298 -0.0374 -0.3491
 8280SOL    HW136476   0.687   0.097   8.157 -1.8100 -0.7817 -1.5778
 8280SOL    HW236477   0.670   0.095   8.015  1.5364 -1.0075 -1.6477
 8281SOL     OW36478   2.688   2.732  15.162 -0.0551  0.0611 -0.4910
 8281SOL    HW136479   2.628   2.806  15.147 -0.5422  0.0678  1.4670
 8281SOL    HW236480   2.766   2.755  15.112  0.4180  0.3394  0.3600
 8282SOL     OW36481   0.250   4.212  16.974  0.3991 -0.4314  0.1259
 8282SOL    HW136482   0.184   4.151  17.007 -1.2034  2.2897  1.9452
 8282SOL    HW236483   0.230   4.199  16.881 -0.3575  0.2077  0.1950
 8283SOL     OW36484   4.178   3.825   2.242 -0.1409  0.0512  0.0292
 8283SOL    HW136485   4.268   3.839   2.273 -0.5066  1.2203  0.5404
 8283SOL    HW236486   4.172   3.731   2.223  0.2926 -0.2149  1.1438
 8284SOL     OW36487   0.554   4.507   6.398  0.4771 -0.4191  0.4289
 8284SOL    HW136488   0.555   4.583   6.340 -0.9546 -1.2742 -0.7118
 8284SOL    HW236489   0.464   4.480   6.381  0.6470  0.0891 -1.2624
 8285SOL     OW36490   1.141   4.697   4.402 -0.6079 -0.2358  0.3743
 8285SOL    HW136491   1.175   0.049   4.423  0.0213  0.0949 -2.0771
 8285SOL    HW236492   1.189   4.641   4.464 -0.5172 -0.9653 -0.3539
 8286SOL     OW36493   3.103   0.435   2.704 -0.4693  0.2678  0.4898
 8286SOL    HW136494   3.011   0.436   2.676 -0.5401  2.6681  0.7666
 8286SOL    HW236495   3.094   0.352   2.751 -1.6145  0.2964  0.3175
 8287SOL     OW36496   1.172   2.901   8.690 -0.2699  0.2845 -0.2620
 8287SOL    HW136497   1.254   2.934   8.727  0.1566 -1.2429  0.1636
 8287SOL    HW236498   1.119   2.893   8.769  1.5618 -1.0830  0.8446
 8288SOL     OW36499   4.683   2.073   1.608  0.1492 -0.3278  0.1470
 8288SOL    HW136500   0.019   2.018   1.575 -0.5478 -1.4542  0.5419
 8288SOL    HW236501   4.645   2.107   1.526  0.0178  0.8187  0.6827
 8289SOL     OW36502   4.184   4.360   9.296  0.7007 -0.6844 -0.6006
 8289SOL    HW136503   4.235   4.286   9.329 -1.0676 -0.4005  2.6542
 8289SOL    HW236504   4.217   4.366   9.206 -1.3809  0.4378 -1.2804
 8290SOL     OW36505   2.571   3.105   4.428 -0.4015  0.0595 -0.5133
 8290SOL    HW136506   2.557   3.194   4.397  1.7098  0.4246 -0.4617
 8290SOL    HW236507   2.490   3.081   4.473 -0.8740  0.1909 -1.2985
 8291SOL     OW36508   1.731   3.823   5.416  0.5228  0.0557  0.0091
 8291SOL    HW136509   1.719   3.729   5.409 -1.1396  0.3655 -1.3405
 8291SOL    HW236510   1.671   3.849   5.487 -0.3307 -2.0054  0.0507
 8292SOL     OW36511   0.130   2.614   4.318 -0.8376 -0.0978 -0.2689
 8292SOL    HW136512   0.123   2.689   4.377 -0.2928  0.5252 -1.0019
 8292SOL    HW236513   0.069   2.553   4.360  1.6518 -2.3017  0.1528
 8293SOL     OW36514   1.343   2.358   2.816 -0.1305  0.3194 -0.6480
 8293SOL    HW136515   1.286   2.435   2.807  0.1442  0.5700 -0.2552
 8293SOL    HW236516   1.295   2.294   2.869  0.0816  0.0997 -0.7252
 8294SOL     OW36517   3.890   2.043  11.798  0.1162  0.1682 -0.7922
 8294SOL    HW136518   3.818   2.008  11.851 -0.4162  0.2817 -1.4440
 8294SOL    HW236519   3.848   2.053  11.712  2.6628  1.4836 -1.8722
 8295SOL     OW36520   3.463   3.225   6.602  0.1873 -0.2651 -0.1816
 8295SOL    HW136521   3.513   3.299   6.569 -0.2287 -0.2682 -0.8087
 8295SOL    HW236522   3.439   3.179   6.522 -1.9921 -0.1909  0.4104
 8296SOL     OW36523   0.768   3.721   5.408 -0.2786  0.2864 -0.3352
 8296SOL    HW136524   0.825   3.685   5.476 -0.5455  2.6611  1.1778
 8296SOL    HW236525   0.834   3.722   5.340  0.8310 -0.2894  0.7300
 8297SOL     OW36526   4.050   2.843   1.348  0.0891 -0.4764 -0.3555
 8297SOL    HW136527   4.088   2.777   1.406 -2.6242 -2.8860 -1.3176
 8297SOL    HW236528   4.106   2.827   1.272 -0.4901  1.5148 -1.2097
 8298SOL     OW36529   3.368   0.161   5.577 -0.5769 -0.4613  0.0737
 8298SOL    HW136530   3.432   0.092   5.564  0.1369  0.4561 -1.3006
 8298SOL    HW236531   3.411   0.235   5.534 -2.4179  1.0537  0.8169
 8299SOL     OW36532   1.172   3.052  11.039 -0.4097 -0.4094  0.0619
 8299SOL    HW136533   1.183   3.145  11.060  1.2355 -0.2022 -1.7588
 8299SOL    HW236534   1.116   3.056  10.962  0.2755 -2.3844 -0.5439
 8300SOL     OW36535   0.830   4.634   3.948  0.1179  0.1232 -0.0446
 8300SOL    HW136536   0.899   4.579   3.984  0.7906  0.7251 -0.4222
 8300SOL    HW236537   0.787   4.666   4.027  1.8282 -0.8954  1.3065
 8301SOL     OW36538   4.000   1.192   4.159  0.6939  0.7988 -0.0887
 8301SOL    HW136539   4.084   1.149   4.142  1.0752  0.9165  1.4185
 8301SOL    HW236540   3.998   1.191   4.255  0.5877 -0.9887 -0.1105
 8302SOL     OW36541   4.485   2.389   5.620 -0.5981  0.1211 -0.2441
 8302SOL    HW136542   4.448   2.445   5.551 -0.5391  3.0730  2.1325
 8302SOL    HW236543   4.578   2.391   5.601 -0.8890 -0.2151 -1.7027
 8303SOL     OW36544   1.107   0.080   5.813 -0.1995  0.2951  0.3409
 8303SOL    HW136545   1.137   0.167   5.840  0.9332 -0.3652  1.2401
 8303SOL    HW236546   1.079   0.039   5.895  0.4266 -0.7526  0.0207
 8304SOL     OW36547   0.984   4.030   2.723 -0.2081 -0.4885  0.6057
 8304SOL    HW136548   0.910   4.041   2.782  1.5465 -2.2552  3.1054
 8304SOL    HW236549   1.042   4.105   2.739 -0.0978 -0.4327 -0.0593
 8305SOL     OW36550   2.371   1.521   4.235 -0.3577  0.3802 -0.0512
 8305SOL    HW136551   2.462   1.493   4.225 -0.4901 -0.2060  0.3831
 8305SOL    HW236552   2.377   1.616   4.242 -2.8634  0.5472 -0.2209
 8306SOL     OW36553   4.315   1.153  16.341 -0.0641  1.0024  0.2613
 8306SOL    HW136554   4.396   1.164  16.292  0.7088  1.6251  1.6888
 8306SOL    HW236555   4.254   1.139  16.269 -2.2108  3.8230  1.5298
 8307SOL     OW36556   3.941   0.945   8.779 -0.2828  0.2729  0.1374
 8307SOL    HW136557   3.996   1.019   8.804  1.3389  0.0338 -2.7882
 8307SOL    HW236558   3.857   0.970   8.818  0.1639  2.4422 -0.2892
 8308SOL     OW36559   3.976   2.462  16.205  0.3122  0.5112  0.0152
 8308SOL    HW136560   4.065   2.460  16.169 -0.4282 -2.5994 -1.6486
 8308SOL    HW236561   3.941   2.376  16.182  0.0831 -0.3557  3.5794
 8309SOL     OW36562   3.431   3.710   9.435  0.5745 -0.0228 -0.1158
 8309SOL    HW136563   3.523   3.710   9.411  0.4468  1.9909 -0.6718
 8309SOL    HW236564   3.441   3.661   9.517  4.0194  0.2882 -0.3552
 8310SOL     OW36565   1.568   2.530   3.805  0.3745 -0.2021  0.1421
 8310SOL    HW136566   1.636   2.593   3.830  0.2904  0.6049 -1.6339
 8310SOL    HW236567   1.552   2.483   3.886  1.6276 -0.7824  0.0546
 8311SOL     OW36568   2.245   4.278  15.170  0.0235 -0.7789 -0.2481
 8311SOL    HW136569   2.244   4.323  15.085 -0.1961 -0.0190  0.1593
 8311SOL    HW236570   2.338   4.256  15.169  0.0328 -0.8609  2.1558
 8312SOL     OW36571   1.495   0.150   2.418 -0.0063  0.0255 -0.3379
 8312SOL    HW136572   1.437   0.182   2.487 -1.2354  0.8240 -1.7385
 8312SOL    HW236573   1.437   0.090   2.373 -0.9700  1.5872 -1.1799
 8313SOL     OW36574   1.543   3.970   6.469 -0.1717  0.4666  0.3743
 8313SOL    HW136575   1.602   3.925   6.408 -0.6205 -0.5543  0.6932
 8313SOL    HW236576   1.520   3.892   6.520  3.2609 -1.2466 -0.6810
 8314SOL     OW36577   4.710   2.673  13.482  0.2656  0.4637 -0.4829
 8314SOL    HW136578   0.005   2.665  13.572 -0.1679  1.6412 -0.2269
 8314SOL    HW236579   0.058   2.690  13.437 -0.2263  0.0792 -1.5300
 8315SOL     OW36580   4.474   2.933   7.872  0.1683 -0.0967  0.1471
 8315SOL    HW136581   4.425   2.901   7.796  0.5953 -0.1945 -0.0846
 8315SOL    HW236582   4.412   2.995   7.912 -0.8398 -0.4487 -0.8635
 8316SOL     OW36583   0.152   1.194   5.394  0.1351 -0.4192 -0.1307
 8316SOL    HW136584   0.218   1.142   5.440  0.3270  1.4104  1.6701
 8316SOL    HW236585   0.149   1.275   5.445  0.8955  0.1758 -1.0350
 8317SOL     OW36586   1.835   1.185   4.600 -0.2789  0.2574 -0.0048
 8317SOL    HW136587   1.918   1.176   4.647 -0.7841 -1.4693  0.5659
 8317SOL    HW236588   1.851   1.125   4.527 -0.0574  1.9753 -1.3734
 8318SOL     OW36589   3.587   1.572   1.686 -0.7807 -0.4846  0.4590
 8318SOL    HW136590   3.655   1.596   1.749  1.2088 -1.1662 -1.4280
 8318SOL    HW236591   3.531   1.649   1.696 -0.1449  0.1976 -1.2591
 8319SOL     OW36592   3.511   1.689   2.076 -0.5553 -0.4721 -0.1326
 8319SOL    HW136593   3.563   1.687   1.996  2.3135 -0.7718  1.7585
 8319SOL    HW236594   3.433   1.737   2.047 -1.4964 -0.8034  1.8311
 8320SOL     OW36595   0.606   1.922   3.750  0.2843 -0.0248  0.3670
 8320SOL    HW136596   0.651   1.847   3.711  0.1658 -1.2075  2.5361
 8320SOL    HW236597   0.559   1.947   3.670 -0.8146 -1.2916  0.6033
 8321SOL     OW36598   4.262   3.455  16.517  0.1063 -0.3885 -0.7748
 8321SOL    HW136599   4.235   3.496  16.434  1.6200 -0.2384 -1.1881
 8321SOL    HW236600   4.284   3.531  16.572  0.1649 -1.8394  1.1901
 8322SOL     OW36601   3.334   1.001  14.248  0.3162 -0.3141  0.4266
 8322SOL    HW136602   3.323   1.054  14.327  3.0860  2.6402 -1.1844
 8322SOL    HW236603   3.245   1.016  14.216  0.7147 -1.1681 -1.0659
 8323SOL     OW36604   4.161   2.135   5.738 -0.2754  0.1184 -0.7151
 8323SOL    HW136605   4.200   2.048   5.732 -0.2651 -0.1236  2.7243
 8323SOL    HW236606   4.067   2.121   5.728 -0.2433 -0.3862 -0.3488
 8324SOL     OW36607   3.823   3.261   2.931 -0.1667  0.0726 -0.7604
 8324SOL    HW136608   3.745   3.209   2.908 -1.9775  3.2797 -1.8118
 8324SOL    HW236609   3.851   3.236   3.019 -0.4917  2.2098 -0.0601
 8325SOL     OW36610   1.957   4.166  17.538 -0.0953  0.6654  0.2300
 8325SOL    HW136611   1.984   4.169  17.446 -1.5631  0.6553 -0.1970
 8325SOL    HW236612   2.038   4.130  17.575  1.4440  2.6553 -1.1311
 8326SOL     OW36613   0.134   3.213   7.978  0.1683  0.2848  0.0802
 8326SOL    HW136614   0.194   3.278   8.015 -0.4463  1.5498 -1.1250
 8326SOL    HW236615   0.199   3.155   7.939 -0.2393  0.9308 -1.5662
 8327SOL     OW36616   4.727   4.726   7.655  0.3244  0.4555 -0.4254
 8327SOL    HW136617   0.003   4.708   7.561  0.2824  0.9717 -0.5311
 8327SOL    HW236618   0.011   0.084   7.662  0.1538  0.4373  0.2497
 8328SOL     OW36619   2.803   0.447   4.674 -0.0452  0.0942  0.1844
 8328SOL    HW136620   2.797   0.351   4.673 -0.4907  0.1379 -1.1367
 8328SOL    HW236621   2.888   0.480   4.646 -0.5243  0.2378 -1.0842
 8329SOL     OW36622   4.653   1.592   9.312  0.0376 -0.1265  0.3357
 8329SOL    HW136623   4.646   1.515   9.368  0.8436 -0.7015 -0.3701
 8329SOL    HW236624   4.571   1.574   9.265 -0.2166  1.6760  0.0894
 8330SOL     OW36625   2.802   3.271  16.564  0.0186 -0.6162  0.6616
 8330SOL    HW136626   2.772   3.230  16.483  0.4392  1.8800 -0.7384
 8330SOL    HW236627   2.773   3.361  16.553  0.8846 -0.2253  1.5982
 8331SOL     OW36628   0.699   1.014  14.084  0.1283 -0.0955  0.0994
 8331SOL    HW136629   0.638   1.084  14.064 -2.1583 -2.7768 -2.2695
 8331SOL    HW236630   0.641   0.938  14.087  0.2833 -0.1718  1.3228
 8332SOL     OW36631   1.941   0.555   3.817 -0.2334 -0.6933 -0.1460
 8332SOL    HW136632   2.008   0.488   3.809  0.4535 -0.1889  1.4970
 8332SOL    HW236633   2.000   0.629   3.805 -1.7171  0.1504 -2.2312
 8333SOL     OW36634   1.159   3.838   3.840 -0.0517  0.8871 -0.0879
 8333SOL    HW136635   1.191   3.912   3.892 -0.7997 -0.8471  2.7875
 8333SOL    HW236636   1.240   3.809   3.797 -0.5088  0.4515 -0.6661
 8334SOL     OW36637   0.537   3.826   6.085  0.1624 -0.8953  0.1804
 8334SOL    HW136638   0.552   3.805   6.177 -0.0892 -1.0839  0.1799
 8334SOL    HW236639   0.441   3.832   6.084  0.0990 -2.0454 -1.7422
 8335SOL     OW36640   0.991   3.602   8.696 -0.8050 -0.4348 -0.1863
 8335SOL    HW136641   0.945   3.629   8.775  0.6463  0.3008  0.4143
 8335SOL    HW236642   0.963   3.674   8.639  1.5434  0.6181 -0.0059
 8336SOL     OW36643   3.383   1.850   6.345 -0.6908 -0.0516 -0.1853
 8336SOL    HW136644   3.413   1.928   6.391 -1.8197  0.1746  0.1597
 8336SOL    HW236645   3.326   1.892   6.281 -0.7641 -0.6134 -0.4929
 8337SOL     OW36646   0.262   2.443   7.507  0.1152  0.4650 -0.4457
 8337SOL    HW136647   0.259   2.489   7.591  0.4069  3.1670 -1.9131
 8337SOL    HW236648   0.179   2.476   7.471 -0.0500  1.3899  0.7809
 8338SOL     OW36649   1.371   1.197   7.827 -0.0906  0.4295 -0.1006
 8338SOL    HW136650   1.312   1.126   7.853 -1.5543  1.7932  0.3690
 8338SOL    HW236651   1.356   1.188   7.733 -0.9637 -0.1783  0.0919
 8339SOL     OW36652   3.072   2.514   7.990 -0.5194 -0.0978  0.5330
 8339SOL    HW136653   2.985   2.542   7.961  0.5078  0.4620 -1.9845
 8339SOL    HW236654   3.122   2.593   7.967  0.6743 -0.7664  0.8367
 8340SOL     OW36655   1.144   0.258   4.483 -0.2835  0.7732 -0.2914
 8340SOL    HW136656   1.068   0.303   4.520 -1.1653 -0.4896 -0.5303
 8340SOL    HW236657   1.165   0.206   4.561  2.5244  1.7990 -0.3582
 8341SOL     OW36658   0.629   2.355  11.402 -0.1147 -0.2488 -0.0798
 8341SOL    HW136659   0.648   2.306  11.321 -2.7647  1.1603 -1.5708
 8341SOL    HW236660   0.693   2.318  11.461  0.1136 -0.3715 -0.4024
 8342SOL     OW36661   0.233   3.844   3.789  0.4490 -0.0817  0.1256
 8342SOL    HW136662   0.311   3.837   3.844  1.0190 -0.0829 -0.6841
 8342SOL    HW236663   0.254   3.915   3.729 -0.7401 -0.0943 -0.3047
 8343SOL     OW36664   2.353   1.626  17.029  0.2914  0.2313  0.4219
 8343SOL    HW136665   2.281   1.568  17.003  0.7700  0.1040 -0.6245
 8343SOL    HW236666   2.425   1.563  17.023  1.3603  1.8532 -4.0208
 8344SOL     OW36667   1.968   0.830   3.018  0.9796  0.0279  0.0246
 8344SOL    HW136668   1.906   0.790   3.077  0.7465 -1.3068 -1.1299
 8344SOL    HW236669   2.048   0.833   3.070  1.5354 -0.8713 -0.7636
 8345SOL     OW36670   1.069   2.536   6.920 -0.5584 -0.2736  0.1127
 8345SOL    HW136671   0.985   2.581   6.928  0.6103  1.5789  2.0636
 8345SOL    HW236672   1.036   2.458   6.965 -1.6397 -0.7308 -1.4697
 8346SOL     OW36673   0.559   4.150  13.095 -0.4935 -0.5261  0.3947
 8346SOL    HW136674   0.606   4.154  13.011 -0.5335  0.3095  0.4106
 8346SOL    HW236675   0.509   4.069  13.083  0.3966 -0.9104 -0.7882
 8347SOL     OW36676   2.106   4.526   4.951  0.4410  0.0934  0.2153
 8347SOL    HW136677   2.201   4.518   4.954  0.2722 -1.5268  1.0962
 8347SOL    HW236678   2.099   4.471   4.873  1.9827 -0.4273  0.4556
 8348SOL     OW36679   3.641   0.435   2.680 -0.0555  0.8228 -0.0991
 8348SOL    HW136680   3.553   0.437   2.718  0.7307  0.8686  1.7492
 8348SOL    HW236681   3.659   0.530   2.680  3.8766  0.0677 -0.3077
 8349SOL     OW36682   3.705   0.078   9.892 -0.0560  0.3152 -1.1904
 8349SOL    HW136683   3.708   0.002   9.835  1.3603 -1.2177  0.9504
 8349SOL    HW236684   3.767   0.061   9.962 -1.5082 -2.7241 -0.6702
 8350SOL     OW36685   4.407   0.463  11.183 -0.5519  0.0228 -0.8878
 8350SOL    HW136686   4.411   0.368  11.170  4.1257  0.0284  0.4941
 8350SOL    HW236687   4.431   0.490  11.094  0.2466  0.1221 -0.6460
 8351SOL     OW36688   2.219   1.152  14.609  0.1175  0.2764 -0.6665
 8351SOL    HW136689   2.213   1.134  14.515 -2.5501 -3.9571  0.3101
 8351SOL    HW236690   2.178   1.238  14.613 -0.5547 -0.0521 -0.3470
 8352SOL     OW36691   3.181   3.956   3.767  0.1262 -0.0648 -0.7725
 8352SOL    HW136692   3.240   4.019   3.725  1.3225 -1.1280 -0.6636
 8352SOL    HW236693   3.177   3.991   3.856 -0.3178 -0.5587 -0.5990
 8353SOL     OW36694   2.334   0.954   0.949 -0.1929  0.2255 -0.7363
 8353SOL    HW136695   2.426   0.952   0.976 -0.6875 -0.6446  0.8762
 8353SOL    HW236696   2.293   0.897   1.014 -0.0342 -0.3051 -1.0990
 8354SOL     OW36697   2.854   0.678   5.544 -0.1758  0.3328 -0.0429
 8354SOL    HW136698   2.898   0.674   5.459 -0.3666  2.3845 -0.2332
 8354SOL    HW236699   2.920   0.648   5.607  0.7497  0.5300 -0.9101
 8355SOL     OW36700   4.403   3.299   5.251 -0.1782 -0.2049 -0.0313
 8355SOL    HW136701   4.427   3.243   5.177  1.1097 -1.4893  1.3508
 8355SOL    HW236702   4.311   3.317   5.230  0.1337 -0.3731 -1.5154
 8356SOL     OW36703   0.772   2.386  10.446  0.2778  0.1387  0.4814
 8356SOL    HW136704   0.749   2.434  10.526  1.0531  1.8691 -0.3424
 8356SOL    HW236705   0.696   2.330  10.432 -1.3148  2.7055 -1.1687
 8357SOL     OW36706   1.501   3.713   4.352 -0.4187 -0.0563 -0.3075
 8357SOL    HW136707   1.476   3.621   4.358 -3.1813  0.7769  0.9859
 8357SOL    HW236708   1.443   3.764   4.410 -0.5518 -2.3630  1.5915
 8358SOL     OW36709   2.736   3.985   1.031  0.2376 -0.2966  0.2503
 8358SOL    HW136710   2.756   3.997   0.938 -2.1813 -1.8407 -0.4894
 8358SOL    HW236711   2.797   3.913   1.046 -0.2418 -1.5261 -3.7108
 8359SOL     OW36712   4.415   1.277   9.629  0.6965 -0.1168 -0.3447
 8359SOL    HW136713   4.345   1.295   9.692  1.5038  1.3143  0.1404
 8359SOL    HW236714   4.427   1.187   9.660 -0.0924  0.0947  0.6004
 8360SOL     OW36715   2.818   0.861   2.252  0.7126 -0.0712 -0.0287
 8360SOL    HW136716   2.865   0.944   2.247  0.7076  0.0975  2.9815
 8360SOL    HW236717   2.870   0.801   2.199  1.6333  0.3819  0.3722
 8361SOL     OW36718   2.404   3.125  16.991 -0.1045 -0.3314  0.2697
 8361SOL    HW136719   2.466   3.062  17.027  2.9721  2.2873 -0.3912
 8361SOL    HW236720   2.377   3.087  16.908 -0.9602  1.2611 -0.1793
 8362SOL     OW36721   4.431   2.649   2.989  0.0931  0.5627  0.2413
 8362SOL    HW136722   4.496   2.719   2.980  0.7999 -0.0838  0.2871
 8362SOL    HW236723   4.378   2.674   2.913  0.2132  1.0749  0.3254
 8363SOL     OW36724   3.572   3.595  16.704 -0.0812  0.2705  0.3611
 8363SOL    HW136725   3.552   3.539  16.779  0.8286 -1.4971 -0.7299
 8363SOL    HW236726   3.526   3.676  16.724 -0.5000  0.5026 -1.6015
 8364SOL     OW36727   4.454   2.692   6.988  0.0305  0.1299 -0.2513
 8364SOL    HW136728   4.487   2.610   7.025 -2.5876 -0.1052  1.6050
 8364SOL    HW236729   4.381   2.709   7.048 -0.5657 -3.4235  0.0538
 8365SOL     OW36730   4.116   2.008   6.239  0.3704  0.2365 -0.1009
 8365SOL    HW136731   4.155   1.968   6.317 -2.0185  0.0672  1.0179
 8365SOL    HW236732   4.143   1.945   6.173 -2.3716 -3.0812  1.9245
 8366SOL     OW36733   1.988   2.962   5.286  0.1925 -0.8796  0.3359
 8366SOL    HW136734   1.976   2.933   5.377 -0.8512 -0.8160  0.2067
 8366SOL    HW236735   1.968   3.054   5.304  0.2811 -0.6125 -0.9758
 8367SOL     OW36736   3.794   1.333  11.310 -0.1201  0.5566  0.4206
 8367SOL    HW136737   3.741   1.261  11.275  0.4521  0.9326 -1.2145
 8367SOL    HW236738   3.876   1.306  11.268  0.9228  0.0082  2.8546
 8368SOL     OW36739   3.916   2.466   2.395 -0.4102  0.2126  0.4392
 8368SOL    HW136740   3.886   2.555   2.409 -1.0570 -0.2488  1.9648
 8368SOL    HW236741   3.949   2.436   2.480 -0.4077 -2.5493 -0.5402
 8369SOL     OW36742   2.617   4.557   3.106 -0.7876  0.4585  0.2830
 8369SOL    HW136743   2.628   4.635   3.160 -0.4875 -1.9587  3.7149
 8369SOL    HW236744   2.695   4.577   3.055 -0.9889  2.7058  0.8954
 8370SOL     OW36745   2.472   2.889   5.972 -0.4101 -0.0640  0.2865
 8370SOL    HW136746   2.382   2.899   6.004  0.5398  0.3712  2.8405
 8370SOL    HW236747   2.453   2.846   5.888 -1.1057 -0.0266  0.4284
 8371SOL     OW36748   3.925   3.461  13.864 -0.1323  0.3029 -0.6134
 8371SOL    HW136749   3.997   3.423  13.815  1.8427  3.8233 -0.3992
 8371SOL    HW236750   3.865   3.451  13.790  1.0798 -1.4378 -1.3506
 8372SOL     OW36751   2.924   1.181   6.257 -0.7587 -0.6371  0.8510
 8372SOL    HW136752   3.011   1.211   6.283  0.7692 -1.8440 -3.0162
 8372SOL    HW236753   2.878   1.187   6.341 -2.6641 -0.5801 -0.1844
 8373SOL     OW36754   2.314   2.609   4.083  0.0673  0.2897  0.2570
 8373SOL    HW136755   2.352   2.552   4.016 -0.9110  1.1557 -1.0293
 8373SOL    HW236756   2.359   2.585   4.165  1.8840 -2.7133 -1.5995
 8374SOL     OW36757   0.579   2.627   6.388 -1.4904 -0.6625 -0.1445
 8374SOL    HW136758   0.496   2.633   6.435 -1.6402  1.6380 -0.6688
 8374SOL    HW236759   0.591   2.714   6.348  1.1963 -0.2691  1.5380
 8375SOL     OW36760   2.929   4.163   6.357 -0.3995  0.0382  0.4562
 8375SOL    HW136761   2.877   4.105   6.302 -0.7469  0.3360  0.4694
 8375SOL    HW236762   2.900   4.245   6.316 -2.7236  0.0980  2.2423
 8376SOL     OW36763   4.023   3.862   4.267 -0.0764 -0.6258 -0.4374
 8376SOL    HW136764   4.066   3.796   4.212  0.4917 -1.6948  1.2977
 8376SOL    HW236765   3.932   3.858   4.235 -0.6340  0.2842  1.0415
 8377SOL     OW36766   3.409   2.277   6.286 -0.8367  0.1582 -0.5307
 8377SOL    HW136767   3.476   2.346   6.284 -0.3961 -0.2760 -0.8730
 8377SOL    HW236768   3.455   2.198   6.314 -1.2419 -1.1840 -3.6512
 8378SOL     OW36769   1.121   4.280   5.573 -0.0488 -0.0052 -0.2179
 8378SOL    HW136770   1.037   4.296   5.529 -0.4126  2.0078  1.1866
 8378SOL    HW236771   1.176   4.317   5.504  0.6116 -2.0216 -0.7710
 8379SOL     OW36772   0.848   0.038   1.151 -0.3625 -0.4887 -0.2542
 8379SOL    HW136773   0.878   4.688   1.118 -1.9187 -1.2257  0.2563
 8379SOL    HW236774   0.783   0.066   1.087 -1.3004  1.0572  1.3613
 8380SOL     OW36775   4.100   0.043   9.242  0.0139  0.1623 -0.5513
 8380SOL    HW136776   4.127   0.015   9.330 -0.8721 -1.9221 -0.9371
 8380SOL    HW236777   4.173   0.105   9.238 -1.4112  1.7819 -1.4578
 8381SOL     OW36778   2.859   2.072  13.004 -0.4107 -0.4890  0.1588
 8381SOL    HW136779   2.855   2.017  13.083 -2.3991  0.9843  1.0620
 8381SOL    HW236780   2.954   2.075  12.996 -0.3980  2.6309  1.7123
 8382SOL     OW36781   0.226   1.734   2.943 -0.5362  0.0874 -0.0868
 8382SOL    HW136782   0.193   1.763   3.028  0.4467 -0.5897  0.5303
 8382SOL    HW236783   0.160   1.667   2.925  3.1601 -4.1585  2.1844
 8383SOL     OW36784   0.088   0.629   0.119  0.1787 -0.2954  0.0212
 8383SOL    HW136785   0.024   0.559   0.110 -0.0543  0.1148 -1.4688
 8383SOL    HW236786   0.062   0.668   0.036  0.0275  0.2665  0.3298
 8384SOL     OW36787   0.294   4.515   9.263 -0.4635  0.2101 -0.6499
 8384SOL    HW136788   0.347   4.595   9.265  2.7413 -1.9741  2.1810
 8384SOL    HW236789   0.309   4.487   9.173  0.6987 -0.0788 -0.3605
 8385SOL     OW36790   2.015   2.854  10.643  0.5142  0.3274  0.5941
 8385SOL    HW136791   2.090   2.801  10.667  0.4030 -0.3807 -0.6378
 8385SOL    HW236792   1.944   2.800  10.678 -1.6152  2.2341 -0.7303
 8386SOL     OW36793   2.889   1.255   7.970  0.3201 -0.2628 -0.5566
 8386SOL    HW136794   2.875   1.179   8.026 -0.4921 -0.0203 -0.4253
 8386SOL    HW236795   2.950   1.313   8.016  2.6152  0.0372 -3.9501
 8387SOL     OW36796   4.551   2.581  12.157  0.3311  0.7510 -0.7276
 8387SOL    HW136797   4.504   2.502  12.129  0.9898  1.1504 -3.0375
 8387SOL    HW236798   4.591   2.549  12.238  0.7319  1.2162 -0.7459
 8388SOL     OW36799   2.404   3.753  16.488 -0.0031  0.4650 -0.3954
 8388SOL    HW136800   2.423   3.752  16.394 -2.2260  0.6631 -0.8442
 8388SOL    HW236801   2.484   3.800  16.509  1.3098 -1.3244 -1.3435
 8389SOL     OW36802   0.203   1.324   9.011  0.0715  0.2940  0.4588
 8389SOL    HW136803   0.196   1.370   9.095  2.7486 -0.3353  1.0285
 8389SOL    HW236804   0.158   1.241   9.030  0.3266  0.3046  1.1240
 8390SOL     OW36805   0.629   2.950  14.024 -0.2127  0.1789 -0.3301
 8390SOL    HW136806   0.592   3.003  14.095  1.1061 -1.3510  1.5075
 8390SOL    HW236807   0.645   3.017  13.958  0.9680  1.3648  1.1567
 8391SOL     OW36808   0.855   4.160   8.566  0.2424 -0.0337  0.0862
 8391SOL    HW136809   0.804   4.192   8.640  0.3367  0.0196  0.1290
 8391SOL    HW236810   0.785   4.159   8.501  3.0951 -2.2039 -2.9538
 8392SOL     OW36811   1.436   1.474   4.403  0.3329 -0.2561  0.0242
 8392SOL    HW136812   1.500   1.544   4.419 -0.1609  0.1846  0.0838
 8392SOL    HW236813   1.495   1.404   4.431 -0.9919 -0.9808  0.9876
 8393SOL     OW36814   2.439   1.707   4.555  0.6428 -0.9173  0.2270
 8393SOL    HW136815   2.472   1.617   4.548  1.5031 -0.3838 -2.8056
 8393SOL    HW236816   2.363   1.692   4.611 -1.0424  1.8435 -1.3392
 8394SOL     OW36817   2.923   2.566   3.624 -0.0782 -0.1165 -0.3467
 8394SOL    HW136818   2.920   2.660   3.639  0.9236  0.1388 -1.7869
 8394SOL    HW236819   2.862   2.529   3.688 -2.1495 -0.7475 -2.7301
 8395SOL     OW36820   2.269   0.928  16.484  0.1430 -0.3063 -0.2613
 8395SOL    HW136821   2.202   0.882  16.432 -0.7046 -0.0859  0.6327
 8395SOL    HW236822   2.294   0.988  16.414  0.4153  0.1590  0.2428
 8396SOL     OW36823   3.379   0.377   7.604 -0.2886  0.0217 -0.0790
 8396SOL    HW136824   3.451   0.440   7.610 -0.3536  0.0142  0.9080
 8396SOL    HW236825   3.309   0.436   7.576  0.4816  1.1604  0.3533
 8397SOL     OW36826   1.852   3.898   7.266  0.2671 -0.1486 -0.1813
 8397SOL    HW136827   1.769   3.913   7.310  2.3482  0.2426  3.6161
 8397SOL    HW236828   1.814   3.900   7.178  0.3775 -2.1844 -0.2743
 8398SOL     OW36829   0.337   1.815   7.074  0.8208  0.2407 -0.1661
 8398SOL    HW136830   0.381   1.753   7.016 -2.0963 -1.6421 -0.3327
 8398SOL    HW236831   0.247   1.816   7.041  0.6092  0.5824  0.4290
 8399SOL     OW36832   2.502   0.322   4.108 -0.6369  0.7827 -0.0544
 8399SOL    HW136833   2.445   0.366   4.171  0.3328  3.1807 -0.8430
 8399SOL    HW236834   2.556   0.274   4.171  1.0667  3.7747  0.7748
 8400SOL     OW36835   2.676   0.139   7.759 -0.1850  0.1632 -0.1170
 8400SOL    HW136836   2.583   0.160   7.764 -0.2237  0.0652 -0.4283
 8400SOL    HW236837   2.722   0.203   7.703 -0.3526  1.5256  1.3066
 8401SOL     OW36838   1.371   3.018   4.342  0.0124  0.3013  0.0162
 8401SOL    HW136839   1.319   2.992   4.265 -1.6164  0.3295  1.1066
 8401SOL    HW236840   1.328   3.101   4.362  0.8477  0.8225 -0.3463
 8402SOL     OW36841   3.244   0.618   2.846  0.8734 -0.2157 -0.3281
 8402SOL    HW136842   3.303   0.554   2.805  0.1047 -0.9749 -0.2647
 8402SOL    HW236843   3.165   0.593   2.797  0.3394 -0.9796  0.9185
 8403SOL     OW36844   3.103   2.308   6.984  0.2035 -0.0033  0.4706
 8403SOL    HW136845   3.077   2.377   7.045 -2.8543 -0.0532 -0.7741
 8403SOL    HW236846   3.161   2.251   7.035  0.3869  0.4904  0.8131
 8404SOL     OW36847   2.768   4.192   7.749 -0.3235  0.1073  0.2187
 8404SOL    HW136848   2.784   4.100   7.728 -1.1225 -0.4663  2.0646
 8404SOL    HW236849   2.673   4.196   7.742 -0.3785  0.4723  1.1897
 8405SOL     OW36850   0.838   2.207  16.821 -0.1249 -0.1383 -0.0263
 8405SOL    HW136851   0.866   2.263  16.749 -2.4186  0.3877 -0.5135
 8405SOL    HW236852   0.922   2.184  16.859 -0.4027  1.2101  1.3983
 8406SOL     OW36853   2.796   3.846   7.367  0.3728 -0.0212 -0.0730
 8406SOL    HW136854   2.805   3.915   7.302 -1.0546 -1.0578 -1.3762
 8406SOL    HW236855   2.882   3.805   7.367  0.6007  0.4617 -0.2405
 8407SOL     OW36856   2.582   2.947  12.438  0.6917  0.3792 -0.3682
 8407SOL    HW136857   2.607   2.895  12.361  0.5725 -1.4322  0.8126
 8407SOL    HW236858   2.563   2.874  12.497  0.9347  1.4887  1.0802
 8408SOL     OW36859   3.193   1.111   4.848 -0.2747  0.4624  0.4083
 8408SOL    HW136860   3.105   1.108   4.884  0.1156 -2.2035  1.1451
 8408SOL    HW236861   3.246   1.156   4.914 -0.8144  0.7335  0.6492
 8409SOL     OW36862   0.589   3.219   6.358  0.4932 -0.6374 -0.6440
 8409SOL    HW136863   0.681   3.193   6.346  1.6393  0.9838  4.7953
 8409SOL    HW236864   0.593   3.278   6.433  0.0520  1.1047 -1.9925
 8410SOL     OW36865   0.016   1.183  11.179  0.7182  0.0556  0.0167
 8410SOL    HW136866   4.684   1.126  11.140 -1.6657  2.6399  0.3380
 8410SOL    HW236867   0.095   1.130  11.170 -0.8136 -2.0394 -1.2765
 8411SOL     OW36868   3.534   0.631   3.469  0.2229 -0.1930  0.6912
 8411SOL    HW136869   3.487   0.552   3.497  1.0922 -0.6399  0.8781
 8411SOL    HW236870   3.543   0.609   3.376 -0.2557 -0.5716  0.7335
 8412SOL     OW36871   1.979   1.172   3.842 -0.3764 -0.0711  0.1149
 8412SOL    HW136872   1.963   1.214   3.758 -0.9635  0.1902  0.3566
 8412SOL    HW236873   1.959   1.245   3.901 -2.4729  0.5769 -1.4175
 8413SOL     OW36874   1.002   1.631   0.792  0.1363  0.1953 -0.2164
 8413SOL    HW136875   0.951   1.705   0.824  1.1957  1.2326 -0.8847
 8413SOL    HW236876   1.036   1.655   0.706 -2.4453 -0.3493 -1.3544
 8414SOL     OW36877   2.822   0.181   1.839  0.2027  0.1691  0.1639
 8414SOL    HW136878   2.844   0.097   1.879  1.2450  0.8220  0.9772
 8414SOL    HW236879   2.729   0.166   1.827  0.1811  0.1033  0.4169
 8415SOL     OW36880   3.012   0.048  13.726  0.0582  0.3863  0.4704
 8415SOL    HW136881   3.096   0.041  13.772  1.0052 -0.1691 -1.3614
 8415SOL    HW236882   3.031   0.119  13.665 -0.4130  2.1962  2.4468
 8416SOL     OW36883   2.955   3.478   6.313  0.3436 -0.1950 -0.2528
 8416SOL    HW136884   2.922   3.391   6.337  0.5602 -0.8428 -2.3255
 8416SOL    HW236885   2.883   3.531   6.347 -1.5709 -1.7783 -1.8862
 8417SOL     OW36886   1.967   2.068  12.202  0.1716 -0.1754  0.4793
 8417SOL    HW136887   2.009   1.985  12.183  2.3270  1.0088  0.0942
 8417SOL    HW236888   1.876   2.038  12.194 -0.3118  1.7496 -1.4436
 8418SOL     OW36889   2.550   1.618   3.475  0.0842  0.1397  0.3341
 8418SOL    HW136890   2.611   1.686   3.504 -0.2920  0.0481  1.3281
 8418SOL    HW236891   2.571   1.551   3.540 -0.2422  0.3200  0.6304
 8419SOL     OW36892   4.711   2.914  11.405  0.3848 -0.3780 -0.2602
 8419SOL    HW136893   4.694   2.946  11.494  1.7178 -0.9935  0.2284
 8419SOL    HW236894   4.649   2.841  11.404  0.6194 -0.5972  0.3656
 8420SOL     OW36895   1.497   1.245   5.355  0.2062  0.8230  0.8845
 8420SOL    HW136896   1.422   1.202   5.315  1.9712 -1.3993 -0.0245
 8420SOL    HW236897   1.465   1.266   5.443  2.3688  2.7958  1.2087
 8421SOL     OW36898   2.089   3.269   2.356 -0.3934 -0.1960 -0.2473
 8421SOL    HW136899   2.045   3.273   2.272  2.4275  1.1369 -1.6636
 8421SOL    HW236900   2.059   3.348   2.401  1.2584  1.0022 -1.2558
 8422SOL     OW36901   1.959   1.860   0.808 -0.2407 -0.3019  0.0007
 8422SOL    HW136902   1.926   1.939   0.850  1.0568  0.7810 -1.0467
 8422SOL    HW236903   2.054   1.870   0.811 -0.3889  0.6088  1.4889
 8423SOL     OW36904   4.613   2.593  11.255  0.1589 -0.2312  0.0161
 8423SOL    HW136905   4.609   2.544  11.173  1.1228 -0.3023  0.0121
 8423SOL    HW236906   4.693   2.554  11.288 -0.2856 -0.0108  1.3371
 8424SOL     OW36907   4.134   4.657   8.750  0.1936 -0.3128 -0.1089
 8424SOL    HW136908   4.039   4.668   8.747  0.2584  0.5495  1.0803
 8424SOL    HW236909   4.142   4.709   8.830 -0.0862 -2.2998  1.2209
 8425SOL     OW36910   1.139   0.963  11.664  0.1482  0.3346  0.1098
 8425SOL    HW136911   1.203   1.034  11.668  2.5427 -1.8356  0.6808
 8425SOL    HW236912   1.115   0.964  11.571  0.7752  3.5811 -0.0177
 8426SOL     OW36913   2.500   3.833   6.042 -0.1878 -0.4456  0.0279
 8426SOL    HW136914   2.584   3.877   6.059 -1.1926  0.8605  1.6110
 8426SOL    HW236915   2.510   3.759   6.102  1.5924 -1.4597 -1.5352
 8427SOL     OW36916   4.673   1.680   2.599  0.3067 -0.0857 -0.9209
 8427SOL    HW136917   0.030   1.656   2.610  0.3064 -0.8129 -2.5430
 8427SOL    HW236918   4.676   1.776   2.595  0.0556  0.0491  2.1501
 8428SOL     OW36919   2.411   3.454  12.183  0.1366 -0.0933 -0.1250
 8428SOL    HW136920   2.319   3.480  12.186  0.3670  0.8124 -1.1873
 8428SOL    HW236921   2.413   3.358  12.187 -0.6992 -0.1082  0.0189
 8429SOL     OW36922   0.780   3.168  10.610  0.1702  0.1935 -0.2305
 8429SOL    HW136923   0.827   3.103  10.662 -1.8392  0.6500  2.1758
 8429SOL    HW236924   0.842   3.240  10.604 -1.4387  1.6311  0.2381
 8430SOL     OW36925   3.799   3.190   2.154 -0.3838 -0.5494 -0.0067
 8430SOL    HW136926   3.816   3.171   2.247 -2.3356 -0.4792  0.3644
 8430SOL    HW236927   3.713   3.151   2.138 -1.4666  1.8531 -0.0525
 8431SOL     OW36928   3.231   1.085  15.278  0.5249 -0.2417 -0.0141
 8431SOL    HW136929   3.294   1.017  15.254  0.2127 -0.3905 -0.4077
 8431SOL    HW236930   3.215   1.122  15.191 -1.9270  0.3608  0.6898
 8432SOL     OW36931   4.511   3.055   4.622 -0.0055  0.1619  0.0782
 8432SOL    HW136932   4.552   3.141   4.629 -0.4890  0.5900 -2.2016
 8432SOL    HW236933   4.535   3.027   4.534 -1.8148  1.1923 -0.7573
 8433SOL     OW36934   2.099   1.781   4.298 -0.2628  0.2769  0.0753
 8433SOL    HW136935   2.077   1.872   4.317  0.7211  0.6716 -0.6905
 8433SOL    HW236936   2.194   1.790   4.298 -0.3391  1.1410 -1.6994
 8434SOL     OW36937   2.399   3.162  12.355  0.3590  0.0493 -0.4054
 8434SOL    HW136938   2.307   3.138  12.341  0.2078 -0.2603  1.0986
 8434SOL    HW236939   2.430   3.086  12.405 -1.8440 -1.5225 -1.4187
 8435SOL     OW36940   4.552   2.839   4.359  0.3579 -0.1104 -0.1081
 8435SOL    HW136941   4.567   2.887   4.277 -0.0965  0.4826  0.1480
 8435SOL    HW236942   4.458   2.845   4.377  0.3798  0.3341 -0.1241
 8436SOL     OW36943   1.665   3.026   7.009  0.0558 -0.6370  0.1091
 8436SOL    HW136944   1.631   2.976   7.083 -0.5676 -0.3910 -0.0081
 8436SOL    HW236945   1.699   3.105   7.052 -0.4461  0.5176 -1.6043
 8437SOL     OW36946   4.114   4.508   9.704 -0.2751  0.3442 -0.3054
 8437SOL    HW136947   4.029   4.544   9.677 -1.1918 -1.1189  0.5841
 8437SOL    HW236948   4.087   4.418   9.684 -1.1533  1.6523 -5.1264
 8438SOL     OW36949   4.201   1.916   0.009  0.2022 -0.2764  0.3717
 8438SOL    HW136950   4.130   1.889  17.691  0.4140  0.5038 -0.2614
 8438SOL    HW236951   4.173   2.005   0.030  1.2499  0.7799 -2.7946
 8439SOL     OW36952   1.610   0.936   6.780  0.2575 -0.1923  0.0791
 8439SOL    HW136953   1.631   0.863   6.838  0.8963  1.8474  2.4014
 8439SOL    HW236954   1.689   0.989   6.782 -0.4275  0.8870 -1.5909
 8440SOL     OW36955   4.006   3.869   7.254  0.5288 -0.7326 -0.0155
 8440SOL    HW136956   3.929   3.918   7.228  0.6499 -0.2700  0.4988
 8440SOL    HW236957   4.022   3.822   7.172 -0.4667  0.5402 -0.9337
 8441SOL     OW36958   1.208   4.113   5.032  0.1281  0.0086  0.0454
 8441SOL    HW136959   1.267   4.044   5.003 -0.1605 -0.8898  1.5681
 8441SOL    HW236960   1.150   4.127   4.958 -0.4978 -4.3598 -0.2920
 8442SOL     OW36961   2.507   4.370   7.319  0.1022  0.1607  0.5781
 8442SOL    HW136962   2.528   4.442   7.260 -0.6621 -0.8417 -0.9152
 8442SOL    HW236963   2.434   4.406   7.370  0.2167 -0.3820  1.1182
 8443SOL     OW36964   3.445   4.159   4.915 -0.1667 -0.2193 -0.0206
 8443SOL    HW136965   3.447   4.198   4.828 -2.0450  1.4452  0.6801
 8443SOL    HW236966   3.509   4.091   4.897  1.1340  1.2673 -1.0480
 8444SOL     OW36967   3.019   3.651  15.231 -0.0542  0.1788  0.7025
 8444SOL    HW136968   3.103   3.680  15.268  0.5096 -0.6273  0.0746
 8444SOL    HW236969   3.035   3.556  15.232  1.2235  0.3911  0.7444
 8445SOL     OW36970   2.818   0.241   2.477 -0.1257  0.0499 -0.0548
 8445SOL    HW136971   2.779   0.320   2.513 -0.4531 -0.2363  0.2162
 8445SOL    HW236972   2.910   0.262   2.460  0.3978 -2.0348  0.1897
 8446SOL     OW36973   0.112   3.234  12.217  0.0331 -0.3086  0.1987
 8446SOL    HW136974   0.205   3.216  12.203 -0.0911 -1.2158  0.5370
 8446SOL    HW236975   0.075   3.168  12.158  1.3466  2.3359 -3.5379
 8447SOL     OW36976   2.703   0.982  14.110  0.0196 -0.0702 -0.4315
 8447SOL    HW136977   2.749   1.062  14.082 -1.1363 -0.1541 -2.5709
 8447SOL    HW236978   2.776   0.939  14.154  0.1768 -0.4228 -1.0406
 8448SOL     OW36979   0.242   0.331   2.992 -0.6482 -0.2336  0.1908
 8448SOL    HW136980   0.150   0.356   2.984 -0.0654  1.7733 -0.2301
 8448SOL    HW236981   0.235   0.239   3.019  1.7375 -0.2779  0.6118
 8449SOL     OW36982   4.353   4.695  15.446  0.0665  0.3013  0.1123
 8449SOL    HW136983   4.309   4.697  15.530 -1.9008  0.7145 -0.9239
 8449SOL    HW236984   4.290   4.647  15.392  0.9219 -0.1214 -0.5075
 8450SOL     OW36985   2.641   2.096  17.737 -0.3490 -0.1160  0.5002
 8450SOL    HW136986   2.704   2.035  17.700 -2.4068 -1.3993 -0.9079
 8450SOL    HW236987   2.578   2.089  17.665  0.7128  0.3633 -0.4596
 8451SOL     OW36988   1.860   1.784  11.243 -0.1537  0.5116 -0.7734
 8451SOL    HW136989   1.768   1.808  11.252  0.0231  0.3897  1.2565
 8451SOL    HW236990   1.868   1.784  11.147 -0.7687  1.0128 -0.8243
 8452SOL     OW36991   4.089   4.562   6.554  0.4823  0.0240  0.1889
 8452SOL    HW136992   4.092   4.497   6.624  4.4377  1.1046  1.0439
 8452SOL    HW236993   4.140   4.631   6.598 -0.0057 -0.4814  1.5451
 8453SOL     OW36994   0.805   1.785   7.314 -0.2235 -0.2544  0.3282
 8453SOL    HW136995   0.829   1.698   7.283  0.5851  1.1387 -2.9387
 8453SOL    HW236996   0.710   1.800   7.307 -0.1910  0.0103  0.4447
 8454SOL     OW36997   3.069   1.085   4.085  0.5208  0.2741  0.1566
 8454SOL    HW136998   3.099   1.166   4.043 -2.5614  0.5197 -1.5761
 8454SOL    HW236999   3.144   1.028   4.071  0.3831  0.0007  0.5424
 8455SOL     OW37000   4.674   4.647   0.609 -0.4640  0.2047 -0.4697
 8455SOL    HW137001   4.614   4.606   0.547 -2.1330  0.5846  0.8963
 8455SOL    HW237002   4.700   4.572   0.662 -2.2800 -0.5091 -0.6170
 8456SOL     OW37003   4.186   1.875   2.843 -0.0749 -0.4262 -0.1948
 8456SOL    HW137004   4.241   1.850   2.917  0.1715 -1.6630 -0.7972
 8456SOL    HW237005   4.172   1.969   2.851  4.1159  0.3046 -1.3656
 8457SOL     OW37006   3.221   2.402   4.002 -0.6427  0.1329 -0.3339
 8457SOL    HW137007   3.211   2.307   4.008  4.1938 -0.3326  0.3305
 8457SOL    HW237008   3.184   2.431   3.919 -2.4889 -3.3630 -0.7454
 8458SOL     OW37009   1.544   2.077   6.973 -0.9494 -0.0838  0.0543
 8458SOL    HW137010   1.453   2.090   6.946 -0.8577 -2.4011 -1.3090
 8458SOL    HW237011   1.529   2.063   7.067 -3.8311 -0.5274 -0.4790
 8459SOL     OW37012   3.833   0.957   4.867  0.0926 -0.3003  0.0701
 8459SOL    HW137013   3.865   0.966   4.956  0.1821  0.2219 -0.0149
 8459SOL    HW237014   3.769   0.886   4.873  0.2472 -0.5849 -1.5217
 8460SOL     OW37015   0.660   4.038   4.041 -0.6925 -0.2198 -0.0228
 8460SOL    HW137016   0.734   4.089   4.009  0.6364 -2.3056 -0.3156
 8460SOL    HW237017   0.639   3.991   3.960  1.0703 -0.3531 -0.4168
 8461SOL     OW37018   0.030   1.950  10.886  0.4344 -0.1927 -0.7180
 8461SOL    HW137019   4.728   1.940  10.799 -0.4320 -0.6818 -0.2964
 8461SOL    HW237020   0.054   1.859  10.905  2.8015  0.7201  0.6520
 8462SOL     OW37021   1.035   2.431   1.773 -0.0441 -0.3724  0.8048
 8462SOL    HW137022   1.027   2.339   1.799 -1.0157 -0.2848  0.8209
 8462SOL    HW237023   0.954   2.460   1.732  1.1385  2.4042  0.4345
 8463SOL     OW37024   4.232   4.639  15.060 -0.0840 -0.1448 -0.3919
 8463SOL    HW137025   4.247   4.600  15.146  1.8824 -0.6157 -0.9464
 8463SOL    HW237026   4.241   4.733  15.076  0.3751 -0.2102 -0.2655
 8464SOL     OW37027   1.602   3.111  15.752  0.2931 -0.1030 -0.0474
 8464SOL    HW137028   1.689   3.140  15.778 -0.2641 -0.6882  2.5128
 8464SOL    HW237029   1.621   3.017  15.749  2.9042  0.4262 -0.1023
 8465SOL     OW37030   0.343   0.951   6.476 -0.0983  0.3738  0.0264
 8465SOL    HW137031   0.398   0.874   6.490 -0.0585  0.3709 -0.1535
 8465SOL    HW237032   0.265   0.916   6.432 -1.7050  0.5768  2.6990
 8466SOL     OW37033   2.920   1.381   6.038  0.0246  0.0383  0.3959
 8466SOL    HW137034   2.923   1.319   6.111 -0.5207 -2.6039 -1.8416
 8466SOL    HW237035   2.828   1.391   6.014 -0.3273 -0.5473  1.4696
 8467SOL     OW37036   1.870   1.343   2.308 -0.6182 -0.0697  0.0668
 8467SOL    HW137037   1.920   1.425   2.304 -0.0241 -0.4767 -0.8301
 8467SOL    HW237038   1.798   1.378   2.362  1.2083  1.1519  1.7219
 8468SOL     OW37039   3.284   0.555   9.258  0.5857 -0.5363 -0.4514
 8468SOL    HW137040   3.312   0.518   9.174  1.3266  1.1596 -0.9486
 8468SOL    HW237041   3.333   0.637   9.265  1.4304 -1.1643  1.1335
 8469SOL     OW37042   4.486   4.391  13.661  0.2218  0.5108  0.1777
 8469SOL    HW137043   4.518   4.468  13.613  1.1952  1.0729  1.7284
 8469SOL    HW237044   4.555   4.324  13.658  1.1755  1.3570  3.2262
 8470SOL     OW37045   0.918   1.175  14.156  0.3969 -0.1867 -0.4912
 8470SOL    HW137046   0.880   1.261  14.140  0.7811  0.3222  1.3702
 8470SOL    HW237047   0.864   1.118  14.101  1.0054  0.1642 -1.4383
 8471SOL     OW37048   4.395   0.964  16.620  0.1638  0.2722 -0.1391
 8471SOL    HW137049   4.443   1.036  16.578  0.0825  1.2441  1.4169
 8471SOL    HW237050   4.303   0.979  16.595 -0.4711 -1.6494  1.0579
 8472SOL     OW37051   2.887   1.379   9.689 -0.5433 -0.2371  0.2377
 8472SOL    HW137052   2.914   1.314   9.624  1.3961 -0.3629  1.1827
 8472SOL    HW237053   2.792   1.385   9.679 -0.3589 -0.3794 -1.6730
 8473SOL     OW37054   3.400   2.907   8.405  0.2367 -0.0363 -0.2270
 8473SOL    HW137055   3.467   2.975   8.412  0.6026 -0.3074 -1.0751
 8473SOL    HW237056   3.346   2.903   8.484  0.4867  1.8400  0.0241
 8474SOL     OW37057   1.332   2.635   2.060 -0.1577  0.1426 -0.2716
 8474SOL    HW137058   1.312   2.691   2.135 -2.3574  0.3497 -1.0074
 8474SOL    HW237059   1.398   2.580   2.102 -0.8886 -0.1210  0.5482
 8475SOL     OW37060   0.712   2.369   1.313  0.6317  0.0465  0.4809
 8475SOL    HW137061   0.677   2.387   1.226  1.3201 -2.0375 -0.2398
 8475SOL    HW237062   0.631   2.343   1.357 -0.9301 -0.1651 -2.5130
 8476SOL     OW37063   1.391   2.738   7.955 -0.4652 -0.0887 -1.0671
 8476SOL    HW137064   1.435   2.665   7.997 -0.8544 -1.7122 -3.4692
 8476SOL    HW237065   1.308   2.736   8.003 -0.4398 -0.5107 -1.0411
 8477SOL     OW37066   4.681   4.602  10.445 -0.0907 -0.2371 -0.3423
 8477SOL    HW137067   4.656   4.529  10.389 -0.1816 -0.2650 -0.2664
 8477SOL    HW237068   4.681   4.562  10.532 -0.1681  0.2233 -0.1274
 8478SOL     OW37069   3.072   3.971  14.577 -0.6715 -0.3073 -0.6355
 8478SOL    HW137070   3.055   3.967  14.483  1.7863  0.3646 -1.1012
 8478SOL    HW237071   3.084   4.066  14.583  0.0731 -0.4461 -0.0355
 8479SOL     OW37072   0.326   1.457   2.098  0.2738  0.3369 -0.0128
 8479SOL    HW137073   0.253   1.431   2.155  0.5458 -1.3172 -0.4222
 8479SOL    HW237074   0.385   1.382   2.103  0.5579  0.5651  0.0621
 8480SOL     OW37075   2.615   4.400  13.052 -0.5399  0.0190 -0.4126
 8480SOL    HW137076   2.633   4.481  13.003 -1.5533  0.9159  0.6792
 8480SOL    HW237077   2.702   4.362  13.038  0.0087  0.9479  0.4753
 8481SOL     OW37078   1.028   1.215   5.174 -0.1401 -0.0535 -0.5612
 8481SOL    HW137079   1.090   1.278   5.209  0.3926  0.3611 -2.2681
 8481SOL    HW237080   0.945   1.262   5.182  0.1337  0.4063 -0.3889
 8482SOL     OW37081   2.993   0.758   4.834 -0.1216  0.3588  0.2838
 8482SOL    HW137082   3.007   0.775   4.741  1.4136  2.0660  0.8364
 8482SOL    HW237083   2.977   0.846   4.868 -0.8573 -0.2881  1.6008
 8483SOL     OW37084   2.389   1.786   4.296  0.1228 -0.5996 -0.0064
 8483SOL    HW137085   2.442   1.862   4.271 -1.8417  0.7045 -0.1800
 8483SOL    HW237086   2.383   1.795   4.391 -3.0571 -1.6769 -0.0878
 8484SOL     OW37087   0.930   0.014   8.939  0.0262  0.2957 -0.3713
 8484SOL    HW137088   0.894   4.717   9.021 -0.4724 -1.5545 -1.3216
 8484SOL    HW237089   0.996   0.072   8.978 -0.6711  1.2116 -0.5368
 8485SOL     OW37090   2.743   2.711  15.771  0.3298 -0.4980 -0.3225
 8485SOL    HW137091   2.743   2.652  15.697  0.2595  0.5539 -1.1634
 8485SOL    HW237092   2.828   2.756  15.767  1.0214 -1.6817  0.9900
 8486SOL     OW37093   0.100   1.524   8.798  0.2130  0.6761 -0.2167
 8486SOL    HW137094   0.098   1.564   8.885  1.2309  0.6482 -0.1749
 8486SOL    HW237095   0.181   1.475   8.808  0.4035  0.6557 -1.8670
 8487SOL     OW37096   2.716   2.728   8.006  0.4333  0.0064 -0.0817
 8487SOL    HW137097   2.643   2.755   8.062  0.6562 -2.3578  1.3444
 8487SOL    HW237098   2.747   2.813   7.976 -0.3261  1.1542  2.3935
 8488SOL     OW37099   1.162   0.964   8.284  0.1550 -0.2632 -0.6328
 8488SOL    HW137100   1.234   0.905   8.303  0.0204 -1.0631 -2.7281
 8488SOL    HW237101   1.089   0.917   8.325 -0.3774  0.5496 -0.6326
 8489SOL     OW37102   2.156   2.308  11.451  0.0974  0.4433  1.0186
 8489SOL    HW137103   2.113   2.250  11.514  1.5403 -0.9510  0.7216
 8489SOL    HW237104   2.117   2.394  11.466  1.8049  1.3436  0.3585
 8490SOL     OW37105   1.108   1.636   7.458 -0.1240  0.4100 -0.1860
 8490SOL    HW137106   1.141   1.666   7.373 -1.0825  0.2729 -0.6120
 8490SOL    HW237107   1.191   1.637   7.506 -0.2617  0.4245  0.0524
 8491SOL     OW37108   2.815   0.580  10.787  0.0106  0.6390  0.3686
 8491SOL    HW137109   2.829   0.488  10.766  0.6161  0.8775 -0.2567
 8491SOL    HW237110   2.847   0.587  10.877  2.1182  0.9373 -0.3983
 8492SOL     OW37111   3.951   0.376   9.172  0.0750  0.5570 -0.5265
 8492SOL    HW137112   4.021   0.391   9.108  0.4495 -0.3148 -0.3102
 8492SOL    HW237113   3.989   0.402   9.256 -0.4798  0.0033 -0.1050
 8493SOL     OW37114   1.831   4.012   5.254 -0.1344 -0.6194 -0.1532
 8493SOL    HW137115   1.784   3.955   5.314 -0.6270 -0.1881 -0.1357
 8493SOL    HW237116   1.862   3.962   5.178 -0.3470 -0.4638 -0.3446
 8494SOL     OW37117   3.806   4.089   3.562  0.4084  0.2747 -0.3436
 8494SOL    HW137118   3.869   4.153   3.529  0.8770 -0.2033 -0.3899
 8494SOL    HW237119   3.805   4.103   3.656  0.8893  1.8547 -0.5803
 8495SOL     OW37120   2.287   0.963   6.655 -0.3229  0.2371  0.1376
 8495SOL    HW137121   2.228   0.895   6.622  1.4129 -0.5459 -1.3622
 8495SOL    HW237122   2.220   1.013   6.701  0.4278  0.0822  1.3943
 8496SOL     OW37123   1.213   2.990   7.165  0.7561  0.5606  0.0414
 8496SOL    HW137124   1.240   2.918   7.108 -0.3193  0.8641 -0.8429
 8496SOL    HW237125   1.135   2.954   7.208  0.7562  0.7873  0.2310
 8497SOL     OW37126   4.729   4.207   8.356 -0.0958 -0.1872  0.1004
 8497SOL    HW137127   0.075   4.158   8.341  0.7795  0.8608  1.3711
 8497SOL    HW237128   4.706   4.166   8.440  1.2689 -2.3664 -0.5842
 8498SOL     OW37129   0.705   4.590  13.185 -0.1838 -0.0868 -0.4926
 8498SOL    HW137130   0.722   4.663  13.245  1.4585 -1.4308  0.6523
 8498SOL    HW237131   0.789   4.546  13.193  0.5184  1.5342  0.9898
 8499SOL     OW37132   1.278   2.057   6.302  0.5715  0.3658 -0.4829
 8499SOL    HW137133   1.267   2.141   6.258  0.2883  0.0374 -1.0469
 8499SOL    HW237134   1.231   2.080   6.382 -0.0845 -1.4307 -0.3443
 8500SOL     OW37135   1.662   0.911  10.773  0.8122 -0.7071 -0.0332
 8500SOL    HW137136   1.668   0.954  10.688 -2.3817 -1.4209 -0.6231
 8500SOL    HW237137   1.629   0.824  10.750 -1.0962  0.0898 -0.2970
 8501SOL     OW37138   0.999   1.831   8.419  0.4176 -0.2007 -0.5368
 8501SOL    HW137139   0.986   1.863   8.508  0.6266  0.4012 -0.7206
 8501SOL    HW237140   1.029   1.743   8.443 -1.5953 -0.8814 -0.5093
 8502SOL     OW37141   0.487   0.369   9.057 -0.3232 -0.7407  0.3029
 8502SOL    HW137142   0.414   0.412   9.101  0.1584 -0.2394  0.6044
 8502SOL    HW237143   0.558   0.401   9.112  0.3963  1.1801 -1.7424
 8503SOL     OW37144   3.874   3.435   4.635 -0.1585 -0.6473 -0.0748
 8503SOL    HW137145   3.960   3.475   4.648 -1.6797  1.9723  1.9036
 8503SOL    HW237146   3.877   3.354   4.685  0.2668 -1.3514 -1.2385
 8504SOL     OW37147   1.342   3.575   6.054 -0.2163  0.2752  0.3396
 8504SOL    HW137148   1.324   3.493   6.100  2.0865 -0.4296 -0.0238
 8504SOL    HW237149   1.326   3.551   5.963 -2.4861  0.9156  0.5589
 8505SOL     OW37150   4.053   0.373   5.854 -0.4319 -0.2099  0.5913
 8505SOL    HW137151   4.113   0.312   5.813  0.6061  0.7304  0.7152
 8505SOL    HW237152   3.971   0.365   5.804  2.1489  1.7603 -3.9813
 8506SOL     OW37153   2.619   1.767   9.195  0.0656  0.3903 -0.6254
 8506SOL    HW137154   2.553   1.814   9.145 -0.2719  0.6196  0.0325
 8506SOL    HW237155   2.687   1.749   9.131 -0.9054  1.3764 -1.9193
 8507SOL     OW37156   0.398   0.874   3.443 -0.3869  0.6437 -0.3379
 8507SOL    HW137157   0.416   0.910   3.356  0.9804  3.1244  0.9715
 8507SOL    HW237158   0.419   0.781   3.434  1.4228  0.9032  1.1104
 8508SOL     OW37159   0.249   2.315   6.329  0.2449 -0.2266  0.0266
 8508SOL    HW137160   0.156   2.307   6.310  0.2160 -2.0589  0.9318
 8508SOL    HW237161   0.270   2.347   6.241 -0.1629  4.8378  1.7527
 8509SOL     OW37162   1.603   4.178   5.224 -0.3364 -0.0716  0.7702
 8509SOL    HW137163   1.681   4.126   5.242 -0.0856 -0.3177 -1.0662
 8509SOL    HW237164   1.540   4.137   5.283  1.0843 -2.4801  0.6018
 8510SOL     OW37165   0.276   1.417   6.934 -0.1354 -0.0226 -0.3713
 8510SOL    HW137166   0.263   1.343   6.875 -0.0816  0.0756 -0.5059
 8510SOL    HW237167   0.196   1.464   6.912  1.1596  2.4068  0.1213
 8511SOL     OW37168   1.598   2.323   2.756 -0.5235  0.1392  0.2796
 8511SOL    HW137169   1.520   2.372   2.780 -0.3847  0.7814 -0.5908
 8511SOL    HW237170   1.579   2.238   2.795  1.7914 -0.1396  0.8343
 8512SOL     OW37171   1.913   3.825   6.509  0.0669 -0.5468  0.0846
 8512SOL    HW137172   1.833   3.865   6.474 -0.2389 -0.8955  0.3934
 8512SOL    HW237173   1.870   3.759   6.562  2.0906 -0.7059  1.5098
 8513SOL     OW37174   4.654   3.578   8.963 -0.2674  0.7063  0.1161
 8513SOL    HW137175   4.724   3.642   8.957  2.6877 -2.3245  2.5074
 8513SOL    HW237176   4.680   3.532   9.042  0.5664 -0.0786 -0.6215
 8514SOL     OW37177   0.858   1.723   3.403 -0.4183  0.1424 -0.0518
 8514SOL    HW137178   0.764   1.708   3.394 -0.5129  0.6385  0.0965
 8514SOL    HW237179   0.892   1.643   3.365 -1.6120 -0.1126 -0.5931
 8515SOL     OW37180   2.240   2.529  13.989 -0.1676 -0.4202 -0.2309
 8515SOL    HW137181   2.281   2.442  13.995  0.4745 -0.1015  0.0048
 8515SOL    HW237182   2.299   2.574  14.049 -0.3189 -2.5961  1.5531
 8516SOL     OW37183   4.370   4.246   8.196  0.1825  0.2010 -0.4900
 8516SOL    HW137184   4.341   4.229   8.285 -1.0770  0.2304 -0.8914
 8516SOL    HW237185   4.449   4.193   8.186  0.8370  1.9421 -4.7021
 8517SOL     OW37186   1.583   1.163   3.825  0.0758  0.1455 -0.9259
 8517SOL    HW137187   1.517   1.094   3.834 -0.3496  0.9580  2.0940
 8517SOL    HW237188   1.660   1.118   3.860  1.5306  0.8682 -3.2313
 8518SOL     OW37189   0.594   3.004   4.457  0.4860  0.0001  0.5065
 8518SOL    HW137190   0.621   2.916   4.432 -2.1480 -0.9462  0.9639
 8518SOL    HW237191   0.641   3.029   4.536 -2.0148  1.4374  1.5749
 8519SOL     OW37192   1.620   2.759  10.313 -0.0412 -0.1820 -0.0536
 8519SOL    HW137193   1.645   2.723  10.399  0.5449  1.5898  0.5276
 8519SOL    HW237194   1.638   2.687  10.253  0.0364  1.4914 -2.0360
 8520SOL     OW37195   0.803   3.637  10.196  0.4474 -0.0164  0.5272
 8520SOL    HW137196   0.739   3.707  10.199 -0.7380 -1.1071  0.4177
 8520SOL    HW237197   0.840   3.663  10.111  0.9648  0.3906  0.8768
 8521SOL     OW37198   2.062   1.785  14.623 -0.6243 -0.1428 -0.5162
 8521SOL    HW137199   2.084   1.733  14.545  0.1180  0.9726 -1.0428
 8521SOL    HW237200   2.069   1.875  14.591 -0.9509  1.4109  3.8475
 8522SOL     OW37201   2.228   2.178   7.451  0.1458 -0.3102  0.1739
 8522SOL    HW137202   2.293   2.248   7.450 -0.3562  0.1549  0.3937
 8522SOL    HW237203   2.264   2.128   7.378 -0.4798  0.3525 -0.5795
 8523SOL     OW37204   4.540   3.061   6.710 -0.0541  0.0361 -0.3117
 8523SOL    HW137205   4.553   3.152   6.739  0.4552 -0.9929  2.6370
 8523SOL    HW237206   4.597   3.060   6.633 -0.6859 -1.0085 -0.7557
 8524SOL     OW37207   2.203   2.688   3.750 -0.4134  0.4318  0.0736
 8524SOL    HW137208   2.169   2.773   3.777 -0.1372  0.3967  0.5342
 8524SOL    HW237209   2.278   2.706   3.692 -0.8150  0.9359 -0.2918
 8525SOL     OW37210   4.642   2.724  11.923  0.1817 -0.9394  0.0798
 8525SOL    HW137211   4.641   2.683  12.009 -0.6462 -1.5992 -0.2508
 8525SOL    HW237212   4.727   2.692  11.892  0.4521 -0.5820  0.4424
 8526SOL     OW37213   1.929   0.258   2.762 -0.5860  0.2703  0.4111
 8526SOL    HW137214   1.908   0.346   2.793  0.1995  0.6118 -0.0264
 8526SOL    HW237215   1.850   0.205   2.749  0.1290 -1.0780  1.5594
 8527SOL     OW37216   4.333   0.633   3.899 -0.2662 -0.1731 -0.0647
 8527SOL    HW137217   4.284   0.566   3.850 -0.3317  0.4869 -0.9013
 8527SOL    HW237218   4.370   0.580   3.969  0.4837 -1.4370 -1.4288
 8528SOL     OW37219   3.871   2.253  14.511  0.2308  0.1812 -0.4232
 8528SOL    HW137220   3.924   2.316  14.559 -3.3619  1.0505  2.3664
 8528SOL    HW237221   3.793   2.263  14.566  0.9868 -0.1070  0.6894
 8529SOL     OW37222   0.743   3.652   6.954 -0.1125  0.1184 -0.3795
 8529SOL    HW137223   0.673   3.595   6.922  0.6097  0.6578 -2.9532
 8529SOL    HW237224   0.724   3.642   7.047  3.8960 -0.3186  0.3895
 8530SOL     OW37225   1.283   3.355   1.941 -0.2643 -0.2476 -0.5450
 8530SOL    HW137226   1.333   3.432   1.969 -3.1454  0.2608  3.0771
 8530SOL    HW237227   1.223   3.343   2.014  0.0167  1.7995 -0.0027
 8531SOL     OW37228   3.379   0.148   8.588  0.5366  0.0828  0.4290
 8531SOL    HW137229   3.321   0.090   8.637 -1.6835  1.2927 -0.7475
 8531SOL    HW237230   3.312   0.209   8.556 -0.1089 -1.2497 -0.7300
 8532SOL     OW37231   3.853   3.635  13.426  0.0062  0.4621  0.0794
 8532SOL    HW137232   3.896   3.549  13.422  0.9881  0.8800  1.6298
 8532SOL    HW237233   3.918   3.677  13.482  0.4995 -0.0852 -0.0804
 8533SOL     OW37234   4.481   2.152   3.565 -0.2871  0.0178  0.0347
 8533SOL    HW137235   4.547   2.221   3.562 -0.0451 -0.2375 -0.4832
 8533SOL    HW237236   4.476   2.148   3.660  0.7937  1.8971  0.1845
 8534SOL     OW37237   2.808   3.819  14.905  0.1775  0.1584 -0.1831
 8534SOL    HW137238   2.765   3.770  14.975  0.0649 -0.4866 -0.7089
 8534SOL    HW237239   2.878   3.765  14.868  1.4799 -0.0293  2.5673
 8535SOL     OW37240   2.850   1.026   8.502 -0.0795  0.1267  0.2554
 8535SOL    HW137241   2.792   1.064   8.568 -0.5087 -0.4164  0.1884
 8535SOL    HW237242   2.906   0.962   8.546 -0.6946  0.0848  0.9621
 8536SOL     OW37243   2.582   0.912   5.171  0.2679 -0.0242 -0.3741
 8536SOL    HW137244   2.539   0.975   5.113  0.6799  0.7049  0.1182
 8536SOL    HW237245   2.585   0.839   5.110 -1.0944 -1.3276  1.1055
 8537SOL     OW37246   0.530   4.684   8.195  0.2111  0.0362 -0.5232
 8537SOL    HW137247   0.497   4.700   8.283  1.1443 -1.4802  0.1036
 8537SOL    HW237248   0.617   4.646   8.204  0.5024  0.9212  0.3884
 8538SOL     OW37249   4.478   3.344   1.685  0.1074 -0.0804  0.1947
 8538SOL    HW137250   4.413   3.382   1.746 -1.6342  0.9068 -2.2883
 8538SOL    HW237251   4.556   3.385   1.722  0.6635 -1.0279  0.0611
 8539SOL     OW37252   0.293   2.235  10.125  0.3440 -0.2854 -0.1217
 8539SOL    HW137253   0.318   2.296  10.194 -0.7422 -0.4192  0.3962
 8539SOL    HW237254   0.218   2.286  10.095  0.3187 -1.3645 -1.8677
 8540SOL     OW37255   4.666   4.366   3.708  0.3960 -0.2971  0.1991
 8540SOL    HW137256   4.639   4.291   3.760 -2.0263  1.4528  1.4887
 8540SOL    HW237257   0.023   4.347   3.691  0.2784  1.0791 -2.0148
 8541SOL     OW37258   4.101   3.141   3.423  0.3377 -0.5473 -0.2055
 8541SOL    HW137259   4.063   3.140   3.511  0.0263 -2.5281 -0.3725
 8541SOL    HW237260   4.119   3.047   3.428 -0.7471 -0.6497  1.8578
 8542SOL     OW37261   1.768   1.508  10.973  0.0937 -0.0265  0.1589
 8542SOL    HW137262   1.821   1.429  10.958 -0.0721  0.0939 -1.0616
 8542SOL    HW237263   1.693   1.492  10.916  1.4364 -2.3797 -0.9498
 8543SOL     OW37264   0.726   1.624   4.512  0.3769  0.2319  0.0131
 8543SOL    HW137265   0.667   1.551   4.500 -0.1307  0.4997  0.8986
 8543SOL    HW237266   0.809   1.578   4.521  0.5925  0.6380  0.1387
 8544SOL     OW37267   0.569   0.444   7.994 -0.2380  0.8234  0.0247
 8544SOL    HW137268   0.551   0.537   8.010  1.5941  1.5951 -2.5112
 8544SOL    HW237269   0.546   0.408   8.080  0.4637  1.3671  0.4368
 8545SOL     OW37270   3.111   3.581  10.183 -0.0866 -0.1342  0.5643
 8545SOL    HW137271   3.085   3.673  10.188  0.4095 -0.1759  3.8049
 8545SOL    HW237272   3.128   3.562  10.275 -2.4212 -2.4261  0.5453
 8546SOL     OW37273   4.265   2.417   1.831  0.2639 -0.4608 -0.2686
 8546SOL    HW137274   4.172   2.394   1.826  0.0514  0.5874 -1.0060
 8546SOL    HW237275   4.302   2.340   1.875  0.9435  0.1969  0.3100
 8547SOL     OW37276   2.971   0.637   4.319 -0.0762 -0.0867 -0.3530
 8547SOL    HW137277   2.971   0.729   4.345 -2.0630  0.1087 -1.0675
 8547SOL    HW237278   3.025   0.606   4.391 -1.7536 -1.7422  0.1868
 8548SOL     OW37279   1.807   1.653  16.542  0.1590 -0.1167 -0.2124
 8548SOL    HW137280   1.792   1.619  16.454  0.3858 -0.7889  0.0047
 8548SOL    HW237281   1.769   1.737  16.519 -0.8676  0.4483  3.4876
 8549SOL     OW37282   1.815   3.835   0.787  0.3300  0.2066 -0.2093
 8549SOL    HW137283   1.822   3.757   0.733  1.9429  0.0852  0.1706
 8549SOL    HW237284   1.846   3.801   0.871  1.2599  1.2888 -0.1076
 8550SOL     OW37285   0.357   2.608   5.979  0.4024 -0.3562 -0.4744
 8550SOL    HW137286   0.368   2.623   6.072 -1.0511  1.1637 -0.5373
 8550SOL    HW237287   0.321   2.694   5.958 -0.5455 -0.5577  0.3218
 8551SOL     OW37288   3.130   1.249   8.535 -0.1226  0.1883  0.1073
 8551SOL    HW137289   3.035   1.253   8.548  0.0711 -0.4946  1.7035
 8551SOL    HW237290   3.131   1.304   8.457 -0.0976  1.4246  0.9588
 8552SOL     OW37291   1.427   1.083  11.332 -0.2033 -0.4682 -0.8435
 8552SOL    HW137292   1.479   1.023  11.385  1.6549  1.0308 -0.9550
 8552SOL    HW237293   1.341   1.041  11.334  0.4584 -1.7994 -0.1226
 8553SOL     OW37294   0.264   0.795  13.005  0.0488 -0.0747 -0.3617
 8553SOL    HW137295   0.217   0.772  13.086  0.3479  1.4321  0.2441
 8553SOL    HW237296   0.343   0.741  13.011  0.8958  1.3352  1.2940
 8554SOL     OW37297   4.031   3.737   4.853  0.1964  0.3415  0.3247
 8554SOL    HW137298   4.049   3.831   4.851  0.5246  0.2718 -0.0670
 8554SOL    HW237299   3.945   3.727   4.813 -0.4440 -2.0038  2.3380
 8555SOL     OW37300   2.220   2.278   9.084 -0.1167  0.0728  0.1197
 8555SOL    HW137301   2.282   2.230   9.138  0.6088  1.7058  0.7357
 8555SOL    HW237302   2.231   2.235   8.999  4.0661  1.3121  0.0199
 8556SOL     OW37303   1.191   4.471   0.656  0.3857  0.7171 -0.0025
 8556SOL    HW137304   1.175   4.398   0.595  1.0182  0.5183  0.0758
 8556SOL    HW237305   1.104   4.468   0.697 -0.3746  3.8212 -1.3573
 8557SOL     OW37306   3.684   3.831   4.981 -0.6743 -0.2636  0.7971
 8557SOL    HW137307   3.724   3.805   4.898  0.3549  1.6261  0.6874
 8557SOL    HW237308   3.592   3.810   4.962 -0.4744 -1.3958  1.1500
 8558SOL     OW37309   4.666   2.152   8.972 -0.0011  0.3707 -0.5010
 8558SOL    HW137310   4.713   2.105   8.903  1.7608 -1.5762  2.0259
 8558SOL    HW237311   4.575   2.165   8.945 -0.1237  0.5679  0.0046
 8559SOL     OW37312   2.434   0.741   3.822  0.6742  0.4123  0.2853
 8559SOL    HW137313   2.496   0.676   3.855  0.2108  0.6031  1.5485
 8559SOL    HW237314   2.488   0.815   3.794  0.5325  0.4322  0.0710
 8560SOL     OW37315   2.030   0.110   1.867  0.8675 -0.0107 -0.5567
 8560SOL    HW137316   2.092   0.109   1.794  1.6443  1.0478  0.0919
 8560SOL    HW237317   2.027   0.015   1.881  1.8928 -0.0873 -0.8376
 8561SOL     OW37318   4.689   3.929   1.453 -0.1340 -0.0961 -0.2614
 8561SOL    HW137319   0.038   3.886   1.470 -1.0110 -1.2064  1.2374
 8561SOL    HW237320   4.647   3.850   1.420 -1.1871  1.0927 -1.7801
 8562SOL     OW37321   3.660   4.018  10.169  0.0674  0.0769 -0.0359
 8562SOL    HW137322   3.567   4.000  10.152 -0.3624  1.5698  0.7550
 8562SOL    HW237323   3.654   4.103  10.212 -2.0735 -0.3688  0.5530
 8563SOL     OW37324   2.167   1.889   1.588 -0.3016 -0.0022  0.0199
 8563SOL    HW137325   2.156   1.795   1.601  3.5241 -0.1626  2.1127
 8563SOL    HW237326   2.242   1.889   1.529 -1.0029  2.2824 -0.8924
 8564SOL     OW37327   1.522   2.932   6.131  0.3119  0.2757  0.2789
 8564SOL    HW137328   1.549   2.996   6.065  0.2771  0.9111  0.8833
 8564SOL    HW237329   1.603   2.882   6.139 -0.8234 -2.0013 -2.2436
 8565SOL     OW37330   2.093   2.434   0.589  0.2777  0.0431 -0.0648
 8565SOL    HW137331   2.021   2.371   0.592  1.4252 -1.3379 -1.3501
 8565SOL    HW237332   2.163   2.375   0.618 -0.4304 -1.0668 -0.6133
 8566SOL     OW37333   0.946   0.155   2.766  0.0336 -0.0742 -0.2238
 8566SOL    HW137334   0.977   0.236   2.807  0.2799 -0.3240  0.0798
 8566SOL    HW237335   0.853   0.172   2.748 -0.3650 -0.4946  1.3634
 8567SOL     OW37336   0.289   2.031  12.728  0.0769  0.1384 -0.5676
 8567SOL    HW137337   0.364   2.089  12.721  0.4062 -0.4400 -1.8698
 8567SOL    HW237338   0.320   1.958  12.673  0.2747  0.1036 -0.4082
 8568SOL     OW37339   0.021   4.688   8.208 -0.0469  0.0910  0.5102
 8568SOL    HW137340   0.044   4.626   8.278  0.0204 -2.2325 -1.5458
 8568SOL    HW237341   0.052   4.636   8.134  0.5595  1.5528 -0.2545
 8569SOL     OW37342   3.116   0.008   4.789 -0.3337 -0.0094  0.2664
 8569SOL    HW137343   3.154   0.062   4.858  0.0219  0.5260 -0.3589
 8569SOL    HW237344   3.025   0.029   4.811  0.3534  0.2380  2.9209
 8570SOL     OW37345   3.600   1.580   3.503 -0.2240  0.4880 -0.2447
 8570SOL    HW137346   3.539   1.652   3.519 -0.2877  0.6436 -1.1738
 8570SOL    HW237347   3.567   1.548   3.419 -1.0847  0.8935 -0.0680
 8571SOL     OW37348   4.618   2.488  13.307  0.3550  0.1192 -0.6470
 8571SOL    HW137349   4.621   2.558  13.373 -1.7254 -1.0193  0.6432
 8571SOL    HW237350   4.644   2.541  13.232  0.6946  0.8062 -0.0514
 8572SOL     OW37351   3.643   1.227   3.557 -0.3311  0.7049 -0.4321
 8572SOL    HW137352   3.652   1.313   3.598  0.3135  0.3795  0.1060
 8572SOL    HW237353   3.645   1.256   3.465 -2.1330  2.7351  0.1740
 8573SOL     OW37354   0.243   3.203   3.430 -0.8774 -0.4394 -0.2597
 8573SOL    HW137355   0.241   3.293   3.463 -1.0668 -0.3116 -0.6263
 8573SOL    HW237356   0.316   3.175   3.486 -1.1317 -1.7290 -0.5849
 8574SOL     OW37357   3.005   2.977   8.215 -0.4049 -0.3229  0.3290
 8574SOL    HW137358   3.089   2.936   8.193  0.5076  1.7053  0.0516
 8574SOL    HW237359   3.002   2.950   8.307 -1.6590 -0.1268  0.3547
 8575SOL     OW37360   1.519   0.669   6.559  0.1457  0.2543 -0.3810
 8575SOL    HW137361   1.579   0.642   6.628  1.0463 -0.7099 -1.5442
 8575SOL    HW237362   1.547   0.760   6.545 -2.4355  1.3019  1.2826
 8576SOL     OW37363   1.856   2.839   1.848 -0.4670  0.1579  0.1293
 8576SOL    HW137364   1.883   2.793   1.928  0.6345  1.2363  0.3841
 8576SOL    HW237365   1.945   2.858   1.818 -0.4336 -0.5617 -0.2478
 8577SOL     OW37366   2.055   1.999   7.593 -0.1730 -0.4398  0.0361
 8577SOL    HW137367   2.018   1.926   7.544  1.1200 -1.1406  0.1065
 8577SOL    HW237368   2.108   2.036   7.523  0.8445 -1.9346  0.0181
 8578SOL     OW37369   0.600   0.655   7.074  0.2710  0.2958 -0.1714
 8578SOL    HW137370   0.636   0.579   7.119 -0.6557 -1.5139 -2.4656
 8578SOL    HW237371   0.648   0.731   7.108 -2.4367  1.3288  1.4074
 8579SOL     OW37372   0.839   0.363   5.620  0.0280  0.0514  0.7026
 8579SOL    HW137373   0.907   0.393   5.680  0.7799  2.1892 -1.1942
 8579SOL    HW237374   0.862   0.271   5.615 -0.0178  0.0621  0.2379
 8580SOL     OW37375   2.254   4.014   1.038  0.0724  0.1918 -0.4238
 8580SOL    HW137376   2.330   4.050   1.083 -0.6407 -1.2671  1.9669
 8580SOL    HW237377   2.196   4.089   1.035 -0.0471  0.1157 -0.0778
 8581SOL     OW37378   0.274   4.168  15.366 -0.4168  0.2729  0.3818
 8581SOL    HW137379   0.280   4.222  15.445 -1.6853 -0.6581  1.0955
 8581SOL    HW237380   0.358   4.194  15.327 -0.3273  0.2979  0.5936
 8582SOL     OW37381   3.546   0.699  13.133 -0.0318 -0.7535  0.2420
 8582SOL    HW137382   3.588   0.737  13.055  0.1713 -3.6994 -1.0827
 8582SOL    HW237383   3.573   0.761  13.201 -0.8626 -0.3831  0.2307
 8583SOL     OW37384   0.874   4.103   7.262 -0.2122 -0.4385 -0.3834
 8583SOL    HW137385   0.922   4.146   7.192 -0.7151  1.0758  0.2147
 8583SOL    HW237386   0.795   4.080   7.213 -0.4955  1.0823 -0.6352
 8584SOL     OW37387   2.671   3.518   6.614  0.3769 -0.1016 -0.0040
 8584SOL    HW137388   2.620   3.445   6.580  0.0266 -0.8113  2.0274
 8584SOL    HW237389   2.701   3.553   6.530  0.4550  1.2991  0.6074
 8585SOL     OW37390   0.547   4.659  17.441  0.1321  0.5393 -0.0696
 8585SOL    HW137391   0.632   4.623  17.415 -0.7036 -1.4349  0.0161
 8585SOL    HW237392   0.566   0.016  17.419 -1.1216  0.9615  0.6219
 8586SOL     OW37393   0.498   4.130   6.268 -0.2289  0.5503 -0.5899
 8586SOL    HW137394   0.531   4.220   6.267 -0.1618  0.5154 -1.6253
 8586SOL    HW237395   0.405   4.140   6.246 -0.9551  1.1495  2.8422
 8587SOL     OW37396   4.042   1.093  13.872 -0.1181 -0.2839 -0.3288
 8587SOL    HW137397   4.003   1.135  13.950  1.5282 -1.2146  0.9921
 8587SOL    HW237398   4.061   1.162  13.809 -3.5394  0.1264 -0.9345
 8588SOL     OW37399   2.914   0.125   6.218  0.9342 -0.3854 -0.5892
 8588SOL    HW137400   2.852   0.052   6.230  0.9040  0.0081  1.6235
 8588SOL    HW237401   2.948   0.108   6.130  1.3470 -0.6267 -0.3852
 8589SOL     OW37402   1.245   2.789   5.584  1.0847  0.1901 -0.4606
 8589SOL    HW137403   1.321   2.739   5.614  0.7797  1.1151  1.8434
 8589SOL    HW237404   1.277   2.876   5.559  1.9032 -0.0363 -0.1777
 8590SOL     OW37405   0.240   2.082   4.870  0.1188  0.3423  0.3671
 8590SOL    HW137406   0.314   2.137   4.844 -0.7898  1.3253 -0.1210
 8590SOL    HW237407   0.251   1.996   4.830  0.1059  0.3602  0.3253
 8591SOL     OW37408   2.061   2.632   8.197  0.1762 -0.8067 -0.1151
 8591SOL    HW137409   2.031   2.718   8.167  0.0891 -1.3097 -1.4825
 8591SOL    HW237410   2.132   2.604   8.138  1.3477 -0.6222  1.2054
 8592SOL     OW37411   1.500   1.471   6.030  0.1497  0.0600 -0.2787
 8592SOL    HW137412   1.589   1.465   6.066 -0.5519 -0.6134  1.3483
 8592SOL    HW237413   1.452   1.460   6.112  0.5948 -2.1928 -0.3396
 8593SOL     OW37414   4.304   3.452  13.417  0.1928 -0.5489 -0.2973
 8593SOL    HW137415   4.250   3.469  13.340  0.2941 -1.5595 -0.5912
 8593SOL    HW237416   4.341   3.537  13.438 -1.7191  0.0187  0.8221
 8594SOL     OW37417   2.170   1.986   5.352 -0.3434 -0.4582  0.5315
 8594SOL    HW137418   2.236   2.030   5.299  0.3176  0.0581  1.7891
 8594SOL    HW237419   2.110   1.950   5.286  2.0056  0.3319 -2.0439
 8595SOL     OW37420   3.223   3.601  10.910  0.3656 -0.4589  0.2344
 8595SOL    HW137421   3.246   3.686  10.947 -2.4516 -0.2592  1.5033
 8595SOL    HW237422   3.306   3.577  10.869 -0.5441  1.0690 -2.5429
 8596SOL     OW37423   0.582   2.904   6.025  0.4509 -0.1428 -0.2326
 8596SOL    HW137424   0.556   2.969   5.960  2.4328  0.0755 -0.7994
 8596SOL    HW237425   0.499   2.879   6.066 -0.2053  2.3069 -0.0802
 8597SOL     OW37426   1.905   1.488   0.838 -0.0413  0.4691  0.1968
 8597SOL    HW137427   1.816   1.486   0.803 -0.6002 -3.1450  1.7758
 8597SOL    HW237428   1.962   1.526   0.772  0.1149 -0.3470 -0.1366
 8598SOL     OW37429   2.978   1.752   9.777  0.2684 -0.0997 -0.1768
 8598SOL    HW137430   2.901   1.732   9.830 -0.2162 -0.7491 -1.1469
 8598SOL    HW237431   2.988   1.847   9.784  1.2765 -0.1475 -1.0737
 8599SOL     OW37432   0.441   0.860   7.250 -0.2293  0.2373 -0.6263
 8599SOL    HW137433   0.512   0.813   7.293  0.0237  1.6372  0.4788
 8599SOL    HW237434   0.443   0.944   7.296 -0.3179  1.2590 -2.4938
 8600SOL     OW37435   3.368   2.296  14.908  0.0783  0.4876 -0.5843
 8600SOL    HW137436   3.312   2.296  14.986  0.9056 -0.2026 -0.0011
 8600SOL    HW237437   3.413   2.380  14.903  1.5664 -0.1781  1.7871
 8601SOL     OW37438   2.876   0.089   2.687  0.0704 -0.1021  0.2561
 8601SOL    HW137439   2.787   0.053   2.689 -0.5955  1.3654 -2.1101
 8601SOL    HW237440   2.862   0.138   2.605  2.7891  0.8890  0.3841
 8602SOL     OW37441   3.953   3.099   1.751  0.3323  0.2086  0.2429
 8602SOL    HW137442   4.021   3.156   1.788 -1.6753  3.1407 -0.5476
 8602SOL    HW237443   3.874   3.130   1.795  0.6655  1.1174  0.1971
 8603SOL     OW37444   1.020   2.989   3.999  0.0366 -0.1156 -0.0893
 8603SOL    HW137445   1.112   2.984   3.973 -0.0599  0.8806 -0.6415
 8603SOL    HW237446   1.008   2.911   4.053 -1.5489 -0.6379 -1.1969
 8604SOL     OW37447   0.481   4.022   6.594 -0.1385 -0.3038  0.0139
 8604SOL    HW137448   0.412   4.085   6.573  0.0215 -0.2284 -0.2900
 8604SOL    HW237449   0.435   3.962   6.653  1.2606 -1.1455  0.2490
 8605SOL     OW37450   2.974   1.480   3.868 -0.1640 -0.0670 -0.0981
 8605SOL    HW137451   2.920   1.533   3.809  1.1370  1.4253  0.0256
 8605SOL    HW237452   2.911   1.425   3.913 -0.6369  2.0563  1.8336
 8606SOL     OW37453   3.655   3.723   4.452  0.3270 -0.6269 -0.0851
 8606SOL    HW137454   3.674   3.776   4.374 -2.4547 -0.6176 -0.7608
 8606SOL    HW237455   3.633   3.640   4.410 -0.1107 -0.6223  0.1372
 8607SOL     OW37456   2.899   0.596  15.826  0.3046 -0.0035 -0.1918
 8607SOL    HW137457   2.962   0.527  15.846 -1.0084 -0.6687  1.6834
 8607SOL    HW237458   2.951   0.671  15.797 -0.2842 -0.0402 -1.3418
 8608SOL     OW37459   0.560   4.160   3.211 -0.0688 -0.1184 -0.6027
 8608SOL    HW137460   0.635   4.191   3.160 -0.4638 -2.1812 -2.4037
 8608SOL    HW237461   0.571   4.066   3.198 -1.1080 -0.2355 -0.5791
 8609SOL     OW37462   3.461   3.695   1.722 -0.7790  0.2218  0.3970
 8609SOL    HW137463   3.480   3.611   1.763 -0.6407 -0.4586 -1.0780
 8609SOL    HW237464   3.498   3.688   1.634 -1.4693 -0.0618  0.1305
 8610SOL     OW37465   4.364   3.173   4.826  0.0250  0.6972 -0.2217
 8610SOL    HW137466   4.397   3.141   4.742  0.5830  0.2058  0.1910
 8610SOL    HW237467   4.306   3.101   4.850  3.9560 -2.1106  0.7080
 8611SOL     OW37468   0.251   1.984   8.299 -0.3131  0.4741  0.3377
 8611SOL    HW137469   0.253   1.932   8.218  0.4043  0.6374  0.2527
 8611SOL    HW237470   0.169   1.955   8.339 -0.5207 -0.7540 -0.9662
 8612SOL     OW37471   0.951   0.879   8.934 -0.1348 -0.1945 -0.3204
 8612SOL    HW137472   0.995   0.811   8.985  2.7521 -0.1737 -2.8046
 8612SOL    HW237473   0.912   0.935   9.001 -1.0630 -0.9525 -0.2265
 8613SOL     OW37474   3.524   1.754   0.763 -0.1746  0.2348 -0.2422
 8613SOL    HW137475   3.478   1.700   0.699  0.3704 -2.3054  1.4800
 8613SOL    HW237476   3.452   1.784   0.819  0.4665 -1.2223  1.3877
 8614SOL     OW37477   3.417   2.275   7.985 -0.1959  0.6892 -0.1563
 8614SOL    HW137478   3.348   2.268   7.918  0.1952 -2.2510 -0.2508
 8614SOL    HW237479   3.500   2.276   7.938 -0.3173  1.5038 -0.3586
 8615SOL     OW37480   2.737   0.684  10.365 -0.0553 -0.2313  0.0410
 8615SOL    HW137481   2.811   0.698  10.424  0.5371 -0.1042 -0.7463
 8615SOL    HW237482   2.691   0.626  10.427 -0.1973 -0.8687 -0.6596
 8616SOL     OW37483   0.837   2.803   4.143 -0.3308  0.2942 -0.4205
 8616SOL    HW137484   0.743   2.786   4.144 -0.3550  0.7099  2.8509
 8616SOL    HW237485   0.850   2.823   4.235  2.0353 -2.3183 -0.1773
 8617SOL     OW37486   0.895   3.633   3.708  0.6166 -0.4112 -0.5685
 8617SOL    HW137487   0.886   3.548   3.750  0.5210  0.4262  1.1274
 8617SOL    HW237488   0.905   3.679   3.791 -1.8402  0.1509 -0.5812
 8618SOL     OW37489   2.110   0.067   7.349  0.0681  0.1692 -0.2317
 8618SOL    HW137490   2.054   4.724   7.359  0.6597 -0.0273  1.5575
 8618SOL    HW237491   2.148   0.055   7.262  0.0532  2.5287 -0.5668
 8619SOL     OW37492   0.855   0.884   4.461  0.2824 -0.9661  0.4529
 8619SOL    HW137493   0.899   0.812   4.416 -0.7173 -1.1539 -0.2291
 8619SOL    HW237494   0.861   0.955   4.397 -1.0952 -0.8310  0.4702
 8620SOL     OW37495   0.806   2.842   7.962 -0.1385  0.1775  0.0308
 8620SOL    HW137496   0.768   2.850   8.050  0.3114  1.9669  0.0585
 8620SOL    HW237497   0.848   2.926   7.945 -0.2100 -0.0427 -1.2507
 8621SOL     OW37498   2.470   1.188  10.597 -0.2420  0.5760  0.4245
 8621SOL    HW137499   2.527   1.142  10.535  0.2269  0.8284  0.6671
 8621SOL    HW237500   2.465   1.132  10.674  2.5742 -2.8327 -1.8483
 8622SOL     OW37501   3.418   0.851   2.168 -0.0093  0.3543 -0.1920
 8622SOL    HW137502   3.338   0.892   2.135 -0.0285 -0.3187 -0.9762
 8622SOL    HW237503   3.395   0.790   2.239  1.9309 -2.7508 -2.2424
 8623SOL     OW37504   1.337   3.390   5.437 -0.1394  0.5520  0.1786
 8623SOL    HW137505   1.376   3.467   5.480 -0.6911  0.2073  1.2892
 8623SOL    HW237506   1.251   3.390   5.479  0.0989  1.8073  0.6886
 8624SOL     OW37507   2.678   2.675  15.446 -0.1512  0.0997 -0.4119
 8624SOL    HW137508   2.757   2.725  15.465 -0.2276 -0.1315  0.5581
 8624SOL    HW237509   2.681   2.671  15.351 -0.3825  1.1500 -0.4560
 8625SOL     OW37510   2.648   1.818   1.156  0.9547  0.6021  0.4631
 8625SOL    HW137511   2.678   1.792   1.243 -0.7095 -1.4068  0.4171
 8625SOL    HW237512   2.729   1.828   1.105  1.3370 -0.8377  0.7873
 8626SOL     OW37513   3.830   1.029  17.571  0.7514  0.0333 -0.0818
 8626SOL    HW137514   3.766   1.099  17.558  0.4036 -0.4339 -0.9010
 8626SOL    HW237515   3.866   1.016  17.483  0.8094 -1.3210  0.1452
 8627SOL     OW37516   0.169   1.459   6.568 -0.3415  0.1019 -0.2693
 8627SOL    HW137517   0.225   1.384   6.591  0.7848  1.5267  1.6010
 8627SOL    HW237518   0.133   1.436   6.482 -0.5846  0.1022 -0.1690
 8628SOL     OW37519   0.820   1.574  15.274 -0.3549 -0.0287 -0.1742
 8628SOL    HW137520   0.862   1.660  15.268  4.4470 -2.2060  2.5794
 8628SOL    HW237521   0.801   1.559  15.181 -2.9269 -0.4798  0.4419
 8629SOL     OW37522   4.265   2.003   4.743 -0.2835  0.0505  0.0999
 8629SOL    HW137523   4.327   2.075   4.741 -1.5822  1.1717 -0.0888
 8629SOL    HW237524   4.317   1.923   4.749 -0.7667 -0.1469  1.9410
 8630SOL     OW37525   4.078   0.824   3.998  0.1106 -0.2158 -0.2644
 8630SOL    HW137526   3.984   0.808   3.994  0.4098 -2.1333  0.3725
 8630SOL    HW237527   4.108   0.787   3.915  2.1011  2.4520 -0.7636
 8631SOL     OW37528   3.282   3.621   4.073  0.2966  0.4080 -0.0893
 8631SOL    HW137529   3.212   3.677   4.041 -0.1381  1.0573  1.9744
 8631SOL    HW237530   3.278   3.629   4.169 -0.3043  2.5704 -0.3022
 8632SOL     OW37531   3.888   0.521  15.840 -0.0307  0.4252  0.0554
 8632SOL    HW137532   3.970   0.559  15.807  1.2846 -1.4162  1.1797
 8632SOL    HW237533   3.830   0.564  15.778 -1.1069 -0.8892  0.1385
 8633SOL     OW37534   3.473   1.850  11.075 -0.0639  0.3648 -0.6756
 8633SOL    HW137535   3.470   1.823  10.983 -0.3471 -0.2272 -0.4876
 8633SOL    HW237536   3.380   1.869  11.087 -0.1959 -1.8377  1.7533
 8634SOL     OW37537   1.143   1.898   2.178 -0.1836 -0.3135 -0.2434
 8634SOL    HW137538   1.070   1.922   2.121  0.2635  4.2474  1.1126
 8634SOL    HW237539   1.108   1.812   2.201  0.4007 -1.1457 -2.5323
 8635SOL     OW37540   3.929   2.421   4.170  0.8867 -0.2098 -0.2930
 8635SOL    HW137541   3.932   2.452   4.080 -1.9915 -0.3869 -0.4463
 8635SOL    HW237542   3.989   2.485   4.207  0.7510  1.1204 -2.4159
 8636SOL     OW37543   3.952   0.135   9.504 -0.1653 -0.3905  0.7146
 8636SOL    HW137544   3.868   0.181   9.515  0.5023  0.9236  0.3742
 8636SOL    HW237545   4.007   0.209   9.476  0.7984 -0.3568  2.7280
 8637SOL     OW37546   4.120   2.694   9.549  0.5847  0.3388 -0.1699
 8637SOL    HW137547   4.126   2.728   9.460  0.0305  1.3168  0.1744
 8637SOL    HW237548   4.174   2.615   9.548  0.5058  0.2864 -0.3658
 8638SOL     OW37549   0.352   0.889  17.600  0.2209 -0.2909 -0.3135
 8638SOL    HW137550   0.317   0.939  17.527 -2.2443  0.2096  1.2171
 8638SOL    HW237551   0.420   0.947  17.635  0.5821 -0.3587 -0.9052
 8639SOL     OW37552   1.438   0.919   8.566 -0.0779  0.8789 -0.1881
 8639SOL    HW137553   1.473   1.007   8.549  2.9405 -0.3991 -0.5483
 8639SOL    HW237554   1.496   0.866   8.512 -0.8926 -1.0738  0.8800
 8640SOL     OW37555   0.740   0.991  14.378  0.6963 -0.0400 -0.2189
 8640SOL    HW137556   0.663   1.048  14.387 -0.4825 -1.2841 -2.3670
 8640SOL    HW237557   0.788   1.027  14.304 -0.7153  0.6059 -0.8159
 8641SOL     OW37558   4.428   4.396   2.087 -0.1598 -0.0140 -0.2196
 8641SOL    HW137559   4.345   4.388   2.134 -0.1345 -1.2839 -0.3808
 8641SOL    HW237560   4.401   4.339   2.015  0.3207  1.3117 -1.4502
 8642SOL     OW37561   3.226   4.453  11.749  0.0463 -0.6387  0.2279
 8642SOL    HW137562   3.141   4.444  11.708  0.8786 -0.5030 -1.5036
 8642SOL    HW237563   3.197   4.483  11.835 -0.2883 -1.2444  0.3299
 8643SOL     OW37564   2.922   1.942   8.742  0.3471 -0.2321  0.4702
 8643SOL    HW137565   2.881   2.028   8.758 -1.4846 -0.9416 -0.4763
 8643SOL    HW237566   2.991   1.959   8.678  0.4292  1.5272  1.0262
 8644SOL     OW37567   4.113   3.955  10.228 -0.4646 -0.0146 -0.6563
 8644SOL    HW137568   4.145   3.906  10.304 -2.7358  0.6548  0.7105
 8644SOL    HW237569   4.097   4.038  10.272 -1.0038 -0.4206 -0.1008
 8645SOL     OW37570   4.348   0.583   7.428 -0.0472  0.3512 -0.1012
 8645SOL    HW137571   4.259   0.603   7.399 -0.4911  0.0171  1.0202
 8645SOL    HW237572   4.329   0.582   7.522 -0.1885 -0.9671 -0.1529
 8646SOL     OW37573   1.504   2.906   1.088  0.0510 -0.2370 -0.0696
 8646SOL    HW137574   1.523   2.834   1.028 -0.7955 -1.1926  0.8010
 8646SOL    HW237575   1.591   2.944   1.080  0.0906 -0.5079 -0.9301
 8647SOL     OW37576   1.012   2.803   1.151 -0.6578  0.2494 -0.0206
 8647SOL    HW137577   1.108   2.801   1.157 -0.7405 -0.5605  0.9156
 8647SOL    HW237578   0.996   2.735   1.215 -1.1335  0.7571  0.3945
 8648SOL     OW37579   3.669   0.139  15.575 -0.1021 -0.5492  0.0063
 8648SOL    HW137580   3.749   0.187  15.556  0.6542 -2.1532 -0.7968
 8648SOL    HW237581   3.613   0.193  15.519 -1.7983 -0.5824  1.6788
 8649SOL     OW37582   4.122   0.706  11.197  0.0228  0.5018  0.3743
 8649SOL    HW137583   4.154   0.618  11.215 -0.5661  0.5399  1.6345
 8649SOL    HW237584   4.094   0.731  11.286 -2.9143  0.6188 -0.5981
 8650SOL     OW37585   2.281   0.728   5.294 -0.0233 -0.6903 -0.1560
 8650SOL    HW137586   2.193   0.693   5.298 -1.2121  2.1467 -1.1817
 8650SOL    HW237587   2.347   0.668   5.328  0.9418  0.7875  0.5683
 8651SOL     OW37588   3.815   2.819   3.142 -0.3172  0.4216  0.5450
 8651SOL    HW137589   3.793   2.783   3.228  1.7456 -1.8881  0.1056
 8651SOL    HW237590   3.907   2.793   3.142 -1.1500 -2.5261  0.3286
 8652SOL     OW37591   4.521   0.924   2.707 -0.0873 -0.0106  0.5197
 8652SOL    HW137592   4.438   0.963   2.679 -0.2000  0.3556  1.3606
 8652SOL    HW237593   4.579   0.997   2.729  0.8342 -0.3644 -0.7792
 8653SOL     OW37594   2.361   1.320   2.260 -0.3448 -0.2057 -0.5126
 8653SOL    HW137595   2.407   1.404   2.259 -0.4474 -0.1633 -1.7575
 8653SOL    HW237596   2.346   1.305   2.166 -0.3318  1.1177 -0.7266
 8654SOL     OW37597   3.683   1.020   8.881 -0.7976 -0.0798  0.1846
 8654SOL    HW137598   3.661   0.974   8.800 -0.9311  3.2596 -1.6558
 8654SOL    HW237599   3.598   1.045   8.917 -0.8436  0.0493 -0.0147
 8655SOL     OW37600   3.392   0.551  14.052  0.5664  0.9106 -0.3296
 8655SOL    HW137601   3.382   0.599  13.970 -4.4937  0.0234 -0.2355
 8655SOL    HW237602   3.362   0.616  14.115 -0.5070  0.3027 -0.2192
 8656SOL     OW37603   0.929   3.839   8.605 -0.1942 -0.0702  0.1300
 8656SOL    HW137604   0.852   3.843   8.548  0.5757  1.3180 -0.8362
 8656SOL    HW237605   0.923   3.924   8.648 -0.9878 -0.8651  1.5540
 8657SOL     OW37606   3.123   0.505   6.258 -0.1480 -0.2334  0.0826
 8657SOL    HW137607   3.072   0.539   6.332 -0.5920 -2.6122  0.8661
 8657SOL    HW237608   3.135   0.578   6.197  0.7364 -1.5348 -1.3016
 8658SOL     OW37609   0.423   1.861  16.530  0.1310  0.3188 -0.4082
 8658SOL    HW137610   0.484   1.934  16.539  0.5719 -0.0417 -0.4481
 8658SOL    HW237611   0.367   1.887  16.457 -0.2777  0.1464 -0.1573
 8659SOL     OW37612   0.276   2.637  11.331 -0.9201  0.4820  0.3221
 8659SOL    HW137613   0.223   2.601  11.260 -0.6213  0.2187  0.2360
 8659SOL    HW237614   0.226   2.611  11.408  0.6758 -0.8726  0.8934
 8660SOL     OW37615   2.360   3.452   4.844  0.0937 -0.0972 -0.1907
 8660SOL    HW137616   2.382   3.545   4.840  0.5726 -0.2662 -1.4275
 8660SOL    HW237617   2.442   3.407   4.821  0.8234  0.2338  1.8495
 8661SOL     OW37618   1.581   4.099  17.424  0.3908  0.0033  0.4653
 8661SOL    HW137619   1.639   4.108  17.348 -2.9691  0.7317 -2.0048
 8661SOL    HW237620   1.581   4.190  17.454  1.1733  0.7605 -1.8017
 8662SOL     OW37621   0.414   3.061   3.653 -0.6319 -0.0534 -0.2074
 8662SOL    HW137622   0.392   3.049   3.745  4.3772 -0.8396  0.9073
 8662SOL    HW237623   0.510   3.071   3.654 -0.8498  1.9930  0.5386
 8663SOL     OW37624   1.412   4.144   6.627 -0.4600 -0.2038  0.0591
 8663SOL    HW137625   1.438   4.084   6.557  0.3820  0.7105 -0.4126
 8663SOL    HW237626   1.492   4.162   6.678 -0.9232 -1.3173  1.1815
 8664SOL     OW37627   4.019   3.298   2.725  0.5022  0.3826  0.2807
 8664SOL    HW137628   4.065   3.377   2.752  2.5398 -0.6013 -0.3092
 8664SOL    HW237629   3.956   3.313   2.796  0.4746  3.9757 -0.5232
 8665SOL     OW37630   0.398   0.174  14.581 -0.4759 -0.7291 -0.1848
 8665SOL    HW137631   0.435   0.202  14.665  0.6778  0.9304 -1.2548
 8665SOL    HW237632   0.450   0.095  14.568  0.3524 -0.4629  1.4702
 8666SOL     OW37633   4.561   3.008  11.898  0.4945 -0.2820  0.1679
 8666SOL    HW137634   4.541   2.924  11.940 -0.4043  0.5308  1.3257
 8666SOL    HW237635   4.558   3.062  11.976  1.3702  2.4170 -1.6633
 8667SOL     OW37636   3.183   0.355   5.159 -0.0601  0.3258 -0.1239
 8667SOL    HW137637   3.128   0.403   5.098 -1.3547 -2.4415 -1.1108
 8667SOL    HW237638   3.249   0.420   5.183  1.3426 -0.9619 -0.4515
 8668SOL     OW37639   0.043   2.570   0.601 -0.3181 -1.0008  0.3957
 8668SOL    HW137640   4.693   2.534   0.626 -1.5674 -1.0186 -3.9268
 8668SOL    HW237641   0.099   2.555   0.677  3.9882  0.3529 -2.4890
 8669SOL     OW37642   1.404   4.583   6.560  0.3590 -0.5164 -0.1774
 8669SOL    HW137643   1.359   4.650   6.508  0.1530  1.5031  2.5692
 8669SOL    HW237644   1.343   4.510   6.549 -0.6878  0.3613 -0.2716
 8670SOL     OW37645   2.747   2.954   4.075 -0.1116 -0.2662 -0.3032
 8670SOL    HW137646   2.685   2.887   4.102 -0.6636 -0.4162 -1.9111
 8670SOL    HW237647   2.796   2.954   4.157 -0.2681 -1.7037 -0.2153
 8671SOL     OW37648   3.441   0.156  14.337  0.2440  0.5243  0.3488
 8671SOL    HW137649   3.354   0.195  14.335  0.1610  0.3420  0.4392
 8671SOL    HW237650   3.486   0.217  14.396 -1.6119  2.2340  0.0024
 8672SOL     OW37651   0.326   3.861   7.659 -0.2528  0.0757  0.2520
 8672SOL    HW137652   0.278   3.900   7.732 -1.3096 -1.7871  0.5631
 8672SOL    HW237653   0.314   3.767   7.673  1.9201 -0.2799 -0.2609
 8673SOL     OW37654   3.969   0.129  10.378 -0.0629  0.4539 -0.8104
 8673SOL    HW137655   3.975   0.054  10.437  0.0376  1.0938 -0.0146
 8673SOL    HW237656   3.921   0.087  10.307 -0.1778  0.5275 -0.7763
 8674SOL     OW37657   4.170   4.563   2.878 -0.3230  0.2200 -0.3164
 8674SOL    HW137658   4.261   4.581   2.904 -0.2301 -0.3102 -0.2713
 8674SOL    HW237659   4.122   4.547   2.959 -1.8644  3.9829 -0.4519
 8675SOL     OW37660   0.702   3.004   1.240 -0.1994 -0.4346  0.0359
 8675SOL    HW137661   0.763   3.002   1.313 -2.3184  1.0197  1.8332
 8675SOL    HW237662   0.737   3.072   1.182  0.1605 -0.4232  0.2676
 8676SOL     OW37663   4.351   0.046   7.898 -0.4717  0.2759  0.7650
 8676SOL    HW137664   4.408   4.710   7.869 -0.0643  0.7559  0.3979
 8676SOL    HW237665   4.381   0.050   7.989  1.7494  1.4979 -0.0255
 8677SOL     OW37666   0.759   0.787   9.260 -0.1273 -0.0079 -0.0064
 8677SOL    HW137667   0.785   0.857   9.201 -1.6435 -0.0560 -0.7341
 8677SOL    HW237668   0.777   0.826   9.346  1.9069  0.9482 -0.8598
 8678SOL     OW37669   4.055   0.877  11.798  0.0739 -0.1325 -0.0122
 8678SOL    HW137670   4.125   0.942  11.789  2.5146 -2.2136  3.8421
 8678SOL    HW237671   4.088   0.800  11.845  1.0012  0.6735  0.6723
 8679SOL     OW37672   4.023   3.239   0.941 -0.5722 -1.0531  0.0670
 8679SOL    HW137673   3.978   3.154   0.942 -0.8054 -0.9253  0.4137
 8679SOL    HW237674   4.038   3.249   1.035  0.5761 -0.8813 -0.1388
 8680SOL     OW37675   1.972   0.067   2.340 -0.3715 -0.5557  0.1726
 8680SOL    HW137676   1.988   0.142   2.397  1.2904 -0.4999 -0.3628
 8680SOL    HW237677   2.008   0.114   2.265 -0.9637 -0.2141  0.1062
 8681SOL     OW37678   2.881   1.027   7.208 -0.1290 -0.1956  0.0248
 8681SOL    HW137679   2.892   0.933   7.198  1.5771  0.1447 -1.1887
 8681SOL    HW237680   2.867   1.052   7.117  0.2259  0.9422  0.2828
 8682SOL     OW37681   2.734   1.658   0.860 -0.4605  0.0429  0.0796
 8682SOL    HW137682   2.784   1.701   0.929  0.6264 -0.2119 -0.5653
 8682SOL    HW237683   2.718   1.571   0.897 -2.3263  0.9265  1.4043
 8683SOL     OW37684   0.830   4.532   9.149 -0.5659  0.0871 -0.0127
 8683SOL    HW137685   0.751   4.580   9.125  0.1889  0.8574 -0.9403
 8683SOL    HW237686   0.820   4.523   9.244 -0.9622 -0.2639 -0.0865
 8684SOL     OW37687   1.736   2.461  13.231 -0.2933 -0.8056  0.1799
 8684SOL    HW137688   1.723   2.552  13.255  1.3888 -0.1584 -1.4033
 8684SOL    HW237689   1.827   2.455  13.203 -0.1774  0.6550  0.2659
 8685SOL     OW37690   3.340   1.138   4.365  0.2166  0.2111 -0.5176
 8685SOL    HW137691   3.408   1.088   4.320 -1.0980 -1.6085 -0.4853
 8685SOL    HW237692   3.272   1.160   4.301  1.0815 -0.8268 -1.7916
 8686SOL     OW37693   0.976   1.315  16.224  0.2543  0.1572  0.1925
 8686SOL    HW137694   1.050   1.256  16.242  0.7178  0.2603 -1.3787
 8686SOL    HW237695   0.904   1.258  16.249 -0.7759  1.1086 -0.6481
 8687SOL     OW37696   2.716   2.828  11.811 -0.1481 -0.2737 -0.0992
 8687SOL    HW137697   2.748   2.900  11.865 -0.0188 -0.6168  0.2849
 8687SOL    HW237698   2.621   2.833  11.811 -0.1067  0.5976  1.9387
 8688SOL     OW37699   1.383   3.228   7.717  0.4474 -0.2753  0.1189
 8688SOL    HW137700   1.451   3.275   7.670 -1.8282 -0.1340 -3.0338
 8688SOL    HW237701   1.413   3.139   7.703  1.2818  0.2383 -1.2925
 8689SOL     OW37702   2.623   2.055   7.408  0.1351  0.1592 -0.2680
 8689SOL    HW137703   2.653   2.054   7.317 -3.1690  0.0117 -1.3631
 8689SOL    HW237704   2.558   2.124   7.395  0.6009  0.8355  0.9849
 8690SOL     OW37705   1.165   3.590   2.384 -0.2167 -0.1066 -0.5810
 8690SOL    HW137706   1.106   3.555   2.452  1.1506  0.1860  0.7582
 8690SOL    HW237707   1.223   3.632   2.448 -2.0750 -0.3883  1.3063
 8691SOL     OW37708   0.370   0.348   1.509  0.0894  0.6075 -0.2418
 8691SOL    HW137709   0.420   0.417   1.466  0.4413  1.4399  1.5080
 8691SOL    HW237710   0.419   0.336   1.591  0.7296  0.4105 -0.6540
 8692SOL     OW37711   1.105   2.476   2.035  0.0011 -0.1052 -0.7244
 8692SOL    HW137712   1.182   2.531   2.050  1.1330 -2.0833  0.6185
 8692SOL    HW237713   1.092   2.467   1.941 -0.4192 -2.0073 -0.4699
 8693SOL     OW37714   4.065   0.704   6.838  0.1284  0.4596  0.1630
 8693SOL    HW137715   3.989   0.762   6.836 -1.1333 -1.1626  1.2612
 8693SOL    HW237716   4.041   0.642   6.907 -1.9309 -0.2771 -1.2164
 8694SOL     OW37717   2.435   1.303   7.587  0.1457  0.3441  0.1041
 8694SOL    HW137718   2.367   1.342   7.532 -0.8105  1.6859  2.2079
 8694SOL    HW237719   2.424   1.355   7.666 -1.1019 -1.2923  0.9856
 8695SOL     OW37720   3.520   2.058  17.138  0.0467  0.0316 -0.2205
 8695SOL    HW137721   3.494   2.003  17.064 -1.1894 -0.5395  0.6382
 8695SOL    HW237722   3.578   2.111  17.084 -1.3558  1.6427 -0.1375
 8696SOL     OW37723   2.827   1.703   8.598  0.6734  0.0947 -0.6208
 8696SOL    HW137724   2.876   1.753   8.663 -1.1209 -1.3836  1.8384
 8696SOL    HW237725   2.862   1.735   8.514 -0.8852 -1.0342 -1.6935
 8697SOL     OW37726   4.515   1.220  16.200  0.2744 -0.6740  0.1715
 8697SOL    HW137727   4.521   1.297  16.257 -0.0815  0.5979 -1.5052
 8697SOL    HW237728   4.589   1.229  16.139  0.0613 -0.2538 -0.0266
 8698SOL     OW37729   4.309   2.989   6.303  0.6139  0.0567 -0.7532
 8698SOL    HW137730   4.339   2.968   6.392  0.3751 -0.0224 -0.6903
 8698SOL    HW237731   4.249   2.919   6.277 -0.3273  0.2959  0.7749
 8699SOL     OW37732   2.462   0.531   6.174  0.4091  0.6287 -0.7540
 8699SOL    HW137733   2.479   0.481   6.253 -2.2492  0.0500 -0.5353
 8699SOL    HW237734   2.532   0.493   6.121  1.3365  0.5631  0.5136
 8700SOL     OW37735   2.538   2.247   4.129 -0.2563 -0.9304  0.2129
 8700SOL    HW137736   2.458   2.246   4.182 -0.5378  1.1255 -0.1865
 8700SOL    HW237737   2.590   2.312   4.176  0.1411 -0.4254 -0.9306
 8701SOL     OW37738   3.609   1.395   7.789  0.5970 -0.1118 -0.2092
 8701SOL    HW137739   3.606   1.481   7.746 -1.2878  0.5299  1.2373
 8701SOL    HW237740   3.593   1.338   7.714 -0.1038  0.3019 -0.3749
 8702SOL     OW37741   3.618   3.223   5.077  0.1085 -0.8779  0.1479
 8702SOL    HW137742   3.642   3.220   5.170  0.5083  2.1228  0.1368
 8702SOL    HW237743   3.549   3.285   5.102 -0.2179 -0.5154 -1.6763
 8703SOL     OW37744   0.041   3.316   6.319  0.4197 -0.0962  0.0053
 8703SOL    HW137745   4.733   3.304   6.235 -2.5639 -0.6145  1.5940
 8703SOL    HW237746   0.106   3.384   6.301  2.1290 -1.5501  0.6372
 8704SOL     OW37747   0.503   0.135   2.897 -0.8203  0.2428  0.2653
 8704SOL    HW137748   0.458   0.220   2.895 -0.6764  0.2725 -1.7746
 8704SOL    HW237749   0.455   0.094   2.825  2.5399 -0.1173 -1.7710
 8705SOL     OW37750   1.519   0.987  11.985  0.3887 -0.1732 -0.3580
 8705SOL    HW137751   1.605   1.028  11.994  1.0718 -1.3836 -1.4699
 8705SOL    HW237752   1.485   0.993  12.074  0.4865 -1.6179 -0.2232
 8706SOL     OW37753   1.773   2.977  10.250 -0.6000  0.0488  0.2933
 8706SOL    HW137754   1.709   2.919  10.290  2.1716 -2.0449  1.7125
 8706SOL    HW237755   1.808   2.907  10.194 -1.9374 -0.7092  0.4183
 8707SOL     OW37756   0.779   0.419   4.436  0.2099  0.2056  0.3402
 8707SOL    HW137757   0.725   0.341   4.426  0.0455  0.2836  0.6205
 8707SOL    HW237758   0.820   0.400   4.521 -1.0723 -1.8685  0.4928
 8708SOL     OW37759   0.724   2.211   5.898 -0.0637  0.2580  0.6021
 8708SOL    HW137760   0.780   2.284   5.872 -0.5418 -0.4774 -2.4436
 8708SOL    HW237761   0.765   2.126   5.879 -2.1970  0.0880 -3.2477
 8709SOL     OW37762   3.439   2.651   6.792 -0.0386  0.7339  0.2295
 8709SOL    HW137763   3.396   2.723   6.837 -0.6110  0.1144  0.6831
 8709SOL    HW237764   3.465   2.676   6.703 -0.0493  1.3899  0.4138
 8710SOL     OW37765   3.716   2.745   1.742 -0.2439 -0.3353 -0.1777
 8710SOL    HW137766   3.621   2.740   1.752 -0.1797  1.8800  1.6597
 8710SOL    HW237767   3.743   2.801   1.816 -1.3016  1.2639 -1.0008
 8711SOL     OW37768   3.704   3.992   9.498 -0.1911  0.2328  0.7474
 8711SOL    HW137769   3.690   4.049   9.423  0.0309 -2.8471 -1.6360
 8711SOL    HW237770   3.702   3.903   9.464 -2.2060  0.9444 -0.9558
 8712SOL     OW37771   4.480   3.388  10.841  0.5006  0.4123 -0.3422
 8712SOL    HW137772   4.453   3.348  10.924  1.8341 -0.2162 -0.2057
 8712SOL    HW237773   4.407   3.449  10.829 -0.9618 -1.1792  0.4148
 8713SOL     OW37774   0.301   3.354   1.290 -0.3450 -0.1259 -0.1638
 8713SOL    HW137775   0.271   3.290   1.354 -1.2439 -0.4493 -0.9057
 8713SOL    HW237776   0.232   3.346   1.225 -0.0207 -1.8046 -0.3054
 8714SOL     OW37777   2.941   1.312   3.560  0.2774  0.1307 -0.1543
 8714SOL    HW137778   3.035   1.328   3.564  0.1325  0.9956 -0.1178
 8714SOL    HW237779   2.925   1.272   3.475 -3.0305 -0.5326  0.7779
 8715SOL     OW37780   1.409   3.097   6.579  0.5330 -0.3692  0.1133
 8715SOL    HW137781   1.447   3.028   6.633 -0.6376 -0.1441  1.2091
 8715SOL    HW237782   1.483   3.108   6.520  1.1938 -1.7619  0.6833
 8716SOL     OW37783   1.193   2.172   6.540 -0.4677 -0.2079 -0.0573
 8716SOL    HW137784   1.168   2.107   6.605 -1.6295 -0.1660 -0.4636
 8716SOL    HW237785   1.152   2.254   6.567 -0.6155 -0.2410 -0.1825
 8717SOL     OW37786   1.711   0.489  12.310  0.7244 -0.3912 -0.5225
 8717SOL    HW137787   1.621   0.517  12.325  0.6683 -0.7739 -0.1498
 8717SOL    HW237788   1.700   0.394  12.308  1.0178 -0.4781  1.6805
 8718SOL     OW37789   1.985   1.456  16.649 -0.7200 -0.0689 -0.4318
 8718SOL    HW137790   1.906   1.410  16.678 -0.6962  0.5742  0.6329
 8718SOL    HW237791   1.945   1.535  16.611  4.0918  2.4258 -0.2290
 8719SOL     OW37792   3.862   4.511   6.388 -0.6282 -0.7672 -0.0205
 8719SOL    HW137793   3.935   4.451   6.402  0.3506  0.3803 -0.2020
 8719SOL    HW237794   3.861   4.577   6.458 -0.2252 -1.5324  0.7067
 8720SOL     OW37795   4.239   2.549  15.457 -0.0673 -0.1993  0.4522
 8720SOL    HW137796   4.162   2.496  15.435  0.0346 -0.0899 -0.1663
 8720SOL    HW237797   4.209   2.627  15.411 -0.7667  0.3468  1.8459
 8721SOL     OW37798   0.095   0.055  11.323  0.2599  0.3131 -0.4179
 8721SOL    HW137799   0.155   0.128  11.332  0.8203 -0.2046  0.0506
 8721SOL    HW237800   0.043   0.071  11.244 -1.1614  0.1163  0.4896
 8722SOL     OW37801   2.238   0.108   1.651  0.1041  0.3611 -0.4094
 8722SOL    HW137802   2.223   0.183   1.593 -1.2130 -0.5496 -1.2501
 8722SOL    HW237803   2.193   0.037   1.606  2.4046 -0.2369 -1.7579
 8723SOL     OW37804   3.677   2.726   3.785 -0.1303 -0.6627  0.2341
 8723SOL    HW137805   3.639   2.639   3.781 -1.6969 -0.0664  2.6099
 8723SOL    HW237806   3.622   2.769   3.720  2.4192 -0.1333 -1.6003
 8724SOL     OW37807   0.449   2.893   8.534  0.0790 -0.0956  0.2674
 8724SOL    HW137808   0.469   2.984   8.557  0.1170  0.2803 -1.2566
 8724SOL    HW237809   0.396   2.920   8.459  1.0203  0.5201 -0.1766
 8725SOL     OW37810   1.095   3.926   7.253 -1.0363 -0.5335 -0.4004
 8725SOL    HW137811   1.131   3.956   7.170  2.1496 -0.4828  1.0131
 8725SOL    HW237812   1.030   3.995   7.271 -1.1513 -0.4839 -0.9868
 8726SOL     OW37813   2.267   0.360   4.465  0.7612 -0.5085  0.6243
 8726SOL    HW137814   2.205   0.418   4.420  1.8412  1.3072  1.4828
 8726SOL    HW237815   2.345   0.416   4.462  0.1445  0.3617  0.5614
 8727SOL     OW37816   3.708   4.508   3.338 -0.5038 -0.4774  0.3244
 8727SOL    HW137817   3.687   4.517   3.431  1.6978  1.3516  0.6609
 8727SOL    HW237818   3.802   4.529   3.333 -0.1493 -2.3957 -1.1681
 8728SOL     OW37819   1.179   1.077   4.940 -0.5449  0.2869  0.5524
 8728SOL    HW137820   1.150   1.109   4.855 -4.2361 -1.2642  1.2438
 8728SOL    HW237821   1.127   1.110   5.014 -0.2329  1.1349  0.3916
 8729SOL     OW37822   1.845   3.021   7.682 -0.3533 -0.5096 -0.4457
 8729SOL    HW137823   1.930   3.064   7.688 -0.4996 -0.2270 -0.3950
 8729SOL    HW237824   1.868   2.929   7.671 -0.0489 -0.3193 -1.3762
 8730SOL     OW37825   3.829   3.327   7.057  0.5190 -0.1811 -0.3132
 8730SOL    HW137826   3.890   3.394   7.026  1.9461 -0.2300  2.4068
 8730SOL    HW237827   3.883   3.250   7.040 -0.4729 -0.6345 -1.4301
 8731SOL     OW37828   0.646   2.046   5.289 -0.2926  0.2181 -0.1956
 8731SOL    HW137829   0.710   1.977   5.309  1.2366  1.1672 -1.7920
 8731SOL    HW237830   0.701   2.124   5.294  0.4610 -0.2988 -0.3506
 8732SOL     OW37831   4.267   0.628   5.917 -0.2742 -0.0926  0.1212
 8732SOL    HW137832   4.349   0.578   5.916 -0.7784 -0.9347  0.6663
 8732SOL    HW237833   4.203   0.572   5.962  1.5032 -0.3542  2.3151
 8733SOL     OW37834   0.318   3.367   8.130  0.1204  0.1151  0.0801
 8733SOL    HW137835   0.340   3.458   8.147  0.5493 -0.2324  1.4112
 8733SOL    HW237836   0.379   3.322   8.188  0.0390 -0.1434 -0.0295
 8734SOL     OW37837   0.035   0.329   9.785 -0.1782 -0.1540 -0.0041
 8734SOL    HW137838   0.104   0.340   9.851 -0.0507  0.9002 -0.3097
 8734SOL    HW237839   0.084   0.265   9.733  1.1139  1.2810 -0.5639
 8735SOL     OW37840   1.751   1.234   2.652 -0.4746 -0.2606 -0.1355
 8735SOL    HW137841   1.838   1.240   2.692 -0.4688  0.2710 -0.2232
 8735SOL    HW237842   1.767   1.262   2.562  0.0804  0.3582  0.1481
 8736SOL     OW37843   1.344   3.404   2.967  0.3839 -0.1171  0.3974
 8736SOL    HW137844   1.365   3.425   2.876 -0.4096 -1.4089 -0.0755
 8736SOL    HW237845   1.434   3.390   2.997 -0.2054  1.3985  2.8748
 8737SOL     OW37846   0.701   0.973   6.742  0.6013 -0.3245 -0.2004
 8737SOL    HW137847   0.773   1.034   6.726 -0.8401  1.5200  0.3961
 8737SOL    HW237848   0.751   0.894   6.725  0.6091 -0.4543  0.4423
 8738SOL     OW37849   3.933   2.855   4.715  0.5785  0.0822  0.0598
 8738SOL    HW137850   3.864   2.919   4.699 -0.0665  0.1927  3.1978
 8738SOL    HW237851   3.875   2.779   4.724 -0.4594  0.7282 -1.2994
 8739SOL     OW37852   0.104   0.813  16.723  0.7723 -0.3842 -0.2833
 8739SOL    HW137853   0.044   0.848  16.658  1.3410  1.0847 -0.0305
 8739SOL    HW237854   0.098   0.718  16.710 -0.8827 -0.1997 -0.7874
 8740SOL     OW37855   4.253   0.857   7.117 -1.0602  0.4101 -1.1824
 8740SOL    HW137856   4.242   0.873   7.210  0.5804  2.3166 -1.3163
 8740SOL    HW237857   4.259   0.762   7.107  1.4198  0.6050 -1.5572
 8741SOL     OW37858   0.933   4.653  15.869  0.4527 -0.0281 -0.1189
 8741SOL    HW137859   0.981   4.604  15.936  0.5228  1.5958  1.0361
 8741SOL    HW237860   0.937   0.004  15.913  0.5943 -0.4985  0.7880
 8742SOL     OW37861   3.270   1.590   8.333  0.0582  0.1151  0.2613
 8742SOL    HW137862   3.317   1.662   8.291  1.1140 -0.0055  1.2583
 8742SOL    HW237863   3.316   1.586   8.417  3.0434 -0.6146 -1.4103
 8743SOL     OW37864   3.728   0.906   7.472 -0.1221 -0.6443 -0.2214
 8743SOL    HW137865   3.673   0.854   7.530  0.0873  0.5398  1.0344
 8743SOL    HW237866   3.659   0.928   7.410  1.1292  0.5483 -1.1973
 8744SOL     OW37867   3.951   3.653   6.462 -0.1030 -0.4205  0.2085
 8744SOL    HW137868   4.037   3.618   6.488  0.8035  1.7037  0.0758
 8744SOL    HW237869   3.935   3.584   6.398 -1.2200 -0.2403  0.2955
 8745SOL     OW37870   2.479   2.759   8.814 -0.2502 -0.3976  0.4661
 8745SOL    HW137871   2.493   2.810   8.734 -1.8886  0.1143  0.5051
 8745SOL    HW237872   2.457   2.682   8.760 -3.3826  0.0553  1.0850
 8746SOL     OW37873   4.297   2.506   3.286  0.4455 -0.4844  0.1952
 8746SOL    HW137874   4.299   2.573   3.218  0.4628 -1.4344 -0.7383
 8746SOL    HW237875   4.284   2.561   3.364  1.4982 -0.3689  0.2870
 8747SOL     OW37876   4.197   2.385   9.130  0.1010 -0.3534 -0.6688
 8747SOL    HW137877   4.227   2.475   9.142 -1.9934  0.3752 -0.8340
 8747SOL    HW237878   4.146   2.405   9.051 -1.2620 -1.7258 -0.1486
 8748SOL     OW37879   0.624   3.890   5.144  0.1942  0.1069  0.1298
 8748SOL    HW137880   0.585   3.957   5.088 -1.4423 -1.8796 -1.0935
 8748SOL    HW237881   0.560   3.892   5.215  1.5138 -0.2846  1.3329
 8749SOL     OW37882   2.593   1.814   3.948 -0.1980 -0.5226  0.1691
 8749SOL    HW137883   2.506   1.789   3.916 -0.2956  2.4333 -1.8088
 8749SOL    HW237884   2.599   1.908   3.933  0.0470 -0.6518 -0.5513
 8750SOL     OW37885   1.235   1.895  15.273 -0.3864 -0.2489  0.9467
 8750SOL    HW137886   1.205   1.940  15.352  1.2206  0.7517  0.9835
 8750SOL    HW237887   1.327   1.919  15.279 -0.3298 -0.4804  0.9935
 8751SOL     OW37888   1.964   1.265   5.200  0.3867 -0.3671  0.6179
 8751SOL    HW137889   2.025   1.243   5.129  1.7790 -2.8362  2.5468
 8751SOL    HW237890   1.901   1.194   5.194  1.0211 -0.9585  0.9057
 8752SOL     OW37891   2.676   1.171   5.838 -0.2849  0.1523 -0.1771
 8752SOL    HW137892   2.634   1.148   5.756  1.1364 -2.1516 -0.2523
 8752SOL    HW237893   2.765   1.185   5.806 -0.7595  0.1310 -1.4796
 8753SOL     OW37894   1.263   0.155   6.839  0.5341 -0.0586  0.2025
 8753SOL    HW137895   1.219   0.125   6.759 -1.2541 -2.2532  2.0419
 8753SOL    HW237896   1.354   0.141   6.811 -0.5380  0.7886 -3.7486
 8754SOL     OW37897   4.398   3.194  11.053 -0.8603  0.0322  0.5549
 8754SOL    HW137898   4.419   3.182  11.145  2.4424 -0.1983 -0.2050
 8754SOL    HW237899   4.392   3.101  11.029  1.4735 -0.5714  2.2352
 8755SOL     OW37900   4.251   2.361  16.418 -0.4066 -0.3467 -0.7196
 8755SOL    HW137901   4.171   2.391  16.461 -0.3678 -1.6438  0.2653
 8755SOL    HW237902   4.296   2.345  16.501 -2.6250  2.4847  1.0168
 8756SOL     OW37903   1.103   1.370  11.469  0.2969  0.0958 -0.2147
 8756SOL    HW137904   1.095   1.337  11.379 -0.9612  1.2319 -0.5272
 8756SOL    HW237905   1.016   1.406  11.488  0.9361  1.4992  0.0355
 8757SOL     OW37906   1.401   3.357   5.171 -0.1339  0.6247  0.0931
 8757SOL    HW137907   1.371   3.365   5.262 -0.9737 -0.0970 -0.1179
 8757SOL    HW237908   1.487   3.318   5.180 -0.8460 -0.9792 -0.1267
 8758SOL     OW37909   3.115   2.887   2.219 -0.2274  0.0031  0.1326
 8758SOL    HW137910   3.084   2.953   2.282  1.3795 -0.0043  0.9289
 8758SOL    HW237911   3.129   2.809   2.273  0.8832 -0.6670 -1.1390
 8759SOL     OW37912   2.203   3.670   3.742 -0.0976 -0.6051 -0.0792
 8759SOL    HW137913   2.189   3.721   3.662  1.0670 -2.5532 -1.5121
 8759SOL    HW237914   2.221   3.744   3.800 -3.1783  0.7775 -0.8697
 8760SOL     OW37915   4.264   3.953  13.898  0.5852  0.8496  0.7401
 8760SOL    HW137916   4.266   3.919  13.988  0.0515 -1.3034 -0.0682
 8760SOL    HW237917   4.283   4.044  13.923  2.2274  0.5356  0.6354
 8761SOL     OW37918   4.111   3.934  13.692  0.0845 -0.4014 -0.2187
 8761SOL    HW137919   4.154   3.926  13.778  3.2187  0.4775 -1.7029
 8761SOL    HW237920   4.160   4.011  13.663 -0.3778 -0.8736 -2.2490
 8762SOL     OW37921   4.170   1.731  11.092 -0.3464  0.2558  0.1010
 8762SOL    HW137922   4.210   1.797  11.149 -0.9486  0.0402  0.7737
 8762SOL    HW237923   4.120   1.786  11.031 -0.7854 -0.1490  0.0986
 8763SOL     OW37924   2.519   4.406  13.472 -0.1295 -1.1931 -0.5892
 8763SOL    HW137925   2.549   4.340  13.410  1.0968  0.7906 -2.1349
 8763SOL    HW237926   2.564   4.381  13.552 -0.3767 -2.0764 -0.7326
 8764SOL     OW37927   0.533   4.426   3.119 -0.9162  0.2794  0.2295
 8764SOL    HW137928   0.502   4.379   3.042 -1.8355  3.0817 -1.1117
 8764SOL    HW237929   0.531   4.360   3.188 -1.3163 -0.0767 -0.1161
 8765SOL     OW37930   4.731   1.337   8.649  0.1191  0.0255  0.1121
 8765SOL    HW137931   0.025   1.415   8.696 -0.2096 -0.7461  1.5899
 8765SOL    HW237932   4.637   1.351   8.643  0.4985  0.8599 -3.6841
 8766SOL     OW37933   2.298   1.628   7.501  0.1348 -0.3033 -0.2019
 8766SOL    HW137934   2.380   1.657   7.539  1.3401 -1.1868 -2.1330
 8766SOL    HW237935   2.322   1.649   7.411  2.8004  0.4558  0.6914
 8767SOL     OW37936   4.362   4.286   2.654  0.0421  0.4027 -0.3704
 8767SOL    HW137937   4.448   4.320   2.679 -0.1996 -0.8816  2.3061
 8767SOL    HW237938   4.358   4.198   2.694 -1.2090  1.0102  0.8250
 8768SOL     OW37939   3.091   0.797   6.260 -0.0465 -0.4537  0.4253
 8768SOL    HW137940   3.178   0.764   6.238  0.6381  0.6836  1.3827
 8768SOL    HW237941   3.102   0.837   6.347  2.2550  0.9032 -0.4688
 8769SOL     OW37942   4.539   0.306   4.443 -0.4273  0.1266  0.0367
 8769SOL    HW137943   4.460   0.342   4.403 -1.0762  0.7643  1.8740
 8769SOL    HW237944   4.609   0.321   4.380 -0.2359  0.0290  0.2266
 8770SOL     OW37945   4.296   2.945   2.022  0.2053  0.3341 -0.3447
 8770SOL    HW137946   4.387   2.974   2.010  0.5241 -0.5747 -0.1298
 8770SOL    HW237947   4.293   2.893   2.102  0.9467 -0.0049 -0.5294
 8771SOL     OW37948   1.934   1.866  10.570  0.3819  0.1202  0.5917
 8771SOL    HW137949   1.885   1.941  10.536 -1.1852 -1.0667  0.2444
 8771SOL    HW237950   2.003   1.876  10.504  0.3607 -2.8232  0.1363
 8772SOL     OW37951   3.608   0.215   2.023 -0.0679  0.0630  0.0091
 8772SOL    HW137952   3.524   0.212   1.977 -1.0592  1.1308  1.7563
 8772SOL    HW237953   3.645   0.291   1.977 -1.2701  0.1160 -0.8744
 8773SOL     OW37954   2.091   1.046   4.574  0.1567  0.3091  0.1016
 8773SOL    HW137955   2.128   0.978   4.517  1.3833 -0.9282  2.4113
 8773SOL    HW237956   2.077   1.112   4.506 -0.3888 -1.0367 -1.1076
 8774SOL     OW37957   2.036   1.367   5.479  0.0019  0.1438 -0.1202
 8774SOL    HW137958   2.035   1.285   5.528  0.1101  0.8730  1.1375
 8774SOL    HW237959   2.014   1.340   5.390 -1.4175 -1.0942  0.6129
 8775SOL     OW37960   1.948   0.228  17.711  0.4032 -0.1724  0.0517
 8775SOL    HW137961   1.945   0.296   0.040 -0.0205  0.8024 -0.9424
 8775SOL    HW237962   1.862   0.241  17.672 -0.6173 -1.1385  1.9796
 8776SOL     OW37963   1.735   3.060   7.429 -1.0580  0.1427  0.3739
 8776SOL    HW137964   1.774   3.044   7.515 -1.1605 -1.5057  0.1099
 8776SOL    HW237965   1.805   3.097   7.375 -2.0295 -1.1256 -1.7515
 8777SOL     OW37966   2.767   4.082   4.388 -0.1236 -0.1262 -0.3326
 8777SOL    HW137967   2.753   4.171   4.422 -1.1078 -0.2654 -0.3822
 8777SOL    HW237968   2.862   4.086   4.398 -0.2283  1.2911  0.1890
 8778SOL     OW37969   1.304   0.266   5.203 -0.1775  0.2572  0.2358
 8778SOL    HW137970   1.322   0.195   5.263 -0.7556  1.0921  1.4012
 8778SOL    HW237971   1.308   0.213   5.123  0.5981  2.3051 -1.0978
 8779SOL     OW37972   4.047   3.474   7.013  0.0951  0.3834 -0.3829
 8779SOL    HW137973   4.093   3.532   7.073  0.9228 -1.2288  0.5201
 8779SOL    HW237974   4.122   3.432   6.970  0.6765  0.4764  0.5538
 8780SOL     OW37975   0.002   3.608   3.889 -0.6191  0.1550 -0.3343
 8780SOL    HW137976   0.050   3.543   3.838 -0.6134  1.9517 -2.6165
 8780SOL    HW237977   0.015   3.576   3.978 -2.1442  1.7448  0.4674
 8781SOL     OW37978   3.959   0.185   6.793  0.6915  0.2213 -0.1838
 8781SOL    HW137979   3.978   0.240   6.717 -1.9175 -0.7127 -1.5130
 8781SOL    HW237980   3.868   0.211   6.809  0.4676 -0.7109  0.0657
 8782SOL     OW37981   0.253   3.833   2.870  0.2891 -0.1107 -0.6128
 8782SOL    HW137982   0.318   3.766   2.887 -0.7177 -1.0065 -0.2978
 8782SOL    HW237983   0.312   3.904   2.844  0.3655 -0.0423 -0.2519
 8783SOL     OW37984   0.042   3.371   2.750 -0.0505 -0.2782 -0.3561
 8783SOL    HW137985   0.060   3.463   2.730 -3.3319 -0.3090 -3.2297
 8783SOL    HW237986   4.682   3.373   2.761 -0.3341 -0.6819 -2.9453
 8784SOL     OW37987   1.563   1.137   4.377  0.1532 -0.2179 -0.8009
 8784SOL    HW137988   1.473   1.157   4.406  0.4649  0.3186 -0.1986
 8784SOL    HW237989   1.575   1.050   4.414  0.3798  0.2348  0.2096
 8785SOL     OW37990   4.262   0.812  17.272 -0.1526  1.0552 -0.1899
 8785SOL    HW137991   4.274   0.888  17.328  1.3012  0.7600 -0.1221
 8785SOL    HW237992   4.206   0.760  17.330 -0.0656  1.9080  0.6484
 8786SOL     OW37993   2.257   4.231   5.253  0.4524 -0.5305 -0.3630
 8786SOL    HW137994   2.299   4.174   5.318  3.4208 -0.2233 -1.9961
 8786SOL    HW237995   2.174   4.244   5.297  1.2014  0.4282  0.7636
 8787SOL     OW37996   2.601   1.967   4.244  0.3950 -0.1992 -0.0562
 8787SOL    HW137997   2.681   1.948   4.196  0.7871 -1.3955  1.0778
 8787SOL    HW237998   2.589   2.057   4.214 -0.2247 -1.0769 -2.4597
 8788SOL     OW37999   1.838   4.347  13.624 -0.7885  0.1295  0.3900
 8788SOL    HW138000   1.829   4.420  13.562  1.5628  0.2208  0.1898
 8788SOL    HW238001   1.752   4.352  13.666 -0.6420 -0.9384  0.8102
 8789SOL     OW38002   2.081   1.628   3.381  0.2151  0.3894 -0.6271
 8789SOL    HW138003   2.001   1.576   3.366  1.0719 -1.2549  0.5088
 8789SOL    HW238004   2.134   1.558   3.418 -0.6624  1.3067  2.3554
 8790SOL     OW38005   4.261   4.097   6.309 -0.1124  0.2991 -0.1174
 8790SOL    HW138006   4.208   4.174   6.286 -0.8170 -0.1130  0.1188
 8790SOL    HW238007   4.308   4.137   6.381  2.2858 -0.5532 -1.2225
 8791SOL     OW38008   3.693   3.146  16.048 -0.7492  0.4009 -0.1138
 8791SOL    HW138009   3.628   3.211  16.022 -4.0472 -1.8054  2.5976
 8791SOL    HW238010   3.740   3.202  16.110  0.1778  0.4241 -0.8565
 8792SOL     OW38011   0.220   4.049   2.419  0.4664 -0.4424 -0.6181
 8792SOL    HW138012   0.231   4.107   2.344  0.2866 -0.2317 -0.4806
 8792SOL    HW238013   0.311   4.022   2.428  0.6871 -0.2046 -2.1686
 8793SOL     OW38014   2.398   4.727   8.414  0.2110  0.9692  0.3527
 8793SOL    HW138015   2.308   4.700   8.433 -1.2277  3.8043 -2.6698
 8793SOL    HW238016   2.444   4.702   8.495 -2.1440 -0.6445  1.2054
 8794SOL     OW38017   4.445   0.235   0.425  0.8224 -0.0494 -0.5444
 8794SOL    HW138018   4.468   0.141   0.423 -2.1166 -0.7480 -0.5283
 8794SOL    HW238019   4.446   0.254   0.519 -0.1383 -3.8234  0.2555
 8795SOL     OW38020   4.728   2.350   2.641 -0.4754  0.0444  0.2333
 8795SOL    HW138021   0.060   2.283   2.641  0.0950  0.6135  1.8574
 8795SOL    HW238022   0.028   2.414   2.579 -3.0384  2.6476  1.4693
 8796SOL     OW38023   1.528   2.175   3.210 -0.6768  0.2087  0.6374
 8796SOL    HW138024   1.579   2.114   3.263 -1.6410 -2.2169 -1.2193
 8796SOL    HW238025   1.443   2.165   3.252 -0.8096  0.2695  0.3813
 8797SOL     OW38026   2.603   2.510   1.452  0.5497 -0.3781  0.4084
 8797SOL    HW138027   2.631   2.468   1.371 -0.8332 -1.7456  0.6277
 8797SOL    HW238028   2.559   2.589   1.421 -0.3210 -0.3993  1.5627
 8798SOL     OW38029   0.042   3.428   7.504  0.2985 -0.2223  0.0431
 8798SOL    HW138030   0.033   3.383   7.589  0.4215  0.6529  0.5190
 8798SOL    HW238031   0.136   3.433   7.489  0.1346 -0.3561 -1.0244
 8799SOL     OW38032   2.558   2.556  15.936  0.1574  0.0418  0.0262
 8799SOL    HW138033   2.609   2.625  15.893  1.1465 -0.6848  0.0360
 8799SOL    HW238034   2.470   2.593  15.948  0.5887  1.4020 -0.8996
 8800SOL     OW38035   1.072   1.350  16.574  0.1322  0.6661  0.5969
 8800SOL    HW138036   1.067   1.259  16.547 -0.6291  0.5151  1.2372
 8800SOL    HW238037   0.978   1.368  16.579  0.0315 -0.3242  2.2037
 8801SOL     OW38038   4.521   4.116  15.443  0.1684 -0.7607  0.0852
 8801SOL    HW138039   4.615   4.129  15.454 -0.2486  1.8255  0.6065
 8801SOL    HW238040   4.511   4.163  15.360 -3.0467 -0.0805  0.8647
 8802SOL     OW38041   3.727   3.749   3.729  0.1447  0.0205  0.2659
 8802SOL    HW138042   3.695   3.827   3.775  0.7277 -0.2492  1.1250
 8802SOL    HW238043   3.711   3.776   3.639  2.1493  0.5006  0.0465
 8803SOL     OW38044   3.619   1.171  11.528  0.6407  0.4673 -0.3302
 8803SOL    HW138045   3.591   1.105  11.465  0.6180 -1.4191  1.6329
 8803SOL    HW238046   3.550   1.173  11.594 -0.3072 -0.8940 -1.2940
 8804SOL     OW38047   1.221   2.649   6.283  0.2307 -0.2213 -0.4372
 8804SOL    HW138048   1.309   2.646   6.247  1.4359 -0.8386  2.5047
 8804SOL    HW238049   1.169   2.616   6.210 -0.6511 -0.8181  0.4439
 8805SOL     OW38050   0.230   3.361  16.185  0.0491 -0.0974  0.1471
 8805SOL    HW138051   0.146   3.368  16.229 -0.4929  1.7471 -1.1730
 8805SOL    HW238052   0.251   3.449  16.154 -1.1384  0.4068  0.8041
 8806SOL     OW38053   0.998   4.121   2.129  0.3355  0.3462  0.4210
 8806SOL    HW138054   1.045   4.051   2.085  2.0667  0.9908  1.2499
 8806SOL    HW238055   0.912   4.095   2.096 -0.8849  3.0603  1.4427
 8807SOL     OW38056   1.766   2.904   0.980 -0.3843 -0.1718 -0.0561
 8807SOL    HW138057   1.812   2.925   0.899 -1.4721 -2.0469 -1.1707
 8807SOL    HW238058   1.810   2.827   1.013 -3.0914 -1.5750  0.2984
 8808SOL     OW38059   1.991   2.636   1.239 -0.1718  0.2857  0.1062
 8808SOL    HW138060   2.033   2.694   1.302  0.1625  0.9812 -0.7610
 8808SOL    HW238061   2.028   2.665   1.156  0.2973  1.6032  0.7766
 8809SOL     OW38062   3.394   4.024  17.040  0.6569  0.2726 -0.1069
 8809SOL    HW138063   3.329   3.954  17.038 -1.9471  2.6311  1.4417
 8809SOL    HW238064   3.386   4.066  17.126 -3.4170  0.2856 -0.4793
 8810SOL     OW38065   2.784   2.228   3.672 -0.0030  0.6446 -0.2878
 8810SOL    HW138066   2.760   2.174   3.747 -0.5681  1.0096 -0.2100
 8810SOL    HW238067   2.805   2.309   3.718  0.3256  1.6696 -2.2602
 8811SOL     OW38068   0.260   1.039  12.879  0.0943 -0.0661  0.1843
 8811SOL    HW138069   0.166   1.047  12.893 -0.3502 -3.5829 -0.8218
 8811SOL    HW238070   0.274   0.954  12.919  0.5394  0.8140  1.9213
 8812SOL     OW38071   4.256   4.194   7.928 -0.0410  0.6546 -0.3102
 8812SOL    HW138072   4.289   4.186   8.017 -2.6191  0.2078  0.6210
 8812SOL    HW238073   4.263   4.287   7.907  1.0816  0.7918  0.6882
 8813SOL     OW38074   0.253   1.169   6.167 -0.2425  0.2528  0.5532
 8813SOL    HW138075   0.283   1.220   6.242 -0.1681  0.3380  0.4662
 8813SOL    HW238076   0.335   1.154   6.121 -2.7869  0.2431 -4.0335
 8814SOL     OW38077   1.451   2.317   8.080  0.3945  0.2670 -0.2748
 8814SOL    HW138078   1.465   2.243   8.140  0.6525 -0.1295 -0.8208
 8814SOL    HW238079   1.442   2.258   8.005 -1.9873  0.5847 -0.2582
 8815SOL     OW38080   0.758   0.340  16.111 -0.5008 -0.0847  0.7300
 8815SOL    HW138081   0.740   0.371  16.199 -0.2081  0.4996  0.5812
 8815SOL    HW238082   0.673   0.302  16.087  0.4721 -1.4525 -0.6331
 8816SOL     OW38083   1.650   2.990   4.301 -0.1086 -0.5692 -0.7789
 8816SOL    HW138084   1.684   2.982   4.390  0.1479  0.4593 -0.7913
 8816SOL    HW238085   1.556   2.999   4.308 -0.0072 -1.2161  1.2124
 8817SOL     OW38086   3.917   1.447   5.739  0.2420  0.2275  0.2136
 8817SOL    HW138087   3.842   1.462   5.681  1.2216  1.0254 -0.8254
 8817SOL    HW238088   3.899   1.517   5.802 -0.0737 -0.7682  1.2418
 8818SOL     OW38089   0.113   3.036   4.861 -0.3087 -0.0919 -0.2547
 8818SOL    HW138090   0.018   3.024   4.862 -0.3104 -0.0245  1.4311
 8818SOL    HW238091   0.128   3.102   4.929 -0.1310  1.0027 -1.3758
 8819SOL     OW38092   1.741   1.699  10.731  0.1142 -0.2092  0.0618
 8819SOL    HW138093   1.783   1.774  10.689  1.0516 -1.2959 -0.9303
 8819SOL    HW238094   1.791   1.627  10.693 -1.3915 -1.8075  1.1013
 8820SOL     OW38095   3.102   3.264   3.836  0.0959 -0.2356  0.1441
 8820SOL    HW138096   3.043   3.312   3.778  0.8109  0.7119  0.1871
 8820SOL    HW238097   3.182   3.318   3.839  0.5364 -0.9366  1.1511
 8821SOL     OW38098   2.653   3.501  16.524 -0.1335 -0.3664 -0.1562
 8821SOL    HW138099   2.650   3.596  16.532  3.0044 -0.2986 -0.0648
 8821SOL    HW238100   2.590   3.493  16.452 -0.1829  2.3191 -0.4204
 8822SOL     OW38101   1.619   3.929   2.453 -0.0421 -0.1540  0.5322
 8822SOL    HW138102   1.559   3.886   2.513  0.7829 -2.4831 -0.3003
 8822SOL    HW238103   1.665   3.995   2.505  1.8292 -1.2832  0.3209
 8823SOL     OW38104   2.612   4.029   6.235  0.0082  0.0355  0.5567
 8823SOL    HW138105   2.703   4.037   6.204 -0.2005  1.5494  0.3322
 8823SOL    HW238106   2.562   4.103   6.202 -0.3497  0.1990  1.4751
 8824SOL     OW38107   2.118   4.013   6.958  0.2643  0.3254 -0.8034
 8824SOL    HW138108   2.035   4.006   6.909  0.7717 -1.8475 -1.3319
 8824SOL    HW238109   2.127   4.107   6.974  1.8413  0.2171 -1.1280
 8825SOL     OW38110   0.828   0.082   7.284 -0.1693  0.1782 -0.1576
 8825SOL    HW138111   0.830   0.008   7.223 -0.6883 -0.4331  0.5608
 8825SOL    HW238112   0.920   0.108   7.281  0.1357 -0.8164  0.3658
 8826SOL     OW38113   4.409   1.014   7.499  0.2599  0.4154  0.2972
 8826SOL    HW138114   4.463   0.935   7.496  0.3033  0.4077  1.2352
 8826SOL    HW238115   4.337   0.986   7.441 -0.6659 -1.0451  2.1450
 8827SOL     OW38116   2.814   3.314   5.662  0.0866  0.3677 -0.4861
 8827SOL    HW138117   2.782   3.343   5.577  0.4423 -0.6264 -0.9566
 8827SOL    HW238118   2.760   3.371   5.717 -1.1565 -1.0202 -0.2741
 8828SOL     OW38119   2.983   4.051   3.566 -0.2871  0.1780  0.0202
 8828SOL    HW138120   3.012   4.019   3.651  2.3043 -1.3024 -1.4309
 8828SOL    HW238121   3.034   4.008   3.498  0.3838  0.7656  0.1590
 8829SOL     OW38122   2.695   2.960   5.501 -0.7367 -0.0594  0.3821
 8829SOL    HW138123   2.630   3.031   5.503 -1.4529 -0.7345  1.6538
 8829SOL    HW238124   2.757   2.967   5.574  1.7444  2.5450 -1.9671
 8830SOL     OW38125   0.287   4.494   4.707  0.0238  0.3470 -0.7483
 8830SOL    HW138126   0.303   4.400   4.708 -0.3264  0.2608 -3.5644
 8830SOL    HW238127   0.373   4.524   4.676  1.4724 -1.7570  1.1996
 8831SOL     OW38128   4.068   0.561   4.428  0.8131 -0.1741  0.8395
 8831SOL    HW138129   4.082   0.579   4.335  0.9172 -0.8746  0.7172
 8831SOL    HW238130   4.114   0.634   4.468  1.2799  1.0088 -1.8678
 8832SOL     OW38131   1.846   0.485  10.538 -0.5336  0.0474  0.3919
 8832SOL    HW138132   1.917   0.522  10.589 -0.3695 -2.0133  1.6696
 8832SOL    HW238133   1.837   0.396  10.574 -0.1897 -0.1379  0.0148
 8833SOL     OW38134   3.147   0.585  14.481  0.4158  0.4351  0.0825
 8833SOL    HW138135   3.060   0.610  14.449  0.8251  1.0621 -0.5541
 8833SOL    HW238136   3.128   0.491  14.490  1.6878  0.0159 -1.6179
 8834SOL     OW38137   3.674   0.854   9.425 -0.3078 -0.2009 -0.7445
 8834SOL    HW138138   3.727   0.836   9.347  1.4377  2.3953 -0.1693
 8834SOL    HW238139   3.714   0.933   9.461 -2.3146  2.0528 -3.4702
 8835SOL     OW38140   1.946   0.688   6.140  0.5918 -0.3051  0.1324
 8835SOL    HW138141   1.965   0.718   6.051  0.1948  1.0821  0.5239
 8835SOL    HW238142   2.031   0.654   6.169  0.6531  0.6523  1.0479
 8836SOL     OW38143   1.162   1.120   6.262 -0.0691 -0.2940  0.2132
 8836SOL    HW138144   1.225   1.082   6.323  1.0273  3.1885  1.1872
 8836SOL    HW238145   1.187   1.095   6.173  2.7777 -1.3083  1.2890
 8837SOL     OW38146   3.577   4.674  13.325  0.2256 -0.8173 -0.5468
 8837SOL    HW138147   3.592   4.706  13.237  0.0775  0.0250 -0.2600
 8837SOL    HW238148   3.660   4.692  13.370 -0.8265  0.8786  0.7182
 8838SOL     OW38149   3.369   1.115   2.946  0.0355 -0.6548 -0.0499
 8838SOL    HW138150   3.454   1.133   2.986  0.0049 -1.3470  0.3243
 8838SOL    HW238151   3.327   1.056   3.008 -0.5436  1.1059  1.2432
 8839SOL     OW38152   2.324   0.025  16.468  0.0680  0.0409  0.1289
 8839SOL    HW138153   2.267   0.018  16.391  1.0961  1.4762 -0.7781
 8839SOL    HW238154   2.316   4.673  16.508 -2.6532  0.7956  1.3018
 8840SOL     OW38155   2.859   0.349   0.999  0.0758 -0.1160 -0.3763
 8840SOL    HW138156   2.921   0.400   1.051 -0.5740 -0.5178  0.8049
 8840SOL    HW238157   2.873   0.263   1.037 -1.5291 -0.0998  0.2902
 8841SOL     OW38158   3.282   1.581   2.769  0.2458 -0.4899  0.0347
 8841SOL    HW138159   3.298   1.618   2.856  1.5200  1.3294 -0.9894
 8841SOL    HW238160   3.216   1.515   2.789 -2.2855  2.4781  1.3197
 8842SOL     OW38161   2.534   1.985   3.406 -0.2745  0.0249  0.5725
 8842SOL    HW138162   2.585   2.024   3.335 -1.8433  1.9745  0.5492
 8842SOL    HW238163   2.482   1.924   3.354  1.8410 -0.8456 -0.5317
 8843SOL     OW38164   4.683   4.402   0.743 -0.1119 -0.7304 -0.0654
 8843SOL    HW138165   4.666   4.318   0.785 -1.0994 -1.9986 -3.0046
 8843SOL    HW238166   0.009   4.442   0.805 -2.2335 -1.7380  2.6677
 8844SOL     OW38167   3.014   2.031   5.578  0.2564 -0.7002 -0.2460
 8844SOL    HW138168   3.073   2.023   5.654 -2.3789  0.3066  1.8914
 8844SOL    HW238169   2.987   1.939   5.573 -0.7423 -0.3363 -1.4527
 8845SOL     OW38170   2.844   3.189  12.677 -0.2191  0.0739  0.1900
 8845SOL    HW138171   2.750   3.206  12.688  0.4335  2.9674  1.3434
 8845SOL    HW238172   2.844   3.095  12.692 -1.3490 -0.0952 -0.8779
 8846SOL     OW38173   0.366   3.898   5.292 -0.0287 -0.1119  0.1995
 8846SOL    HW138174   0.298   3.931   5.351  0.3047  0.1932  0.4117
 8846SOL    HW238175   0.436   3.882   5.355  0.0744  1.1984  0.4181
 8847SOL     OW38176   1.342   0.011   2.195  0.0845  0.2514 -0.2537
 8847SOL    HW138177   1.357   0.019   2.101 -0.6296 -0.9349 -0.4634
 8847SOL    HW238178   1.409   4.683   2.223  1.0532  1.9293  1.2354
 8848SOL     OW38179   0.918   2.545   7.946 -0.7197 -0.6248  0.0124
 8848SOL    HW138180   0.870   2.608   7.999  1.6655  1.1149  0.0992
 8848SOL    HW238181   0.956   2.595   7.874 -1.0411  0.0879  0.3363
 8849SOL     OW38182   2.822   2.512   6.671  0.0066 -0.6011 -0.0143
 8849SOL    HW138183   2.780   2.425   6.669  1.9162 -1.4956 -0.8712
 8849SOL    HW238184   2.795   2.536   6.760 -0.3203 -0.5811 -0.1191
 8850SOL     OW38185   0.049   1.127  16.840 -0.2685 -0.3032 -0.1623
 8850SOL    HW138186   4.708   1.082  16.803 -0.0305 -0.7244 -0.1363
 8850SOL    HW238187   0.047   1.083  16.925 -0.4892 -1.9118 -1.0006
 8851SOL     OW38188   3.829   0.232   2.938 -0.5298  0.5365 -0.1663
 8851SOL    HW138189   3.885   0.155   2.927 -1.4355  0.1310 -1.9852
 8851SOL    HW238190   3.844   0.276   2.854  0.0562  0.1394 -0.2693
 8852SOL     OW38191   2.958   0.021   3.063 -0.2782  0.4057  0.7533
 8852SOL    HW138192   2.878   0.038   3.015 -0.7804 -2.0154  0.7121
 8852SOL    HW238193   2.935   0.086   3.130  3.4783  1.9221  0.6036
 8853SOL     OW38194   3.372   1.435   6.926  0.2042  0.1354  0.4361
 8853SOL    HW138195   3.305   1.375   6.957 -0.7188  1.4718  0.9706
 8853SOL    HW238196   3.350   1.517   6.968  0.2238  0.0831  0.5485
 8854SOL     OW38197   4.025   3.243   1.210  0.2476 -0.0842  0.2649
 8854SOL    HW138198   4.032   3.196   1.294  2.0860 -0.1193  0.0936
 8854SOL    HW238199   4.031   3.335   1.236  0.8042 -0.2302  0.6624
 8855SOL     OW38200   3.838   4.492   5.377 -0.6044  0.4243  0.2096
 8855SOL    HW138201   3.917   4.457   5.335  0.6028  0.8974  2.0874
 8855SOL    HW238202   3.829   4.417   5.435  0.6248  0.2159  0.1303
 8856SOL     OW38203   4.013   0.324   7.769 -0.2365 -0.1200 -0.0530
 8856SOL    HW138204   4.057   0.253   7.723 -0.2932  1.1692 -2.1229
 8856SOL    HW238205   4.054   0.316   7.855 -3.8686 -1.3469  1.6081
 8857SOL     OW38206   4.054   0.755   5.153 -0.2275 -0.3446 -0.7378
 8857SOL    HW138207   4.085   0.822   5.213 -0.5912  0.9874 -2.0352
 8857SOL    HW238208   4.115   0.682   5.161 -0.9359 -0.8151  0.3459
 8858SOL     OW38209   4.597   2.795   2.499 -0.2638  0.3367 -0.0534
 8858SOL    HW138210   4.605   2.734   2.572  1.0828 -1.0398 -1.3502
 8858SOL    HW238211   4.691   2.811   2.490 -0.3871  0.9355 -0.2752
 8859SOL     OW38212   0.951   1.130   0.722 -0.7416 -0.4884 -0.7428
 8859SOL    HW138213   0.866   1.139   0.680  0.8690  0.8003 -3.6835
 8859SOL    HW238214   0.971   1.223   0.730  0.4021 -0.8015  0.0963
 8860SOL     OW38215   3.904   4.650   5.602 -0.1464 -1.2736 -0.1187
 8860SOL    HW138216   3.874   4.613   5.519 -1.5847  0.8154 -0.5559
 8860SOL    HW238217   3.828   4.704   5.625  0.6037  0.1726 -0.9880
 8861SOL     OW38218   1.708   2.115   4.655  0.2494 -0.0403  0.4427
 8861SOL    HW138219   1.657   2.147   4.581  0.8990  0.1862  0.0936
 8861SOL    HW238220   1.651   2.138   4.728  0.4737 -1.2361  0.9978
 8862SOL     OW38221   3.310   1.559   7.574  0.1890 -0.1018 -0.2852
 8862SOL    HW138222   3.312   1.471   7.536 -2.6040 -0.8125  1.1745
 8862SOL    HW238223   3.401   1.567   7.600 -0.0454 -1.2172  0.8681
 8863SOL     OW38224   0.120   3.769  10.626  0.4906 -0.0328  0.4236
 8863SOL    HW138225   0.164   3.689  10.597 -1.6580 -1.2787  0.5791
 8863SOL    HW238226   0.154   3.762  10.715  0.5268  1.2477  0.5022
 8864SOL     OW38227   3.065   0.800   1.694  0.0899 -0.3431 -0.1378
 8864SOL    HW138228   3.018   0.791   1.611  1.0560 -0.4199 -0.6638
 8864SOL    HW238229   2.985   0.800   1.748 -1.6062  1.6540 -2.6224
 8865SOL     OW38230   4.490   2.327   8.546 -0.0192  0.1126 -0.6069
 8865SOL    HW138231   4.410   2.303   8.594  0.8225 -1.1926  0.1481
 8865SOL    HW238232   4.550   2.257   8.570 -0.0929  0.9074  1.9538
 8866SOL     OW38233   4.105   4.710   8.027 -0.4629 -0.7730  0.3668
 8866SOL    HW138234   4.153   4.633   8.056  1.8969  1.3754  2.1014
 8866SOL    HW238235   4.175   4.731   7.966 -0.1472  1.4217  1.4921
 8867SOL     OW38236   1.464   2.043   7.567  0.4552 -0.2030  0.1628
 8867SOL    HW138237   1.400   2.104   7.529  1.3979  1.8713  1.8588
 8867SOL    HW238238   1.411   1.981   7.616  0.3074 -2.5258 -2.9879
 8868SOL     OW38239   1.722   3.646   9.069 -0.2205 -0.1896  0.4001
 8868SOL    HW138240   1.763   3.661   9.154  1.4877 -1.5395 -0.1668
 8868SOL    HW238241   1.685   3.732   9.050  1.7696  1.0752  2.3419
 8869SOL     OW38242   0.902   2.802   5.779  0.8057  0.5163  0.0918
 8869SOL    HW138243   0.810   2.786   5.759  0.5674  0.4692  1.2725
 8869SOL    HW238244   0.937   2.786   5.691  2.9484 -1.7671  1.3568
 8870SOL     OW38245   2.449   3.110   7.413 -0.2245  0.2432 -0.6616
 8870SOL    HW138246   2.414   3.151   7.492  1.2503 -1.0687  0.6802
 8870SOL    HW238247   2.429   3.175   7.346 -0.1909  1.7702  0.8155
 8871SOL     OW38248   3.059   1.263   7.748 -0.2787  1.1565 -0.0167
 8871SOL    HW138249   3.032   1.263   7.840 -0.8156  0.6427 -0.1716
 8871SOL    HW238250   2.975   1.281   7.706  0.6166  0.8164 -1.9673
 8872SOL     OW38251   0.181   4.130   1.966 -0.8306  0.0035 -0.1589
 8872SOL    HW138252   0.112   4.193   1.986  1.6479  2.6421  0.1470
 8872SOL    HW238253   0.201   4.151   1.874  0.1958  0.6208  0.2148
 8873SOL     OW38254   3.482   0.557  12.872 -0.0279  0.0252  0.5347
 8873SOL    HW138255   3.403   0.583  12.824  0.0018  1.3678  1.1947
 8873SOL    HW238256   3.527   0.641  12.866 -1.4774  0.8083  0.4471
 8874SOL     OW38257   3.541   1.443  11.245 -0.2381  0.4692 -0.5515
 8874SOL    HW138258   3.626   1.420  11.283 -0.0930  0.0041 -1.1633
 8874SOL    HW238259   3.550   1.418  11.154 -0.5028  0.2811 -0.5269
 8875SOL     OW38260   2.436   1.334   5.482 -0.1814 -0.2800  0.5075
 8875SOL    HW138261   2.455   1.250   5.441 -1.7382 -1.1925  1.6903
 8875SOL    HW238262   2.407   1.388   5.409  0.5652  0.2491  0.5937
 8876SOL     OW38263   0.169   1.791  15.513 -0.6022  0.1572 -1.0737
 8876SOL    HW138264   0.137   1.707  15.479  1.6444 -0.1671 -2.3928
 8876SOL    HW238265   0.261   1.798  15.490 -0.8102  2.8465 -1.1740
 8877SOL     OW38266   0.568   2.908   1.609 -0.1127 -0.0955 -0.4944
 8877SOL    HW138267   0.629   2.941   1.675 -0.3756  1.1025 -0.8444
 8877SOL    HW238268   0.610   2.827   1.582  1.0457  1.3085 -2.8919
 8878SOL     OW38269   3.394   2.848   3.218 -0.0252  0.2323 -0.2165
 8878SOL    HW138270   3.419   2.791   3.145 -0.5334  1.9010 -1.6869
 8878SOL    HW238271   3.299   2.850   3.218 -0.0310  0.4462  2.0358
 8879SOL     OW38272   0.926   1.129   6.694  0.8615  0.5139 -0.1190
 8879SOL    HW138273   0.924   1.223   6.714  4.5445  0.5258  0.1791
 8879SOL    HW238274   1.018   1.107   6.710  1.5294  0.9897 -3.3476
 8880SOL     OW38275   0.962   0.664   3.017 -0.3460 -0.6902 -0.0965
 8880SOL    HW138276   0.946   0.711   2.936  0.9341 -0.0481  0.0209
 8880SOL    HW238277   0.900   0.705   3.077  1.2415  0.9398  0.4073
 8881SOL     OW38278   2.529   1.765  12.100  0.0094  0.2779 -0.1398
 8881SOL    HW138279   2.584   1.822  12.154 -1.1903  0.7164  0.6257
 8881SOL    HW238280   2.576   1.772  12.018 -0.0739 -2.6303 -0.4198
 8882SOL     OW38281   4.472   2.266   0.937  0.2365  0.2805  0.1283
 8882SOL    HW138282   4.559   2.269   0.977  0.4139 -1.0671 -0.1557
 8882SOL    HW238283   4.469   2.178   0.901  2.2019 -0.0899  0.8561
 8883SOL     OW38284   4.724   0.467   4.187 -0.4664  0.0983  0.7375
 8883SOL    HW138285   4.672   0.540   4.220 -0.8026  0.5068 -0.6992
 8883SOL    HW238286   0.080   0.489   4.208 -0.4211 -0.0452  0.6914
 8884SOL     OW38287   2.172   0.040  16.247 -0.7672 -0.1702 -0.3158
 8884SOL    HW138288   2.211   0.054  16.161 -1.3099 -0.5123 -0.6209
 8884SOL    HW238289   2.088   0.086  16.238 -1.2247 -1.0296 -0.5339
 8885SOL     OW38290   1.205   1.550  10.806  0.2206 -0.5282  0.1122
 8885SOL    HW138291   1.167   1.589  10.728 -0.4210  1.2163  1.3011
 8885SOL    HW238292   1.230   1.470  10.760  2.0073  1.2070 -1.9375
 8886SOL     OW38293   1.309   0.950   0.635 -0.5046 -0.1298 -0.1067
 8886SOL    HW138294   1.344   1.037   0.651 -0.7833 -0.2619  1.2221
 8886SOL    HW238295   1.279   0.930   0.724 -2.7680 -1.0712 -1.0973
 8887SOL     OW38296   2.663   1.624   5.693 -0.3077  0.0629 -0.2305
 8887SOL    HW138297   2.654   1.568   5.616 -1.5164 -0.5327  0.3368
 8887SOL    HW238298   2.737   1.587   5.741 -0.1020  1.0667  0.2350
 8888SOL     OW38299   2.171   2.529   4.813  0.5251  0.1488 -0.2622
 8888SOL    HW138300   2.108   2.489   4.753 -0.4888  2.2354 -0.5819
 8888SOL    HW238301   2.110   2.587   4.859 -0.3737 -0.7314 -0.3247
 8889SOL     OW38302   2.840   2.348   4.942  0.2977  0.1336 -0.0659
 8889SOL    HW138303   2.764   2.306   4.902  0.5087 -0.7130  0.4295
 8889SOL    HW238304   2.825   2.433   4.901 -1.1311  0.7260  1.6538
 8890SOL     OW38305   2.354   0.471  14.583  0.2558  0.1370  0.4866
 8890SOL    HW138306   2.309   0.554  14.569  2.1418  1.1454  0.3746
 8890SOL    HW238307   2.286   0.405  14.598  0.8309 -0.6005 -0.1357
 8891SOL     OW38308   3.947   0.431   7.206 -0.3184 -0.3483 -0.4604
 8891SOL    HW138309   3.861   0.444   7.245  1.1672 -0.3271  2.7845
 8891SOL    HW238310   4.002   0.464   7.276 -0.9948 -0.1295 -0.0298
 8892SOL     OW38311   1.532   3.762   6.644  0.4422  0.6744 -0.2753
 8892SOL    HW138312   1.513   3.812   6.724  2.1267 -1.6492  1.5696
 8892SOL    HW238313   1.609   3.716   6.678  0.8679  1.2088 -0.5058
 8893SOL     OW38314   2.281   0.027  15.979 -0.1378 -0.2404 -0.0333
 8893SOL    HW138315   2.189   0.017  15.955 -0.5554  0.2373  1.3852
 8893SOL    HW238316   2.311   0.109  15.941 -1.2058  0.5121  0.7733
 8894SOL     OW38317   2.340   2.626   5.378 -0.2613 -0.2435 -0.7920
 8894SOL    HW138318   2.406   2.629   5.447 -2.3960  2.5485  1.1104
 8894SOL    HW238319   2.366   2.699   5.323  0.7567 -0.1733 -0.2193
 8895SOL     OW38320   0.433   3.212  10.963  0.1029 -0.3168 -0.5702
 8895SOL    HW138321   0.466   3.266  10.891  0.6544  0.0600 -0.0389
 8895SOL    HW238322   0.358   3.266  10.987  0.7569  1.5189 -2.6392
 8896SOL     OW38323   0.294   2.538   3.286  0.2183  0.0286 -0.1948
 8896SOL    HW138324   0.353   2.593   3.235 -1.3023  0.5809 -1.3590
 8896SOL    HW238325   0.236   2.609   3.314 -0.2349  0.0599 -1.2111
 8897SOL     OW38326   0.857   3.961   2.474  0.5700  0.5642 -0.5981
 8897SOL    HW138327   0.881   4.053   2.468  2.1262  0.1198 -1.2072
 8897SOL    HW238328   0.885   3.948   2.564  1.7577  0.0069 -1.0503
 8898SOL     OW38329   0.997   0.120   3.858 -0.2243 -0.1479 -0.2702
 8898SOL    HW138330   0.934   0.061   3.899  1.0943 -0.7609  0.8812
 8898SOL    HW238331   1.063   0.057   3.829 -0.2312 -0.1177 -0.3512
 8899SOL     OW38332   3.953   2.824   7.144  0.0294 -0.3359  0.2499
 8899SOL    HW138333   3.984   2.735   7.158 -0.0723 -0.4917 -0.5198
 8899SOL    HW238334   3.857   2.827   7.142 -0.0602 -1.9494  2.7610
 8900SOL     OW38335   1.131   1.401   2.037 -0.0797  0.6866 -0.0245
 8900SOL    HW138336   1.162   1.372   2.122  0.2493  0.0900 -0.3470
 8900SOL    HW238337   1.146   1.318   1.993 -1.1591  2.2570 -3.3668
 8901SOL     OW38338   3.519   2.868   5.955  0.3827  0.1085 -0.2383
 8901SOL    HW138339   3.557   2.918   6.028 -0.3672 -0.1022  0.2862
 8901SOL    HW238340   3.489   2.787   5.995  0.4884  0.6423  0.9350
 8902SOL     OW38341   4.158   0.202   7.427  0.1081  0.4238  0.0287
 8902SOL    HW138342   4.234   0.256   7.447 -1.4631  2.5018  0.3567
 8902SOL    HW238343   4.156   0.152   7.509  1.6831  0.1848 -0.0853
 8903SOL     OW38344   1.790   0.565  10.282 -0.0698 -0.1854  0.3762
 8903SOL    HW138345   1.817   0.528  10.367 -1.9294 -1.4038  0.4447
 8903SOL    HW238346   1.828   0.652  10.279 -0.2060 -0.0900  1.3425
 8904SOL     OW38347   2.211   1.384   7.248 -0.4197 -0.2590  0.1133
 8904SOL    HW138348   2.227   1.304   7.198  0.1362 -0.8500  1.2349
 8904SOL    HW238349   2.132   1.416   7.204 -0.5832  1.1531  1.4132
 8905SOL     OW38350   0.427   2.250   8.077 -0.4008  0.2049 -0.2513
 8905SOL    HW138351   0.341   2.230   8.114  1.0744  0.4432  3.2627
 8905SOL    HW238352   0.492   2.191   8.115  0.7526  1.0467 -0.8890
 8906SOL     OW38353   4.152   4.248   8.630 -0.9672  0.3583  0.5907
 8906SOL    HW138354   4.204   4.246   8.711  1.9021 -0.9140 -1.3184
 8906SOL    HW238355   4.070   4.284   8.665 -1.7176 -0.5956 -0.1885
 8907SOL     OW38356   3.370   0.418   9.017  0.1583  0.2690  0.0204
 8907SOL    HW138357   3.462   0.407   9.043 -0.6092 -0.6369  2.3080
 8907SOL    HW238358   3.341   0.327   9.018  2.8472 -0.5861  0.0557
 8908SOL     OW38359   2.478   0.960  11.252 -0.2292  0.6188 -0.1202
 8908SOL    HW138360   2.459   0.980  11.160  3.2428 -1.1846 -1.2394
 8908SOL    HW238361   2.572   0.947  11.239 -0.0724  1.6514 -0.0069
 8909SOL     OW38362   1.071   1.427   2.743 -0.1584 -0.0133 -0.3128
 8909SOL    HW138363   1.136   1.359   2.726  0.4485  0.2709  0.9223
 8909SOL    HW238364   1.125   1.489   2.792  0.4417 -0.5986 -0.2346
 8910SOL     OW38365   3.572   0.563   7.650 -0.0222 -0.0931  0.3347
 8910SOL    HW138366   3.615   0.643   7.678  0.8824  0.2616 -2.0289
 8910SOL    HW238367   3.602   0.501   7.716 -0.1039 -1.0547 -0.5233
 8911SOL     OW38368   0.191   0.310   7.041 -0.1993 -0.7079 -0.3556
 8911SOL    HW138369   0.124   0.261   6.994 -0.5980 -1.7508  1.2837
 8911SOL    HW238370   0.241   0.343   6.967 -0.0683 -0.2555 -0.0687
 8912SOL     OW38371   3.716   3.874   4.247  0.1300  0.3539  0.3553
 8912SOL    HW138372   3.631   3.908   4.218  0.8547  0.6328 -1.4531
 8912SOL    HW238373   3.748   3.834   4.167  1.6117  0.9039  0.6738
 8913SOL     OW38374   0.969   0.467  12.465 -0.5778  0.5499 -0.5309
 8913SOL    HW138375   0.893   0.456  12.408 -0.4468  0.2894 -0.6551
 8913SOL    HW238376   0.944   0.534  12.528  0.2924  1.2689 -0.9614
 8914SOL     OW38377   0.695   0.106   0.663  0.0860 -0.0954 -0.3022
 8914SOL    HW138378   0.732   0.131   0.579  3.4852  0.9786  1.5257
 8914SOL    HW238379   0.615   0.155   0.643 -2.3251 -2.9393  2.2628
 8915SOL     OW38380   1.637   3.323   0.427  1.0026 -0.3581  0.6818
 8915SOL    HW138381   1.655   3.262   0.356 -1.2159  1.0050 -1.0398
 8915SOL    HW238382   1.681   3.278   0.499  3.5890  2.2638  0.7405
 8916SOL     OW38383   2.170   1.077  17.656  0.0227 -0.3426  0.1485
 8916SOL    HW138384   2.090   1.087  17.606 -0.3559 -1.2050  0.5826
 8916SOL    HW238385   2.189   0.983  17.650  0.0633 -0.3296  0.0632
 8917SOL     OW38386   2.937   0.467   3.005 -0.1372  0.2505  0.5270
 8917SOL    HW138387   2.848   0.433   3.018  0.1990 -1.0567 -0.6062
 8917SOL    HW238388   2.956   0.436   2.917  1.0391  0.5575  0.6678
 8918SOL     OW38389   1.478   2.291  13.240  0.2665 -0.4494 -0.0871
 8918SOL    HW138390   1.536   2.367  13.230 -1.6939  1.1824  0.7965
 8918SOL    HW238391   1.518   2.226  13.183 -0.2959  0.1220 -1.1273
 8919SOL     OW38392   2.461   4.216   0.630 -0.6578 -0.1222 -0.1419
 8919SOL    HW138393   2.551   4.199   0.659 -0.8673 -2.0799 -0.6332
 8919SOL    HW238394   2.424   4.130   0.651 -2.2420  0.2924 -1.2831
 8920SOL     OW38395   2.615   0.253   4.332  0.0340  0.4106 -0.4729
 8920SOL    HW138396   2.568   0.190   4.386  0.8941  0.2908  0.1306
 8920SOL    HW238397   2.701   0.262   4.372  0.5608 -0.8814 -1.3232
 8921SOL     OW38398   2.908   3.227  14.377 -0.2216  0.1316  0.2343
 8921SOL    HW138399   2.816   3.232  14.353  0.3621  2.2197 -1.6436
 8921SOL    HW238400   2.911   3.301  14.438  0.2919  0.5716 -0.3232
 8922SOL     OW38401   1.387   0.760   7.632 -0.4686  0.5516  0.0483
 8922SOL    HW138402   1.335   0.836   7.604  0.8665  2.3306  2.4151
 8922SOL    HW238403   1.332   0.705   7.687 -0.6961  0.9122  0.1803
 8923SOL     OW38404   2.024   2.084   4.675 -0.5194 -0.4330 -0.4526
 8923SOL    HW138405   1.979   2.002   4.653 -0.7103 -0.4015 -0.1805
 8923SOL    HW238406   1.981   2.114   4.755 -0.1293 -0.4220 -0.2428
 8924SOL     OW38407   3.992   4.177   7.189  0.2984  0.1463 -0.2707
 8924SOL    HW138408   3.919   4.117   7.207  1.7740 -0.8301  2.3918
 8924SOL    HW238409   3.946   4.251   7.149 -1.8144 -1.5758 -1.0062
 8925SOL     OW38410   1.421   2.229   1.387 -0.0448  0.3893  0.8115
 8925SOL    HW138411   1.503   2.269   1.417 -0.8446  1.4538  1.5858
 8925SOL    HW238412   1.428   2.135   1.403 -1.9039  0.0388 -0.5179
 8926SOL     OW38413   2.603   0.542   3.937 -0.3872  0.2142  0.1214
 8926SOL    HW138414   2.638   0.481   3.871  0.2118  0.3392  0.3251
 8926SOL    HW238415   2.591   0.483   4.011 -2.1643 -0.2017 -0.4925
 8927SOL     OW38416   1.242   0.001   8.763 -0.3152 -0.7081  0.2343
 8927SOL    HW138417   1.255   4.665   8.826  0.1497  0.0037  0.9399
 8927SOL    HW238418   1.243   4.685   8.682 -0.9222  0.1543 -0.3211
 8928SOL     OW38419   3.455   0.449   5.909 -0.1599 -0.6857  0.3910
 8928SOL    HW138420   3.506   0.484   5.836 -2.5024  0.9414 -0.5128
 8928SOL    HW238421   3.426   0.365   5.873  0.9073 -0.5908 -0.6718
 8929SOL     OW38422   0.554   2.777   1.269 -0.5395  0.4685  0.0207
 8929SOL    HW138423   0.566   2.872   1.272 -0.5959  0.5457 -2.1111
 8929SOL    HW238424   0.467   2.766   1.230 -0.5727  1.0013 -0.0534
 8930SOL     OW38425   4.095   0.591   4.168 -0.1823 -0.3797  0.9230
 8930SOL    HW138426   4.112   0.658   4.102 -2.8852 -2.7474 -2.2057
 8930SOL    HW238427   4.026   0.546   4.119  0.3893 -2.7728  2.3143
 8931SOL     OW38428   1.990   0.640   5.623 -0.1407  0.0913  0.1805
 8931SOL    HW138429   2.046   0.690   5.563 -0.0084 -0.3577 -0.0688
 8931SOL    HW238430   1.997   0.683   5.709 -2.2971  0.0528  0.3872
 8932SOL     OW38431   3.049   3.043   2.711  0.1228 -0.1924  0.1133
 8932SOL    HW138432   3.041   2.948   2.718 -0.0220 -0.1021  1.0961
 8932SOL    HW238433   2.966   3.075   2.746  0.4560 -0.5211  1.1914
 8933SOL     OW38434   2.579   0.024  13.092 -0.2228  0.3815 -0.7589
 8933SOL    HW138435   2.631   4.706  13.031  2.3531  4.1279 -1.8418
 8933SOL    HW238436   2.664   0.056  13.123 -1.1789 -0.0107  2.2117
 8934SOL     OW38437   0.990   4.412   8.855  0.2366 -0.1629  0.8302
 8934SOL    HW138438   1.039   4.493   8.869 -0.0265  0.2270 -0.5852
 8934SOL    HW238439   0.983   4.383   8.946  0.2718  1.0523  1.2152
 8935SOL     OW38440   2.414   3.622   9.432  0.0509 -0.7146  1.0023
 8935SOL    HW138441   2.359   3.552   9.468 -0.7494 -0.7707 -0.3560
 8935SOL    HW238442   2.474   3.571   9.377 -1.0874 -0.4073 -0.5074
 8936SOL     OW38443   2.019   0.018  15.904 -0.5904  0.0721  0.4574
 8936SOL    HW138444   1.928   4.723  15.904 -0.3914 -0.5324 -1.0390
 8936SOL    HW238445   2.022   0.055  15.816  0.1416  0.9187  0.8383
 8937SOL     OW38446   1.726   2.230   8.533  0.6830 -0.1733 -0.0911
 8937SOL    HW138447   1.802   2.246   8.477  1.2554 -0.0779  0.7187
 8937SOL    HW238448   1.735   2.140   8.563 -1.7431 -1.0241 -1.9542
 8938SOL     OW38449   2.054   2.485   3.817 -0.3194  0.6189  0.2850
 8938SOL    HW138450   2.040   2.451   3.728 -2.3127  1.8556  0.1427
 8938SOL    HW238451   2.115   2.555   3.793  0.8792 -0.5618 -0.1494
 8939SOL     OW38452   1.614   4.022   7.412  0.0039 -1.0422  0.1567
 8939SOL    HW138453   1.581   4.110   7.432 -1.3506 -1.0629 -1.9842
 8939SOL    HW238454   1.634   3.999   7.503  1.4452 -3.6327 -0.8035
 8940SOL     OW38455   3.234   2.581   6.439  0.7692  0.2584 -0.9721
 8940SOL    HW138456   3.313   2.633   6.455 -0.4524  1.4435  1.2747
 8940SOL    HW238457   3.167   2.642   6.468 -0.2388 -0.7497 -1.1949
 8941SOL     OW38458   0.523   1.051   3.623  0.1647 -0.3070  0.7261
 8941SOL    HW138459   0.596   1.000   3.659  0.9855 -0.2280 -0.8572
 8941SOL    HW238460   0.479   0.992   3.563 -0.9906  0.8340  0.4476
 8942SOL     OW38461   0.132   1.079   9.896 -0.1337  0.4161 -0.2971
 8942SOL    HW138462   0.073   1.145   9.860  1.3410  1.1165 -1.3955
 8942SOL    HW238463   0.081   1.007   9.858 -0.3949  0.3072  0.2542
 8943SOL     OW38464   0.980   1.015   7.029  0.2251 -0.3483  0.1999
 8943SOL    HW138465   0.999   0.922   7.015  1.6368  0.2239 -1.6489
 8943SOL    HW238466   0.895   1.004   7.073 -0.6557  1.7202 -0.9776
 8944SOL     OW38467   0.652   0.186  14.750  0.5902  0.0163  0.2125
 8944SOL    HW138468   0.609   0.190  14.835  0.2580 -0.8660  0.0881
 8944SOL    HW238469   0.743   0.195  14.777  0.6537  2.9109 -0.9714
 8945SOL     OW38470   1.538   1.983  14.004  0.8626 -0.0340 -0.1915
 8945SOL    HW138471   1.566   1.900  14.042 -0.3810 -0.2419  0.2478
 8945SOL    HW238472   1.543   2.046  14.076 -1.9783 -0.3728  0.2884
 8946SOL     OW38473   0.730   1.212  16.170 -0.0738 -0.1301 -0.4427
 8946SOL    HW138474   0.680   1.255  16.101  1.4576 -1.5422 -2.4645
 8946SOL    HW238475   0.777   1.144  16.121  1.3207  2.0786 -2.1658
 8947SOL     OW38476   1.765   3.893  16.780 -0.1488 -0.0625  0.5192
 8947SOL    HW138477   1.711   3.813  16.785  0.2050 -0.5187 -3.0027
 8947SOL    HW238478   1.844   3.858  16.739 -0.3332  1.0103 -0.7222
 8948SOL     OW38479   3.302   2.289   5.863  0.0155 -0.6629  0.2762
 8948SOL    HW138480   3.296   2.377   5.827  0.7169 -0.2809  1.1190
 8948SOL    HW238481   3.380   2.291   5.918  0.6425 -0.6084 -0.6233
 8949SOL     OW38482   1.664   3.963   3.703 -0.4688 -0.4745  0.5207
 8949SOL    HW138483   1.612   3.940   3.626 -0.4166  2.1978 -0.3108
 8949SOL    HW238484   1.757   3.944   3.687 -0.1053  1.6466  0.1932
 8950SOL     OW38485   0.480   1.092   6.026  0.1946 -0.3076  0.6067
 8950SOL    HW138486   0.534   1.025   6.069 -0.7839  0.2239  2.6768
 8950SOL    HW238487   0.549   1.143   5.985  0.7724 -0.9377  0.7936
 8951SOL     OW38488   0.613   4.499   6.069  0.1522 -0.2253 -0.0569
 8951SOL    HW138489   0.579   4.576   6.114 -0.4740 -0.4988 -0.0559
 8951SOL    HW238490   0.667   4.538   6.000  1.4091  2.0223  2.1855
 8952SOL     OW38491   3.142   0.259   3.884  0.2410  0.1860 -0.1959
 8952SOL    HW138492   3.225   0.222   3.916  1.2734  0.3327 -2.6871
 8952SOL    HW238493   3.162   0.271   3.791  0.1878 -0.0155 -0.2324
 8953SOL     OW38494   1.158   1.282   3.055 -0.5520  0.0309  0.5199
 8953SOL    HW138495   1.065   1.262   3.070 -0.8987  0.4880 -1.0652
 8953SOL    HW238496   1.207   1.254   3.133 -2.0419 -2.4187  0.5703
 8954SOL     OW38497   4.625   1.946   1.967 -0.1397  0.6735  0.5440
 8954SOL    HW138498   4.604   1.853   1.964  0.9217  0.3884  1.9836
 8954SOL    HW238499   4.563   1.992   1.910  0.8694  0.1807 -0.9424
 8955SOL     OW38500   0.109   2.916   1.930  0.1842  0.0145  0.2797
 8955SOL    HW138501   0.088   2.824   1.917 -0.3579 -0.0693  1.7045
 8955SOL    HW238502   0.194   2.913   1.974 -0.6238 -1.7432  1.7463
 8956SOL     OW38503   3.756   0.526  13.368  0.1681  0.5513  0.2465
 8956SOL    HW138504   3.787   0.606  13.325  0.7376 -0.5500 -1.3947
 8956SOL    HW238505   3.767   0.549  13.460 -0.7834 -0.5580  0.6403
 8957SOL     OW38506   3.153   3.413   2.700  0.4269  0.7002 -0.2846
 8957SOL    HW138507   3.125   3.384   2.787 -0.0107  0.4631 -0.5032
 8957SOL    HW238508   3.170   3.332   2.652 -0.5101  0.9507 -1.0593
 8958SOL     OW38509   0.948   4.678  11.896 -0.1603  0.0117  0.1076
 8958SOL    HW138510   0.967   4.638  11.811  2.3363 -1.2078  1.2428
 8958SOL    HW238511   0.963   0.034  11.873  0.3751  0.6708  3.0134
 8959SOL     OW38512   0.415   1.551  11.641  0.0330 -0.4457 -0.1024
 8959SOL    HW138513   0.413   1.646  11.654 -2.4907 -0.7536  1.8083
 8959SOL    HW238514   0.466   1.522  11.717  1.1081 -0.1536 -0.7143
 8960SOL     OW38515   3.754   3.492   8.982 -0.5606 -0.0796 -0.5168
 8960SOL    HW138516   3.836   3.476   8.936  0.2041  0.8351  0.5354
 8960SOL    HW238517   3.782   3.481   9.073  2.3370  1.1179 -1.2671
 8961SOL     OW38518   3.648   3.233   3.276  0.7557 -0.9633  0.3513
 8961SOL    HW138519   3.714   3.206   3.213  0.0282 -2.2714  0.1595
 8961SOL    HW238520   3.669   3.326   3.269 -0.9963 -0.4818  1.3607
 8962SOL     OW38521   3.490   3.072   8.717 -0.4962  0.0281  0.3944
 8962SOL    HW138522   3.564   3.012   8.730  0.3305  0.9690  0.0201
 8962SOL    HW238523   3.529   3.131   8.653  2.8950 -0.4711  1.9789
 8963SOL     OW38524   3.393   0.259   4.162 -0.2714 -0.0290 -0.0352
 8963SOL    HW138525   3.338   0.338   4.163 -0.3645 -0.1021  0.4088
 8963SOL    HW238526   3.429   0.264   4.250 -1.3911 -1.1075  0.4853
 8964SOL     OW38527   2.535   0.933   4.574  0.0605  0.2086 -0.1264
 8964SOL    HW138528   2.613   0.879   4.563 -0.2392 -0.1671 -0.4068
 8964SOL    HW238529   2.465   0.880   4.536 -0.5575 -0.0514  1.3858
 8965SOL     OW38530   2.874   4.484  10.098  0.5693 -0.4934 -0.2827
 8965SOL    HW138531   2.781   4.498  10.077  0.8569  1.2029 -0.4479
 8965SOL    HW238532   2.902   4.413  10.040 -0.0176  0.2731 -1.5135
 8966SOL     OW38533   2.413   0.148   4.515 -0.4042 -0.2582  0.3744
 8966SOL    HW138534   2.365   0.136   4.596  1.2078 -0.6396  1.2732
 8966SOL    HW238535   2.361   0.221   4.482  0.6272 -0.6264 -2.0845
 8967SOL     OW38536   0.969   2.874   7.251  0.0222 -0.1367 -0.5050
 8967SOL    HW138537   0.901   2.921   7.299 -0.1829 -1.2398  0.2710
 8967SOL    HW238538   0.925   2.874   7.166 -0.7582 -2.0404 -0.1098
 8968SOL     OW38539   1.383   3.439   7.008 -0.4434 -0.2639  0.0774
 8968SOL    HW138540   1.440   3.448   7.085  0.4937  0.1839 -0.6737
 8968SOL    HW238541   1.363   3.346   7.016 -0.8432 -0.1801  0.0359
 8969SOL     OW38542   2.914   3.584  12.826  0.0901 -0.6294 -0.0587
 8969SOL    HW138543   2.970   3.631  12.763 -0.0211  0.4126  0.6178
 8969SOL    HW238544   2.961   3.501  12.831 -0.8158 -1.1341  0.0476
 8970SOL     OW38545   1.802   3.636  16.668 -0.2347  0.1446  0.1607
 8970SOL    HW138546   1.835   3.573  16.732  1.0634 -0.4006 -1.0330
 8970SOL    HW238547   1.776   3.587  16.589 -0.1996 -1.2595  1.0146
 8971SOL     OW38548   2.198   4.061   2.793 -0.1007 -0.7251 -0.2271
 8971SOL    HW138549   2.126   3.998   2.801 -1.4219  0.8338  0.0434
 8971SOL    HW238550   2.180   4.105   2.710  0.6627 -2.9165 -1.5763
 8972SOL     OW38551   2.439   2.264   6.822  0.4301  0.0864 -0.0416
 8972SOL    HW138552   2.512   2.293   6.767 -1.8861  0.1270 -3.0490
 8972SOL    HW238553   2.419   2.187   6.769  0.5628  1.9826 -2.8603
 8973SOL     OW38554   0.185   1.440   1.229  0.2552  0.1953  0.5190
 8973SOL    HW138555   0.255   1.377   1.212 -1.2753 -1.2151 -0.5810
 8973SOL    HW238556   0.189   1.495   1.151  1.0236 -0.8577 -0.1856
 8974SOL     OW38557   2.947   4.233   5.699  0.3919 -0.0631 -0.7546
 8974SOL    HW138558   2.880   4.266   5.639 -1.0076  2.2831  2.1386
 8974SOL    HW238559   3.029   4.261   5.660  1.1421  0.6670  1.3707
 8975SOL     OW38560   3.583   0.923   1.950  0.1976  0.4965 -0.2038
 8975SOL    HW138561   3.532   0.912   2.030  0.3623 -0.2340 -0.2038
 8975SOL    HW238562   3.665   0.960   1.984  0.3467 -1.1068  1.1916
 8976SOL     OW38563   2.678   2.190   7.636 -0.5820 -0.1425  0.7088
 8976SOL    HW138564   2.665   2.115   7.578  1.4310 -0.0180  0.1054
 8976SOL    HW238565   2.767   2.167   7.664 -1.0105 -2.5142  0.1356
 8977SOL     OW38566   3.773   0.352  13.171 -0.1656  0.3553 -0.4722
 8977SOL    HW138567   3.758   0.424  13.233  1.0124 -0.3480  0.6218
 8977SOL    HW238568   3.717   0.383  13.100 -0.3955 -0.4515 -0.6432
 8978SOL     OW38569   2.880   2.206   4.405  0.0553 -0.2259 -0.0881
 8978SOL    HW138570   2.852   2.171   4.320 -0.6005 -0.2856  0.1484
 8978SOL    HW238571   2.961   2.253   4.386 -1.0940  1.7409 -0.1485
 8979SOL     OW38572   3.254   3.616   5.446  0.5703 -0.5228 -0.0837
 8979SOL    HW138573   3.180   3.586   5.500  0.4325 -0.1758 -0.0796
 8979SOL    HW238574   3.208   3.650   5.369 -1.4267 -4.3490 -0.5619
 8980SOL     OW38575   1.437   3.423   4.613  0.0081  0.2426  0.0295
 8980SOL    HW138576   1.500   3.358   4.643  0.6188  0.2244 -1.3014
 8980SOL    HW238577   1.458   3.434   4.520  0.1815 -0.8037 -0.0509
 8981SOL     OW38578   0.786   3.547   3.359  0.5126  0.2188 -0.1857
 8981SOL    HW138579   0.692   3.551   3.343  1.0204  0.8403 -2.9731
 8981SOL    HW238580   0.797   3.455   3.334  0.0724  0.4099 -1.0615
 8982SOL     OW38581   3.414   1.150   7.264  0.4424  0.1867 -0.3380
 8982SOL    HW138582   3.421   1.086   7.335 -1.2309 -0.1756 -0.4858
 8982SOL    HW238583   3.355   1.099   7.209  0.4425  0.4813 -0.6063
 8983SOL     OW38584   0.613   4.285   1.243  0.3808  0.1597  1.0978
 8983SOL    HW138585   0.680   4.321   1.301  0.5109 -0.2805  1.2234
 8983SOL    HW238586   0.594   4.359   1.185  0.9885 -0.5726 -0.0454
 8984SOL     OW38587   1.312   3.499  13.720  0.5711 -0.4770  0.7146
 8984SOL    HW138588   1.276   3.585  13.700 -2.0595 -1.7318  0.1740
 8984SOL    HW238589   1.359   3.466  13.643 -1.4147  0.8028 -1.0169
 8985SOL     OW38590   2.453   2.013   5.518  0.3476  0.3776  0.4737
 8985SOL    HW138591   2.421   1.960   5.445 -0.4324 -1.4628  2.1203
 8985SOL    HW238592   2.514   2.067   5.468  0.1081 -0.0434 -0.2818
 8986SOL     OW38593   4.494   2.839  13.480  0.4851 -0.3325 -0.1750
 8986SOL    HW138594   4.404   2.805  13.478 -0.0636  1.1734 -1.3462
 8986SOL    HW238595   4.542   2.758  13.494  0.1962 -0.4559  0.0837
 8987SOL     OW38596   2.769   2.140   2.678 -0.2884  0.2233 -0.7928
 8987SOL    HW138597   2.729   2.186   2.604 -2.3971 -1.1499 -0.4932
 8987SOL    HW238598   2.834   2.201   2.714 -0.1383 -0.7582  0.5868
 8988SOL     OW38599   2.905   2.957   7.961  0.2715 -0.1319  0.0163
 8988SOL    HW138600   2.993   2.933   7.988 -0.3987 -1.1410  1.3158
 8988SOL    HW238601   2.865   2.989   8.042 -0.0317 -1.4679  0.3989
 8989SOL     OW38602   0.948   0.250  11.847 -0.0243 -1.1561 -0.1756
 8989SOL    HW138603   0.901   0.225  11.927  3.1064 -2.2399  1.2879
 8989SOL    HW238604   0.998   0.323  11.883  0.2332 -1.7752  0.7026
 8990SOL     OW38605   4.165   2.579   4.312 -0.2143  0.2735  0.3039
 8990SOL    HW138606   4.223   2.527   4.368  2.1316  2.6160  0.0410
 8990SOL    HW238607   4.128   2.633   4.381 -0.8915 -0.3968  0.4688
 8991SOL     OW38608   4.644   2.358   3.640  0.4075 -0.4443 -0.3301
 8991SOL    HW138609   4.723   2.306   3.623  0.0298 -0.7065 -1.2778
 8991SOL    HW238610   4.652   2.385   3.731  0.6456  1.8295 -1.0198
 8992SOL     OW38611   0.147   0.944  12.034 -0.1461  0.0359 -0.1647
 8992SOL    HW138612   0.212   1.005  11.999  0.9114 -1.5256 -0.8757
 8992SOL    HW238613   0.063   0.987  12.016  0.3175 -0.4755 -3.3940
 8993SOL     OW38614   1.435   1.782   4.045  0.0942 -0.3633  0.4388
 8993SOL    HW138615   1.517   1.827   4.070  0.6344 -1.2562  0.2688
 8993SOL    HW238616   1.393   1.766   4.129  0.4626  2.6709  1.2052
 8994SOL     OW38617   0.741   1.446   1.053 -0.7216 -0.0035 -0.0054
 8994SOL    HW138618   0.717   1.482   0.968  0.3828  0.2302 -0.2179
 8994SOL    HW238619   0.792   1.514   1.098 -2.3875  1.1168  0.1861
 8995SOL     OW38620   3.849   3.956  13.670 -0.6497 -0.4503 -0.3804
 8995SOL    HW138621   3.833   3.904  13.748 -0.5556  0.0832 -0.0011
 8995SOL    HW238622   3.942   3.938  13.651 -0.9986 -1.8025 -0.8034
 8996SOL     OW38623   0.106   1.923   9.013 -0.6339  0.1915  0.2988
 8996SOL    HW138624   0.088   1.994   9.074  1.0386 -0.2753  1.3328
 8996SOL    HW238625   0.170   1.866   9.056 -0.7770 -1.5691 -1.8111
 8997SOL     OW38626   2.848   2.854   7.390  0.2732  0.2823 -0.4265
 8997SOL    HW138627   2.886   2.936   7.420 -1.4378  0.4429  1.3428
 8997SOL    HW238628   2.760   2.883   7.366 -0.0237 -0.4159 -0.1788
 8998SOL     OW38629   0.774   3.321   0.189  0.0673  0.2985  0.0770
 8998SOL    HW138630   0.834   3.343   0.118 -0.2285  1.0372  0.0477
 8998SOL    HW238631   0.803   3.232   0.205 -1.6427  0.3733  3.5813
 8999SOL     OW38632   0.376   2.878   2.579 -0.1618 -0.1773  0.7428
 8999SOL    HW138633   0.442   2.947   2.585  1.1142 -1.3259 -0.2423
 8999SOL    HW238634   0.391   2.844   2.491  3.0044  1.5844  0.6248
 9000SOL     OW38635   2.959   1.470   5.017 -0.2843  0.6056 -0.3144
 9000SOL    HW138636   2.996   1.454   4.930  0.2677  0.2603 -0.0187
 9000SOL    HW238637   2.926   1.558   5.003 -1.9140  0.3637  2.1157
 9001SOL     OW38638   1.167   2.719   5.272  0.3288 -0.5300  0.1609
 9001SOL    HW138639   1.154   2.806   5.309 -0.8200 -1.0680  1.0137
 9001SOL    HW238640   1.249   2.681   5.304  1.4839  2.0810  0.2634
 9002SOL     OW38641   0.829   2.843   6.255 -0.1028  0.1431  0.2407
 9002SOL    HW138642   0.809   2.782   6.184  0.6392 -0.0879  0.2320
 9002SOL    HW238643   0.741   2.855   6.290  0.1191  1.6080  0.3058
 9003SOL     OW38644   0.722   4.017   1.670 -0.3297  0.8098 -0.1640
 9003SOL    HW138645   0.652   4.003   1.734 -0.7628 -0.9463 -1.0020
 9003SOL    HW238646   0.746   3.926   1.650  0.3160  0.1315  3.6768
 9004SOL     OW38647   3.912   2.223   7.140 -0.1374  0.1926 -0.5473
 9004SOL    HW138648   3.982   2.211   7.204 -0.0194 -1.6068 -0.9994
 9004SOL    HW238649   3.966   2.220   7.061  1.4069  1.0145  0.4715
 9005SOL     OW38650   0.099   1.800   5.358 -0.3501 -0.4157 -0.0942
 9005SOL    HW138651   0.185   1.767   5.332  0.2077  0.4570  0.6368
 9005SOL    HW238652   0.047   1.721   5.342  1.2266 -0.6937 -3.8362
 9006SOL     OW38653   0.577   3.903   4.245 -0.1605 -0.2219  0.3033
 9006SOL    HW138654   0.574   3.814   4.211  0.6189  0.4207 -1.4907
 9006SOL    HW238655   0.614   3.951   4.171 -2.6763 -0.2736 -0.9951
 9007SOL     OW38656   4.246   3.673   7.862  0.1422 -0.1901  0.4598
 9007SOL    HW138657   4.283   3.587   7.883 -3.4652 -0.9797  3.4366
 9007SOL    HW238658   4.155   3.661   7.836  0.3207 -1.3735  0.3892
 9008SOL     OW38659   2.963   2.275  11.458  0.2744 -0.5935 -0.7263
 9008SOL    HW138660   2.962   2.284  11.554  0.4579 -0.8150 -0.7030
 9008SOL    HW238661   3.018   2.350  11.436  0.5612  0.2019  2.6856
 9009SOL     OW38662   2.854   2.932  12.746  0.3740  0.0843 -0.1960
 9009SOL    HW138663   2.859   2.956  12.838  0.7981 -1.3085  0.1419
 9009SOL    HW238664   2.943   2.900  12.736  0.6643  1.4933 -2.2721
 9010SOL     OW38665   1.459   1.133   7.226  0.3123  0.1637 -0.2180
 9010SOL    HW138666   1.422   1.221   7.237 -0.5497 -0.0137 -1.6791
 9010SOL    HW238667   1.379   1.095   7.191  0.5984 -0.6385 -0.0046
 9011SOL     OW38668   1.256   4.339   4.035  0.2645 -0.1763  0.2204
 9011SOL    HW138669   1.338   4.361   3.990  0.2127  0.3110  0.3723
 9011SOL    HW238670   1.265   4.246   4.058 -0.5684  0.8318  4.4475
 9012SOL     OW38671   0.570   0.677   7.446 -0.2609  0.0936 -0.6706
 9012SOL    HW138672   0.617   0.594   7.443 -1.1570 -0.4712  1.2665
 9012SOL    HW238673   0.632   0.729   7.498  0.2554 -0.9648 -0.2296
 9013SOL     OW38674   4.054   4.128   8.166  0.4671 -0.1351  0.1053
 9013SOL    HW138675   4.059   4.217   8.131  0.2100 -0.3275 -0.4180
 9013SOL    HW238676   4.147   4.106   8.168  0.3216 -0.7824 -0.3000
 9014SOL     OW38677   2.631   2.219   4.848 -0.4084  0.0544  0.1275
 9014SOL    HW138678   2.630   2.190   4.757  0.5562 -1.4868  0.6205
 9014SOL    HW238679   2.561   2.159   4.873 -0.9414  0.4797 -0.3274
 9015SOL     OW38680   0.952   1.225  15.497  0.1016 -0.0903 -0.5561
 9015SOL    HW138681   1.024   1.280  15.464 -1.3085  0.7369 -2.2468
 9015SOL    HW238682   0.886   1.248  15.432 -0.4446 -0.4950 -0.1381
 9016SOL     OW38683   4.358   1.151   3.419  0.1746  0.5228 -0.0757
 9016SOL    HW138684   4.434   1.096   3.435  0.0888  0.2395 -0.6562
 9016SOL    HW238685   4.358   1.133   3.325  1.4675  0.0129  0.0182
 9017SOL     OW38686   2.384   3.015  16.236  0.1843 -0.0570  0.1204
 9017SOL    HW138687   2.397   2.955  16.310 -4.2870 -0.2907  0.7444
 9017SOL    HW238688   2.298   2.984  16.207  1.0336 -0.9014 -1.4844
 9018SOL     OW38689   1.035   2.532   8.279  0.1020  0.5456 -0.6711
 9018SOL    HW138690   0.995   2.446   8.288  0.5232  0.6017  1.7156
 9018SOL    HW238691   1.071   2.542   8.367 -0.8238  1.0699 -0.3587
 9019SOL     OW38692   2.467   2.421   3.914  0.2136 -0.3007  0.5816
 9019SOL    HW138693   2.485   2.350   3.976  1.5266  0.6109  1.2436
 9019SOL    HW238694   2.459   2.361   3.840  0.8513 -0.5808  0.7395
 9020SOL     OW38695   4.549   2.472   7.648  0.0113 -0.1228  0.2497
 9020SOL    HW138696   4.576   2.437   7.564 -0.0841 -1.0513  0.6082
 9020SOL    HW238697   4.634   2.496   7.685  0.1200  0.5678 -0.4351
 9021SOL     OW38698   1.928   3.099  16.728 -0.2171  0.3081  0.7253
 9021SOL    HW138699   1.865   3.168  16.750  0.8945  1.9261 -1.2779
 9021SOL    HW238700   1.998   3.162  16.712  2.2736 -2.8316 -0.7193
 9022SOL     OW38701   0.478   2.378   1.423 -0.1036  0.2362 -0.1314
 9022SOL    HW138702   0.456   2.293   1.461 -1.1626  0.3308 -0.5212
 9022SOL    HW238703   0.414   2.441   1.456 -0.1410  0.2178 -0.1688
 9023SOL     OW38704   4.582   0.250   2.739  0.6620  0.3335 -0.0982
 9023SOL    HW138705   4.594   0.267   2.646 -0.0671 -1.5383 -0.5363
 9023SOL    HW238706   4.491   0.219   2.741  1.3585 -1.8003 -0.9099
 9024SOL     OW38707   2.655   2.448  15.645 -0.4129  0.2419  0.2074
 9024SOL    HW138708   2.620   2.437  15.556  1.1201 -2.0894 -0.0964
 9024SOL    HW238709   2.582   2.420  15.698  0.0069 -0.3701  0.4629
 9025SOL     OW38710   4.688   1.892   7.688  0.2685  0.3157 -0.2735
 9025SOL    HW138711   0.039   1.856   7.708 -0.7360 -1.2827  1.2031
 9025SOL    HW238712   4.665   1.925   7.775 -0.0063 -0.7640  0.0717
 9026SOL     OW38713   1.811   0.646   9.035 -0.5697 -0.6074 -0.0195
 9026SOL    HW138714   1.889   0.689   9.070 -1.9990  2.3735 -0.5005
 9026SOL    HW238715   1.850   0.574   8.985 -1.7184 -0.1200 -1.6364
 9027SOL     OW38716   1.022   2.204   8.814 -0.0600  0.1338  0.0062
 9027SOL    HW138717   0.991   2.295   8.814  0.0034  0.1489 -0.6481
 9027SOL    HW238718   1.107   2.226   8.854  0.1992  0.9765 -1.0185
 9028SOL     OW38719   1.212   4.707   3.487  0.0909 -0.1719 -0.1684
 9028SOL    HW138720   1.171   0.018   3.414 -1.5647 -0.3913  0.6120
 9028SOL    HW238721   1.207   4.617   3.454 -1.2399 -0.4375  0.7363
 9029SOL     OW38722   1.998   3.603   5.903  0.5139 -0.5101 -0.1862
 9029SOL    HW138723   2.085   3.563   5.911 -0.2029 -1.5508  2.5084
 9029SOL    HW238724   1.972   3.586   5.993  0.1511 -0.0534 -0.2075
 9030SOL     OW38725   2.497   4.421   4.752 -0.0569  0.6467 -0.3997
 9030SOL    HW138726   2.484   4.468   4.834 -3.7250 -1.3033  0.1626
 9030SOL    HW238727   2.405   4.414   4.725  0.2641 -1.1763 -1.0169
 9031SOL     OW38728   3.067   2.371  15.333  0.8866  0.1469  0.3526
 9031SOL    HW138729   3.074   2.337  15.422 -4.0075  0.8321  1.0092
 9031SOL    HW238730   2.978   2.349  15.305  0.6912 -0.0988  1.1806
 9032SOL     OW38731   3.393   0.176   1.828  0.0016  0.7211  0.4980
 9032SOL    HW138732   3.445   0.098   1.807  1.2576  2.1659 -1.7914
 9032SOL    HW238733   3.348   0.146   1.907  1.8793  1.2858  1.7976
 9033SOL     OW38734   1.960   0.216   5.615 -0.1733  0.2216  0.8807
 9033SOL    HW138735   1.897   0.158   5.658  0.2072  0.1267  1.3155
 9033SOL    HW238736   2.029   0.222   5.681 -1.1715 -0.9969  2.0406
 9034SOL     OW38737   2.237   3.166   2.591 -0.2683  0.0957  0.6798
 9034SOL    HW138738   2.307   3.230   2.581  0.7086 -1.1079 -0.2337
 9034SOL    HW238739   2.195   3.169   2.505 -1.6407 -2.4620  1.2487
 9035SOL     OW38740   3.843   0.465   9.458  0.1649  0.2325  0.4202
 9035SOL    HW138741   3.772   0.445   9.519  0.0467  0.2692  0.2956
 9035SOL    HW238742   3.914   0.419   9.502 -0.0805 -0.6224 -0.0841
 9036SOL     OW38743   1.305   4.151  12.964 -0.3886  0.1879 -0.6925
 9036SOL    HW138744   1.313   4.199  12.882  0.0905  0.2794 -0.5929
 9036SOL    HW238745   1.226   4.098  12.951  0.4973 -1.2365 -0.2738
 9037SOL     OW38746   0.357   4.435   1.956 -0.3143  0.3534  0.7339
 9037SOL    HW138747   0.408   4.354   1.948 -2.2813 -0.7366 -1.0181
 9037SOL    HW238748   0.304   4.431   1.876 -0.2803  3.2674  0.5802
 9038SOL     OW38749   3.271   4.195  12.481  0.0706 -0.1293 -0.0491
 9038SOL    HW138750   3.284   4.277  12.433 -1.0871  0.6063  0.8936
 9038SOL    HW238751   3.362   4.167  12.491  0.1234  0.3787  0.8442
 9039SOL     OW38752   1.069   1.559   5.352 -0.7751 -0.2105 -0.3563
 9039SOL    HW138753   1.135   1.625   5.333 -0.7525 -0.4318 -1.0440
 9039SOL    HW238754   0.984   1.598   5.333 -0.2675  0.4551 -1.2011
 9040SOL     OW38755   0.792   1.365  16.604 -0.1948 -0.0230  0.0957
 9040SOL    HW138756   0.757   1.285  16.644  0.0126  0.2686  0.8507
 9040SOL    HW238757   0.741   1.366  16.523 -0.4140 -1.1987  0.2208
 9041SOL     OW38758   2.742   3.717   4.167  0.0974  0.3922  0.4451
 9041SOL    HW138759   2.660   3.715   4.217  0.0976  0.0260  0.4308
 9041SOL    HW238760   2.705   3.671   4.091  0.0468 -1.6527  1.6982
 9042SOL     OW38761   1.694   3.458   8.704  0.4577  0.4199 -0.3852
 9042SOL    HW138762   1.692   3.549   8.734  0.0119  0.6349 -1.0574
 9042SOL    HW238763   1.618   3.465   8.646  0.4083 -1.2814 -0.5285
 9043SOL     OW38764   2.236   4.127  17.643 -0.3640 -0.6944 -0.2624
 9043SOL    HW138765   2.293   4.133  17.720 -0.9136  1.7706 -0.0420
 9043SOL    HW238766   2.239   4.032  17.650  0.3125 -0.9045 -3.0954
 9044SOL     OW38767   0.777   4.584  10.078  0.4041  0.5070 -0.0467
 9044SOL    HW138768   0.794   4.678  10.083  0.2636  0.5516 -0.3832
 9044SOL    HW238769   0.868   4.557  10.089  1.1952  3.4586  0.8244
 9045SOL     OW38770   1.003   1.715   0.075 -0.1054  0.0935 -0.1803
 9045SOL    HW138771   1.022   1.675  17.729  1.7327  0.1363  0.2013
 9045SOL    HW238772   1.078   1.706   0.134 -2.5844 -0.3418  2.9066
 9046SOL     OW38773   0.103   2.936  11.149 -0.2736  0.0704 -0.1956
 9046SOL    HW138774   0.165   3.006  11.168  0.7591 -0.5568 -1.2614
 9046SOL    HW238775   0.058   2.930  11.233  0.9769  0.7111  0.5128
 9047SOL     OW38776   4.693   1.317   5.171  0.0432  0.3997 -0.2604
 9047SOL    HW138777   4.685   1.233   5.125 -0.9048  0.6881 -0.6374
 9047SOL    HW238778   4.604   1.325   5.206 -0.6236 -0.7713 -1.6423
 9048SOL     OW38779   1.288   4.219  12.701 -0.1977  0.1407  0.3711
 9048SOL    HW138780   1.235   4.182  12.630  0.4846 -2.6760  1.3023
 9048SOL    HW238781   1.357   4.259  12.650  0.4760 -0.3630  0.8894
 9049SOL     OW38782   1.005   1.723  14.334 -0.1557  0.2146 -0.3722
 9049SOL    HW138783   1.096   1.722  14.305  0.8203 -3.6854  2.7365
 9049SOL    HW238784   1.022   1.774  14.413  0.2409 -0.2271 -0.1704
 9050SOL     OW38785   2.338   3.988   6.481 -0.1654  0.1338  0.1523
 9050SOL    HW138786   2.410   3.930   6.504 -0.8011 -0.3537  0.9120
 9050SOL    HW238787   2.275   3.916   6.481 -0.0269  0.0341  3.3245
 9051SOL     OW38788   1.667   0.535   7.242  0.0368 -0.0019 -0.1078
 9051SOL    HW138789   1.758   0.553   7.267  0.5145 -2.4420 -0.0399
 9051SOL    HW238790   1.633   0.563   7.327 -1.4409 -0.5300 -0.5160
 9052SOL     OW38791   3.287   0.635   3.942  0.4018  0.7824 -0.2360
 9052SOL    HW138792   3.367   0.582   3.940 -2.5266 -3.5774 -1.5481
 9052SOL    HW238793   3.241   0.594   4.014 -0.1143  1.7955  0.0099
 9053SOL     OW38794   3.791   1.807  12.930  0.0793  0.4845 -0.0458
 9053SOL    HW138795   3.769   1.862  12.855 -1.4441  2.1475  1.6174
 9053SOL    HW238796   3.708   1.764  12.948  0.0712  1.0223  1.2108
 9054SOL     OW38797   0.806   0.258   4.067 -0.8204 -0.0518 -0.6065
 9054SOL    HW138798   0.771   0.249   3.978  0.0614  0.6925 -1.0217
 9054SOL    HW238799   0.808   0.167   4.099  1.2391 -0.5404 -2.1259
 9055SOL     OW38800   1.651   2.634   7.772 -0.1386 -0.0906 -0.2444
 9055SOL    HW138801   1.569   2.666   7.735 -0.6902 -2.5030 -1.1126
 9055SOL    HW238802   1.659   2.541   7.748  2.1779 -0.3158  1.3020
 9056SOL     OW38803   0.793   1.647   6.949  0.4038 -0.0658  0.3343
 9056SOL    HW138804   0.847   1.571   6.973 -0.1455 -0.6830 -0.3812
 9056SOL    HW238805   0.767   1.628   6.859 -0.6393  0.4587  0.5273
 9057SOL     OW38806   0.353   4.306  15.615 -0.2227  0.3408  0.1852
 9057SOL    HW138807   0.441   4.272  15.595  0.0412  0.4062  1.2091
 9057SOL    HW238808   0.368   4.310  15.710  1.0334 -1.2335  0.0647
 9058SOL     OW38809   2.536   0.791   8.487  0.0116 -0.1053 -0.4321
 9058SOL    HW138810   2.500   0.838   8.413 -0.0492  0.0456 -0.3070
 9058SOL    HW238811   2.530   0.855   8.559 -1.9510  0.3341 -0.9979
 9059SOL     OW38812   3.651   2.492  11.976  0.0520 -0.3932  0.6501
 9059SOL    HW138813   3.592   2.537  12.036  0.6258  1.8234 -0.4617
 9059SOL    HW238814   3.730   2.500  12.028  0.1417 -0.2968  0.4969
 9060SOL     OW38815   3.736   3.492   3.844  0.0636 -0.5299 -0.7196
 9060SOL    HW138816   3.709   3.578   3.813 -2.3448 -1.1010 -0.2128
 9060SOL    HW238817   3.685   3.476   3.924 -1.0640  1.8261 -0.9574
 9061SOL     OW38818   1.321   2.997   7.583 -0.4690 -0.7399 -0.4594
 9061SOL    HW138819   1.254   2.931   7.567 -1.0547  0.4822 -3.1488
 9061SOL    HW238820   1.403   2.947   7.588  0.1173  0.0898 -1.5485
 9062SOL     OW38821   0.575   0.720  11.187 -0.0913 -0.1692 -0.0785
 9062SOL    HW138822   0.495   0.735  11.137 -0.8614 -1.9838  0.6443
 9062SOL    HW238823   0.619   0.659  11.129 -1.2397 -0.7161 -0.3695
 9063SOL     OW38824   0.013   3.960   6.960  0.1535  0.6104  0.4966
 9063SOL    HW138825   4.713   3.934   7.045  0.2441  1.0743  0.6760
 9063SOL    HW238826   0.105   3.980   6.980  0.4514  2.1136 -2.4675
 9064SOL     OW38827   3.637   2.578   6.985 -0.0798  0.3335  0.2038
 9064SOL    HW138828   3.595   2.606   6.904  2.4216  2.4240 -0.3554
 9064SOL    HW238829   3.711   2.531   6.947 -0.6894 -0.0277 -0.5410
 9065SOL     OW38830   1.638   1.459   1.073 -0.3853 -0.2869 -0.2402
 9065SOL    HW138831   1.647   1.469   0.978  0.4830 -0.1159 -0.1430
 9065SOL    HW238832   1.590   1.536   1.102 -0.6467 -0.9700  1.1663
 9066SOL     OW38833   3.536   0.010  16.521  0.0507 -0.4438 -0.2421
 9066SOL    HW138834   3.496   4.662  16.493 -0.1419  0.1439 -1.7272
 9066SOL    HW238835   3.565   0.036  16.433 -1.0058 -2.3277 -1.1673
 9067SOL     OW38836   1.921   0.408   4.966 -0.8456  0.1236  0.1764
 9067SOL    HW138837   1.877   0.457   5.035  1.7966  0.1092  1.8577
 9067SOL    HW238838   1.932   0.478   4.901  3.1069  1.3098  2.1479
 9068SOL     OW38839   1.646   3.621   2.272  0.2155  0.0249  0.1075
 9068SOL    HW138840   1.701   3.629   2.350 -1.3094  0.7007  1.1156
 9068SOL    HW238841   1.600   3.705   2.269  1.2723  0.5802 -0.3990
 9069SOL     OW38842   1.402   1.300   3.980 -0.6201  0.4089 -0.1885
 9069SOL    HW138843   1.477   1.246   3.955 -0.7843 -0.0561  0.3180
 9069SOL    HW238844   1.438   1.382   3.945  0.1250 -0.1171 -0.6379
 9070SOL     OW38845   3.371   1.100   6.553  0.6859 -0.7697 -0.2484
 9070SOL    HW138846   3.439   1.152   6.596 -1.2606  1.5393  0.1094
 9070SOL    HW238847   3.295   1.155   6.577  1.1486  0.3335 -1.3324
 9071SOL     OW38848   1.966   2.532  12.297 -0.1544 -0.1514  0.1082
 9071SOL    HW138849   1.984   2.605  12.237  0.6898 -0.1060  0.4242
 9071SOL    HW238850   1.941   2.588  12.370 -1.0187  2.0237 -1.8336
 9072SOL     OW38851   1.114   4.191   8.683 -0.8889 -0.3357 -0.0194
 9072SOL    HW138852   1.076   4.267   8.727 -0.1404 -0.6056  1.1028
 9072SOL    HW238853   1.045   4.182   8.618 -0.6576 -0.2453 -0.2761
 9073SOL     OW38854   2.948   2.824  10.426  0.1795  0.4398 -0.4089
 9073SOL    HW138855   2.974   2.845  10.336 -0.7415  0.8871 -0.5746
 9073SOL    HW238856   2.886   2.892  10.451  0.6544  0.7635 -0.1049
 9074SOL     OW38857   4.055   1.189   7.352 -0.2558  0.2695 -0.0831
 9074SOL    HW138858   3.968   1.204   7.316 -1.1827 -0.7985  1.6828
 9074SOL    HW238859   4.052   1.242   7.432  1.7559  2.4737 -1.4860
 9075SOL     OW38860   1.824   2.006  10.942  0.1055  0.7894  0.1508
 9075SOL    HW138861   1.896   2.002  11.005  1.0277 -0.5719 -0.9508
 9075SOL    HW238862   1.769   1.930  10.963  0.0114  0.1719 -2.3471
 9076SOL     OW38863   4.281   4.065   8.968  0.1525  0.1003 -0.1335
 9076SOL    HW138864   4.323   3.978   8.968  0.2101  0.1306  0.6517
 9076SOL    HW238865   4.195   4.040   8.934  0.5138  0.4148 -1.2961
 9077SOL     OW38866   1.772   2.223   7.267  0.0079  0.3460 -0.0018
 9077SOL    HW138867   1.679   2.225   7.244 -0.1855 -2.2974  0.5111
 9077SOL    HW238868   1.766   2.230   7.362 -1.1837  3.2948 -0.2905
 9078SOL     OW38869   2.154   0.989   3.784 -0.1967 -0.1998  0.2687
 9078SOL    HW138870   2.083   1.051   3.802  2.6982  3.1405  0.1226
 9078SOL    HW238871   2.213   1.020   3.852 -1.1326  0.3680  0.8118
 9079SOL     OW38872   3.768   1.982  12.721  0.1410  0.1261  0.5552
 9079SOL    HW138873   3.841   2.016  12.670 -1.1378  3.1012  0.7291
 9079SOL    HW238874   3.743   2.058  12.773  3.2720  1.3030  0.3056
 9080SOL     OW38875   0.316   2.816  15.060  0.4155 -0.9259 -0.1972
 9080SOL    HW138876   0.253   2.808  14.989  0.6505 -1.1937 -0.3751
 9080SOL    HW238877   0.400   2.828  15.016  1.0969 -0.7507  1.1384
 9081SOL     OW38878   2.116   1.376   4.194 -0.3268 -0.3506  0.1421
 9081SOL    HW138879   2.082   1.420   4.116  0.3541  1.2513  0.7537
 9081SOL    HW238880   2.202   1.417   4.200 -1.5604  2.1736  0.4743
 9082SOL     OW38881   2.607   0.943   6.397 -0.2446  0.4455  0.2211
 9082SOL    HW138882   2.669   0.962   6.467 -1.7429 -1.8021  2.1330
 9082SOL    HW238883   2.662   0.978   6.327 -1.7175  1.1458 -0.5784
 9083SOL     OW38884   2.628   0.181   5.281 -0.3462 -0.0995 -0.7165
 9083SOL    HW138885   2.675   0.102   5.308  0.1349  0.0005 -1.2432
 9083SOL    HW238886   2.548   0.182   5.332  0.0711 -3.8739 -0.0396
 9084SOL     OW38887   0.707   2.547  10.657  0.3983  0.6294  0.5253
 9084SOL    HW138888   0.692   2.560  10.750 -0.1111  0.9985  0.3941
 9084SOL    HW238889   0.654   2.619  10.621 -1.3253 -0.9449 -0.0810
 9085SOL     OW38890   4.207   4.361   6.318  0.3425  0.3710 -0.6547
 9085SOL    HW138891   4.169   4.392   6.236  0.5430 -0.3525 -1.0267
 9085SOL    HW238892   4.130   4.341   6.372  0.4668  0.9637 -0.2540
 9086SOL     OW38893   1.849   0.592   6.529  0.2439  0.0283 -0.5699
 9086SOL    HW138894   1.833   0.501   6.505 -0.4610  0.7719 -2.9188
 9086SOL    HW238895   1.785   0.597   6.600  1.0197  0.1480  0.1265
 9087SOL     OW38896   4.251   1.886   5.521  0.1909 -0.0863  0.0665
 9087SOL    HW138897   4.230   1.820   5.586 -1.5506  0.1212 -0.2770
 9087SOL    HW238898   4.241   1.842   5.436  1.2088  0.0527 -0.1175
 9088SOL     OW38899   1.301   0.745  17.006  0.1611 -0.8304  0.0686
 9088SOL    HW138900   1.385   0.700  17.011 -0.2225 -1.8858 -2.8200
 9088SOL    HW238901   1.335   0.827  16.971 -1.4760 -0.3289 -0.3374
 9089SOL     OW38902   2.670   0.167   6.571 -0.3048 -0.5800 -0.7123
 9089SOL    HW138903   2.721   0.135   6.645  1.8111  0.5874 -1.6541
 9089SOL    HW238904   2.740   0.192   6.510 -1.0401 -1.5519 -1.9573
 9090SOL     OW38905   2.582   1.452   2.398  0.5722  0.6334 -0.0476
 9090SOL    HW138906   2.584   1.525   2.460  1.8133  2.0090 -1.6913
 9090SOL    HW238907   2.541   1.496   2.323 -0.1028 -0.6376 -0.4164
 9091SOL     OW38908   2.623   2.512   2.300  0.2047 -0.0931 -0.2386
 9091SOL    HW138909   2.568   2.573   2.350  1.5717  0.4049  0.6746
 9091SOL    HW238910   2.571   2.518   2.220 -0.9333 -1.5286  0.3977
 9092SOL     OW38911   1.115   0.721   1.425 -0.0762 -0.2215 -0.1798
 9092SOL    HW138912   1.062   0.797   1.449 -1.0270  0.5783 -4.8818
 9092SOL    HW238913   1.208   0.744   1.433  0.2492 -2.1177  1.5629
 9093SOL     OW38914   2.506   4.224   7.762  0.2332  0.6818  0.1005
 9093SOL    HW138915   2.490   4.277   7.840  0.0623  1.1394 -0.2463
 9093SOL    HW238916   2.414   4.212   7.741 -0.1887 -1.8187  3.3636
 9094SOL     OW38917   4.023   1.627   4.131 -0.4250  0.6182 -0.1932
 9094SOL    HW138918   3.956   1.690   4.157 -2.0414 -0.6563 -1.2843
 9094SOL    HW238919   3.985   1.605   4.045  0.4238  2.1848 -0.9754
 9095SOL     OW38920   0.683   3.540   8.372  0.2792  0.2033  0.1947
 9095SOL    HW138921   0.761   3.486   8.380 -0.1405 -0.6595 -1.5311
 9095SOL    HW238922   0.672   3.548   8.467 -0.4495 -1.0222  0.2091
 9096SOL     OW38923   1.633   4.665   5.498 -0.0166 -0.5965  0.0068
 9096SOL    HW138924   1.719   4.671   5.456  0.4444  1.6701  1.2744
 9096SOL    HW238925   1.589   4.605   5.438  1.6169 -0.3400 -1.4256
 9097SOL     OW38926   1.151   1.688   2.597  0.0469  0.1623 -0.1249
 9097SOL    HW138927   1.228   1.654   2.642 -0.1454 -1.1523 -0.7683
 9097SOL    HW238928   1.170   1.654   2.509 -0.2106 -1.1921  0.3453
 9098SOL     OW38929   1.832   2.895  16.995 -0.2130 -0.3700  0.3858
 9098SOL    HW138930   1.754   2.910  16.942 -0.0458  0.2237  0.2990
 9098SOL    HW238931   1.807   2.821  17.050  1.2444 -1.4338 -0.3797
 9099SOL     OW38932   0.515   2.520   7.657 -0.2298  0.2330  0.3687
 9099SOL    HW138933   0.421   2.520   7.675  0.2492  3.5772  2.8677
 9099SOL    HW238934   0.539   2.463   7.731 -2.5846 -0.5330  0.5246
 9100SOL     OW38935   1.974   1.012   8.514 -0.1391  0.1624 -0.1223
 9100SOL    HW138936   1.992   1.029   8.607 -0.6193  0.6457 -0.1192
 9100SOL    HW238937   1.878   1.009   8.513 -0.0774 -1.2988 -1.7663
 9101SOL     OW38938   4.242   1.807   4.050 -0.2248  0.1751 -0.6040
 9101SOL    HW138939   4.197   1.851   4.122  2.5221  1.2070  0.4625
 9101SOL    HW238940   4.183   1.732   4.046  0.7272 -0.5661 -0.8541
 9102SOL     OW38941   3.695   4.499   5.044 -0.1166 -0.6013 -0.5515
 9102SOL    HW138942   3.732   4.456   4.967  2.3227 -0.6716  0.6665
 9102SOL    HW238943   3.660   4.418   5.081 -0.8117  0.4317  1.0599
 9103SOL     OW38944   3.795   1.132  10.452 -0.5327  0.1890 -0.0171
 9103SOL    HW138945   3.783   1.049  10.499  0.4946 -0.8710 -1.6481
 9103SOL    HW238946   3.884   1.109  10.425 -2.0554 -4.2748 -1.2788
 9104SOL     OW38947   0.562   1.411   4.460  0.2759 -0.4662 -0.4075
 9104SOL    HW138948   0.469   1.429   4.472  1.1862  4.3124 -0.5802
 9104SOL    HW238949   0.563   1.373   4.372  2.5044 -1.0193 -0.1461
 9105SOL     OW38950   1.825   4.234   6.588 -0.1105 -0.3692  0.8375
 9105SOL    HW138951   1.744   4.244   6.639 -0.4958 -1.8087  0.5028
 9105SOL    HW238952   1.787   4.244   6.501  1.4642  0.3206  0.2360
 9106SOL     OW38953   3.705   2.058   8.004  0.8267  0.0786  0.2346
 9106SOL    HW138954   3.763   2.130   7.979 -0.1692  1.1589  1.0538
 9106SOL    HW238955   3.655   2.095   8.077 -0.0427  0.5577 -0.6152
 9107SOL     OW38956   1.739   1.628   9.529 -0.3258 -0.0764  0.3885
 9107SOL    HW138957   1.768   1.717   9.505 -0.4014 -0.4061 -0.9399
 9107SOL    HW238958   1.644   1.641   9.537 -0.0317  1.4955  1.4157
 9108SOL     OW38959   3.882   4.039   2.320 -0.2547  0.7981 -0.1979
 9108SOL    HW138960   3.942   4.033   2.394  0.6388  1.0147 -0.9075
 9108SOL    HW238961   3.940   4.042   2.244  0.7056  2.1252  0.5940
 9109SOL     OW38962   1.048   1.490   6.905  0.4749  0.6999  0.0375
 9109SOL    HW138963   1.059   1.431   6.980  0.1516  0.2315 -0.2766
 9109SOL    HW238964   1.124   1.541   6.930  0.2134  1.8677 -1.6196
 9110SOL     OW38965   1.406   0.312   7.318  0.2548 -0.2946 -0.7255
 9110SOL    HW138966   1.437   0.337   7.405  4.9355 -3.0912 -1.5479
 9110SOL    HW238967   1.375   0.224   7.341 -1.0680 -0.1290 -1.9110
 9111SOL     OW38968   1.802   1.051   5.887 -0.2370  0.6651  0.1045
 9111SOL    HW138969   1.796   1.083   5.977 -0.3257  0.7943  0.0537
 9111SOL    HW238970   1.782   1.130   5.838 -1.2013  0.3527 -0.0054
 9112SOL     OW38971   4.172   3.607   6.056 -0.2883 -0.3710  0.1146
 9112SOL    HW138972   4.248   3.557   6.027  0.1087  0.3447 -0.0786
 9112SOL    HW238973   4.109   3.536   6.062  0.1074 -0.6717  0.6409
 9113SOL     OW38974   2.410   3.088   8.725  0.4318 -0.7591  0.0215
 9113SOL    HW138975   2.331   3.035   8.720 -0.1686  0.2911 -1.6272
 9113SOL    HW238976   2.468   3.022   8.687  1.2296 -0.6433  1.0519
 9114SOL     OW38977   0.289   0.936   2.059 -0.0264 -0.0642 -0.6824
 9114SOL    HW138978   0.207   0.983   2.072  1.4704  2.0632  1.1691
 9114SOL    HW238979   0.304   0.939   1.965  2.0958  0.2144 -0.3420
 9115SOL     OW38980   3.262   1.933   6.089  0.4965 -0.0904 -0.3678
 9115SOL    HW138981   3.236   1.855   6.041 -1.0426 -1.5721  2.8692
 9115SOL    HW238982   3.216   2.010   6.053 -0.8706 -0.4269  0.6327
 9116SOL     OW38983   3.033   1.052   1.483 -0.1642 -0.5280  0.0110
 9116SOL    HW138984   3.059   1.138   1.517  0.7446 -0.2998 -1.2461
 9116SOL    HW238985   3.099   1.023   1.420 -0.7351  3.5215 -2.4144
 9117SOL     OW38986   1.484   2.252   1.744 -0.3544 -0.1590  0.2025
 9117SOL    HW138987   1.419   2.182   1.737 -1.8977  1.2601  0.3883
 9117SOL    HW238988   1.455   2.309   1.672  1.0815 -1.4621 -1.4032
 9118SOL     OW38989   1.398   1.674  12.032 -0.4582 -0.0393 -0.4365
 9118SOL    HW138990   1.365   1.764  12.034  0.5505  0.3337 -0.8091
 9118SOL    HW238991   1.311   1.633  12.034 -1.2649  1.5919 -1.4012
 9119SOL     OW38992   2.532   3.256   5.136  0.1521 -0.4460  0.4202
 9119SOL    HW138993   2.515   3.263   5.042  0.4082 -1.5353  0.2917
 9119SOL    HW238994   2.503   3.341   5.168 -0.1131 -0.7726  1.0332
 9120SOL     OW38995   1.367   0.157   8.964 -0.5036 -0.0821 -0.5772
 9120SOL    HW138996   1.362   0.163   8.869  0.3621  0.4727 -0.5862
 9120SOL    HW238997   1.408   0.071   8.975 -2.5532 -1.0939 -0.7808
 9121SOL     OW38998   3.317   3.753   7.425 -0.1409  0.2444  0.3800
 9121SOL    HW138999   3.333   3.822   7.489 -1.2136 -2.5125  3.6122
 9121SOL    HW239000   3.358   3.677   7.466  1.5181  0.2177 -1.3679
 9122SOL     OW39001   0.897   1.474   2.400  0.8905  0.0248  0.3764
 9122SOL    HW139002   0.854   1.550   2.438  1.2240  0.0450  0.7109
 9122SOL    HW239003   0.824   1.417   2.376 -0.8453  2.5958 -0.3898
 9123SOL     OW39004   1.127   1.503   8.724 -0.1637  0.5380  0.3046
 9123SOL    HW139005   1.105   1.415   8.754 -0.3925  0.6213  0.3826
 9123SOL    HW239006   1.205   1.500   8.779  0.6431 -0.0214 -0.8647
 9124SOL     OW39007   2.787   0.387   3.654 -0.5248 -0.2467 -0.6879
 9124SOL    HW139008   2.844   0.311   3.640 -1.7182 -1.4500  1.1322
 9124SOL    HW239009   2.859   0.448   3.669  0.3478 -1.6555  0.8158
 9125SOL     OW39010   3.645   1.617   9.027 -0.3763  0.0144  0.4356
 9125SOL    HW139011   3.696   1.653   9.099 -0.6914 -0.8234  1.0718
 9125SOL    HW239012   3.721   1.605   8.970 -0.4906  1.2211  0.0141
 9126SOL     OW39013   3.017   4.503   3.940  0.6898 -0.5264  0.0022
 9126SOL    HW139014   2.955   4.432   3.922 -0.2952  0.2085  0.4552
 9126SOL    HW239015   3.008   4.556   3.860 -0.3837 -1.6133 -0.6043
 9127SOL     OW39016   3.759   4.223   2.497  0.6442  0.5207  0.3308
 9127SOL    HW139017   3.835   4.280   2.487  0.5104  0.7134  0.4091
 9127SOL    HW239018   3.790   4.147   2.448 -1.0146  1.2085 -1.7759
 9128SOL     OW39019   0.910   3.209  16.236 -0.5514 -0.0562 -0.1302
 9128SOL    HW139020   0.925   3.115  16.246  1.4602  0.3336  0.5942
 9128SOL    HW239021   0.870   3.234  16.319 -0.3471  0.0635 -0.0660
 9129SOL     OW39022   3.586   1.704   5.021 -0.6068 -0.1665 -0.6178
 9129SOL    HW139023   3.495   1.720   4.999 -0.4247 -0.2274 -1.3881
 9129SOL    HW239024   3.638   1.764   4.968 -2.6527 -0.1173 -2.5847
 9130SOL     OW39025   0.254   0.813   0.371  0.4763 -0.6535 -0.0811
 9130SOL    HW139026   0.293   0.827   0.458 -1.5265 -1.0106  0.8832
 9130SOL    HW239027   0.301   0.738   0.334  0.7893  0.1850 -1.3603
 9131SOL     OW39028   4.483   0.814   3.298  0.5724 -0.3618  0.4033
 9131SOL    HW139029   4.486   0.901   3.340  2.5096 -0.6964  0.9542
 9131SOL    HW239030   4.561   0.825   3.244  0.5605 -0.7911  0.2973
 9132SOL     OW39031   0.051   1.497   4.984 -0.3065 -0.5873  0.2852
 9132SOL    HW139032   0.069   1.420   5.038 -1.7226 -1.2415 -0.1861
 9132SOL    HW239033   0.129   1.553   4.991 -0.8056  0.0055  1.0854
 9133SOL     OW39034   2.006   2.679   2.033  0.2182 -0.1225  0.2472
 9133SOL    HW139035   2.093   2.717   2.036 -0.1412  0.7999 -0.9054
 9133SOL    HW239036   2.026   2.597   1.987 -0.4977 -0.9903  1.4654
 9134SOL     OW39037   0.224   0.662   8.441 -0.4774  0.4618  0.0398
 9134SOL    HW139038   0.137   0.695   8.419 -0.7130  0.2607  0.6689
 9134SOL    HW239039   0.248   0.709   8.520  1.8721  1.0663 -1.0303
 9135SOL     OW39040   3.449   1.799   5.789 -0.1817 -0.7352  0.3502
 9135SOL    HW139041   3.402   1.881   5.784  1.9962  0.4655 -0.3045
 9135SOL    HW239042   3.539   1.832   5.784  0.3298 -1.8704  1.7820
 9136SOL     OW39043   1.698   0.121   3.039 -0.1611  0.3301 -0.3090
 9136SOL    HW139044   1.632   0.172   2.991 -1.9099 -2.2116 -0.5740
 9136SOL    HW239045   1.661   0.110   3.126  1.3164  2.9680  0.6845
 9137SOL     OW39046   0.413   0.761  16.624 -0.1108 -0.0131 -0.3054
 9137SOL    HW139047   0.500   0.797  16.612 -0.3577  0.7600  0.1906
 9137SOL    HW239048   0.364   0.808  16.557  1.0973 -0.3374 -1.4010
 9138SOL     OW39049   3.112   1.995   8.359 -0.2766  0.3336  0.3841
 9138SOL    HW139050   3.089   1.916   8.408  0.5579  0.9351  1.7645
 9138SOL    HW239051   3.182   2.013   8.422  1.8854 -2.6498 -1.1727
 9139SOL     OW39052   1.651   2.573  10.526  0.0884 -0.9442 -0.6443
 9139SOL    HW139053   1.718   2.583  10.593 -1.4089  2.7478  0.2671
 9139SOL    HW239054   1.611   2.486  10.533  0.4365 -0.9514  1.2664
 9140SOL     OW39055   3.787   0.659   4.811 -0.0355  0.0755 -0.1644
 9140SOL    HW139056   3.775   0.668   4.905 -2.6421 -1.2447 -0.3588
 9140SOL    HW239057   3.882   0.659   4.813  0.0135 -0.1424 -1.8460
 9141SOL     OW39058   1.725   0.747   4.410  0.4114  0.1780 -0.0729
 9141SOL    HW139059   1.750   0.655   4.417  1.0687  0.3448 -0.2339
 9141SOL    HW239060   1.639   0.727   4.372  0.1580 -0.4351  0.8445
 9142SOL     OW39061   1.047   1.343   8.407  0.0607 -0.1507 -0.3964
 9142SOL    HW139062   0.959   1.320   8.437  0.7225 -0.9624  0.9182
 9142SOL    HW239063   1.037   1.418   8.348  0.0484  0.5719  0.5152
 9143SOL     OW39064   3.791   3.387   9.767  0.1957 -0.0680 -0.0984
 9143SOL    HW139065   3.749   3.418   9.847 -1.1107  0.6057 -1.0311
 9143SOL    HW239066   3.853   3.454   9.739 -0.7191 -0.4051 -2.9670
 9144SOL     OW39067   0.556   2.157   9.629 -0.2109 -0.1023  0.2141
 9144SOL    HW139068   0.643   2.187   9.653 -0.5518  0.4553  0.7373
 9144SOL    HW239069   0.501   2.220   9.675  2.2524  1.2686  1.2654
 9145SOL     OW39070   0.010   1.212   6.097  0.2429  0.7738 -0.1323
 9145SOL    HW139071   0.102   1.199   6.119 -0.5325 -1.9716  1.5177
 9145SOL    HW239072   4.712   1.150   6.162  2.1513  0.1338  0.2337
 9146SOL     OW39073   3.384   2.117   1.859 -0.2382  0.8394 -0.0859
 9146SOL    HW139074   3.380   2.039   1.803  1.7905 -0.0473  0.9866
 9146SOL    HW239075   3.296   2.151   1.845  0.2509  3.1208  2.3808
 9147SOL     OW39076   0.429   3.258   7.499 -0.1593 -0.2928  0.2880
 9147SOL    HW139077   0.442   3.336   7.446  3.0093  0.4011  2.0878
 9147SOL    HW239078   0.473   3.287   7.579  2.1724  0.2857 -1.1953
 9148SOL     OW39079   1.847   0.554  15.558 -0.1500 -0.3880  0.5398
 9148SOL    HW139080   1.916   0.602  15.603  0.6538 -1.5908  0.5761
 9148SOL    HW239081   1.777   0.619  15.565 -0.1012 -0.2951  0.1360
 9149SOL     OW39082   2.055   3.910  10.613 -0.0170  0.0489 -0.6398
 9149SOL    HW139083   2.130   3.950  10.657 -0.4487  0.4203 -0.2494
 9149SOL    HW239084   1.999   3.987  10.621  0.6309  0.3215  1.2131
 9150SOL     OW39085   2.795   3.660  12.373 -0.8578 -0.3734  0.0577
 9150SOL    HW139086   2.747   3.605  12.311 -1.3411  0.8886 -0.6920
 9150SOL    HW239087   2.840   3.594  12.425  0.1708  1.1328  1.0771
 9151SOL     OW39088   1.577   1.159  17.478 -0.0696  0.1605 -0.2659
 9151SOL    HW139089   1.608   1.249  17.466 -2.0458  0.9095  0.2838
 9151SOL    HW239090   1.482   1.166  17.472  0.1883 -0.0607 -4.2094
 9152SOL     OW39091   3.740   3.498   3.303 -0.0919 -0.2840  0.3902
 9152SOL    HW139092   3.782   3.519   3.220 -0.4660  1.6799  0.6780
 9152SOL    HW239093   3.819   3.477   3.354  0.1635  0.1179  0.1608
 9153SOL     OW39094   1.516   0.151   6.708  0.0897 -0.1217 -0.1629
 9153SOL    HW139095   1.508   0.233   6.658 -0.0486  1.4450  2.4376
 9153SOL    HW239096   1.529   0.089   6.636  0.8860  0.5293 -0.5767
 9154SOL     OW39097   4.473   2.728   4.967 -1.0139 -0.0648  0.2581
 9154SOL    HW139098   4.502   2.746   5.056 -0.1972  0.8049 -0.1698
 9154SOL    HW239099   4.487   2.634   4.963 -1.2543 -0.1126  0.5809
 9155SOL     OW39100   1.550   0.251   1.741 -0.3539  0.1001 -0.2333
 9155SOL    HW139101   1.639   0.266   1.709 -0.9057  1.4603 -1.1471
 9155SOL    HW239102   1.534   0.169   1.694 -0.9888  1.2445 -2.0378
 9156SOL     OW39103   0.173   1.727   4.402 -0.3204  0.3347  0.5868
 9156SOL    HW139104   0.211   1.815   4.398  1.1618 -0.4585 -2.5113
 9156SOL    HW239105   0.118   1.726   4.324  0.5162  1.3550 -0.0088
 9157SOL     OW39106   3.273   1.486   8.926 -0.0048  0.0715  0.0910
 9157SOL    HW139107   3.329   1.545   8.977 -0.0099  2.3228 -2.4705
 9157SOL    HW239108   3.219   1.450   8.996 -1.0970 -1.8374 -1.7322
 9158SOL     OW39109   3.958   3.549   5.071 -0.4725 -0.5232  0.1613
 9158SOL    HW139110   3.964   3.614   5.000 -3.5293 -2.9518 -2.3293
 9158SOL    HW239111   3.902   3.484   5.028 -1.4793 -0.1346  0.8918
 9159SOL     OW39112   3.662   2.318   2.140 -0.3440 -0.5968  0.3996
 9159SOL    HW139113   3.632   2.361   2.060  1.4879 -2.8687 -1.4914
 9159SOL    HW239114   3.720   2.248   2.110  2.0602  1.3789  0.4823
 9160SOL     OW39115   1.625   0.861   5.329  0.2192  0.0672 -0.0166
 9160SOL    HW139116   1.613   0.770   5.356 -1.3745  0.1620 -0.4179
 9160SOL    HW239117   1.610   0.903   5.413 -4.0426 -1.1039 -0.2319
 9161SOL     OW39118   3.400   4.089  10.063 -0.0622 -0.3588 -0.2661
 9161SOL    HW139119   3.331   4.047  10.115  0.4294 -2.5042 -1.3574
 9161SOL    HW239120   3.346   4.150  10.013 -0.7815 -0.5696  0.2527
 9162SOL     OW39121   1.257   1.834   3.805  0.0742 -0.2449 -0.5326
 9162SOL    HW139122   1.305   1.858   3.725 -0.1777 -1.7946 -1.1501
 9162SOL    HW239123   1.327   1.839   3.870  0.9251  2.6725 -1.6602
 9163SOL     OW39124   1.288   2.738   7.020  0.0822 -0.0253  0.5378
 9163SOL    HW139125   1.213   2.679   7.014  0.2820 -0.2017 -0.2402
 9163SOL    HW239126   1.341   2.722   6.942  1.0348  1.2190  0.9384
 9164SOL     OW39127   1.396   4.421   8.604  0.4329 -0.3307 -0.8220
 9164SOL    HW139128   1.370   4.349   8.661 -0.6607  0.2577 -0.5779
 9164SOL    HW239129   1.447   4.364   8.545 -0.4158 -0.3608 -1.5328
 9165SOL     OW39130   2.677   2.788  16.163 -0.6441  0.3081  0.0596
 9165SOL    HW139131   2.729   2.743  16.230  1.2407  0.6432 -1.1737
 9165SOL    HW239132   2.695   2.737  16.084  2.2665 -0.5898  1.2980
 9166SOL     OW39133   2.411   3.545  12.518 -0.2538 -0.2027  0.0083
 9166SOL    HW139134   2.462   3.559  12.598 -1.7458  2.5035  0.4747
 9166SOL    HW239135   2.479   3.505  12.463 -0.6752 -2.3095  0.9999
 9167SOL     OW39136   3.434   1.317  14.881 -0.4225 -0.5877 -0.1715
 9167SOL    HW139137   3.477   1.311  14.967 -2.2506 -1.3205  0.6963
 9167SOL    HW239138   3.462   1.229  14.854  3.8102  0.6054  0.2326
 9168SOL     OW39139   1.644   3.032  13.658 -0.4939 -0.0462  0.0949
 9168SOL    HW139140   1.572   2.971  13.670  0.4948 -1.4100 -0.8109
 9168SOL    HW239141   1.683   3.033  13.745  1.1731 -1.2653 -0.6149
 9169SOL     OW39142   0.884   3.349   9.660  0.3510 -0.1248 -0.3700
 9169SOL    HW139143   0.866   3.260   9.628 -0.5570 -0.0850  0.0233
 9169SOL    HW239144   0.811   3.403   9.629  0.3070  1.5069  2.6460
 9170SOL     OW39145   3.786   0.419   3.119  0.7303  0.4044  0.1248
 9170SOL    HW139146   3.772   0.344   3.176  1.1805  0.5318  0.4131
 9170SOL    HW239147   3.801   0.373   3.037  0.3422  1.1555 -0.3745
 9171SOL     OW39148   0.135   1.412   0.253  0.1245 -0.5689  0.5428
 9171SOL    HW139149   0.089   1.329   0.266 -1.2151  0.3303  1.5622
 9171SOL    HW239150   0.067   1.478   0.267 -1.2000 -1.8091 -0.1057
 9172SOL     OW39151   0.226   1.186   3.930  0.3401 -0.4085 -0.7878
 9172SOL    HW139152   0.322   1.182   3.934  0.4996  1.1379 -2.7611
 9172SOL    HW239153   0.209   1.162   3.839  0.3281 -2.7512 -0.1614
 9173SOL     OW39154   0.743   3.780  16.657 -0.4427 -0.0135 -0.1613
 9173SOL    HW139155   0.819   3.814  16.705 -0.7973  1.9839 -0.9867
 9173SOL    HW239156   0.713   3.864  16.621  3.3751  1.4875  0.1302
 9174SOL     OW39157   3.132   0.405  16.556  0.3482 -0.3952 -0.3327
 9174SOL    HW139158   3.128   0.426  16.650  0.8615 -0.9636 -0.1820
 9174SOL    HW239159   3.215   0.445  16.530 -0.4648  0.8498 -1.0232
 9175SOL     OW39160   1.275   3.305  11.050  0.4407  0.4459 -0.6046
 9175SOL    HW139161   1.253   3.371  11.115 -1.3121 -1.4772  0.7290
 9175SOL    HW239162   1.357   3.269  11.085  0.2223  1.5134  0.9772
 9176SOL     OW39163   4.365   0.072   6.555  0.1223 -0.3480  0.3275
 9176SOL    HW139164   4.315   0.030   6.624  1.9865  1.3425  2.7312
 9176SOL    HW239165   4.309   0.142   6.522 -1.9705 -2.2335 -0.1065
 9177SOL     OW39166   3.345   2.626   2.066  0.1216 -0.4015  0.1552
 9177SOL    HW139167   3.278   2.560   2.047 -0.9716  0.2287  1.7495
 9177SOL    HW239168   3.342   2.613   2.161 -1.8906 -2.3591 -0.1722
 9178SOL     OW39169   4.153   0.899   2.767  0.1142 -0.5030 -0.4173
 9178SOL    HW139170   4.067   0.883   2.728 -1.0287  0.8250  1.5578
 9178SOL    HW239171   4.175   0.810   2.795  2.0437  0.7365  1.9872
 9179SOL     OW39172   2.623   2.804   7.662 -0.1432  0.2386 -0.0473
 9179SOL    HW139173   2.604   2.869   7.595 -0.0226  0.7996  0.4646
 9179SOL    HW239174   2.662   2.862   7.727 -2.0078  1.2176  0.2004
 9180SOL     OW39175   4.042   4.026   8.544  0.1498 -0.1567 -0.0241
 9180SOL    HW139176   4.102   3.955   8.521 -0.9603 -0.6769 -1.3438
 9180SOL    HW239177   4.097   4.104   8.551 -1.6788  1.1254 -0.0832
 9181SOL     OW39178   0.070   0.872   5.209  0.4009  0.5276 -0.7486
 9181SOL    HW139179   0.089   0.784   5.242  1.5575  0.8641 -0.4979
 9181SOL    HW239180   0.021   0.910   5.282  0.1044 -1.9710  0.3509
 9182SOL     OW39181   2.538   4.162   5.992 -0.4034  0.1907 -0.1465
 9182SOL    HW139182   2.584   4.242   6.016 -0.3305 -0.3847  1.6514
 9182SOL    HW239183   2.549   4.167   5.897  2.4807 -0.6922  0.1441
 9183SOL     OW39184   4.319   4.052   4.943 -0.0706  0.1789 -0.1214
 9183SOL    HW139185   4.382   4.004   4.890 -1.4186 -0.9221 -0.7442
 9183SOL    HW239186   4.381   4.118   4.972 -0.4983  0.6902 -0.3619
 9184SOL     OW39187   1.896   3.779   3.651 -0.2257 -0.5566 -0.4519
 9184SOL    HW139188   1.986   3.803   3.627 -0.9161  1.5716 -0.9630
 9184SOL    HW239189   1.900   3.796   3.745  0.2921  0.0621 -0.5806
 9185SOL     OW39190   1.137   0.330   6.005 -0.1457 -0.4776  0.0357
 9185SOL    HW139191   1.175   0.405   6.050 -1.0332  0.6001 -1.0005
 9185SOL    HW239192   1.048   0.323   6.039  0.5154 -2.4429  1.3170
 9186SOL     OW39193   0.131   0.642  14.754 -0.5840  0.5186 -0.1608
 9186SOL    HW139194   0.124   0.635  14.849 -0.3650  1.1914 -0.0968
 9186SOL    HW239195   0.126   0.736  14.739 -1.3693  0.3124 -1.1962
 9187SOL     OW39196   2.655   3.950   3.310 -0.0677 -0.2426 -0.5207
 9187SOL    HW139197   2.581   3.916   3.258  0.9335 -1.0270 -1.4521
 9187SOL    HW239198   2.607   3.941   3.392  3.9616  1.9030  2.0211
 9188SOL     OW39199   4.595   2.709   3.392 -0.0761 -0.1106 -0.1717
 9188SOL    HW139200   4.581   2.781   3.454  1.0477 -0.3388  0.3524
 9188SOL    HW239201   4.529   2.735   3.328 -0.0209 -0.4866 -0.3826
 9189SOL     OW39202   0.710   1.033   4.810 -0.1274  0.0017 -0.2771
 9189SOL    HW139203   0.682   1.117   4.772  0.8243 -0.1465 -1.3236
 9189SOL    HW239204   0.625   0.995   4.832  0.4741 -0.9553  0.3945
 9190SOL     OW39205   0.233   1.629   6.056  0.8728 -0.0399 -0.1508
 9190SOL    HW139206   0.266   1.688   6.124  1.6829  0.2159 -0.7538
 9190SOL    HW239207   0.202   1.555   6.107 -1.2431  0.3345 -0.9102
 9191SOL     OW39208   2.810   4.688   7.488 -0.1588  0.7800  0.2272
 9191SOL    HW139209   2.838   0.040   7.517  1.0859 -0.1129  1.7050
 9191SOL    HW239210   2.866   4.632   7.542  1.5241  2.1894 -0.0744
 9192SOL     OW39211   3.856   0.374   8.848 -0.4947  0.0765  0.6297
 9192SOL    HW139212   3.855   0.456   8.899  1.1659  0.0685  0.6911
 9192SOL    HW239213   3.813   0.312   8.907  2.2558 -1.7555  0.7396
 9193SOL     OW39214   3.100   0.233   2.425  0.5628  0.1577  0.4461
 9193SOL    HW139215   3.174   0.216   2.482 -0.7078 -0.7882  1.8139
 9193SOL    HW239216   3.099   0.156   2.368  0.1720  1.0422 -0.7587
 9194SOL     OW39217   1.224   3.575  11.974 -0.4986 -0.4041  0.1697
 9194SOL    HW139218   1.260   3.645  11.920  1.2548 -1.4606 -0.0353
 9194SOL    HW239219   1.131   3.596  11.969 -0.8440 -2.3919 -2.1640
 9195SOL     OW39220   0.772   2.819   1.024 -0.8837  0.1368 -0.2234
 9195SOL    HW139221   0.723   2.864   1.093  2.0681  1.6771  0.8351
 9195SOL    HW239222   0.862   2.809   1.055 -1.4273 -1.4690  0.8129
 9196SOL     OW39223   1.201   0.834  15.251  0.1494 -0.0377  0.4289
 9196SOL    HW139224   1.147   0.771  15.203  0.6563  0.3920 -0.6914
 9196SOL    HW239225   1.228   0.895  15.182  0.0793 -3.0164 -2.2702
 9197SOL     OW39226   3.269   1.766   7.912  0.2989 -0.5711  0.5827
 9197SOL    HW139227   3.337   1.733   7.971  1.0012  1.5254  0.9469
 9197SOL    HW239228   3.318   1.837   7.871 -1.1738 -1.0619 -1.9746
 9198SOL     OW39229   2.911   2.290  14.354 -0.2998  0.2242  0.0466
 9198SOL    HW139230   2.938   2.357  14.291 -2.8460  0.0320 -1.2189
 9198SOL    HW239231   2.983   2.231  14.331 -0.8560 -0.7491  0.8298
 9199SOL     OW39232   1.727   0.012  16.542  0.4260 -0.1832 -0.1362
 9199SOL    HW139233   1.738   4.664  16.588 -0.3453  0.4481  1.1734
 9199SOL    HW239234   1.815   0.010  16.505 -0.4680 -2.0036 -2.1552
 9200SOL     OW39235   0.614   2.273   3.122 -0.0976 -0.4348  0.3330
 9200SOL    HW139236   0.553   2.230   3.181 -2.3073  0.6886 -1.0991
 9200SOL    HW239237   0.560   2.280   3.043 -1.6133  2.0218  1.5770
 9201SOL     OW39238   0.333   1.440   4.028 -0.2070  0.6927 -0.1916
 9201SOL    HW139239   0.373   1.444   3.942 -0.2236  0.6732 -0.2004
 9201SOL    HW239240   0.262   1.377   4.017  0.8168 -0.6264  0.6928
 9202SOL     OW39241   2.288   4.586   3.545  0.0854  0.4587 -0.4007
 9202SOL    HW139242   2.266   4.574   3.453 -1.6885 -5.1516  0.7162
 9202SOL    HW239243   2.378   4.618   3.546  0.5861 -0.9499  1.8440
 9203SOL     OW39244   3.778   1.459   1.107  0.4957 -0.1383  0.3457
 9203SOL    HW139245   3.730   1.531   1.066 -1.7726 -2.2514 -0.6653
 9203SOL    HW239246   3.858   1.471   1.055 -0.2614  0.3402 -0.7085
 9204SOL     OW39247   1.860   4.041   2.220 -0.0973 -0.3066  0.4320
 9204SOL    HW139248   1.865   4.005   2.308  0.8691  0.5487  0.7290
 9204SOL    HW239249   1.826   4.128   2.244  1.4368  0.2337  0.6280
 9205SOL     OW39250   4.261   3.789  14.983  0.4036  0.2510 -0.2013
 9205SOL    HW139251   4.297   3.835  15.059  0.6132 -0.2938  0.0288
 9205SOL    HW239252   4.188   3.743  15.024  0.9466 -0.7114 -0.3345
 9206SOL     OW39253   0.441   3.817   6.359 -0.0115 -0.0673  0.2683
 9206SOL    HW139254   0.387   3.896   6.364 -1.9794 -1.2346 -2.4200
 9206SOL    HW239255   0.416   3.769   6.438  0.3127  2.9092  2.1882
 9207SOL     OW39256   1.458   0.398   6.472  0.0976  0.4855 -0.4696
 9207SOL    HW139257   1.486   0.482   6.507  0.6555  1.3937 -3.0610
 9207SOL    HW239258   1.533   0.378   6.415  1.8642  1.0793  1.6710
 9208SOL     OW39259   0.772   3.428   8.924 -0.0159  0.5574 -0.4412
 9208SOL    HW139260   0.805   3.435   9.014 -0.5330  0.1617 -0.2207
 9208SOL    HW239261   0.740   3.518   8.913 -1.3863 -0.0818 -1.6124
 9209SOL     OW39262   1.408   1.364  16.981  0.1131  0.3070 -0.0352
 9209SOL    HW139263   1.318   1.397  16.980  0.7984  2.3398  3.3020
 9209SOL    HW239264   1.418   1.339  17.073  2.7821  2.2068  0.2033
 9210SOL     OW39265   4.561   4.713   6.842 -0.9475  0.2806  0.0709
 9210SOL    HW139266   4.475   0.018   6.843 -1.0754 -0.0050  1.3430
 9210SOL    HW239267   4.565   4.676   6.754 -1.3712  0.5535 -0.0608
 9211SOL     OW39268   2.685   4.487   9.161 -0.2965 -0.0674 -0.1961
 9211SOL    HW139269   2.704   4.581   9.162  2.1080 -0.5572  0.7169
 9211SOL    HW239270   2.621   4.497   9.091 -0.2146 -2.1486 -0.5623
 9212SOL     OW39271   4.198   0.216   1.841  0.0914 -0.5825  0.0052
 9212SOL    HW139272   4.181   0.122   1.842 -0.7159 -0.4623 -1.8287
 9212SOL    HW239273   4.255   0.213   1.763 -1.2604  1.6534 -1.0563
 9213SOL     OW39274   0.793   2.607  16.221 -0.4350  0.4608 -0.0050
 9213SOL    HW139275   0.701   2.592  16.202 -0.2151  0.0285 -0.7388
 9213SOL    HW239276   0.820   2.634  16.133 -0.7384 -1.1152 -0.5886
 9214SOL     OW39277   1.455   3.761   7.641  0.3838 -0.0962  0.1407
 9214SOL    HW139278   1.461   3.796   7.731  0.2933 -1.5377  0.6976
 9214SOL    HW239279   1.522   3.694   7.650 -1.0885 -1.2135  2.9641
 9215SOL     OW39280   0.988   1.459  15.992 -0.0902  0.0838 -0.0909
 9215SOL    HW139281   0.970   1.393  16.058 -0.7741 -0.0741 -0.4309
 9215SOL    HW239282   0.960   1.543  16.027 -0.5348  0.6651 -1.8245
 9216SOL     OW39283   4.643   4.402   8.908  0.4082 -0.3768 -0.0737
 9216SOL    HW139284   4.626   4.490   8.875  2.2611  0.6023  1.5701
 9216SOL    HW239285   0.003   4.408   8.897  0.2323  3.4108  0.3985
 9217SOL     OW39286   1.587   4.638  17.362  0.0621  0.3080 -0.2141
 9217SOL    HW139287   1.565   4.671  17.449  1.6982  0.8104  0.0051
 9217SOL    HW239288   1.678   4.667  17.357 -0.8463  3.2344  0.3907
 9218SOL     OW39289   3.842   2.717   2.473  0.4569 -0.3078  0.2909
 9218SOL    HW139290   3.929   2.691   2.506  0.4964 -1.5479 -0.7756
 9218SOL    HW239291   3.790   2.726   2.553 -1.2218 -1.6522 -0.6706
 9219SOL     OW39292   3.415   4.318   9.348 -0.0677 -0.4128  0.1914
 9219SOL    HW139293   3.386   4.238   9.392  0.2617 -0.2619  0.6785
 9219SOL    HW239294   3.490   4.276   9.307  1.0591  1.7075  0.1145
 9220SOL     OW39295   4.364   4.202   6.998  0.1929 -0.3797 -0.3674
 9220SOL    HW139296   4.327   4.114   7.005  0.5306 -0.7245 -3.0367
 9220SOL    HW239297   4.319   4.264   7.056 -2.1463 -0.0095 -2.5906
 9221SOL     OW39298   3.989   0.066   6.420 -0.1039 -0.4162  0.1260
 9221SOL    HW139299   4.014   4.713   6.391 -0.8589 -0.0003 -1.8094
 9221SOL    HW239300   3.905   0.050   6.463 -0.6124 -1.0180 -1.0878
 9222SOL     OW39301   4.721   1.872   4.859  0.7272  0.0382  0.0217
 9222SOL    HW139302   4.696   1.810   4.790 -1.2707  1.8524 -0.9168
 9222SOL    HW239303   0.080   1.874   4.846  0.7066  0.1631 -0.1140
 9223SOL     OW39304   3.131   2.682   4.447 -0.3114  0.1196  0.0250
 9223SOL    HW139305   3.205   2.621   4.444 -0.1565  0.2340  1.8772
 9223SOL    HW239306   3.083   2.633   4.513  0.6273 -0.2366  0.4397
 9224SOL     OW39307   2.810   0.182  12.475  1.0159 -0.2127  0.0757
 9224SOL    HW139308   2.825   0.095  12.438  2.7777  0.5014 -0.8832
 9224SOL    HW239309   2.749   0.161  12.547  1.7287  1.9107  1.3038
 9225SOL     OW39310   3.611   4.674   7.652 -0.2026 -0.3410  0.0160
 9225SOL    HW139311   3.553   4.699   7.724  0.2267 -0.3654  0.3699
 9225SOL    HW239312   3.678   0.007   7.659  1.5580 -2.0704  0.1259
 9226SOL     OW39313   4.457   1.490   9.142  0.6713 -0.3957  0.2408
 9226SOL    HW139314   4.482   1.431   9.071 -1.6237  1.0243 -1.7550
 9226SOL    HW239315   4.422   1.422   9.200 -1.6828  2.1604  1.8449
 9227SOL     OW39316   4.119   0.304   8.020  0.6159  0.3368  0.4363
 9227SOL    HW139317   4.188   0.245   8.048 -0.0072 -0.3731  0.4766
 9227SOL    HW239318   4.094   0.337   8.107  0.3952 -0.0106  0.5040
 9228SOL     OW39319   2.128   1.483  12.761 -0.4209  0.0319 -0.3040
 9228SOL    HW139320   2.214   1.524  12.775 -0.0191 -0.0865 -2.4300
 9228SOL    HW239321   2.160   1.398  12.730  0.4946  0.6100 -0.9918
 9229SOL     OW39322   0.438   1.845   2.817 -0.2908  0.2669 -0.0297
 9229SOL    HW139323   0.372   1.853   2.887 -0.9532 -0.0826 -0.6206
 9229SOL    HW239324   0.412   1.769   2.767 -2.6504  0.5960  0.6768
 9230SOL     OW39325   3.341   0.155  12.412  0.5331 -0.5626 -0.6643
 9230SOL    HW139326   3.249   0.184  12.414  0.2506 -1.7361  2.7135
 9230SOL    HW239327   3.387   0.238  12.424 -1.7756  0.3796  1.5907
 9231SOL     OW39328   0.212   2.831   5.850  0.5086 -0.4627  0.2548
 9231SOL    HW139329   0.123   2.863   5.861  1.0757  1.1471  0.1572
 9231SOL    HW239330   0.252   2.906   5.893  0.3851  0.5664 -1.4299
 9232SOL     OW39331   4.722   4.562  16.555  0.5815 -0.1930  0.4000
 9232SOL    HW139332   0.008   4.536  16.645 -1.2445 -3.3495 -0.1023
 9232SOL    HW239333   0.046   4.636  16.539 -0.5698  0.2700 -1.6784
 9233SOL     OW39334   1.362   0.433   1.396 -0.2479 -1.2285 -0.4253
 9233SOL    HW139335   1.450   0.465   1.380 -0.9446 -0.3240 -2.3951
 9233SOL    HW239336   1.358   0.371   1.324  0.6199  0.1518 -1.6523
 9234SOL     OW39337   0.521   1.009   8.101 -0.5795  0.4797 -0.2328
 9234SOL    HW139338   0.581   1.080   8.078 -0.1613  0.1129 -0.2762
 9234SOL    HW239339   0.524   1.004   8.197 -1.1885  0.4520 -0.2128
 9235SOL     OW39340   0.170   1.915   1.524 -0.3308  0.0854 -0.0266
 9235SOL    HW139341   0.115   1.838   1.516  1.6386 -1.4279  1.1084
 9235SOL    HW239342   0.215   1.908   1.440 -0.2493 -1.3573  0.1521
 9236SOL     OW39343   3.291   0.948   4.077 -0.0648  0.5076  0.8531
 9236SOL    HW139344   3.379   0.983   4.061 -0.4263  1.3858  0.7859
 9236SOL    HW239345   3.296   0.852   4.075  1.1655  0.5860  0.2794
 9237SOL     OW39346   4.478   3.902   9.312  0.4076  0.1200  0.2308
 9237SOL    HW139347   4.410   3.965   9.285 -2.1256 -2.4240  0.6637
 9237SOL    HW239348   4.557   3.925   9.263 -2.8623  3.0756 -3.7513
 9238SOL     OW39349   1.526   1.557   3.915  0.3121  0.4157 -0.1324
 9238SOL    HW139350   1.572   1.582   3.835  1.7986 -0.7784  0.3463
 9238SOL    HW239351   1.483   1.634   3.952 -0.2812  0.8962 -1.7929
 9239SOL     OW39352   0.378   0.033  11.876  0.0630 -0.0443 -0.4130
 9239SOL    HW139353   0.441   0.101  11.902 -0.9091  0.0785  1.5965
 9239SOL    HW239354   0.371   0.038  11.780 -0.0674  0.1243 -0.3939
 9240SOL     OW39355   2.901   4.728   5.858 -0.3109  0.1688  0.4442
 9240SOL    HW139356   2.964   0.045   5.907  1.1342 -1.0858 -0.1174
 9240SOL    HW239357   2.923   4.642   5.892 -0.9479  0.1934  0.9158
 9241SOL     OW39358   4.481   3.735   5.907 -0.1587  0.1468 -0.6135
 9241SOL    HW139359   4.413   3.689   5.859  1.1473 -0.3446 -1.9993
 9241SOL    HW239360   4.424   3.811   5.922  1.9801  2.0062 -1.8623
 9242SOL     OW39361   3.569   3.568   3.524 -0.5837 -0.0199  0.1426
 9242SOL    HW139362   3.639   3.522   3.478 -0.3888 -0.2861  0.7140
 9242SOL    HW239363   3.580   3.659   3.496  0.3535  0.4673  2.1184
 9243SOL     OW39364   3.764   2.880   6.686  0.1767  0.7671  0.0966
 9243SOL    HW139365   3.705   2.921   6.622  1.6075 -0.3401 -1.9380
 9243SOL    HW239366   3.849   2.922   6.674 -1.1291  3.0483 -1.1353
 9244SOL     OW39367   4.535   3.673   3.291  0.5511 -0.1071  0.0225
 9244SOL    HW139368   4.507   3.668   3.383 -0.0134  1.8425 -0.0286
 9244SOL    HW239369   4.457   3.720   3.262  1.7785  2.0980  0.2634
 9245SOL     OW39370   3.071   3.606   1.305  0.3121 -0.4498  0.2470
 9245SOL    HW139371   3.023   3.668   1.359  2.9625  1.3883  0.4904
 9245SOL    HW239372   3.109   3.663   1.239  0.2790 -1.7199 -0.8692
 9246SOL     OW39373   1.330   3.513  11.667 -0.0035 -0.4391 -0.4521
 9246SOL    HW139374   1.422   3.528  11.645  0.5488  0.7020  2.6767
 9246SOL    HW239375   1.306   3.566  11.743  1.4256 -1.1319  0.4706
 9247SOL     OW39376   1.003   3.121   4.840 -0.4141 -0.0482 -0.1534
 9247SOL    HW139377   1.038   3.155   4.922 -1.7387  2.1206 -0.4516
 9247SOL    HW239378   1.086   3.113   4.793 -0.0344  0.1650  0.4859
 9248SOL     OW39379   2.044   0.865   8.055 -0.0642  0.2848  0.2924
 9248SOL    HW139380   2.092   0.871   7.972  0.5633 -0.0291  0.6270
 9248SOL    HW239381   2.013   0.775   8.063 -0.7439  0.2934 -2.1561
 9249SOL     OW39382   3.588   1.205   2.473 -0.1726  0.4220 -0.4021
 9249SOL    HW139383   3.562   1.293   2.447 -1.9171  0.1024  0.3022
 9249SOL    HW239384   3.534   1.148   2.418 -0.6072  0.6197 -0.1768
 9250SOL     OW39385   1.194   3.300   8.442  0.6969 -0.1535  0.1816
 9250SOL    HW139386   1.255   3.353   8.390 -0.4027  0.2836 -0.6394
 9250SOL    HW239387   1.258   3.236   8.474  0.0262 -1.2389 -0.6438
 9251SOL     OW39388   0.490   3.521   7.361  0.7948 -0.3207  0.3496
 9251SOL    HW139389   0.554   3.533   7.290 -2.1491  0.5967 -2.1567
 9251SOL    HW239390   0.420   3.585   7.355 -0.7743 -1.9857  0.8340
 9252SOL     OW39391   3.466   2.151   5.574 -0.0555  0.1526  0.0903
 9252SOL    HW139392   3.542   2.192   5.531 -0.6479  1.9638  0.7704
 9252SOL    HW239393   3.397   2.200   5.528  2.6301 -0.2498 -4.4611
 9253SOL     OW39394   4.331   4.496   8.821 -0.0759  0.7285  0.4527
 9253SOL    HW139395   4.375   4.562   8.873  3.8218 -1.4044 -0.1373
 9253SOL    HW239396   4.265   4.546   8.773  0.1906  0.1631 -0.4943
 9254SOL     OW39397   2.071   3.280   1.226  0.0335  0.2890 -0.0567
 9254SOL    HW139398   2.147   3.319   1.183 -0.0670 -0.8563 -1.2600
 9254SOL    HW239399   2.113   3.213   1.280  0.1059 -0.9522 -1.6663
 9255SOL     OW39400   0.822   3.980   3.386  0.4996 -0.3558  0.3069
 9255SOL    HW139401   0.740   3.931   3.382 -0.0985  0.5842  0.9429
 9255SOL    HW239402   0.870   3.932   3.453 -1.0417 -1.9186  0.2777
 9256SOL     OW39403   2.511   0.335   1.920 -0.0823  0.2417 -0.4514
 9256SOL    HW139404   2.510   0.366   1.829 -2.7399  0.2968 -0.4114
 9256SOL    HW239405   2.579   0.387   1.961  0.2999  0.2584 -1.0932
 9257SOL     OW39406   0.872   2.281   4.939  0.1025 -0.1389 -0.1845
 9257SOL    HW139407   0.897   2.348   4.875 -0.9442 -0.6413 -1.1138
 9257SOL    HW239408   0.951   2.227   4.931  0.4548  0.6006 -1.8755
 9258SOL     OW39409   4.329   3.094   6.012 -0.2814 -0.2775  0.6169
 9258SOL    HW139410   4.340   3.060   6.100 -0.2824  0.5272  0.9291
 9258SOL    HW239411   4.296   3.016   5.968 -0.4818  0.7933 -1.1413
 9259SOL     OW39412   2.556   0.929   2.985 -0.0987 -0.2822  0.6469
 9259SOL    HW139413   2.464   0.911   3.005 -0.4273 -0.1448 -0.7068
 9259SOL    HW239414   2.572   0.893   2.898  0.1666 -2.8013  1.7381
 9260SOL     OW39415   0.050   3.927   4.013  0.5636 -0.2685 -0.2196
 9260SOL    HW139416   0.138   3.927   3.975  1.3553 -0.6731  1.6072
 9260SOL    HW239417   4.722   3.897   3.947 -0.4231 -0.1477  0.6764
 9261SOL     OW39418   0.360   0.200  12.565 -0.2542  0.3296  0.2964
 9261SOL    HW139419   0.328   0.214  12.476  0.5313  3.6665  0.5289
 9261SOL    HW239420   0.325   0.279  12.605  1.4331  1.9736 -1.4178
 9262SOL     OW39421   2.401   4.530  15.796 -0.3698 -0.5420  0.9596
 9262SOL    HW139422   2.325   4.530  15.738  2.3779  0.2657 -2.6264
 9262SOL    HW239423   2.368   4.575  15.875 -2.8216  0.8902 -0.8745
 9263SOL     OW39424   3.751   0.406  16.236  0.8766  0.6223 -0.6612
 9263SOL    HW139425   3.840   0.431  16.262  0.6542 -0.5284  1.2699
 9263SOL    HW239426   3.771   0.365  16.152 -0.2707  1.3609 -1.2787
 9264SOL     OW39427   3.247   2.136   3.959  0.2023 -0.4119  0.0733
 9264SOL    HW139428   3.278   2.105   4.044  2.0457  1.3644  0.0333
 9264SOL    HW239429   3.198   2.060   3.927  1.6087  0.3301 -3.8841
 9265SOL     OW39430   1.460   3.731  16.869  0.2359  0.0170 -0.1465
 9265SOL    HW139431   1.526   3.706  16.934  1.3276 -2.0273 -2.0512
 9265SOL    HW239432   1.473   3.661  16.805 -0.1599  1.3089 -1.6484
 9266SOL     OW39433   2.514   1.908   1.480 -0.2421  0.1873  0.1258
 9266SOL    HW139434   2.455   1.834   1.462 -0.1208  0.5172 -1.6649
 9266SOL    HW239435   2.599   1.867   1.465  0.5162  2.3531 -1.3992
 9267SOL     OW39436   2.743   0.147   4.596  0.2505  0.2082  0.1460
 9267SOL    HW139437   2.671   0.096   4.632 -0.8256  1.1502 -0.6934
 9267SOL    HW239438   2.811   0.079   4.598 -1.6852 -1.8045 -3.4490
 9268SOL     OW39439   2.840   0.724   2.768  0.1652  0.1827 -0.1941
 9268SOL    HW139440   2.915   0.761   2.814  0.9261 -1.6744  0.0463
 9268SOL    HW239441   2.853   0.764   2.682 -0.9553  0.1003 -0.4030
 9269SOL     OW39442   0.113   3.410  12.432 -0.0055  0.0606 -0.0033
 9269SOL    HW139443   0.130   3.326  12.390  2.0175  0.6588 -0.3746
 9269SOL    HW239444   0.170   3.396  12.508  1.2285  0.2900 -0.8901
 9270SOL     OW39445   0.091   2.406  10.012 -0.4882  0.0497 -0.2643
 9270SOL    HW139446   0.156   2.444   9.953  0.3142 -1.0087 -0.0603
 9270SOL    HW239447   0.023   2.472  10.000 -2.1479 -0.9817  3.4263
 9271SOL     OW39448   1.191   2.949   3.052 -0.0333 -0.3641 -0.6017
 9271SOL    HW139449   1.112   2.912   3.013  0.9185 -1.5975 -1.3552
 9271SOL    HW239450   1.218   2.877   3.109  0.1859  1.1023  1.1574
 9272SOL     OW39451   4.239   1.781   7.738 -0.4431 -0.4557  0.6463
 9272SOL    HW139452   4.292   1.822   7.669 -1.1393  0.3150  0.5791
 9272SOL    HW239453   4.267   1.689   7.734  0.4862 -0.2026  1.2505
 9273SOL     OW39454   1.031   2.026   5.352 -0.7298 -0.7979  1.3667
 9273SOL    HW139455   1.037   1.948   5.407 -1.8916 -0.2400  2.2715
 9273SOL    HW239456   1.003   1.982   5.272  1.6631  1.5627 -0.7933
 9274SOL     OW39457   4.691   4.532  14.898  0.2491 -0.0776 -0.1954
 9274SOL    HW139458   4.693   4.581  14.816  0.0731 -1.4605 -1.0246
 9274SOL    HW239459   0.014   4.461  14.871 -0.5146 -0.4175 -0.9488
 9275SOL     OW39460   2.161   0.410   9.541  0.2930  0.5413  0.0493
 9275SOL    HW139461   2.256   0.399   9.537  0.1665 -0.8912  0.9329
 9275SOL    HW239462   2.158   0.500   9.509 -0.0808  0.0744 -1.2284
 9276SOL     OW39463   0.203   0.615   1.065 -0.1319 -0.0352  0.0502
 9276SOL    HW139464   0.224   0.621   1.158  1.3108 -0.9133 -0.2161
 9276SOL    HW239465   0.268   0.668   1.019 -0.7382  0.0168 -0.7457
 9277SOL     OW39466   3.662   4.486   0.397  0.1160 -0.6570 -0.2377
 9277SOL    HW139467   3.654   4.505   0.303 -0.4316  1.1739  0.1893
 9277SOL    HW239468   3.573   4.460   0.421  0.2067 -0.9378 -0.2118
 9278SOL     OW39469   3.228   3.222   5.838  0.1146 -0.6956 -0.0563
 9278SOL    HW139470   3.244   3.244   5.746 -0.2537  2.8992  0.7570
 9278SOL    HW239471   3.256   3.130   5.832 -1.4338 -1.3092  2.1168
 9279SOL     OW39472   0.557   2.969  10.481  0.1631  0.7696 -0.1770
 9279SOL    HW139473   0.613   3.001  10.552  0.1394  0.7058 -0.1297
 9279SOL    HW239474   0.480   3.022  10.504 -1.4884 -0.6733 -2.4208
 9280SOL     OW39475   4.634   3.518   3.593 -0.0290  0.5848 -0.5466
 9280SOL    HW139476   4.679   3.437   3.568  0.7014  0.3884  1.4049
 9280SOL    HW239477   4.708   3.579   3.586  0.9445 -0.4322  1.0133
 9281SOL     OW39478   3.855   0.058   7.943 -0.0309 -0.0992 -0.6097
 9281SOL    HW139479   3.835   0.091   8.030 -1.7214  1.6159 -1.6425
 9281SOL    HW239480   3.946   0.033   7.957  0.2650  1.7689  0.8014
 9282SOL     OW39481   4.077   4.475   3.123  0.8056 -0.1455 -0.1250
 9282SOL    HW139482   4.123   4.510   3.199 -1.1459  2.5221 -0.2058
 9282SOL    HW239483   4.088   4.380   3.128  2.3209  0.1781  2.5341
 9283SOL     OW39484   3.077   1.152   0.168 -0.0003 -0.2237 -0.0444
 9283SOL    HW139485   3.146   1.113   0.114  0.0713  1.9091 -1.4788
 9283SOL    HW239486   3.128   1.220   0.212 -0.2618  2.5112 -3.9234
 9284SOL     OW39487   3.152   4.322  16.993  0.0065 -0.2311 -0.0355
 9284SOL    HW139488   3.058   4.316  17.007  0.2672 -2.0005  0.9934
 9284SOL    HW239489   3.170   4.269  16.915  1.0536 -1.6098  1.1303
 9285SOL     OW39490   1.544   3.883   1.777 -0.2488  0.2421  0.0315
 9285SOL    HW139491   1.502   3.840   1.702  1.9966 -1.5270 -0.1964
 9285SOL    HW239492   1.465   3.894   1.831 -1.2497 -0.6747 -1.2222
 9286SOL     OW39493   3.291   0.389   9.549  0.3662  0.1540  0.0609
 9286SOL    HW139494   3.255   0.352   9.469  0.3783  3.0938 -1.3049
 9286SOL    HW239495   3.377   0.351   9.568 -0.5696 -1.4049  1.2338
 9287SOL     OW39496   2.249   2.806   4.817 -0.0361 -0.4170 -0.5891
 9287SOL    HW139497   2.304   2.736   4.853 -1.3156 -0.8532  0.5301
 9287SOL    HW239498   2.206   2.843   4.894 -1.0181 -0.7099 -0.9997
 9288SOL     OW39499   1.926   3.136   3.277 -0.3410  0.0168 -0.5904
 9288SOL    HW139500   1.955   3.046   3.264  1.4773  0.7284 -1.4671
 9288SOL    HW239501   1.889   3.122   3.364  1.7332  0.5406  0.3874
 9289SOL     OW39502   3.263   1.525   4.915  0.2027  0.2615 -0.5286
 9289SOL    HW139503   3.332   1.487   4.860 -0.4983 -1.6140 -0.1216
 9289SOL    HW239504   3.188   1.533   4.857 -0.5532  0.0079  0.4229
 9290SOL     OW39505   3.939   4.341   8.784  0.2479  0.7420  0.6733
 9290SOL    HW139506   3.900   4.386   8.709  0.5517  1.8049  1.1449
 9290SOL    HW239507   3.895   4.257   8.779 -0.9424  1.3737  0.4580
 9291SOL     OW39508   3.337   0.397   1.354  0.1696  0.2836 -0.8670
 9291SOL    HW139509   3.264   0.456   1.334 -0.5310 -0.3147 -0.0848
 9291SOL    HW239510   3.383   0.454   1.416 -1.3407 -1.7615  2.1504
 9292SOL     OW39511   0.666   2.260   3.961  0.0285 -0.2463 -0.2121
 9292SOL    HW139512   0.689   2.353   3.966  1.7122 -0.5915 -1.4180
 9292SOL    HW239513   0.718   2.214   4.027  1.5881  3.0539  0.8315
 9293SOL     OW39514   4.403   4.150  14.115  0.1025 -0.3976 -0.0843
 9293SOL    HW139515   4.359   4.197  14.186 -1.9616  0.9702 -2.2430
 9293SOL    HW239516   4.376   4.208  14.044 -1.8381 -0.5022  0.5734
 9294SOL     OW39517   1.790   3.816   1.486 -0.6794  0.1074  0.5531
 9294SOL    HW139518   1.792   3.885   1.553  2.8789 -0.1460  0.7009
 9294SOL    HW239519   1.695   3.814   1.475 -0.5199 -1.1673 -0.4877
 9295SOL     OW39520   2.548   0.683   2.023  0.4050 -0.3156  0.0816
 9295SOL    HW139521   2.620   0.739   2.054  0.0928 -0.8704  1.8133
 9295SOL    HW239522   2.498   0.728   1.955  0.0691 -0.2159  0.3932
 9296SOL     OW39523   4.353   4.383  13.149 -0.0835 -0.6161 -0.0896
 9296SOL    HW139524   4.375   4.290  13.157  0.3395 -0.4254  0.9081
 9296SOL    HW239525   4.419   4.421  13.207 -2.0969 -0.3362  2.0175
 9297SOL     OW39526   2.209   2.888   7.527 -0.3727  0.1409 -0.0826
 9297SOL    HW139527   2.231   2.949   7.457 -0.3404  0.5499  0.2823
 9297SOL    HW239528   2.196   2.802   7.487 -1.7418 -0.3634  1.4208
 9298SOL     OW39529   1.372   1.544   2.672  0.2186  0.2053 -0.2384
 9298SOL    HW139530   1.357   1.535   2.578  1.2076  1.7515 -0.5521
 9298SOL    HW239531   1.466   1.563   2.677  0.4329 -0.9314 -0.0379
 9299SOL     OW39532   0.438   2.270   9.857  0.3374  0.1230 -0.1715
 9299SOL    HW139533   0.500   2.308   9.919  0.1136 -0.1770  0.2357
 9299SOL    HW239534   0.383   2.211   9.909  1.0466 -1.1805 -0.9107
 9300SOL     OW39535   3.518   0.659   2.397  0.2351 -0.4926  0.4067
 9300SOL    HW139536   3.559   0.600   2.334  0.5602  0.1363  0.0381
 9300SOL    HW239537   3.444   0.613   2.438 -0.3429 -1.1273 -1.3764
 9301SOL     OW39538   3.329   1.073   2.383 -0.2542 -0.0450  0.1160
 9301SOL    HW139539   3.354   1.014   2.454 -3.4920 -1.9542 -0.3758
 9301SOL    HW239540   3.314   1.008   2.314  1.0713  2.0293 -2.1413
 9302SOL     OW39541   3.608   3.553  12.835 -0.1844  0.3356 -0.2290
 9302SOL    HW139542   3.671   3.615  12.873 -0.4417  0.3004  0.2593
 9302SOL    HW239543   3.651   3.537  12.751 -1.8850 -0.2261 -0.9983
 9303SOL     OW39544   0.527   3.510  14.964  0.5300 -0.1938  0.2207
 9303SOL    HW139545   0.445   3.461  14.976 -1.7499  3.9397  1.6475
 9303SOL    HW239546   0.518   3.548  14.876  1.6548  1.7393  0.9307
 9304SOL     OW39547   1.056   1.765   0.529 -0.8838 -0.4393 -0.2517
 9304SOL    HW139548   0.980   1.819   0.550 -0.7361 -0.2053 -0.3171
 9304SOL    HW239549   1.121   1.835   0.522 -1.6890  0.4856  1.5507
 9305SOL     OW39550   4.456   1.698  16.415 -0.0244  0.6757 -0.0015
 9305SOL    HW139551   4.370   1.736  16.396  0.8981  1.9107 -1.7161
 9305SOL    HW239552   4.489   1.767  16.473 -3.8130  2.6760 -0.1976
 9306SOL     OW39553   4.654   1.000   7.260  0.3186 -0.1957 -0.5567
 9306SOL    HW139554   4.600   0.929   7.294 -2.2721  2.4694  0.9129
 9306SOL    HW239555   4.723   0.993   7.326  1.8664 -1.6610 -2.3202
 9307SOL     OW39556   4.398   1.084   1.728  0.0241 -0.0751 -0.2385
 9307SOL    HW139557   4.426   1.160   1.677  0.7167 -0.5499 -0.5735
 9307SOL    HW239558   4.305   1.076   1.706 -0.1175 -0.5543  0.5183
 9308SOL     OW39559   1.915   1.244  17.577  0.2696  0.4353  0.2205
 9308SOL    HW139560   1.995   1.289  17.603  0.5533  0.2451 -0.3113
 9308SOL    HW239561   1.888   1.298  17.503 -0.8573 -0.1026  0.2284
 9309SOL     OW39562   4.077   0.607  17.333 -0.2368  0.1001 -0.2235
 9309SOL    HW139563   3.985   0.588  17.353  0.3888  0.1496  2.7701
 9309SOL    HW239564   4.138   0.540  17.364  1.7705  0.5758 -3.1677
 9310SOL     OW39565   3.590   0.647   9.600  0.1684 -0.1434 -0.0029
 9310SOL    HW139566   3.625   0.724   9.554 -0.1765 -0.7685 -1.3067
 9310SOL    HW239567   3.495   0.663   9.600  0.1395 -0.3039  0.3602
 9311SOL     OW39568   4.450   2.596   6.198  0.0039 -0.7391 -0.5531
 9311SOL    HW139569   4.421   2.540   6.271  2.0952 -1.5667 -0.3670
 9311SOL    HW239570   4.537   2.561   6.180  0.0380  0.1336 -2.0448
 9312SOL     OW39571   4.200   2.128   3.746 -0.5949 -0.4174 -0.3172
 9312SOL    HW139572   4.126   2.067   3.755 -0.3599 -0.6073  0.2892
 9312SOL    HW239573   4.209   2.137   3.651  1.1642 -0.6039 -0.1562
 9313SOL     OW39574   2.847   1.180   2.840 -0.1388 -0.2405  0.4367
 9313SOL    HW139575   2.915   1.157   2.777  0.7316 -0.4159  1.4478
 9313SOL    HW239576   2.809   1.250   2.786 -0.0699 -0.2924  0.3208
 9314SOL     OW39577   4.263   2.323   2.522  0.6323  0.0471 -0.1703
 9314SOL    HW139578   4.221   2.244   2.488 -0.1838  0.8911 -1.1276
 9314SOL    HW239579   4.187   2.357   2.569  0.0770  0.3190 -1.2605
 9315SOL     OW39580   0.242   4.160   0.281 -0.1106  0.0014  0.4548
 9315SOL    HW139581   0.165   4.133   0.330 -0.5062  0.5653  0.1346
 9315SOL    HW239582   0.307   4.183   0.348 -1.3843  0.4372  1.5288
 9316SOL     OW39583   2.240   0.079   8.075 -0.2192  0.3800 -0.2537
 9316SOL    HW139584   2.181   0.073   7.999 -2.4239 -0.7489  1.5301
 9316SOL    HW239585   2.178   0.036   8.135 -0.3483  4.1533  2.3574
 9317SOL     OW39586   3.887   4.018   5.080 -1.3027  0.1393  0.4558
 9317SOL    HW139587   3.811   3.964   5.058 -0.1847 -2.2647  2.5250
 9317SOL    HW239588   3.947   4.004   5.006  0.3801  1.3270  1.5936
 9318SOL     OW39589   0.430   3.866   1.463 -0.2587 -0.3177 -0.4195
 9318SOL    HW139590   0.453   3.894   1.375  1.3792 -0.5283 -0.0661
 9318SOL    HW239591   0.502   3.811   1.495 -1.5726 -3.3709 -2.6759
 9319SOL     OW39592   1.870   1.014  14.658  0.2785  0.0742 -0.2765
 9319SOL    HW139593   1.836   1.090  14.611  0.3306  0.5592  0.4741
 9319SOL    HW239594   1.915   1.069  14.723  0.6508 -0.3040 -0.2132
 9320SOL     OW39595   3.981   3.793   6.991  0.3858 -0.3041 -0.3807
 9320SOL    HW139596   3.994   3.699   6.991 -1.4317 -0.5678  1.5396
 9320SOL    HW239597   3.895   3.815   6.955  0.5035 -0.9232 -1.0289
 9321SOL     OW39598   0.343   2.813  12.504  0.1791 -0.2770 -0.0646
 9321SOL    HW139599   0.429   2.793  12.541 -0.3447  1.3657  2.0582
 9321SOL    HW239600   0.331   2.733  12.452 -0.3605 -0.9370  1.0662
 9322SOL     OW39601   2.389   3.592   9.850 -0.2278 -0.3528  0.0700
 9322SOL    HW139602   2.345   3.590   9.935  0.1823 -2.8644  0.2291
 9322SOL    HW239603   2.408   3.685   9.842 -0.7152 -0.2655 -0.0732
 9323SOL     OW39604   1.422   0.725   1.687 -0.3174  0.0466  0.2500
 9323SOL    HW139605   1.413   0.635   1.658 -1.5302  0.4435 -0.6220
 9323SOL    HW239606   1.433   0.769   1.603  2.2369 -0.2208  0.4388
 9324SOL     OW39607   1.416   4.467   6.808  0.4320  0.0580  0.5277
 9324SOL    HW139608   1.406   4.513   6.725 -2.4586 -0.4004  0.6245
 9324SOL    HW239609   1.480   4.521   6.855  0.6397  0.0830  0.2148
 9325SOL     OW39610   4.726   2.116   4.990  0.0039 -0.0156 -0.0776
 9325SOL    HW139611   4.714   2.037   4.937  0.9919 -0.2908  0.1133
 9325SOL    HW239612   0.080   2.135   4.959  0.3245  0.1187  0.9173
 9326SOL     OW39613   2.275   3.363   2.094  0.4469 -0.0626  0.4936
 9326SOL    HW139614   2.185   3.395   2.104  0.6198  0.1854  1.2571
 9326SOL    HW239615   2.278   3.359   1.999 -0.6364  0.5611  0.4341
 9327SOL     OW39616   0.945   3.458  10.739 -0.1224  0.0062  0.6630
 9327SOL    HW139617   0.959   3.383  10.797  0.2470  1.2221  2.1678
 9327SOL    HW239618   1.001   3.430  10.667 -1.0329  1.1637 -0.4961
 9328SOL     OW39619   0.335   2.793   0.137  0.1937 -0.2543  0.2487
 9328SOL    HW139620   0.250   2.749   0.145 -1.2493  2.3613 -0.7720
 9328SOL    HW239621   0.319   2.873   0.187  1.0751 -1.4579  2.4551
 9329SOL     OW39622   1.598   3.800   8.045  0.2401 -0.1650 -0.0827
 9329SOL    HW139623   1.515   3.846   8.046  1.3553  1.8064  0.6513
 9329SOL    HW239624   1.592   3.743   7.968  2.5263 -0.6208  0.0629
 9330SOL     OW39625   2.023   2.318   0.067  0.6948 -0.4558 -0.6770
 9330SOL    HW139626   2.069   2.390   0.109 -0.5230 -0.8352  1.2676
 9330SOL    HW239627   2.093   2.289   0.007  0.6618 -1.4285 -0.2483
 9331SOL     OW39628   4.362   0.088   8.739  0.2387 -0.2843  0.0960
 9331SOL    HW139629   4.276   0.064   8.704 -0.5949  1.5402  0.8870
 9331SOL    HW239630   4.384   0.161   8.681 -2.9261 -0.0945 -0.8371
 9332SOL     OW39631   3.193   3.633   6.960  0.1517 -0.0414 -0.1131
 9332SOL    HW139632   3.250   3.690   6.908  1.7302 -3.8266 -2.5090
 9332SOL    HW239633   3.156   3.700   7.018  1.2114 -1.4815  2.2391
 9333SOL     OW39634   4.430   2.347   4.072  0.2099  0.7409  0.0575
 9333SOL    HW139635   4.343   2.382   4.054  0.7540  2.1954  0.2181
 9333SOL    HW239636   4.409   2.275   4.131 -0.4104  0.3242 -0.6762
 9334SOL     OW39637   2.249   1.838   6.873  0.7010 -0.2811 -0.2400
 9334SOL    HW139638   2.195   1.908   6.911 -0.5856 -0.5214 -1.6134
 9334SOL    HW239639   2.315   1.832   6.942 -0.7321  1.0889  1.2699
 9335SOL     OW39640   2.186   2.657  10.731  0.2226 -0.0930 -0.1466
 9335SOL    HW139641   2.167   2.693  10.818 -1.6841  1.6178 -1.2773
 9335SOL    HW239642   2.278   2.631  10.725  0.4807  1.2105 -2.0150
 9336SOL     OW39643   3.593   1.331  11.808 -0.5262 -0.1734  0.7544
 9336SOL    HW139644   3.552   1.247  11.828 -2.3482  0.2167 -1.3055
 9336SOL    HW239645   3.565   1.357  11.720  0.2630 -2.1012 -0.0524
 9337SOL     OW39646   1.079   1.922   3.003 -0.2846  0.2577 -0.3667
 9337SOL    HW139647   1.085   1.897   3.095 -2.1376  0.7565 -0.1156
 9337SOL    HW239648   0.985   1.942   2.999 -0.5638 -0.9741  0.1332
 9338SOL     OW39649   0.270   4.164   7.204  0.3274 -0.5478 -0.0926
 9338SOL    HW139650   0.223   4.213   7.271  0.0334  4.1707 -3.7785
 9338SOL    HW239651   0.349   4.217   7.188 -0.2295 -0.3091 -2.0610
 9339SOL     OW39652   4.324   0.417   4.301  0.0008  0.6682  0.3733
 9339SOL    HW139653   4.280   0.496   4.333  1.4020  1.2026  0.9593
 9339SOL    HW239654   4.252   0.362   4.269 -0.1936 -0.2669  2.4438
 9340SOL     OW39655   3.828   4.060   4.432 -0.0523  0.2330  0.3402
 9340SOL    HW139656   3.787   3.997   4.373 -2.4360  1.9339  0.1615
 9340SOL    HW239657   3.753   4.073   4.490 -0.9171  0.2083 -0.7726
 9341SOL     OW39658   3.423   3.217   2.898 -0.5171  0.1482  0.2847
 9341SOL    HW139659   3.343   3.179   2.936 -0.6908  1.1645  0.9618
 9341SOL    HW239660   3.425   3.303   2.941  2.1901  0.7478 -1.0272
 9342SOL     OW39661   2.860   3.765   3.712 -0.5794 -0.3744  0.2835
 9342SOL    HW139662   2.840   3.777   3.619 -0.0710 -1.9225 -0.0365
 9342SOL    HW239663   2.953   3.748   3.695 -0.4777  1.6475 -1.1000
 9343SOL     OW39664   1.553   0.967   7.730  0.2984 -0.3513  0.3817
 9343SOL    HW139665   1.521   0.889   7.776 -1.7763 -0.3868 -1.1206
 9343SOL    HW239666   1.510   1.032   7.786  1.4025  1.2107 -0.6183
 9344SOL     OW39667   3.466   0.815   0.913 -0.0146 -0.3396 -0.2869
 9344SOL    HW139668   3.412   0.891   0.889  1.3117  1.5260  2.5555
 9344SOL    HW239669   3.536   0.804   0.849 -1.1843 -0.9298 -1.4542
 9345SOL     OW39670   3.214   1.776   1.425  0.3062  0.1666 -0.3059
 9345SOL    HW139671   3.225   1.682   1.441  4.6447  0.9311  1.1443
 9345SOL    HW239672   3.212   1.818   1.511 -1.7179 -1.4073  0.4145
 9346SOL     OW39673   4.093   0.464  15.093  0.7994 -0.0052  0.2075
 9346SOL    HW139674   4.008   0.456  15.137  0.1287  0.0039 -1.0599
 9346SOL    HW239675   4.099   0.376  15.057 -0.2363 -0.2472  0.6178
 9347SOL     OW39676   4.594   2.662  11.592 -0.4866  0.4771  0.2212
 9347SOL    HW139677   4.504   2.636  11.572 -0.4657 -0.3351  1.2011
 9347SOL    HW239678   4.589   2.754  11.620  1.5175  0.7544 -0.3004
 9348SOL     OW39679   2.380   2.441   7.684 -0.1773 -0.6882 -0.1008
 9348SOL    HW139680   2.365   2.417   7.593  0.8097  0.3160 -0.5255
 9348SOL    HW239681   2.344   2.367   7.733  1.3994 -0.0937  1.9268
 9349SOL     OW39682   2.891   1.268  17.734 -0.7311 -0.4452 -0.3104
 9349SOL    HW139683   2.956   1.228   0.054 -1.3989 -1.4638 -0.2600
 9349SOL    HW239684   2.906   1.210  17.659  0.7140  0.2595 -0.5814
 9350SOL     OW39685   2.140   2.286   8.571 -0.0661 -0.5075  0.4432
 9350SOL    HW139686   2.056   2.257   8.534 -0.4075  1.1043 -0.0764
 9350SOL    HW239687   2.182   2.323   8.493 -1.2725  2.0497  1.0067
 9351SOL     OW39688   2.479   3.142  17.292  0.1806  0.5817  0.3195
 9351SOL    HW139689   2.429   3.112  17.216  0.7920 -0.2349  0.2380
 9351SOL    HW239690   2.481   3.063  17.346  1.2315  0.5877  0.2763
 9352SOL     OW39691   1.349   3.000   4.071 -0.3298 -0.2482 -0.2728
 9352SOL    HW139692   1.440   2.974   4.062  0.3038  0.8337  2.8614
 9352SOL    HW239693   1.371   3.092   4.057 -1.3629 -0.0155 -0.4060
 9353SOL     OW39694   1.105   2.906   6.346  0.4169  0.4392 -0.2850
 9353SOL    HW139695   1.157   2.827   6.334 -0.5397 -0.4395  1.3147
 9353SOL    HW239696   1.019   2.868   6.329  1.6116 -1.4107 -2.1632
 9354SOL     OW39697   0.691   2.939   7.723  0.1807 -0.4079 -0.4291
 9354SOL    HW139698   0.706   2.882   7.798  1.7410 -0.7682 -1.0128
 9354SOL    HW239699   0.781   2.969   7.715  0.1272 -0.5937 -1.7520
 9355SOL     OW39700   3.567   3.143   8.422 -0.3094  0.1127 -0.5630
 9355SOL    HW139701   3.626   3.194   8.478  0.4473  1.0666 -2.2249
 9355SOL    HW239702   3.486   3.193   8.411 -1.2558 -0.7574  2.5165
 9356SOL     OW39703   4.507   4.542  13.311 -0.7238  0.1479  0.5928
 9356SOL    HW139704   4.578   4.484  13.336 -1.6083 -1.2970 -0.2139
 9356SOL    HW239705   4.536   4.625  13.347  0.9228  0.5169 -1.5800
 9357SOL     OW39706   1.280   1.617   6.950 -0.3978  0.1773 -0.0042
 9357SOL    HW139707   1.329   1.559   6.891  2.4630  0.8542  1.7101
 9357SOL    HW239708   1.291   1.707   6.919  0.8353 -0.8457 -2.5565
 9358SOL     OW39709   1.527   2.936   2.150 -0.3495 -0.7657  0.4604
 9358SOL    HW139710   1.569   3.018   2.172 -1.6847  0.7113 -2.5403
 9358SOL    HW239711   1.565   2.879   2.217  2.1664  0.8652  0.4190
 9359SOL     OW39712   3.049   1.791   6.493 -0.7019 -0.1962 -0.3957
 9359SOL    HW139713   2.990   1.717   6.481 -0.6323 -0.3638  0.2842
 9359SOL    HW239714   3.029   1.865   6.435  1.4162 -0.4486 -1.4430
 9360SOL     OW39715   0.967   4.479   8.433 -0.5671  0.6181  0.3438
 9360SOL    HW139716   0.976   4.519   8.520  1.7054 -0.7005  0.7134
 9360SOL    HW239717   1.013   4.540   8.375  0.9413 -2.0789 -1.2858
 9361SOL     OW39718   4.316   2.803   6.737  0.2125 -0.6071  0.4255
 9361SOL    HW139719   4.380   2.779   6.803 -0.0529 -2.1925  0.1170
 9361SOL    HW239720   4.234   2.824   6.781  0.6698 -0.4151  1.1782
 9362SOL     OW39721   3.021   2.491   7.159  0.2413  0.2276  0.4895
 9362SOL    HW139722   3.061   2.572   7.129 -0.1972  0.1069 -0.4304
 9362SOL    HW239723   3.000   2.511   7.250 -1.9545  0.0879  0.0266
 9363SOL     OW39724   3.082   1.085  16.289  0.5213  0.3931 -0.0987
 9363SOL    HW139725   3.061   1.178  16.274 -1.7539  0.0478  0.9179
 9363SOL    HW239726   3.063   1.068  16.381  0.5665  1.3564  0.0931
 9364SOL     OW39727   4.419   2.237   8.869 -0.3811  0.0832  0.0536
 9364SOL    HW139728   4.324   2.238   8.886 -0.3841  0.3589  0.0171
 9364SOL    HW239729   4.446   2.318   8.911  0.3189 -0.5588  0.8440
 9365SOL     OW39730   0.720   4.512   2.304 -0.6078  0.3334  0.3327
 9365SOL    HW139731   0.680   4.598   2.316  1.0026  1.2736 -0.9736
 9365SOL    HW239732   0.807   4.525   2.266 -0.4095  1.0238  1.0211
 9366SOL     OW39733   0.721   0.788  13.389  0.3433  0.0154 -0.2656
 9366SOL    HW139734   0.773   0.709  13.371 -0.7230 -0.4256 -1.3965
 9366SOL    HW239735   0.725   0.785  13.485  0.4094 -2.7330 -0.3420
 9367SOL     OW39736   4.369   1.956   5.754 -0.4160  0.7250 -0.0395
 9367SOL    HW139737   4.452   1.991   5.722  0.6343 -0.6493  1.1906
 9367SOL    HW239738   4.323   1.931   5.674 -0.9565 -0.1697  0.5545
 9368SOL     OW39739   3.731   1.809   3.331  0.5697  0.2647  0.1056
 9368SOL    HW139740   3.818   1.846   3.314  0.6066 -0.2052 -0.7090
 9368SOL    HW239741   3.702   1.785   3.243  3.2621  1.8885 -1.2258
 9369SOL     OW39742   0.108   0.402   4.696  0.5759 -0.7565 -0.7479
 9369SOL    HW139743   0.115   0.308   4.716 -0.9744 -0.8680 -0.7526
 9369SOL    HW239744   0.022   0.430   4.725  1.4632 -0.8717  2.0056
 9370SOL     OW39745   1.795   1.934   7.962  0.4417 -0.3315 -0.1578
 9370SOL    HW139746   1.770   1.845   7.987  0.5731  0.0564  1.3537
 9370SOL    HW239747   1.746   1.989   8.023 -0.4789 -0.3753 -0.8577
 9371SOL     OW39748   4.156   2.197  15.381 -0.3192 -0.0858 -0.4641
 9371SOL    HW139749   4.242   2.212  15.420  0.3105 -1.9853 -1.1040
 9371SOL    HW239750   4.109   2.236  15.455  1.5811 -1.9294  1.7377
 9372SOL     OW39751   2.405   3.001   4.653  0.1660  0.5062 -0.2977
 9372SOL    HW139752   2.453   2.929   4.695 -0.3905 -0.1883 -0.8511
 9372SOL    HW239753   2.334   3.003   4.717  0.5921  0.1529  0.1866
 9373SOL     OW39754   1.007   3.015   9.879 -0.5946  0.3741  0.1255
 9373SOL    HW139755   0.977   3.053   9.797  1.4830  2.2427  0.2524
 9373SOL    HW239756   1.054   3.087   9.921 -0.4565  1.7522 -2.3850
 9374SOL     OW39757   4.214   4.594   9.452 -0.3726 -0.1945 -0.2876
 9374SOL    HW139758   4.155   4.563   9.521 -1.7176  2.5038 -0.2197
 9374SOL    HW239759   4.213   4.525   9.385 -0.1672 -0.0757 -0.4134
 9375SOL     OW39760   3.594   0.059  12.326 -0.3525 -0.1608 -0.2810
 9375SOL    HW139761   3.503   0.078  12.351  0.1261  0.9998  0.5928
 9375SOL    HW239762   3.584   0.086  12.235  1.8693  2.7680  0.3504
 9376SOL     OW39763   3.227   1.243   6.763  0.2427 -0.0695  0.3311
 9376SOL    HW139764   3.288   1.180   6.800  0.9459  0.2755 -0.2344
 9376SOL    HW239765   3.216   1.296   6.842  0.5676 -0.8824  0.9245
 9377SOL     OW39766   1.819   3.738   8.450 -0.2368  0.0655  0.6046
 9377SOL    HW139767   1.765   3.662   8.429 -1.4876  1.2492 -0.5425
 9377SOL    HW239768   1.800   3.739   8.544  1.1921 -1.1162  0.9044
 9378SOL     OW39769   2.699   0.982  12.238 -0.0013  0.5714  0.4501
 9378SOL    HW139770   2.624   0.959  12.293 -0.7593  0.5866 -0.5745
 9378SOL    HW239771   2.666   1.063  12.198 -1.4241 -1.5414 -2.7001
 9379SOL     OW39772   0.027   2.740   0.218 -0.1038 -0.2071 -0.2731
 9379SOL    HW139773   0.057   2.775   0.302 -0.8026  0.2582 -0.2172
 9379SOL    HW239774   0.018   2.648   0.242 -0.9070 -0.4390 -1.4563
 9380SOL     OW39775   2.659   1.442   2.922 -0.0635 -0.0621  0.1832
 9380SOL    HW139776   2.592   1.491   2.876  0.2169 -0.4736 -0.6638
 9380SOL    HW239777   2.628   1.355   2.898  2.6117 -0.9280 -0.1381
 9381SOL     OW39778   2.304   2.051   6.662 -0.1862  0.0856  0.2914
 9381SOL    HW139779   2.296   1.985   6.731  0.5451 -1.1007 -0.7866
 9381SOL    HW239780   2.213   2.082   6.663  0.0131  0.7100 -1.4702
 9382SOL     OW39781   1.054   4.387   2.161  0.1022  0.6657  0.4029
 9382SOL    HW139782   1.041   4.305   2.114 -1.6468  2.3145 -1.9372
 9382SOL    HW239783   1.121   4.359   2.223 -0.5810  0.1730  0.9217
 9383SOL     OW39784   0.170   3.933  17.063 -0.1018 -0.8906  0.7573
 9383SOL    HW139785   0.132   3.991  17.129 -1.3591 -0.1819 -0.5800
 9383SOL    HW239786   0.239   3.903  17.123  1.0896 -2.6281 -1.5048
 9384SOL     OW39787   3.306   1.896   4.875 -0.2121 -0.2801 -0.1398
 9384SOL    HW139788   3.241   1.951   4.830  0.8347  0.8831 -0.2234
 9384SOL    HW239789   3.386   1.949   4.873  0.6856 -1.6133  1.1574
 9385SOL     OW39790   1.824   1.125   2.982  0.1886  0.8162 -0.0925
 9385SOL    HW139791   1.857   1.037   2.995  0.4996  0.7833 -1.1154
 9385SOL    HW239792   1.879   1.170   2.918  2.0626  1.1669  1.7667
 9386SOL     OW39793   0.476   2.156   2.319  0.1043  0.4012  0.0798
 9386SOL    HW139794   0.457   2.180   2.229  2.3105 -2.7151 -1.1754
 9386SOL    HW239795   0.414   2.085   2.334  2.4373 -2.2329 -3.0000
 9387SOL     OW39796   2.432   0.308   2.871 -0.5379 -0.4284  0.2478
 9387SOL    HW139797   2.387   0.313   2.955 -0.0077 -1.2252  0.5828
 9387SOL    HW239798   2.394   0.227   2.837 -0.3775 -0.6727  0.6433
 9388SOL     OW39799   0.967   2.701   5.540  0.0858 -0.3135  0.2944
 9388SOL    HW139800   0.939   2.722   5.451 -1.2375 -0.2671  0.7159
 9388SOL    HW239801   1.059   2.691   5.517 -0.0896 -2.0349  0.3828
 9389SOL     OW39802   0.603   3.016  17.727 -0.3736  0.1528  0.5091
 9389SOL    HW139803   0.522   3.066  17.717 -0.8799 -1.0216 -1.1520
 9389SOL    HW239804   0.661   3.074  17.678  0.7815 -1.1313  0.3571
 9390SOL     OW39805   4.476   3.955  13.386  0.5179  0.2446 -0.5044
 9390SOL    HW139806   4.411   4.024  13.395 -1.3415 -1.4123 -1.3952
 9390SOL    HW239807   4.514   3.979  13.302  2.5284  2.4136  1.0130
 9391SOL     OW39808   0.477   2.418   6.495 -0.0998  0.3017  0.3577
 9391SOL    HW139809   0.411   2.366   6.451 -0.0484  0.3900  0.1760
 9391SOL    HW239810   0.525   2.466   6.428 -0.0167  2.2570  1.8038
 9392SOL     OW39811   0.021   3.683   3.138 -0.2270  0.1525 -0.2865
 9392SOL    HW139812   0.088   3.619   3.163  0.3433  1.4740  1.5807
 9392SOL    HW239813   4.689   3.669   3.205  1.6028 -1.7867  1.1715
 9393SOL     OW39814   1.680   1.429   9.295 -0.0586 -0.6081 -0.0660
 9393SOL    HW139815   1.615   1.468   9.353  0.0958  0.3406 -0.5478
 9393SOL    HW239816   1.750   1.401   9.354 -0.5706 -0.8013  0.4460
 9394SOL     OW39817   4.709   2.247   3.213 -0.6147 -0.1826  0.5539
 9394SOL    HW139818   4.718   2.166   3.263  3.1290 -0.6815 -0.9348
 9394SOL    HW239819   4.708   2.319   3.275  1.7277  0.6548 -0.4013
 9395SOL     OW39820   3.659   4.579   9.759 -0.0432 -0.4598 -0.0968
 9395SOL    HW139821   3.629   4.558   9.670 -1.5841  2.7954 -0.3487
 9395SOL    HW239822   3.720   4.509   9.780  1.3676  0.3716 -1.4255
 9396SOL     OW39823   2.937   0.231   7.959  0.4022 -0.2045  0.0412
 9396SOL    HW139824   2.939   0.151   7.907 -0.8485 -0.5533  0.5312
 9396SOL    HW239825   2.866   0.208   8.018 -1.1336  3.3381 -0.3751
 9397SOL     OW39826   1.539   1.210  15.229  0.4668 -0.4971 -0.0429
 9397SOL    HW139827   1.501   1.156  15.160 -0.5071  0.1829 -0.0461
 9397SOL    HW239828   1.480   1.195  15.303 -1.0500 -1.5856 -1.4729
 9398SOL     OW39829   4.734   4.107   6.492  0.3059 -0.0490 -0.1434
 9398SOL    HW139830   0.029   4.131   6.580  1.1276 -1.4512 -0.0332
 9398SOL    HW239831   0.003   4.192   6.449  1.5985 -1.5837 -3.0659
 9399SOL     OW39832   0.228   0.433   9.938  0.5271 -0.0460  0.3421
 9399SOL    HW139833   0.174   0.511   9.923  1.6460  0.7688  0.5299
 9399SOL    HW239834   0.308   0.463   9.894  0.1908 -1.0121 -0.9394
 9400SOL     OW39835   4.349   0.895   2.989 -0.3841 -0.1116 -0.3270
 9400SOL    HW139836   4.359   0.875   2.896  2.1865 -1.7389  0.3036
 9400SOL    HW239837   4.307   0.820   3.030 -0.1706 -0.9789 -1.7077
 9401SOL     OW39838   2.768   3.178   1.786  0.3909  0.5586  0.7695
 9401SOL    HW139839   2.676   3.162   1.806  0.3263 -0.0009  0.0362
 9401SOL    HW239840   2.761   3.256   1.731 -0.7146  1.1341  1.7293
 9402SOL     OW39841   2.835   4.452   3.359  0.0787 -0.2352  0.5723
 9402SOL    HW139842   2.804   4.362   3.358  1.3931 -0.6602 -1.7236
 9402SOL    HW239843   2.867   4.456   3.269  0.9226  1.1498  0.9250
 9403SOL     OW39844   1.103   0.136   2.193  0.1052 -0.2042  0.6369
 9403SOL    HW139845   1.193   0.104   2.198  0.3955  0.8355  2.1243
 9403SOL    HW239846   1.106   0.206   2.259  0.3376 -2.4883  3.0218
 9404SOL     OW39847   1.061   0.047   1.532 -0.2380  0.4130  0.0764
 9404SOL    HW139848   1.066   4.703   1.585 -1.1139 -0.9084 -1.8271
 9404SOL    HW239849   1.153   0.056   1.508  0.2896 -1.0869  1.5589
 9405SOL     OW39850   4.177   2.892   5.908 -0.2955  0.0256  0.1593
 9405SOL    HW139851   4.148   2.867   5.996  0.8358  0.3824  0.6319
 9405SOL    HW239852   4.096   2.867   5.863 -0.8982 -0.6238  1.6080
 9406SOL     OW39853   3.067   0.993  14.159 -0.1049  0.1458  1.3215
 9406SOL    HW139854   3.007   0.919  14.166  1.6088 -1.5368 -1.9048
 9406SOL    HW239855   3.003   1.064  14.165  0.7959  1.0353  0.4734
 9407SOL     OW39856   0.149   3.625   3.624 -0.0969  0.2523  0.1397
 9407SOL    HW139857   0.185   3.707   3.659  0.0527  1.0505 -1.8783
 9407SOL    HW239858   0.227   3.570   3.622 -0.1081  0.3267 -2.1677
 9408SOL     OW39859   2.703   1.714   1.392  0.0365 -0.4607  0.0714
 9408SOL    HW139860   2.690   1.639   1.450 -1.1978  0.3854  0.9006
 9408SOL    HW239861   2.778   1.678   1.345  0.7905 -1.5480  2.1352
 9409SOL     OW39862   2.550   0.218   0.395 -0.0283  0.2941 -0.7901
 9409SOL    HW139863   2.559   0.300   0.445  0.7400 -0.4953  0.3549
 9409SOL    HW239864   2.469   0.220   0.344  0.4894  0.2239 -1.6045
 9410SOL     OW39865   2.612   3.582   7.622 -0.2315 -0.1725  0.4775
 9410SOL    HW139866   2.547   3.617   7.682 -1.0710 -0.0682 -0.5066
 9410SOL    HW239867   2.646   3.665   7.589  0.0153  0.3364  1.9946
 9411SOL     OW39868   4.386   1.963   7.940  0.0296 -0.5837  0.7288
 9411SOL    HW139869   4.344   1.928   7.861 -2.3844  1.0950  1.2883
 9411SOL    HW239870   4.431   1.881   7.962  0.1290 -0.7835 -0.2101
 9412SOL     OW39871   4.191   3.336   3.698 -0.3768 -0.0171  0.1150
 9412SOL    HW139872   4.191   3.366   3.607 -1.4416  0.5402  0.3025
 9412SOL    HW239873   4.272   3.284   3.700 -1.5312 -1.9259 -1.8185
 9413SOL     OW39874   2.490   3.268   3.214 -0.1131 -0.1810 -0.3473
 9413SOL    HW139875   2.486   3.319   3.133  0.3049  2.4282  1.2390
 9413SOL    HW239876   2.553   3.330   3.252  0.5713 -0.6452 -0.7349
 9414SOL     OW39877   4.390   4.697   1.058 -0.0147 -1.0774  0.1602
 9414SOL    HW139878   4.426   4.648   0.984  0.3078 -1.0736  0.3177
 9414SOL    HW239879   4.300   4.664   1.063 -0.2657 -0.3738  0.1731
 9415SOL     OW39880   0.311   2.968   8.298  0.0357  0.5244 -0.4227
 9415SOL    HW139881   0.295   2.884   8.255  0.4149  0.2869 -0.0991
 9415SOL    HW239882   0.360   3.017   8.232  0.5373  1.7939  0.8798
 9416SOL     OW39883   3.900   0.529   8.595 -0.7442 -0.3949 -0.1391
 9416SOL    HW139884   3.808   0.528   8.620 -1.0194  1.2638 -1.1016
 9416SOL    HW239885   3.898   0.551   8.502 -1.4144  2.0721  0.4611
 9417SOL     OW39886   2.235   3.055   2.126 -0.3296  0.4930  0.3026
 9417SOL    HW139887   2.140   3.051   2.125 -0.2673 -0.9660 -1.2123
 9417SOL    HW239888   2.248   3.149   2.129  0.8121  0.3752 -0.7754
 9418SOL     OW39889   3.646   4.461   1.389  0.3695 -0.0757 -0.4885
 9418SOL    HW139890   3.671   4.540   1.341  1.5715 -0.6218 -0.7828
 9418SOL    HW239891   3.713   4.400   1.356  0.6213  1.0753 -2.1065
 9419SOL     OW39892   2.502   3.015   2.561 -0.3517  0.6478  0.3870
 9419SOL    HW139893   2.456   2.984   2.483 -1.7066  2.0346  0.6426
 9419SOL    HW239894   2.425   3.049   2.607 -0.0709  0.2078  1.1819
 9420SOL     OW39895   4.594   0.504   5.705 -0.1833  0.4803  0.7125
 9420SOL    HW139896   4.611   0.419   5.664 -1.0352 -0.3055  2.0029
 9420SOL    HW239897   4.572   0.481   5.795 -0.4801  1.3685  0.8699
 9421SOL     OW39898   3.661   1.215  14.719 -0.5648  0.1899  0.2387
 9421SOL    HW139899   3.717   1.186  14.791 -2.5499  0.7387  1.9713
 9421SOL    HW239900   3.670   1.142  14.657  0.8856 -0.1033  0.8062
 9422SOL     OW39901   1.523   0.352   7.593 -0.7544 -0.2164  0.4492
 9422SOL    HW139902   1.563   0.432   7.558  0.7511 -1.6295 -1.0817
 9422SOL    HW239903   1.517   0.362   7.688 -1.5204  0.9863  0.2741
 9423SOL     OW39904   3.171   3.038   4.103  0.2044  0.4975 -0.1924
 9423SOL    HW139905   3.127   3.087   4.173 -1.1505  0.5679 -1.0876
 9423SOL    HW239906   3.101   3.046   4.039 -0.2570  0.0562  0.2612
 9424SOL     OW39907   0.190   2.416   4.958  0.4671 -0.1708 -0.0638
 9424SOL    HW139908   0.121   2.377   4.905  0.8831  0.6533 -1.1999
 9424SOL    HW239909   0.220   2.335   4.999 -1.5719 -0.7862  0.1926
 9425SOL     OW39910   1.619   3.209   3.216 -0.1518  0.3042 -0.4987
 9425SOL    HW139911   1.526   3.204   3.192 -0.1717 -1.4099 -0.0722
 9425SOL    HW239912   1.652   3.120   3.202  0.2817  0.5838 -1.2153
 9426SOL     OW39913   3.500   3.463   1.857  0.0060 -0.7487  0.4496
 9426SOL    HW139914   3.447   3.383   1.862 -1.5238  0.2016 -0.8256
 9426SOL    HW239915   3.587   3.424   1.852 -0.0574 -0.7331 -0.8235
 9427SOL     OW39916   2.342   2.029   3.017 -0.0094 -0.2145  0.1270
 9427SOL    HW139917   2.265   2.051   3.070  0.2475  0.5404  0.1871
 9427SOL    HW239918   2.298   2.035   2.932 -0.1625  1.8059  0.3444
 9428SOL     OW39919   0.198   0.725  10.369 -0.4643  0.2769 -0.3658
 9428SOL    HW139920   0.117   0.680  10.346 -0.3695  0.2389 -0.6261
 9428SOL    HW239921   0.251   0.685  10.299  0.4875 -1.2748  1.2463
 9429SOL     OW39922   1.595   0.891   7.291  0.8707  0.2151 -0.4233
 9429SOL    HW139923   1.673   0.918   7.339  0.4448 -0.6633  0.7581
 9429SOL    HW239924   1.561   0.978   7.269  2.1040  0.2605 -2.0863
 9430SOL     OW39925   3.872   2.438   7.701 -0.4480  0.7121 -0.2110
 9430SOL    HW139926   3.958   2.458   7.737  0.5033 -1.1704 -1.4335
 9430SOL    HW239927   3.891   2.455   7.609 -1.7582 -0.6213 -0.7284
 9431SOL     OW39928   1.993   2.091  13.784  0.6487 -0.1598 -0.6069
 9431SOL    HW139929   1.988   2.098  13.688  0.9453  3.1944 -0.3806
 9431SOL    HW239930   1.899   2.085  13.803  0.8194  0.2771  0.3769
 9432SOL     OW39931   4.075   3.395  12.583 -0.2599 -0.0536 -0.7990
 9432SOL    HW139932   4.056   3.472  12.530  0.0973 -0.4130 -1.4468
 9432SOL    HW239933   4.053   3.417  12.673 -1.4005 -1.2750 -0.7807
 9433SOL     OW39934   2.650   1.823   8.129 -0.5133  0.3188 -0.6840
 9433SOL    HW139935   2.569   1.827   8.180  0.2931 -3.0872  0.8320
 9433SOL    HW239936   2.685   1.907   8.158 -0.2721  0.5519 -1.6586
 9434SOL     OW39937   0.877   0.106   5.506 -0.4159 -0.0486 -0.2113
 9434SOL    HW139938   0.804   0.073   5.559  0.9514 -0.6073  1.3356
 9434SOL    HW239939   0.846   0.102   5.416  1.8940 -1.6165 -0.9245
 9435SOL     OW39940   0.888   4.353   2.812 -0.5622  0.8022 -0.5646
 9435SOL    HW139941   0.900   4.413   2.885  0.5355 -1.1886  0.8771
 9435SOL    HW239942   0.890   4.419   2.743  0.1118  1.2735 -0.0911
 9436SOL     OW39943   4.646   3.187  13.206  0.1998  0.5333 -0.4772
 9436SOL    HW139944   4.684   3.108  13.245 -0.4425  0.2546 -0.4123
 9436SOL    HW239945   4.645   3.239  13.285  0.3255 -0.1017 -0.0546
 9437SOL     OW39946   2.820   2.820   8.765  0.1733  0.2151  0.0323
 9437SOL    HW139947   2.834   2.732   8.729  1.8158  1.1055 -1.4877
 9437SOL    HW239948   2.742   2.800   8.818 -0.7952  1.1704 -1.0329
 9438SOL     OW39949   1.374   2.604  10.884 -0.2655 -0.5604  0.4493
 9438SOL    HW139950   1.283   2.606  10.914  0.2447  3.2469  1.7607
 9438SOL    HW239951   1.426   2.632  10.959  1.0147 -0.8284 -0.3503
 9439SOL     OW39952   1.598   2.048   3.569  0.5328  0.4934  0.0221
 9439SOL    HW139953   1.592   2.140   3.596  0.7938 -0.0441  1.8486
 9439SOL    HW239954   1.674   2.050   3.511 -2.1912  2.6857 -3.5118
 9440SOL     OW39955   0.022   3.872  15.968 -0.3291  0.6565  0.0091
 9440SOL    HW139956   0.009   3.872  16.062 -1.4537  0.5596 -0.1455
 9440SOL    HW239957   4.677   3.826  15.940 -1.3870  2.6753 -0.3122
 9441SOL     OW39958   0.495   2.989  11.109  0.2771 -0.2557  0.3370
 9441SOL    HW139959   0.492   3.060  11.045 -2.0890 -1.0504 -0.4484
 9441SOL    HW239960   0.468   3.025  11.194 -1.4057  1.8441 -1.0863
 9442SOL     OW39961   2.933   2.407  14.106  0.4984  0.2343 -0.3839
 9442SOL    HW139962   3.029   2.399  14.106  0.7177  2.5537 -2.5023
 9442SOL    HW239963   2.923   2.501  14.119 -1.9060  0.0094 -0.6297
 9443SOL     OW39964   4.144   3.366   5.173 -0.1040  0.0595 -0.3189
 9443SOL    HW139965   4.115   3.285   5.215 -1.0952  1.1867  1.1856
 9443SOL    HW239966   4.064   3.403   5.137 -0.2526 -0.9453 -1.0155
 9444SOL     OW39967   3.351   0.116   7.466 -0.0349  0.3184 -0.7543
 9444SOL    HW139968   3.349   0.196   7.517  0.4738  0.4169 -0.8814
 9444SOL    HW239969   3.442   0.119   7.436  0.2092  1.2035  0.0901
 9445SOL     OW39970   0.681   1.147   5.394 -0.3227  0.3642  0.4593
 9445SOL    HW139971   0.726   1.089   5.455  0.6092 -0.8558 -1.3776
 9445SOL    HW239972   0.605   1.174   5.446  0.2501  2.5288  0.1858
 9446SOL     OW39973   0.051   1.334  14.241  0.4364 -0.8086  0.2224
 9446SOL    HW139974   0.041   1.256  14.186  0.3721 -0.5974 -0.0670
 9446SOL    HW239975   0.039   1.400  14.173  0.2597 -0.1515  0.8989
 9447SOL     OW39976   1.264   0.730   8.394  0.2178  0.0196 -0.3294
 9447SOL    HW139977   1.350   0.730   8.436 -0.0465  1.9199  0.1890
 9447SOL    HW239978   1.209   0.717   8.472  2.3278 -0.9534  0.9849
 9448SOL     OW39979   0.191   1.877   3.201  0.0185 -0.0397 -0.0462
 9448SOL    HW139980   0.190   1.954   3.145  0.9289  0.5248  0.7206
 9448SOL    HW239981   0.164   1.921   3.281  0.2893 -1.4099  0.8034
 9449SOL     OW39982   3.634   2.205   8.228  0.0095 -0.0073  0.0148
 9449SOL    HW139983   3.545   2.206   8.263  0.2142 -0.0047  0.5265
 9449SOL    HW239984   3.652   2.298   8.241 -3.6948  0.4149  2.1151
 9450SOL     OW39985   4.065   3.063   7.703 -0.1597 -0.1179 -0.1032
 9450SOL    HW139986   4.035   3.111   7.781 -0.1070 -0.3606  0.0652
 9450SOL    HW239987   4.072   2.983   7.754  0.5399 -1.3692 -2.1880
 9451SOL     OW39988   0.446   1.936  11.947  0.5332 -0.1393 -0.1521
 9451SOL    HW139989   0.439   1.884  11.867  1.7301 -0.4784 -0.0340
 9451SOL    HW239990   0.517   1.994  11.920  2.0675 -1.9467  0.0291
 9452SOL     OW39991   0.983   1.099  16.513 -0.4687 -0.0662 -0.1863
 9452SOL    HW139992   1.002   1.006  16.526 -0.6854 -0.1229 -0.2595
 9452SOL    HW239993   0.896   1.089  16.475 -0.3708  0.7763 -0.6249
 9453SOL     OW39994   2.456   2.730   2.375 -0.4402 -0.1782  0.1647
 9453SOL    HW139995   2.388   2.797   2.374  0.8987  1.1478 -1.2911
 9453SOL    HW239996   2.523   2.777   2.326  0.2601 -0.8699  0.4632
 9454SOL     OW39997   2.904   0.751   6.708 -0.2676 -0.0750 -0.0197
 9454SOL    HW139998   2.828   0.755   6.766  0.7043  1.8302  1.1004
 9454SOL    HW239999   2.938   0.666   6.736 -3.0394 -1.7810 -1.8545
 9455SOL     OW40000   2.487   4.134  14.674  0.1524  0.1188  0.0212
 9455SOL    HW140001   2.461   4.211  14.623 -2.2126 -0.5856  0.1601
 9455SOL    HW240002   2.406   4.132  14.724 -0.8208 -0.1592 -1.5603
 9456SOL     OW40003   1.344   3.509   5.770 -0.0592 -0.3327 -0.1211
 9456SOL    HW140004   1.251   3.495   5.752  0.1269 -1.0050 -0.5966
 9456SOL    HW240005   1.384   3.423   5.785 -1.7467 -1.1124 -0.0592
 9457SOL     OW40006   2.435   2.850  16.438  0.4712  0.3538 -0.2795
 9457SOL    HW140007   2.396   2.768  16.408  1.7631  0.2279 -1.6352
 9457SOL    HW240008   2.521   2.819  16.466  1.1618 -0.3460 -3.1667
 9458SOL     OW40009   2.189   1.442  14.551 -0.5861 -0.0367 -0.1892
 9458SOL    HW140010   2.243   1.413  14.477  0.1033  1.3593 -0.2435
 9458SOL    HW240011   2.248   1.472  14.620 -3.6869  1.1749  1.9164
 9459SOL     OW40012   0.909   4.157   0.759  0.3282 -0.1644  0.5120
 9459SOL    HW140013   0.956   4.082   0.796  1.4467  1.1331  1.7502
 9459SOL    HW240014   0.852   4.117   0.694  1.1775 -0.6251  0.0649
 9460SOL     OW40015   1.166   2.721   8.108  0.0401 -0.2894 -0.4452
 9460SOL    HW140016   1.116   2.658   8.160 -0.5777  0.7650  0.2484
 9460SOL    HW240017   1.109   2.798   8.119  0.1831 -0.5276  1.9833
 9461SOL     OW40018   3.273   0.313   8.106 -0.1757  0.4430 -0.4976
 9461SOL    HW140019   3.209   0.373   8.068 -1.0926  1.6599  3.0406
 9461SOL    HW240020   3.351   0.368   8.096  1.5237 -1.6116  1.4997
 9462SOL     OW40021   2.671   1.398   3.625  0.3942 -0.1408 -0.1525
 9462SOL    HW140022   2.753   1.382   3.577 -0.3995 -0.6836 -1.3120
 9462SOL    HW240023   2.665   1.332   3.694  0.3482  0.6425  0.5850
 9463SOL     OW40024   0.673   0.977   6.201 -0.3740  0.2491  0.3731
 9463SOL    HW140025   0.767   0.977   6.221 -0.2607  0.0075 -0.1654
 9463SOL    HW240026   0.657   1.042   6.270 -2.0994  0.5028 -0.2790
 9464SOL     OW40027   4.631   4.509   4.489 -0.5022 -0.7432 -0.1599
 9464SOL    HW140028   4.556   4.534   4.434  0.1825  3.0394  0.5980
 9464SOL    HW240029   4.651   4.423   4.454 -0.2436 -1.0089  0.6446
 9465SOL     OW40030   0.779   1.421  14.086 -0.5315  0.7714 -0.0663
 9465SOL    HW140031   0.693   1.393  14.054  0.2140  0.3977 -1.7187
 9465SOL    HW240032   0.744   1.487  14.146  1.0675  1.7135 -0.1793
 9466SOL     OW40033   2.445   3.340   2.533 -0.3413  0.8148  0.7634
 9466SOL    HW140034   2.385   3.388   2.475 -2.1504 -0.1577  1.8162
 9466SOL    HW240035   2.525   3.346   2.481 -1.0953 -0.5028 -0.5574
 9467SOL     OW40036   0.403   1.950  14.498 -0.6450  1.0023 -0.1408
 9467SOL    HW140037   0.391   1.908  14.584 -1.6815 -0.4786 -1.0114
 9467SOL    HW240038   0.495   1.973  14.513  0.5693 -2.8768 -1.8509
 9468SOL     OW40039   1.521   1.639  15.056 -0.0361  0.2362 -0.1889
 9468SOL    HW140040   1.525   1.545  15.038 -2.7227 -0.3627  2.2970
 9468SOL    HW240041   1.601   1.672  15.016  0.2812 -1.6832 -1.1495
 9469SOL     OW40042   0.014   0.046   2.809  0.2831 -0.0481  0.4833
 9469SOL    HW140043   4.695   4.709   2.777  1.5164 -1.4846  1.5826
 9469SOL    HW240044   4.696   0.119   2.777  1.0616 -0.7175 -2.3465
 9470SOL     OW40045   1.100   0.590  14.832 -0.3326  0.6707 -0.2194
 9470SOL    HW140046   1.194   0.571  14.830 -0.1466  1.2070  3.4346
 9470SOL    HW240047   1.100   0.660  14.767  0.0890 -0.9537 -1.9688
 9471SOL     OW40048   0.062   1.776  13.391 -0.1444 -0.4006  0.2563
 9471SOL    HW140049   0.051   1.790  13.485  1.5250 -2.4977  0.7684
 9471SOL    HW240050   0.024   1.858  13.359  1.9109  0.5259  0.1977
 9472SOL     OW40051   3.513   1.280   6.716  0.0765  0.4329  0.1716
 9472SOL    HW140052   3.591   1.332   6.737  0.8615  0.2279 -2.2035
 9472SOL    HW240053   3.451   1.325   6.773  0.4888  2.5437 -1.0434
 9473SOL     OW40054   0.836   0.726   6.691 -0.1483  0.3643  0.1686
 9473SOL    HW140055   0.836   0.649   6.747 -2.6388  2.2729  2.8415
 9473SOL    HW240056   0.884   0.695   6.614  1.1508  0.6155  0.8776
 9474SOL     OW40057   3.974   3.423   5.426  0.2938  0.4986 -0.3173
 9474SOL    HW140058   4.001   3.351   5.369  3.0081  1.7241 -0.5871
 9474SOL    HW240059   4.017   3.397   5.508 -0.4406 -0.8902 -0.3793
 9475SOL     OW40060   2.242   1.109  14.864  0.6949 -0.1621  0.2013
 9475SOL    HW140061   2.234   1.110  14.769  1.0896  0.1625  0.1702
 9475SOL    HW240062   2.162   1.155  14.887  0.0967 -1.9975  1.8396
 9476SOL     OW40063   1.609   0.224   6.119  0.2567 -0.3839  0.1407
 9476SOL    HW140064   1.601   0.319   6.107  0.4482 -0.3533  0.2596
 9476SOL    HW240065   1.517   0.196   6.114 -0.3124  1.9727 -2.6362
 9477SOL     OW40066   0.488   0.530   4.363  0.5631 -0.5157  0.1336
 9477SOL    HW140067   0.525   0.553   4.278 -3.0093 -2.8908 -2.0941
 9477SOL    HW240068   0.397   0.514   4.337 -0.0165  0.7712  1.3348
 9478SOL     OW40069   3.543   2.076   4.903  0.0434  0.0007 -0.4406
 9478SOL    HW140070   3.542   2.135   4.978  3.9688 -2.0753  1.2332
 9478SOL    HW240071   3.619   2.022   4.926  1.5945  0.9895 -3.2226
 9479SOL     OW40072   1.344   2.248  10.187 -0.0855  0.0233 -0.2458
 9479SOL    HW140073   1.353   2.221  10.095 -1.0956  0.6810 -0.5394
 9479SOL    HW240074   1.266   2.302  10.176  1.0746  1.2278 -2.6812
 9480SOL     OW40075   0.779   2.965   8.692 -0.3029 -0.1803 -0.2658
 9480SOL    HW140076   0.808   3.056   8.687  1.8236 -0.7827  0.9910
 9480SOL    HW240077   0.859   2.914   8.705 -1.5161 -1.7582  0.9629
 9481SOL     OW40078   2.550   1.742   8.678 -0.2329 -0.5692  0.0631
 9481SOL    HW140079   2.638   1.743   8.640 -0.1952 -0.9001  0.1482
 9481SOL    HW240080   2.543   1.830   8.716  0.1574  0.4120 -2.1668
 9482SOL     OW40081   0.858   3.052   9.331  0.5401 -0.0491 -0.2655
 9482SOL    HW140082   0.849   3.015   9.419 -1.2864 -1.1506 -0.9075
 9482SOL    HW240083   0.942   3.097   9.337 -0.9716  3.2182 -3.1533
 9483SOL     OW40084   0.418   1.583   9.883 -0.3745 -0.1504  0.3342
 9483SOL    HW140085   0.339   1.531   9.898  1.3271 -3.1255 -1.1925
 9483SOL    HW240086   0.392   1.666   9.923  0.7771  0.2155  0.2979
 9484SOL     OW40087   1.130   4.692  15.033 -0.1836 -0.0371 -0.2625
 9484SOL    HW140088   1.219   4.689  14.996  1.3031 -1.0564  3.3855
 9484SOL    HW240089   1.077   4.723  14.959 -0.9447 -2.7676 -0.8663
 9485SOL     OW40090   4.473   0.217  11.117 -0.2983  0.6753  0.0033
 9485SOL    HW140091   4.482   0.129  11.080  1.5574  1.1793 -0.7714
 9485SOL    HW240092   4.402   0.192  11.176  0.2434  0.9935  0.8111
 9486SOL     OW40093   2.919   2.914   1.525  0.3111  0.2379  0.9734
 9486SOL    HW140094   3.001   2.891   1.481 -0.8726 -1.0552 -0.5298
 9486SOL    HW240095   2.942   2.897   1.617  0.5841  0.9472  1.0433
 9487SOL     OW40096   3.305   2.211  14.482  0.8177  0.5430 -0.1363
 9487SOL    HW140097   3.365   2.187  14.552 -0.5300 -3.7339 -0.4201
 9487SOL    HW240098   3.229   2.219  14.541 -0.6573  1.0275 -2.1070
 9488SOL     OW40099   4.720   3.390  17.061 -0.5957 -0.4380 -0.2104
 9488SOL    HW140100   0.062   3.356  17.106 -1.4405 -0.1184  1.4843
 9488SOL    HW240101   4.707   3.477  17.099  0.9754  0.0240 -0.7215
 9489SOL     OW40102   3.965   1.712   8.713  0.1753  0.0389  0.8102
 9489SOL    HW140103   3.976   1.802   8.745 -0.9424  0.4328  0.0782
 9489SOL    HW240104   4.001   1.722   8.625 -0.1279 -1.2164  0.5570
 9490SOL     OW40105   3.549   1.273   5.054  0.4695  0.0917  0.1245
 9490SOL    HW140106   3.599   1.352   5.072  1.6781 -0.4313 -0.9334
 9490SOL    HW240107   3.588   1.238   4.974 -1.9892 -1.0652 -0.5782
 9491SOL     OW40108   1.274   2.701  10.070 -0.3427  0.2194  0.2347
 9491SOL    HW140109   1.290   2.637  10.140 -0.2925  0.0283  0.0472
 9491SOL    HW240110   1.363   2.705  10.038 -1.2361 -0.9494 -2.3667
 9492SOL     OW40111   0.682   4.033   5.992 -0.4474  0.2303 -0.2935
 9492SOL    HW140112   0.745   3.991   5.933 -1.5487 -0.5740 -0.8753
 9492SOL    HW240113   0.620   3.961   6.000 -1.7541  1.4603  0.5665
 9493SOL     OW40114   3.895   3.550  16.166  0.6853  0.5461  0.1088
 9493SOL    HW140115   3.831   3.508  16.224  1.8140 -2.5685 -0.9100
 9493SOL    HW240116   3.868   3.641  16.182  1.0024  0.6394  0.1048
 9494SOL     OW40117   0.116   3.632  10.991 -0.6374  0.1147 -0.7823
 9494SOL    HW140118   0.155   3.544  10.983  2.2288  1.5273 -2.2811
 9494SOL    HW240119   0.178   3.676  10.932  1.7625  0.0687  1.7003
 9495SOL     OW40120   2.789   3.908  14.629 -0.5063 -0.4113  0.1297
 9495SOL    HW140121   2.882   3.927  14.620 -0.5998 -0.8056 -1.6507
 9495SOL    HW240122   2.793   3.897  14.724 -3.8698  3.2849  0.6887
 9496SOL     OW40123   3.746   0.062   4.921 -0.2722  0.2428 -0.2512
 9496SOL    HW140124   3.771   0.143   4.876 -2.4978 -0.0562 -2.0512
 9496SOL    HW240125   3.707   0.012   4.849 -0.1024 -1.5888  0.9499
 9497SOL     OW40126   1.118   0.986   3.477  0.4613 -0.2991 -0.0483
 9497SOL    HW140127   1.023   0.986   3.490  0.3337  1.2151 -0.9309
 9497SOL    HW240128   1.149   1.063   3.524 -0.2108  0.8222 -1.4546
 9498SOL     OW40129   4.406   2.048   3.246 -0.2645 -0.4133 -0.2912
 9498SOL    HW140130   4.425   2.123   3.302  0.9091  1.4317 -3.1644
 9498SOL    HW240131   4.330   2.008   3.289  0.1777 -0.5793  0.3335
 9499SOL     OW40132   3.326   1.613   5.652  0.0299 -0.1899  0.1241
 9499SOL    HW140133   3.390   1.610   5.581 -0.2684 -1.0840 -0.1038
 9499SOL    HW240134   3.376   1.681   5.698 -0.2713  0.4338 -0.4754
 9500SOL     OW40135   1.941   2.744   6.509 -0.1218 -0.7041 -0.0232
 9500SOL    HW140136   1.852   2.710   6.513  0.0279 -1.1141 -0.1928
 9500SOL    HW240137   1.934   2.828   6.553  1.9883  0.1418 -1.3077
 9501SOL     OW40138   4.048   0.078   5.918 -0.0129 -0.3985 -0.1930
 9501SOL    HW140139   4.124   0.074   5.977  0.2604  2.6772 -0.3599
 9501SOL    HW240140   4.096   0.047   5.841 -0.8082 -3.7417  0.6470
 9502SOL     OW40141   3.740   0.033   2.190 -0.0201 -0.3061 -0.2370
 9502SOL    HW140142   3.730   0.096   2.118  0.1268 -0.3686 -0.3121
 9502SOL    HW240143   3.656   4.723   2.185 -0.6834  0.6736  1.8009
 9503SOL     OW40144   0.853   0.179  14.187 -0.2427 -0.1118 -0.2562
 9503SOL    HW140145   0.853   0.236  14.111  0.8037  1.0794  0.6466
 9503SOL    HW240146   0.947   0.165  14.201 -0.6566 -1.8390  0.8270
 9504SOL     OW40147   0.398   1.599  12.304 -0.3502 -0.4171  0.1088
 9504SOL    HW140148   0.360   1.540  12.370 -0.4963  1.0866  1.3604
 9504SOL    HW240149   0.492   1.594  12.321  0.0720 -0.5506 -2.3259
 9505SOL     OW40150   1.321   2.941   1.744 -0.2660  0.5125 -0.2284
 9505SOL    HW140151   1.366   2.862   1.776 -1.9910  0.2924  1.6390
 9505SOL    HW240152   1.302   2.971   1.832  0.0303 -0.2908  0.1153
 9506SOL     OW40153   1.203   4.593  15.675  0.2337  0.7786 -0.0112
 9506SOL    HW140154   1.237   4.633  15.755  2.1156 -2.0973  0.6306
 9506SOL    HW240155   1.183   4.670  15.623 -1.5152  1.3781  1.5686
 9507SOL     OW40156   2.351   1.165   2.010  0.2419  0.5793  0.0793
 9507SOL    HW140157   2.274   1.115   2.036  1.2154 -0.3839  1.0658
 9507SOL    HW240158   2.405   1.090   1.985 -1.5381 -0.2636 -1.1996
 9508SOL     OW40159   4.587   3.308  13.720 -0.1521 -0.5292  0.1007
 9508SOL    HW140160   4.651   3.267  13.779 -0.8439  0.2315  1.3827
 9508SOL    HW240161   4.616   3.397  13.738  0.1610 -0.7871  0.8985
 9509SOL     OW40162   2.312   3.745  17.042  0.5769 -0.5074  0.4138
 9509SOL    HW140163   2.366   3.691  16.984 -0.8154 -2.5841  1.0738
 9509SOL    HW240164   2.221   3.734  17.015  1.2077 -0.1516 -1.8743
 9510SOL     OW40165   2.507   4.373  11.204  0.2664 -0.2044  0.4198
 9510SOL    HW140166   2.509   4.426  11.283 -0.9156 -1.0308  1.0044
 9510SOL    HW240167   2.559   4.296  11.224  0.8471  0.7582  2.5257
 9511SOL     OW40168   0.139   4.076  16.747  0.3476 -0.5494  0.3514
 9511SOL    HW140169   0.088   3.998  16.767  1.8996 -1.7494 -0.3861
 9511SOL    HW240170   0.204   4.029  16.695  0.2063  1.2894 -1.4750
 9512SOL     OW40171   0.777   0.265   4.886 -0.4896 -0.1985 -0.0125
 9512SOL    HW140172   0.719   0.197   4.922  1.3163 -0.2638  2.7723
 9512SOL    HW240173   0.780   0.339   4.945  1.3697  0.7133 -1.2493
 9513SOL     OW40174   1.556   0.924   4.524  0.3040  0.2284 -0.6503
 9513SOL    HW140175   1.639   0.879   4.515  0.3458  0.6040 -2.1669
 9513SOL    HW240176   1.498   0.851   4.546  0.9523 -0.2092 -0.4230
 9514SOL     OW40177   4.590   0.510   7.021 -0.6857  0.1336 -0.2735
 9514SOL    HW140178   4.647   0.553   7.084 -0.6410  1.4270 -1.1867
 9514SOL    HW240179   4.582   0.582   6.957 -2.1361  0.3320  0.1242
 9515SOL     OW40180   3.212   1.992   5.363  0.1272  0.9289  0.3456
 9515SOL    HW140181   3.143   2.036   5.411 -1.0496 -0.3114 -0.2239
 9515SOL    HW240182   3.216   2.054   5.290 -1.3995 -0.0589 -0.5759
 9516SOL     OW40183   3.427   4.612   2.688  0.2516 -0.3691 -0.5513
 9516SOL    HW140184   3.342   4.572   2.674 -0.2939  0.5387  0.1645
 9516SOL    HW240185   3.480   4.577   2.616 -0.9292 -2.5305 -0.3769
 9517SOL     OW40186   4.516   0.254   2.452 -0.4266 -0.8269 -0.5591
 9517SOL    HW140187   4.497   0.163   2.474 -0.5958 -0.4984  0.6586
 9517SOL    HW240188   4.537   0.255   2.359 -0.7646 -2.1018 -0.6456
 9518SOL     OW40189   3.259   4.585   2.386  0.4221  0.4897  0.1229
 9518SOL    HW140190   3.239   4.558   2.475 -0.0869  2.3077  0.5632
 9518SOL    HW240191   3.182   4.628   2.349  0.0247 -1.3482 -1.1651
 9519SOL     OW40192   0.536   2.117   3.492  0.2373  0.9165 -0.4471
 9519SOL    HW140193   0.613   2.100   3.439 -0.9542 -0.9761 -1.5333
 9519SOL    HW240194   0.533   2.212   3.507 -1.3483  0.7900  0.0461
 9520SOL     OW40195   2.911   1.869   2.958 -0.1564 -0.5649  0.6328
 9520SOL    HW140196   2.930   1.886   2.866  0.3239 -1.2563  0.6000
 9520SOL    HW240197   2.819   1.845   2.945  0.2385 -1.1168 -1.2303
 9521SOL     OW40198   2.068   4.007  14.827 -0.3279  0.3215 -0.7090
 9521SOL    HW140199   2.005   3.936  14.815 -1.0086  0.8121 -0.0798
 9521SOL    HW240200   2.056   4.030  14.920 -0.5728 -0.5081 -0.5376
 9522SOL     OW40201   3.299   0.620   8.787 -0.0904  0.1526 -0.0901
 9522SOL    HW140202   3.263   0.694   8.836  1.2376  0.4654  0.4020
 9522SOL    HW240203   3.375   0.595   8.839 -0.9491 -1.9964  0.1123
 9523SOL     OW40204   4.425   0.225  15.587 -0.0601  0.0831 -0.4449
 9523SOL    HW140205   4.461   0.137  15.603  1.0539  0.3174 -1.6847
 9523SOL    HW240206   4.411   0.208  15.494 -0.8032  1.4507 -0.5731
 9524SOL     OW40207   3.066   4.160   4.895  0.4469 -0.4935  0.3346
 9524SOL    HW140208   3.040   4.249   4.871  1.9420  0.3342  1.6785
 9524SOL    HW240209   3.061   4.164   4.991 -1.1541  2.2937  0.1222
 9525SOL     OW40210   0.994   4.046  11.327 -0.3811 -0.5669  0.0806
 9525SOL    HW140211   0.953   3.983  11.268  1.3838 -0.7095 -1.0165
 9525SOL    HW240212   1.073   3.997  11.353  1.2494  0.3364 -3.1141
 9526SOL     OW40213   3.089   4.106   4.155 -0.2804 -0.1999  0.5975
 9526SOL    HW140214   3.087   4.084   4.249 -0.2016 -1.4430  0.3145
 9526SOL    HW240215   3.002   4.073   4.130 -0.2160 -1.0801  1.5306
 9527SOL     OW40216   1.877   3.915   8.150  0.1286  0.2302 -0.7271
 9527SOL    HW140217   1.793   3.883   8.116 -1.9054  3.3239  1.4036
 9527SOL    HW240218   1.845   3.944   8.236  0.8786  0.6085 -0.5821
 9528SOL     OW40219   1.093   3.600   1.916  0.4405 -0.0998 -0.6911
 9528SOL    HW140220   0.999   3.615   1.921 -0.0035 -3.6225  1.6795
 9528SOL    HW240221   1.099   3.511   1.882  0.2849  0.0591 -1.1314
 9529SOL     OW40222   1.252   3.473  11.255  0.0999  0.7731 -0.6620
 9529SOL    HW140223   1.277   3.551  11.206 -1.8181  0.9777 -1.3267
 9529SOL    HW240224   1.229   3.512  11.339 -0.2578  0.5877 -0.6745
 9530SOL     OW40225   2.785   4.667   5.115 -0.4534 -0.3980 -0.3721
 9530SOL    HW140226   2.758   4.621   5.194 -2.1188  1.3361  0.0650
 9530SOL    HW240227   2.866   4.705   5.150 -0.4819  0.1288 -0.8749
 9531SOL     OW40228   1.254   1.101   4.444  0.2162  0.7417  0.1574
 9531SOL    HW140229   1.220   1.053   4.368 -0.7752  1.3748  0.2005
 9531SOL    HW240230   1.254   1.030   4.508  2.5307 -0.6957 -1.4387
 9532SOL     OW40231   1.760   4.279   1.419  0.2465  0.2451  0.2538
 9532SOL    HW140232   1.760   4.208   1.483  1.8251 -0.2452 -0.3020
 9532SOL    HW240233   1.720   4.240   1.342  1.3835  0.8974 -0.6617
 9533SOL     OW40234   4.469   0.624   0.385 -0.1539  0.1429 -0.0084
 9533SOL    HW140235   4.463   0.640   0.291  1.9797  1.4222  0.0505
 9533SOL    HW240236   4.562   0.649   0.389  0.1134 -0.6330 -1.4743
 9534SOL     OW40237   0.741   2.001   2.308 -0.3981  0.1868 -0.1383
 9534SOL    HW140238   0.779   2.037   2.388 -0.7965 -0.6404  0.4199
 9534SOL    HW240239   0.657   2.048   2.308 -0.2259  0.4991  1.2719
 9535SOL     OW40240   2.650   4.129   3.817 -0.3266 -1.0350 -0.3264
 9535SOL    HW140241   2.588   4.099   3.750 -1.6736  0.8193  0.1001
 9535SOL    HW240242   2.678   4.045   3.853 -1.6555 -1.2101  0.2813
 9536SOL     OW40243   3.275   1.747  11.684  0.5288  0.1262  0.0760
 9536SOL    HW140244   3.354   1.693  11.686  0.4852  0.0700  0.3456
 9536SOL    HW240245   3.305   1.835  11.706  1.6037 -0.1226 -0.4174
 9537SOL     OW40246   2.654   2.369  17.395  0.4282  0.1651  0.5641
 9537SOL    HW140247   2.699   2.368  17.311 -0.3559  2.0451  0.1117
 9537SOL    HW240248   2.580   2.423  17.366 -2.1356 -2.5244  2.0454
 9538SOL     OW40249   1.450   0.900   0.124 -0.6942 -0.4061  0.1326
 9538SOL    HW140250   1.427   0.986   0.160  0.7024 -0.0089  0.0941
 9538SOL    HW240251   1.367   0.853   0.116 -1.6636  1.4779 -0.7265
 9539SOL     OW40252   2.828   0.659  11.057  0.1837 -0.3174 -0.1946
 9539SOL    HW140253   2.767   0.592  11.090 -0.0732 -1.3626 -2.7974
 9539SOL    HW240254   2.904   0.641  11.112 -0.4309 -2.1278  0.0678
 9540SOL     OW40255   0.717   0.892   3.373  0.2816  0.1617  0.2371
 9540SOL    HW140256   0.710   0.820   3.437  0.5046 -0.4743 -0.4505
 9540SOL    HW240257   0.788   0.946   3.407  0.8805  0.0037 -0.7923
 9541SOL     OW40258   3.896   3.904  12.333 -0.5319 -0.0369  0.1820
 9541SOL    HW140259   3.840   3.885  12.258  1.0760 -0.3598 -0.9388
 9541SOL    HW240260   3.977   3.912  12.283 -0.6965 -1.4155 -0.3059
 9542SOL     OW40261   0.877   4.283  14.246 -0.0793 -0.4494  0.0147
 9542SOL    HW140262   0.948   4.231  14.208  0.0290 -1.3736  1.4734
 9542SOL    HW240263   0.910   4.329  14.323  0.9702 -0.6585 -0.3154
 9543SOL     OW40264   2.905   0.967   7.808 -0.0081 -0.3658 -0.0240
 9543SOL    HW140265   2.871   1.052   7.782  0.0501 -0.2265  0.3566
 9543SOL    HW240266   2.866   0.956   7.894 -0.0967 -0.3597 -0.0629
 9544SOL     OW40267   1.600   0.363   5.341  0.4993 -0.0112 -0.0935
 9544SOL    HW140268   1.524   0.304   5.344 -0.3774  1.2965  3.1726
 9544SOL    HW240269   1.663   0.312   5.291  0.1655 -0.3306 -0.1920
 9545SOL     OW40270   1.662   1.493   4.154  0.2656 -0.6479 -0.0182
 9545SOL    HW140271   1.607   1.524   4.082  0.4303 -1.8037 -0.6528
 9545SOL    HW240272   1.665   1.561   4.220  1.4919 -1.0966  0.3959
 9546SOL     OW40273   0.230   2.690   5.417  0.3488  0.0785 -0.4032
 9546SOL    HW140274   0.243   2.740   5.337 -0.2065  0.2623 -0.3787
 9546SOL    HW240275   0.141   2.718   5.441 -0.7875 -2.1252 -2.0338
 9547SOL     OW40276   2.703   2.828   2.305 -0.8311 -0.1435  0.4277
 9547SOL    HW140277   2.758   2.795   2.234 -1.2592 -1.4778  0.7203
 9547SOL    HW240278   2.721   2.921   2.297  0.7463 -0.5926 -1.0402
 9548SOL     OW40279   0.228   2.812   7.423 -0.3310  0.3892  0.8912
 9548SOL    HW140280   0.315   2.810   7.463  0.9322 -2.1547 -2.0446
 9548SOL    HW240281   0.254   2.808   7.331 -0.5911  1.4916  0.7727
 9549SOL     OW40282   3.380   0.490   6.896 -0.4172  0.9461 -0.3664
 9549SOL    HW140283   3.287   0.477   6.914  0.1552  1.0320  2.5795
 9549SOL    HW240284   3.422   0.417   6.940  0.7929  1.0618 -1.3263
 9550SOL     OW40285   0.122   0.994  10.400  0.2879 -0.5217  0.4010
 9550SOL    HW140286   0.148   1.032  10.316 -2.3269  1.0135  0.2859
 9550SOL    HW240287   0.154   0.907  10.376  1.6543  0.2439 -0.5494
 9551SOL     OW40288   1.844   1.735   1.872 -0.3216 -0.2019 -0.3775
 9551SOL    HW140289   1.807   1.747   1.784 -0.4932 -0.6976 -0.3705
 9551SOL    HW240290   1.850   1.824   1.906 -1.0711 -1.0758  2.0386
 9552SOL     OW40291   4.036   3.205   4.774 -0.1694  0.1502  0.0659
 9552SOL    HW140292   4.091   3.144   4.822  0.0421  1.5765  1.6492
 9552SOL    HW240293   3.996   3.258   4.844  2.0856  2.9549 -0.7694
 9553SOL     OW40294   1.999   0.883  14.454 -0.4584  0.2538  0.6291
 9553SOL    HW140295   1.921   0.829  14.444 -0.3415  0.3551 -0.8956
 9553SOL    HW240296   1.971   0.967  14.491  0.6515  0.2871  1.3994
 9554SOL     OW40297   0.794   0.268   0.449  0.3489 -0.2166 -0.3194
 9554SOL    HW140298   0.774   0.292   0.359  1.9794  2.3050 -0.0108
 9554SOL    HW240299   0.842   0.346   0.477 -1.0583  0.4326  0.2830
 9555SOL     OW40300   0.288   4.194   3.221  0.0011  0.2303 -0.6500
 9555SOL    HW140301   0.263   4.119   3.167  1.5947 -1.5878  1.1236
 9555SOL    HW240302   0.381   4.181   3.242 -0.4583  1.4915  2.2026
 9556SOL     OW40303   0.018   0.466  16.150  0.3531 -0.1522  0.3461
 9556SOL    HW140304   4.681   0.405  16.169 -0.6406  1.4210  1.6305
 9556SOL    HW240305   4.710   0.518  16.082 -1.3602 -1.3696  0.4905
 9557SOL     OW40306   1.431   1.157  13.761  0.4948  0.2933 -0.3389
 9557SOL    HW140307   1.385   1.086  13.715 -2.4774  1.1300  1.3020
 9557SOL    HW240308   1.506   1.168  13.704  1.4919 -0.6600  0.7716
 9558SOL     OW40309   0.864   4.481   3.310 -0.0014  0.1773 -0.1253
 9558SOL    HW140310   0.826   4.398   3.339  0.0365  0.4598  0.7305
 9558SOL    HW240311   0.939   4.488   3.368  0.2406 -1.7134 -0.2109
 9559SOL     OW40312   3.250   1.907   2.694  0.2414  0.1312  0.0550
 9559SOL    HW140313   3.185   1.838   2.704  0.7944 -0.2814  0.8591
 9559SOL    HW240314   3.233   1.948   2.609 -0.7001  0.6639  0.5012
 9560SOL     OW40315   1.544   2.184  10.959 -0.2043  0.7214 -0.3201
 9560SOL    HW140316   1.625   2.235  10.948  0.3796 -0.2318 -0.4872
 9560SOL    HW240317   1.486   2.236  10.905 -1.1203 -0.8689 -0.8619
 9561SOL     OW40318   0.903   1.064   6.357 -0.0792  0.0012 -0.5581
 9561SOL    HW140319   0.941   1.066   6.444 -1.0568  0.5168 -0.1387
 9561SOL    HW240320   0.985   1.061   6.308  0.3112  1.4438  0.0120
 9562SOL     OW40321   1.633   2.305   6.328 -0.0686  0.2656 -0.6093
 9562SOL    HW140322   1.574   2.302   6.253 -1.0278 -1.1568  0.1947
 9562SOL    HW240323   1.575   2.271   6.396  1.7379  3.9751  2.7307
 9563SOL     OW40324   3.997   0.950  12.715  0.1227  0.0147  0.3463
 9563SOL    HW140325   4.084   0.913  12.732 -0.2233 -0.4181  1.1635
 9563SOL    HW240326   4.025   1.040  12.700 -0.3862 -0.1295 -1.3757
 9564SOL     OW40327   4.571   3.470   8.018 -0.0183  0.2071  0.3281
 9564SOL    HW140328   4.593   3.387   8.060  2.0018  1.0626  0.9485
 9564SOL    HW240329   4.479   3.447   8.007 -0.5874  1.7117  1.9199
 9565SOL     OW40330   3.647   0.837  14.335  0.2447 -0.4467 -0.0893
 9565SOL    HW140331   3.717   0.805  14.279  0.1898  1.0278 -1.0109
 9565SOL    HW240332   3.573   0.814  14.279  1.0160 -1.0818 -0.8368
 9566SOL     OW40333   4.226   2.608  16.152 -0.4280 -0.6099  0.4074
 9566SOL    HW140334   4.301   2.614  16.092  0.2630  0.7239  1.3863
 9566SOL    HW240335   4.277   2.598  16.233 -0.3395  1.3356  0.5887
 9567SOL     OW40336   1.873   2.549   6.002 -0.4545  0.3120  0.1784
 9567SOL    HW140337   1.860   2.538   6.097 -0.7343  0.4997  0.1583
 9567SOL    HW240338   1.824   2.627   5.977  0.1756  0.5426 -0.3246
 9568SOL     OW40339   3.140   1.579   7.794  0.1716 -0.4455 -0.8448
 9568SOL    HW140340   3.192   1.572   7.714  0.6993 -1.2072 -0.4405
 9568SOL    HW240341   3.180   1.653   7.839 -1.8879  0.6780 -0.8461
 9569SOL     OW40342   2.551   3.913   2.751 -0.1324 -0.2687 -0.6693
 9569SOL    HW140343   2.528   3.968   2.826 -0.8443 -2.7380  0.9463
 9569SOL    HW240344   2.643   3.927   2.730 -0.0195 -1.0829 -0.7400
   4.73500   4.73500  17.73884
