Membrane in water
40344
    1TMC1    C1    1   4.604   1.533  11.581 -0.8119  0.2664 -0.0613
    1TMC1    C2    2   4.509   1.610  11.519 -0.8787 -0.2185  0.0182
    1TMC1    C3    3   4.406   1.551  11.454  0.0718 -0.3550 -0.5845
    1TMC1    C4    4   4.606   1.400  11.574  0.0651 -0.0505  0.2034
    1TMC1    C5    5   4.500   1.347  11.498 -0.7896  0.0290  0.5709
    1TMC1    C6    6   4.399   1.416  11.438 -0.3453 -0.1840  0.1508
    1TMC1     C    7   4.701   1.594  11.672 -0.7780  0.5816 -0.1808
    1TMC1     O    8   4.673   1.706  11.707  0.6094 -0.2584 -0.1019
    1TMC1     H    9   4.516   1.718  11.528  2.5142 -0.6110  2.0061
    1TMC1    H1   10   4.678   1.330  11.614 -0.8584 -1.0897  0.0467
    1TMC1    H2   11   4.325   1.366  11.377 -0.4538  1.2267 -0.8716
    1TMC1    C7   12   4.471   1.207  11.533 -0.5036 -0.2916 -0.4214
    1TMC1    C8   13   4.331   1.639  11.368  0.5023 -0.0455 -0.0259
    1TMC1    O1   14   4.360   1.160  11.515  0.0094 -0.2434 -0.3027
    1TMC1    O2   15   4.219   1.612  11.327 -0.0298  0.2223 -0.1078
    1TMC1    O3   16   4.580   1.139  11.488 -0.3542 -0.0629  0.1914
    1TMC1    H3   17   4.656   1.191  11.454 -1.5367 -0.5195 -3.1480
    1TMC1    O5   18   4.410   1.730  11.315 -0.3871  0.3065 -0.0302
    1TMC1    H5   19   4.505   1.711  11.330 -0.4773  0.3590  0.6071
    2MPD2     C   20   0.348   1.579  12.003 -0.8619 -1.4142 -0.4894
    2MPD2    C1   21   0.227   1.651  12.003 -0.7060  0.3039 -0.9230
    2MPD2    C2   22   0.149   1.643  11.889 -0.1546  0.8047 -0.2690
    2MPD2    C3   23   0.177   1.559  11.780  0.3664  0.0407  0.2752
    2MPD2    C4   24   0.300   1.498  11.782  0.3116  0.2617 -0.7276
    2MPD2    C5   25   0.387   1.508  11.891  0.0112 -0.0510  0.6826
    2MPD2     H   26   0.056   1.699  11.893 -1.0336 -0.4847 -2.4697
    2MPD2    H1   27   0.333   1.435  11.700  0.2070  1.7073 -1.8714
    2MPD2    H2   28   0.424   1.584  12.080  0.4253  1.1125 -1.9056
    2MPD2    H3   29   0.476   1.447  11.894  0.4475  0.6310  1.3240
    2MPD2     N   30   0.082   1.523  11.684  0.3488 -0.1115  0.0049
    2MPD2    H5   31   0.102   1.444  11.623 -2.5972 -0.5610 -0.3365
    2MPD2    N1   32   0.170   1.716  12.117 -0.1480  0.5707 -0.3816
    2MPD2    H7   33   0.068   1.711  12.122  0.0763 -2.3577  1.7871
    3TMC1    C1   34   3.962   2.582  11.078  0.1432  0.6408 -0.0843
    3TMC1    C2   35   4.041   2.648  10.983 -0.7655 -0.2217  0.0039
    3TMC1    C3   36   4.116   2.576  10.902 -0.0809 -0.7391  0.0574
    3TMC1    C4   37   3.967   2.451  11.101  0.3018  0.5012  0.1774
    3TMC1    C5   38   4.049   2.380  11.013 -0.4018 -0.2356  0.2132
    3TMC1    C6   39   4.122   2.439  10.916 -0.2289 -0.1518 -0.4040
    3TMC1     C   40   3.854   2.651  11.152 -0.0265 -0.2698 -0.4326
    3TMC1     O   41   3.792   2.586  11.230  0.3961 -0.0761 -0.2275
    3TMC1     H   42   4.038   2.756  10.982 -1.8723 -0.2736 -2.1358
    3TMC1    H1   43   3.897   2.408  11.171  0.6551 -0.7513 -0.2325
    3TMC1    H2   44   4.184   2.373  10.856  3.2698  0.6723  2.3210
    3TMC1    C7   45   4.080   2.239  11.029  0.8558 -0.3056 -0.5327
    3TMC1    C8   46   4.213   2.653  10.830 -0.3390 -0.1487 -0.4396
    3TMC1    O1   47   4.091   2.196  11.140 -0.3086 -0.3853 -0.2855
    3TMC1    O2   48   4.249   2.765  10.862 -0.8621 -0.9914  0.5292
    3TMC1    O3   49   3.997   2.185  10.937 -0.2321  0.3453  0.0864
    3TMC1    H3   50   3.985   2.241  10.858  1.3087  0.0854 -0.3151
    3TMC1    O5   51   4.293   2.570  10.762 -0.2577  0.4540  0.0663
    3TMC1    H5   52   4.268   2.477  10.741 -0.5846  0.2103  1.5426
    4MPD2     C   53   3.610   3.082  11.278  0.0031 -0.0646 -0.0488
    4MPD2    C1   54   3.719   3.118  11.195  1.0275  0.3775 -0.0290
    4MPD2    C2   55   3.794   3.015  11.148 -0.4388 -0.6154 -0.9173
    4MPD2    C3   56   3.764   2.877  11.170 -0.9208 -0.5113  0.5082
    4MPD2    C4   57   3.651   2.846  11.237 -0.2521 -0.7826  0.1715
    4MPD2    C5   58   3.578   2.951  11.294 -0.3113  0.7102 -0.0946
    4MPD2     H   59   3.874   3.039  11.078 -0.0017  0.8183  0.0730
    4MPD2    H1   60   3.620   2.743  11.254 -2.2876 -0.2123 -0.1382
    4MPD2    H2   61   3.551   3.158  11.328 -0.4676 -1.4729  1.5731
    4MPD2    H3   62   3.499   2.922  11.362  2.6652 -1.8074  2.3208
    4MPD2     N   63   3.852   2.783  11.116  0.0445  0.0420 -0.1926
    4MPD2    H5   64   3.926   2.814  11.055  1.2782  0.7903  1.6585
    4MPD2    N1   65   3.767   3.248  11.176  0.0661  0.2173 -0.3785
    4MPD2    H7   66   3.858   3.255  11.133  1.2252 -0.0548  2.0493
    5TCq1    O1   67   0.574   0.931  11.722 -0.1325  0.4030 -0.2826
    5TCq1    C1   68   0.513   1.051  11.757  1.0951  0.0591 -0.0165
    5TCq1    O2   69   0.557   1.152  11.808  0.1870  0.0695 -0.0399
    5TCq1    C2   70   0.384   1.043  11.691  0.6576 -0.0009  0.0584
    5TCq1    C3   71   0.332   1.151  11.634  0.8029  0.0563 -0.0299
    5TCq1    C4   72   0.226   1.134  11.558 -0.1322  0.1051 -0.5562
    5TCq1    C5   73   0.164   1.011  11.547 -0.3649 -0.3318  0.2943
    5TCq1    C6   74   0.209   0.911  11.626 -0.3597 -0.4996  0.3777
    5TCq1    C7   75   0.321   0.924  11.702  0.0676  0.2249 -0.6414
    5TCq1    C8   76   0.200   0.776  11.578  0.4008 -0.3797 -0.1147
    5TCq1    O4   77   0.219   0.691  11.662  0.3039 -0.0060  0.1761
    5TCq1    C9   78   0.180   1.245  11.475  0.5567  0.2371 -0.1632
    5TCq1    O5   79   0.080   1.228  11.403  0.3996  0.5316 -0.5964
    5TCq1    O6   80   0.215   1.357  11.517 -0.2019 -0.0890  0.7297
    5TCq1    H1   81   0.539   0.891  11.640 -1.9097 -0.2482  0.8021
    5TCq1    H2   82   0.382   1.247  11.626 -0.2003  0.7662  2.3320
    5TCq1    H3   83   0.076   0.999  11.485 -0.3241 -0.9957  0.3711
    5TCq1    H4   84   0.361   0.841  11.758  0.5438  0.3090 -0.8546
    6MPD2     C   85   0.093   0.668  11.243 -0.0339  0.4599 -0.2382
    6MPD2    C1   86   0.139   0.650  11.374 -0.1399 -0.3263  0.5476
    6MPD2    C2   87   0.153   0.522  11.424  0.2285 -0.1936 -0.0049
    6MPD2    C3   88   0.105   0.418  11.350  0.1010 -0.1595 -0.5515
    6MPD2    C4   89   0.064   0.447  11.221  0.6045  0.3534  0.2892
    6MPD2    C5   90   0.072   0.564  11.159 -0.1302 -0.0354  0.3926
    6MPD2     H   91   0.187   0.509  11.526 -1.2517  0.7356  0.6018
    6MPD2    H1   92   0.024   0.379  11.147 -1.0612 -0.4567  1.9201
    6MPD2    H2   93   0.070   0.766  11.204  0.9829  1.1545  0.9178
    6MPD2    H3   94   0.039   0.586  11.058  0.7216  0.0933  0.1430
    6MPD2     N   95   0.118   0.282  11.399  0.1366  0.3160 -0.0998
    6MPD2    H5   96   0.153   0.273  11.494 -1.6762 -0.3498  0.5007
    6MPD2    N1   97   0.170   0.769  11.445  0.9097  0.1281 -0.7521
    6MPD2    H7   98   0.167   0.856  11.393  0.4159 -1.3139 -3.1039
    7TCq1    O1   99   2.541   4.711  13.925 -0.0171  0.6308  0.6897
    7TCq1    C1  100   2.606   0.068  13.855 -0.3629  0.2016 -0.7791
    7TCq1    O2  101   2.648   0.174  13.906 -0.2429  0.4698 -0.5393
    7TCq1    C2  102   2.663   0.007  13.735 -0.2207  1.0885  0.4383
    7TCq1    C3  103   2.709   0.094  13.643 -0.2376 -0.2186 -0.2647
    7TCq1    C4  104   2.779   0.055  13.534  0.2015 -0.0264 -1.0572
    7TCq1    C5  105   2.819   4.666  13.517  0.5831 -0.6998 -0.1453
    7TCq1    C6  106   2.765   4.580  13.608  0.2494 -0.1010  0.1454
    7TCq1    C7  107   2.686   4.618  13.713 -0.2811 -0.1696  0.4283
    7TCq1    C8  108   2.763   4.435  13.568 -0.2517  0.0853  0.2773
    7TCq1    O4  109   2.672   4.360  13.611  0.5817  0.3133  0.0731
    7TCq1    C9  110   2.828   0.154  13.446  0.3789 -0.6351  0.5169
    7TCq1    O5  111   2.797   0.275  13.479  1.0441 -0.0510  0.7058
    7TCq1    O6  112   2.880   0.123  13.337  0.0618  0.2360 -0.1469
    7TCq1    H1  113   2.506   4.641  13.866 -0.4937  1.3279  0.1461
    7TCq1    H2  114   2.686   0.199  13.654  0.3185 -0.0324 -0.8906
    7TCq1    H3  115   2.865   4.636  13.424 -0.1373 -0.9679 -0.4178
    7TCq1    H4  116   2.634   4.543  13.773 -0.6036  2.0123  2.8744
    8MPD2     C  117   2.930   4.049  13.266  0.1612 -0.2681  0.5483
    8MPD2    C1  118   2.823   4.053  13.348  0.5896  0.9334  0.6056
    8MPD2    C2  119   2.795   4.173  13.418 -0.8550 -0.6134  0.0112
    8MPD2    C3  120   2.875   4.278  13.402 -0.1780  0.4332  0.3910
    8MPD2    C4  121   2.979   4.269  13.316 -0.0537 -0.4953 -0.5565
    8MPD2    C5  122   3.004   4.160  13.245 -0.4062  0.6212  0.2532
    8MPD2     H  123   2.706   4.189  13.478  0.3183  1.1860  1.2503
    8MPD2    H1  124   3.039   4.358  13.305 -0.0736 -0.4108  0.0402
    8MPD2    H2  125   2.957   3.956  13.216  2.1934  0.1917  0.8011
    8MPD2    H3  126   3.093   4.159  13.184  0.4864 -2.3768  1.5792
    8MPD2     N  127   2.861   4.404  13.470 -0.2068 -0.5602 -0.1084
    8MPD2    H5  128   2.938   4.468  13.450  0.4200 -1.6209 -1.0702
    8MPD2    N1  129   2.729   3.944  13.367 -0.0898  0.6888 -0.3159
    8MPD2    H7  130   2.662   3.959  13.442  1.1635  0.8246  0.7668
    9TMC1    C1  131   4.446   3.096  11.441 -0.9426 -0.9627 -0.6083
    9TMC1    C2  132   4.571   3.065  11.485  0.1855  0.0638  0.6371
    9TMC1    C3  133   4.670   3.033  11.398 -0.0312  0.4897 -0.0522
    9TMC1    C4  134   4.421   3.100  11.300 -0.0774 -0.1295 -0.1599
    9TMC1    C5  135   4.522   3.059  11.218 -0.0700 -0.1140 -0.1185
    9TMC1    C6  136   4.650   3.028  11.263 -0.0033 -0.3348 -0.1545
    9TMC1     C  137   4.329   3.097  11.521 -0.0506  0.1666 -0.2359
    9TMC1     O  138   4.222   3.102  11.465  0.1288 -0.5511 -0.3638
    9TMC1     H  139   4.592   3.075  11.591  1.4423 -0.2876  0.4255
    9TMC1    H1  140   4.323   3.118  11.259  0.8774  1.4806 -1.7425
    9TMC1    H2  141   4.727   2.991  11.196 -0.3244 -2.4483  0.6378
    9TMC1    C7  142   4.506   3.047  11.076 -0.3731  0.3020  0.5708
    9TMC1    C8  143   0.062   3.002  11.440 -0.4576  0.1736 -0.0537
    9TMC1    O1  144   4.404   3.012  11.022 -0.1117  0.3462 -0.0797
    9TMC1    O2  145   0.151   2.960  11.372  0.3750  0.0204 -0.0597
    9TMC1    O3  146   4.594   3.141  11.030  0.0750 -0.0896  0.3254
    9TMC1    H3  147   4.648   3.186  11.099 -0.3746  0.1421  0.5209
    9TMC1    O5  148   0.081   3.089  11.538  0.1755 -0.2060 -0.2698
    9TMC1    H5  149   0.002   3.136  11.573 -0.4661 -1.1264 -0.4934
   10MPD2     C  150   4.142   3.119  11.747  0.1966  0.1517  0.7511
   10MPD2    C1  151   4.266   3.048  11.753  0.1807  0.0715  1.2187
   10MPD2    C2  152   4.299   2.972  11.869 -0.6641 -0.0923  0.5891
   10MPD2    C3  153   4.207   2.966  11.976  0.0140  0.4033 -0.7287
   10MPD2    C4  154   4.091   3.043  11.967 -0.7426 -0.2072  0.2003
   10MPD2    C5  155   4.063   3.119  11.860 -0.7242  0.2970 -0.9170
   10MPD2     H  156   4.397   2.925  11.869 -1.5720 -1.9872 -0.1820
   10MPD2    H1  157   4.020   3.043  12.048 -1.5793 -0.4105 -0.5364
   10MPD2    H2  158   4.115   3.179  11.660 -0.8310 -1.9449 -0.3965
   10MPD2    H3  159   3.981   3.188  11.875 -1.1043 -0.5587  1.0053
   10MPD2     N  160   4.236   2.890  12.090 -0.2512 -0.6169 -0.6178
   10MPD2    H5  161   4.169   2.894  12.166  0.4500  0.7962 -0.0603
   10MPD2    N1  162   4.358   3.050  11.645 -0.4819 -0.2523 -0.3515
   10MPD2    H7  163   4.446   3.007  11.670  0.1972  0.7080 -1.1237
   11TCq1    O1  164   0.899   3.598  14.646 -0.3285 -0.0154 -0.8371
   11TCq1    C1  165   1.001   3.510  14.668 -0.0114  0.2977 -0.2104
   11TCq1    O2  166   1.098   3.539  14.738  0.1347  0.4824  0.8667
   11TCq1    C2  167   0.993   3.404  14.566  0.2721  0.1768  0.1920
   11TCq1    C3  168   1.084   3.301  14.576  0.8000 -0.4031  0.5302
   11TCq1    C4  169   1.065   3.187  14.507  0.0080  0.1794 -0.1263
   11TCq1    C5  170   0.953   3.168  14.434 -0.9506  0.8595  0.4101
   11TCq1    C6  171   0.853   3.271  14.423  0.6302 -0.5092 -0.3167
   11TCq1    C7  172   0.876   3.393  14.487 -0.4710  0.5557  0.0719
   11TCq1    C8  173   0.735   3.254  14.345 -0.0741 -0.7220  0.6954
   11TCq1    O4  174   0.668   3.353  14.322 -0.1885 -0.4150 -0.4137
   11TCq1    C9  175   1.159   3.073  14.513  0.2473  0.0906  0.4713
   11TCq1    O5  176   1.274   3.098  14.566 -0.0213  0.8070  0.4720
   11TCq1    O6  177   1.109   2.959  14.486  0.3429 -0.4175 -0.2626
   11TCq1    H1  178   0.820   3.570  14.594 -2.0584  0.0287  1.8100
   11TCq1    H2  179   1.162   3.295  14.652  0.7869  0.7692  0.6432
   11TCq1    H3  180   0.943   3.083  14.369  1.6788  1.3326 -0.5878
   11TCq1    H4  181   0.808   3.473  14.462 -1.4921 -0.2065  0.3917
   12MPD2     C  182   0.497   3.145  14.178  1.0314 -0.1338  0.0528
   12MPD2    C1  183   0.602   3.067  14.229  0.2035 -0.0317  0.5001
   12MPD2    C2  184   0.617   2.936  14.188  0.5821 -0.4565  0.0356
   12MPD2    C3  185   0.521   2.877  14.102  0.5554 -0.5592  1.0841
   12MPD2    C4  186   0.421   2.958  14.051  0.5159  0.7240 -0.8795
   12MPD2    C5  187   0.407   3.087  14.098 -0.2133  0.6361 -0.1795
   12MPD2     H  188   0.694   2.884  14.245  1.5858  1.0894  0.0795
   12MPD2    H1  189   0.344   2.917  13.986 -1.5063  1.3932  1.0901
   12MPD2    H2  190   0.493   3.249  14.210 -2.2442 -0.6706  1.3459
   12MPD2    H3  191   0.334   3.152  14.051  0.9286  3.1547  1.5122
   12MPD2     N  192   0.509   2.735  14.075  0.2719 -0.5794 -0.2243
   12MPD2    H5  193   0.452   2.713  13.994 -0.2707  2.1166 -0.5742
   12MPD2    N1  194   0.714   3.123  14.302 -1.0827  0.1573  0.2218
   12MPD2    H7  195   0.786   3.053  14.316 -1.6175 -0.2931  0.7261
   13TCq1    O1  196   0.535   2.653  11.640 -0.1266 -0.1948 -0.2826
   13TCq1    C1  197   0.437   2.578  11.701 -0.3040  0.4745 -0.9827
   13TCq1    O2  198   0.376   2.615  11.801  0.7373  0.1431 -0.2427
   13TCq1    C2  199   0.359   2.538  11.588 -0.4466  0.2792 -0.2420
   13TCq1    C3  200   0.416   2.460  11.493  0.3969  0.4106  0.7729
   13TCq1    C4  201   0.349   2.451  11.376  0.7771 -0.2076  0.4043
   13TCq1    C5  202   0.233   2.520  11.347 -0.5829  0.4228 -0.0257
   13TCq1    C6  203   0.166   2.580  11.451  0.3019  0.7597 -0.4340
   13TCq1    C7  204   0.239   2.602  11.568  0.4071 -0.3317 -0.1863
   13TCq1    C8  205   0.031   2.629  11.447 -0.7592  0.5105 -0.4013
   13TCq1    O4  206   4.717   2.653  11.561 -0.0870  0.0467 -0.1127
   13TCq1    C9  207   0.407   2.364  11.268  0.5848 -0.0682  0.8079
   13TCq1    O5  208   0.365   2.390  11.154 -0.8121  0.3832  0.2608
   13TCq1    O6  209   0.486   2.271  11.307 -0.3015  0.3513 -0.3050
   13TCq1    H1  210   0.559   2.628  11.549 -0.0094 -1.1200 -0.0014
   13TCq1    H2  211   0.504   2.399  11.513  0.0865  0.0144  0.9131
   13TCq1    H3  212   0.181   2.506  11.252 -0.0601 -1.7909  0.0185
   13TCq1    H4  213   0.196   2.663  11.647  0.1509 -0.1399 -0.4753
   14MPD2     C  214   4.572   2.684  11.156 -0.4406  0.4200 -0.1030
   14MPD2    C1  215   4.598   2.676  11.291  0.4912 -0.0855 -0.7708
   14MPD2    C2  216   4.495   2.686  11.382 -0.0060 -0.0311  0.0465
   14MPD2    C3  217   4.366   2.711  11.332 -0.2948 -0.0962  0.1629
   14MPD2    C4  218   4.344   2.709  11.199  0.2619 -0.3869 -0.0887
   14MPD2    C5  219   4.446   2.684  11.110  0.0733  0.6081  0.0626
   14MPD2     H  220   4.512   2.677  11.489  1.1917  1.8005  0.0164
   14MPD2    H1  221   4.246   2.717  11.154 -0.1194  1.5347  1.1015
   14MPD2    H2  222   4.647   2.673  11.079 -0.7773  1.0545 -0.5296
   14MPD2    H3  223   4.440   2.657  11.005 -0.9877 -0.8243  0.4890
   14MPD2     N  224   4.258   2.742  11.424  0.0027 -0.1580 -0.6171
   14MPD2    H5  225   4.272   2.731  11.524  0.0797  1.3219 -0.4776
   14MPD2    N1  226   4.728   2.651  11.320  0.6902 -0.0124  0.5129
   14MPD2    H7  227   0.040   2.626  11.237  1.6811 -1.0674  1.4626
   15TCq1    O1  228   1.252   1.598   1.862  0.7309 -0.2788 -0.7832
   15TCq1    C1  229   1.321   1.561   1.753  0.4433 -0.6110  0.5270
   15TCq1    O2  230   1.410   1.618   1.697  0.3044  0.7944 -0.6872
   15TCq1    C2  231   1.282   1.426   1.731  0.1768  0.4019  0.9860
   15TCq1    C3  232   1.160   1.379   1.740 -0.1942 -0.6454 -0.3725
   15TCq1    C4  233   1.131   1.248   1.727 -0.9860 -0.9756 -0.3083
   15TCq1    C5  234   1.229   1.163   1.702  0.1498  0.7166  0.6252
   15TCq1    C6  235   1.359   1.207   1.698 -0.4105 -0.3494  0.8054
   15TCq1    C7  236   1.381   1.341   1.711  0.0973  0.3787  0.6691
   15TCq1    C8  237   1.461   1.127   1.633 -0.7090  0.0596  0.3312
   15TCq1    O4  238   1.539   1.185   1.558  0.5498  0.6763 -0.4279
   15TCq1    C9  239   1.001   1.185   1.740  0.5428  0.1208 -0.2003
   15TCq1    O5  240   0.903   1.257   1.767 -0.2118 -0.3164  0.1246
   15TCq1    O6  241   0.987   1.061   1.722  0.2297 -0.0505  0.0390
   15TCq1    H1  242   1.208   1.525   1.909 -1.6394 -1.1396 -4.3751
   15TCq1    H2  243   1.075   1.447   1.742  2.6827  2.9892 -0.9456
   15TCq1    H3  244   1.211   1.058   1.683 -0.2099  0.8640  0.1370
   15TCq1    H4  245   1.479   1.380   1.685  0.3054 -0.8882 -0.4207
   16MPD2     C  246   1.518   0.765   1.669  0.2465 -0.2108 -0.1437
   16MPD2    C1  247   1.536   0.892   1.620 -0.1608  0.9666 -0.4100
   16MPD2    C2  248   1.614   0.916   1.508  0.1220 -0.0922 -0.7655
   16MPD2    C3  249   1.685   0.818   1.446 -0.4644 -0.5941 -0.0025
   16MPD2    C4  250   1.665   0.686   1.492 -0.5505  0.0792 -0.1005
   16MPD2    C5  251   1.586   0.669   1.601 -0.9247  0.6031 -0.0777
   16MPD2     H  252   1.629   1.015   1.467 -0.2583 -0.5488 -2.0133
   16MPD2    H1  253   1.716   0.600   1.452  0.5722 -1.1612  3.9447
   16MPD2    H2  254   1.457   0.738   1.754  0.9775 -0.8207  0.1833
   16MPD2    H3  255   1.588   0.568   1.642 -1.9002  1.3655  1.8516
   16MPD2     N  256   1.781   0.855   1.345 -0.4600 -0.8240  0.1322
   16MPD2    H5  257   1.813   0.951   1.341 -1.6011 -0.4118  0.8774
   16MPD2    N1  258   1.462   0.998   1.677  0.3418 -0.5270  0.4188
   16MPD2    H7  259   1.401   0.975   1.755  0.2706  0.7304  0.7481
   17TMC1    C1  260   0.598   1.807  11.264 -0.1946 -0.2992 -0.0403
   17TMC1    C2  261   0.465   1.800  11.223 -0.2738  0.8736 -0.5488
   17TMC1    C3  262   0.376   1.879  11.291 -0.1061 -0.3244  0.4972
   17TMC1    C4  263   0.637   1.892  11.364 -0.0373  0.4511  0.4132
   17TMC1    C5  264   0.537   1.963  11.423  0.3686  0.4850  0.0750
   17TMC1    C6  265   0.406   1.967  11.387  0.1370  0.6150 -0.0493
   17TMC1     C  266   0.698   1.801  11.165 -0.2681 -0.0374 -0.7036
   17TMC1     O  267   0.790   1.881  11.178 -0.5919 -0.2036 -0.0703
   17TMC1     H  268   0.447   1.747  11.131  0.0655  1.4426 -0.9454
   17TMC1    H1  269   0.737   1.883  11.407  0.4509 -0.4416 -0.9329
   17TMC1    H2  270   0.326   2.026  11.429 -1.8642 -0.4165 -2.3580
   17TMC1    C7  271   0.579   2.039  11.537 -0.0947  0.0168  0.2122
   17TMC1    C8  272   0.250   1.905  11.239  0.3372  0.1231 -0.4527
   17TMC1    O1  273   0.686   2.023  11.589 -0.0032  0.3074  0.1867
   17TMC1    O2  274   0.192   2.011  11.225  0.1821 -0.2741 -1.4250
   17TMC1    O3  275   0.514   2.155  11.546  0.0430 -0.0789 -0.0171
   17TMC1    H3  276   0.476   2.189  11.462  0.0750  0.6522  0.2727
   17TMC1    O5  277   0.213   1.781  11.207  0.1465 -0.3416  0.1905
   17TMC1    H5  278   0.266   1.712  11.251 -3.0144 -1.2941  2.5311
   18MPD2     C  279   0.754   1.580  10.873  0.2838 -1.0396  0.3893
   18MPD2    C1  280   0.762   1.696  10.948  0.5574  0.4708  0.8018
   18MPD2    C2  281   0.849   1.793  10.907 -0.3896  0.2982  0.8826
   18MPD2    C3  282   0.931   1.767  10.796  0.1587 -0.5368 -0.4374
   18MPD2    C4  283   0.923   1.653  10.724  0.2939 -0.4289  0.3677
   18MPD2    C5  284   0.829   1.565  10.757 -0.0169 -0.0108 -0.4923
   18MPD2     H  285   0.856   1.880  10.970 -1.8200  1.7175 -0.9113
   18MPD2    H1  286   0.993   1.640  10.642  0.2166 -0.5222  0.3158
   18MPD2    H2  287   0.688   1.497  10.898 -0.3497 -0.9466 -0.9997
   18MPD2    H3  288   0.817   1.477  10.695  1.8916 -0.9744  0.5180
   18MPD2     N  289   1.040   1.850  10.769  0.2923 -0.0634 -0.0571
   18MPD2    H5  290   1.102   1.820  10.695  1.3120  1.0106  0.3703
   18MPD2    N1  291   0.683   1.704  11.067 -0.0063 -0.0676 -0.4317
   18MPD2    H7  292   0.606   1.638  11.077  2.0718 -2.4616 -0.3395
   19TMC2    C1  293   2.138   2.816  14.328  0.4953  0.3086  0.3805
   19TMC2    C2  294   2.105   2.919  14.405  0.2367  0.2171  0.0560
   19TMC2    C3  295   1.980   2.921  14.455  0.2596  0.4013 -0.3202
   19TMC2    C4  296   2.062   2.710  14.300 -0.6149  0.2374  1.0545
   19TMC2    C5  297   1.931   2.721  14.335  0.0369  0.4290 -0.6540
   19TMC2    C6  298   1.888   2.822  14.416 -0.4090  0.4385 -0.8678
   19TMC2     C  299   2.278   2.817  14.284  0.9182 -0.6766 -0.2984
   19TMC2     O  300   2.323   2.928  14.251 -0.2850  0.7207 -0.3401
   19TMC2     H  301   2.178   2.997  14.419 -1.0696  2.0116 -3.0570
   19TMC2    H1  302   2.093   2.622  14.243 -0.8724 -0.2361  1.6433
   19TMC2    H2  303   1.787   2.825  14.455  0.3397  1.0389  0.9912
   19TMC2    C7  304   1.838   2.617  14.304  0.5377  0.1443 -0.2337
   19TMC2    C8  305   1.933   3.021  14.546 -1.3448  0.4182 -0.8539
   19TMC2    O1  306   1.889   2.505  14.308 -0.3117  0.1542  0.3296
   19TMC2    O2  307   1.845   2.999  14.626  0.3899  0.1802 -0.2427
   19TMC2    O5  308   1.966   3.138  14.494  0.6986  0.2397  0.9737
   19TMC2    H5  309   2.002   3.118  14.405 -1.3890 -0.9586  0.4087
   20MPD2     C  310   2.562   2.767  14.268  0.4908 -0.6081 -0.6845
   20MPD2    C1  311   2.469   2.671  14.306  0.3199  0.4092 -0.6332
   20MPD2    C2  312   2.505   2.547  14.357  0.5074  0.2943 -1.0317
   20MPD2    C3  313   2.641   2.516  14.359 -0.0627 -0.6974 -0.0522
   20MPD2    C4  314   2.737   2.605  14.312 -0.9022 -0.2303  0.3361
   20MPD2    C5  315   2.692   2.730  14.264  0.2446 -0.6643 -0.0025
   20MPD2     H  316   2.425   2.479  14.387  0.5582  0.7607  0.1830
   20MPD2    H1  317   2.841   2.576  14.318 -0.7520  0.1638 -0.3382
   20MPD2    H2  318   2.541   2.862  14.221 -0.5701 -1.0899 -1.1592
   20MPD2    H3  319   2.770   2.798  14.234 -2.1794  2.4835  0.8624
   20MPD2     N  320   2.694   2.398  14.411 -0.0328 -0.2496 -0.4061
   20MPD2    H5  321   2.793   2.386  14.392 -0.2205 -0.1135 -1.4811
   20MPD2    N1  322   2.334   2.696  14.300  0.8650 -0.4702  0.7279
   20MPD2    H7  323   2.275   2.618  14.327  1.8346 -1.1854  0.7764
   21TMC2    C1  324   4.382   3.026  13.743 -0.2489 -0.2830  0.3846
   21TMC2    C2  325   4.408   2.896  13.697  0.2646  0.4841 -0.6048
   21TMC2    C3  326   4.334   2.796  13.749 -0.5577  0.2873  0.2832
   21TMC2    C4  327   4.276   3.051  13.828  0.4876 -0.0840 -0.2124
   21TMC2    C5  328   4.210   2.946  13.883 -0.1955 -0.5334 -0.4969
   21TMC2    C6  329   4.241   2.815  13.844  0.4991 -0.2574  0.3572
   21TMC2     C  330   4.500   3.072  13.817 -0.4401 -0.2785 -0.0469
   21TMC2     O  331   4.602   3.001  13.805  0.9750 -0.6514 -0.1186
   21TMC2     H  332   4.492   2.879  13.630  0.2179 -1.0597 -0.2751
   21TMC2    H1  333   4.257   3.150  13.867 -0.6983 -0.4867  0.2113
   21TMC2    H2  334   4.183   2.731  13.880  0.0815  0.8507  2.2938
   21TMC2    C7  335   4.157   2.973  14.017 -0.1375 -0.4861 -0.1587
   21TMC2    C8  336   4.359   2.669  13.707 -0.0492 -0.6757  0.5104
   21TMC2    O1  337   4.160   2.882  14.103  0.0971 -0.1497  0.1762
   21TMC2    O2  338   4.374   2.578  13.791 -0.2022 -0.2832  0.5873
   21TMC2    O5  339   4.410   2.673  13.585  0.6276  0.4782 -0.3782
   21TMC2    H5  340   4.380   2.756  13.543  2.2423  1.1838 -0.1295
   22MPD2     C  341   0.054   3.332  14.137  0.3727  0.8334 -0.3772
   22MPD2    C1  342   0.025   3.200  14.136 -0.1195 -0.0854 -0.8377
   22MPD2    C2  343   4.667   3.143  14.058  0.0362  0.5858 -0.2207
   22MPD2    C3  344   4.587   3.231  13.978 -0.1672 -0.8506  0.1683
   22MPD2    C4  345   4.600   3.365  13.997  0.4596 -0.0322 -0.3934
   22MPD2    C5  346   4.696   3.410  14.084 -0.2093  0.0476  0.1913
   22MPD2     H  347   4.639   3.039  14.071 -0.8833  0.8142 -0.4081
   22MPD2    H1  348   4.525   3.432  13.956  0.7973 -0.9955 -2.5831
   22MPD2    H2  349   0.134   3.371  14.199 -0.6029  0.0747  1.3684
   22MPD2    H3  350   4.707   3.517  14.093 -1.9023  0.0568  2.2277
   22MPD2     N  351   4.496   3.190  13.880 -0.1545  0.0716 -0.0439
   22MPD2    H5  352   4.442   3.266  13.838 -0.4998 -0.7388 -1.0715
   22MPD2    N1  353   0.100   3.117  14.216  0.2771  0.5693  0.4741
   22MPD2    H7  354   0.102   3.018  14.193 -0.7967  1.0725 -1.7643
   23TMC2    C1  355   0.895   4.036  14.675 -0.0601 -0.5695 -0.2107
   23TMC2    C2  356   0.885   4.165  14.642  0.5949 -0.3684 -0.6302
   23TMC2    C3  357   0.757   4.214  14.635 -0.4258  0.7288  0.1626
   23TMC2    C4  358   0.786   3.961  14.699 -0.4813 -0.0018 -0.0621
   23TMC2    C5  359   0.661   4.003  14.673  0.0380 -0.0045  0.3236
   23TMC2    C6  360   0.646   4.134  14.633 -0.0562 -0.6072 -0.2408
   23TMC2     C  361   1.019   3.990  14.743 -0.0218 -0.1033 -0.2003
   23TMC2     O  362   1.012   3.925  14.846  0.0182 -0.5065 -0.3325
   23TMC2     H  363   0.977   4.220  14.627 -0.5819  2.0329  0.9676
   23TMC2    H1  364   0.801   3.855  14.720  1.9243  0.1253 -1.1181
   23TMC2    H2  365   0.550   4.183  14.617  0.4734  0.3366 -0.5115
   23TMC2    C7  366   0.546   3.906  14.683 -0.2391 -0.2797  0.6418
   23TMC2    C8  367   0.734   4.349  14.595 -0.5537 -0.0180  0.0192
   23TMC2    O1  368   0.576   3.789  14.699  0.1161 -0.3043 -0.1782
   23TMC2    O2  369   0.630   4.374  14.534  0.6385 -0.1935  0.2646
   23TMC2    O5  370   0.856   4.406  14.570 -0.4390 -0.0523 -0.1688
   23TMC2    H5  371   0.928   4.381  14.632  1.6607  0.6384 -2.3456
   24MPD2     C  372   1.497   4.164  14.871  0.2151 -0.1609 -0.5500
   24MPD2    C1  373   1.421   4.070  14.930 -0.0024 -0.2663  0.3992
   24MPD2    C2  374   1.294   4.047  14.874 -0.2571 -0.4304 -0.3834
   24MPD2    C3  375   1.253   4.091  14.756 -0.5676 -0.3518  0.3552
   24MPD2    C4  376   1.344   4.179  14.694  0.4172 -0.5059 -0.4382
   24MPD2    C5  377   1.462   4.222  14.751  0.3403  0.7644 -0.0500
   24MPD2     H  378   1.237   3.977  14.934  1.3252  0.1248  1.7521
   24MPD2    H1  379   1.327   4.219  14.594  0.3621  0.8129  0.1062
   24MPD2    H2  380   1.587   4.209  14.912  1.0932 -1.9910 -0.5008
   24MPD2    H3  381   1.530   4.292  14.705  0.4738  0.8417  0.2626
   24MPD2     N  382   1.129   4.054  14.689  0.0506  0.0485  0.3432
   24MPD2    H5  383   1.121   4.095  14.597  0.1625  1.0758  0.7956
   24MPD2    N1  384   1.449   4.030  15.066 -0.1531 -0.3515 -0.5077
   24MPD2    H7  385   1.380   3.986  15.126  0.4808  1.2027  1.3987
   25TMC2    C1  386   4.411   1.723  12.090  0.7327  0.2525  0.1074
   25TMC2    C2  387   4.418   1.854  12.054 -0.8128 -0.4686 -0.2028
   25TMC2    C3  388   4.322   1.937  12.107 -0.4374  0.3458 -0.1870
   25TMC2    C4  389   4.311   1.678  12.172  0.3996 -0.1881 -0.0062
   25TMC2    C5  390   4.214   1.765  12.212 -0.3904 -0.0828  0.1867
   25TMC2    C6  391   4.225   1.896  12.194 -0.9499 -0.1473  0.2251
   25TMC2     C  392   4.516   1.634  12.053  0.0434  0.3211 -0.6129
   25TMC2     O  393   4.626   1.684  12.067 -0.1851  0.8826 -0.0661
   25TMC2     H  394   4.503   1.891  11.999 -1.0659  1.6338  0.8204
   25TMC2    H1  395   4.323   1.583  12.222  1.8498 -0.0671 -0.1149
   25TMC2    H2  396   4.172   1.976  12.243  1.6289  1.8542 -0.2411
   25TMC2    C7  397   4.107   1.712  12.298 -0.2856  0.0738 -0.1935
   25TMC2    C8  398   4.331   2.083  12.084  0.5366  0.2268 -0.1137
   25TMC2    O1  399   4.129   1.612  12.361 -0.3075 -0.5935  0.0452
   25TMC2    O2  400   4.263   2.169  12.137 -0.0086  0.4436  0.3234
   25TMC2    O5  401   4.379   2.102  11.960 -0.0194  0.0782 -0.3251
   25TMC2    H5  402   4.411   2.020  11.915  0.9847  1.0764 -1.4312
   26MPD2     C  403   4.685   1.182  11.891  0.4163  0.5009 -0.0501
   26MPD2    C1  404   4.551   1.169  11.910  0.3441  0.3796 -0.2492
   26MPD2    C2  405   4.474   1.285  11.939  0.2904  0.4318  0.5396
   26MPD2    C3  406   4.539   1.399  11.984 -0.9333  0.0562  0.4627
   26MPD2    C4  407   4.675   1.402  11.989  1.0572 -0.2990 -0.4083
   26MPD2    C5  408   0.001   1.299  11.935  0.6553 -0.3885 -0.1627
   26MPD2     H  409   4.368   1.286  11.913  0.0408  0.2479  1.5581
   26MPD2    H1  410   4.731   1.484  12.032  1.4994 -0.8641  0.1053
   26MPD2    H2  411   0.007   1.108  11.844 -1.4247 -1.1988  0.1902
   26MPD2    H3  412   0.109   1.296  11.941  0.7875  1.2751 -1.7845
   26MPD2     N  413   4.463   1.510  12.024 -0.3335 -0.1736 -0.0113
   26MPD2    H5  414   4.362   1.514  12.019 -0.3223 -0.6720 -0.5657
   26MPD2    N1  415   4.492   1.049  11.874 -0.1138 -0.8372 -0.5032
   26MPD2    H7  416   4.553   0.978  11.834 -0.2184 -1.8875  1.2118
   27TMC2    C1  417   3.253   3.774  12.485  1.0158 -0.4455  0.7094
   27TMC2    C2  418   3.218   3.890  12.429 -0.6404  0.5302 -0.1142
   27TMC2    C3  419   3.198   4.005  12.496 -0.8157 -0.0738  0.0452
   27TMC2    C4  420   3.318   3.783  12.609  0.0039  0.2146  0.8137
   27TMC2    C5  421   3.317   3.906  12.674 -0.4221 -0.2746 -0.1986
   27TMC2    C6  422   3.250   4.010  12.622 -0.5687  0.5181  0.3666
   27TMC2     C  423   3.157   3.664  12.454  0.8182 -0.5115 -0.4295
   27TMC2     O  424   3.058   3.700  12.387 -0.3238  0.0472 -0.6357
   27TMC2     H  425   3.170   3.883  12.332 -1.9581  1.2733  0.4956
   27TMC2    H1  426   3.350   3.693  12.661 -0.3144 -0.3571  0.0393
   27TMC2    H2  427   3.245   4.101  12.681  1.7795 -0.6249  2.3464
   27TMC2    C7  428   3.322   3.889  12.819 -0.4191 -0.2237 -0.6054
   27TMC2    C8  429   3.155   4.125  12.421 -0.1468  0.0132 -0.2376
   27TMC2    O1  430   3.320   3.778  12.870  0.4867 -0.2458 -0.2659
   27TMC2    O2  431   3.164   4.141  12.302  0.0082  0.0598 -0.3601
   27TMC2    O5  432   3.111   4.208  12.516  0.3084 -0.0883  0.2955
   27TMC2    H5  433   3.097   4.162  12.601  3.0773 -1.4716 -0.0159
   28MPD2     C  434   2.880   3.268  12.656  0.0475  0.7077  0.8398
   28MPD2    C1  435   2.850   3.404  12.619  0.1380 -0.0466 -0.0340
   28MPD2    C2  436   2.943   3.487  12.564 -0.9810 -0.1212 -0.3956
   28MPD2    C3  437   3.078   3.451  12.558 -0.5060  0.6929  0.4235
   28MPD2    C4  438   3.110   3.318  12.599  0.3142 -0.2749 -0.0003
   28MPD2    C5  439   3.013   3.235  12.642  0.4730  0.5318 -0.7009
   28MPD2     H  440   2.906   3.581  12.525 -0.0906  0.6859  0.6966
   28MPD2    H1  441   3.210   3.279  12.605 -0.1334 -1.6298 -1.3774
   28MPD2    H2  442   2.804   3.200  12.694 -0.4028  0.1661 -1.0578
   28MPD2    H3  443   3.049   3.134  12.660  2.4030  1.1603 -1.0166
   28MPD2     N  444   3.183   3.550  12.526  0.8092 -0.0590 -0.0223
   28MPD2    H5  445   3.282   3.534  12.541  0.5661 -0.7022  0.9115
   28MPD2    N1  446   2.721   3.455  12.645 -0.2948  0.9061  0.9788
   28MPD2    H7  447   2.662   3.382  12.684 -0.4162  1.1961  1.3414
   29TMC2    C1  448   2.937   1.423  14.821 -0.1794  0.0141 -0.3690
   29TMC2    C2  449   3.020   1.419  14.935  0.1939  0.0798 -0.0140
   29TMC2    C3  450   3.118   1.519  14.949 -0.1461 -0.3760 -0.2262
   29TMC2    C4  451   2.954   1.526  14.736 -0.0761 -0.0741 -0.4198
   29TMC2    C5  452   3.063   1.615  14.750 -0.2394  0.5199 -0.1243
   29TMC2    C6  453   3.148   1.616  14.863  0.5313 -0.3835 -0.3695
   29TMC2     C  454   2.880   1.301  14.774  0.4404  0.4078 -0.4150
   29TMC2     O  455   2.892   1.204  14.846 -0.1633 -0.2118 -0.4638
   29TMC2     H  456   3.014   1.343  15.012 -0.1449  0.6395  0.5042
   29TMC2    H1  457   2.890   1.528  14.649  0.6069 -1.3263 -0.9515
   29TMC2    H2  458   3.234   1.682  14.872  0.1070  0.3572 -1.7005
   29TMC2    C7  459   3.087   1.713  14.642 -0.2262 -0.2432  0.0082
   29TMC2    C8  460   3.171   1.535  15.088  0.7649  0.9318 -0.6325
   29TMC2    O1  461   3.011   1.702  14.546 -0.6670  0.1210  0.1185
   29TMC2    O2  462   3.107   1.519  15.193  0.2339  0.6636  0.0659
   29TMC2    O5  463   3.295   1.591  15.081  0.7553  0.0762  0.3243
   29TMC2    H5  464   3.345   1.573  14.999 -0.3506  1.1637 -0.5917
   30MPD2     C  465   2.654   1.047  14.387 -0.0347  0.2401  0.2061
   30MPD2    C1  466   2.737   1.001  14.486 -0.0596  0.2231  0.0750
   30MPD2    C2  467   2.792   1.092  14.582 -0.2592  0.8787 -0.0348
   30MPD2    C3  468   2.748   1.224  14.580  0.3681 -0.4567  0.2599
   30MPD2    C4  469   2.658   1.270  14.483 -0.4882  0.3541 -0.5482
   30MPD2    C5  470   2.623   1.180  14.383  0.4154  0.3721 -0.0700
   30MPD2     H  471   2.879   1.065  14.641 -0.8779  0.1716  0.5530
   30MPD2    H1  472   2.625   1.373  14.496  0.0472  0.5904 -1.0495
   30MPD2    H2  473   2.609   0.993  14.304  1.8130  0.0227 -0.6681
   30MPD2    H3  474   2.557   1.207  14.302  0.7477 -1.2427 -0.8678
   30MPD2     N  475   2.796   1.322  14.667 -0.1712 -0.4548 -0.4674
   30MPD2    H5  476   2.788   1.419  14.638  2.4011 -0.4192 -1.1462
   30MPD2    N1  477   2.766   0.864  14.490  0.0633 -0.5116  0.4093
   30MPD2    H7  478   2.861   0.842  14.520  0.0606 -0.1075  0.7014
   31TMC2    C1  479   0.651   4.596  15.474  0.2359  0.5380 -0.8454
   31TMC2    C2  480   0.513   4.587  15.489 -1.0450  0.6623  0.3235
   31TMC2    C3  481   0.463   4.549  15.614 -0.4264  0.7338  0.1953
   31TMC2    C4  482   0.739   4.547  15.570 -0.1035  0.3163 -0.2591
   31TMC2    C5  483   0.681   4.501  15.688 -0.5489 -0.0440  0.1475
   31TMC2    C6  484   0.546   4.505  15.710 -0.8516 -0.2167 -0.3209
   31TMC2     C  485   0.696   4.615  15.337 -0.3639 -0.1395 -0.9754
   31TMC2     O  486   0.611   4.626  15.250 -0.3508  0.2926  0.3140
   31TMC2     H  487   0.445   4.614  15.409  0.1489 -0.8509 -1.2143
   31TMC2    H1  488   0.846   4.561  15.565 -0.2169  1.6027  0.7350
   31TMC2    H2  489   0.520   4.485  15.813 -0.7351 -0.3798 -0.3228
   31TMC2    C7  490   0.761   4.446  15.794 -0.1449 -0.0085 -0.0302
   31TMC2    C8  491   0.321   4.564  15.634 -0.4327 -0.1913  0.0602
   31TMC2    O1  492   0.701   4.371  15.869 -0.3456  0.1090  0.1775
   31TMC2    O2  493   0.265   4.653  15.574 -0.3233 -0.0627 -0.1619
   31TMC2    O5  494   0.288   4.517  15.753  0.0802 -0.1762 -0.2394
   31TMC2    H5  495   0.353   4.461  15.799  0.8167  1.8561  1.2143
   32MPD2     C  496   1.036   0.120  15.036  1.1055  0.4726 -0.0125
   32MPD2    C1  497   0.899   0.121  15.045  0.0597  0.1637  0.3196
   32MPD2    C2  498   0.830   0.039  15.131 -0.2368  0.4148  0.4748
   32MPD2    C3  499   0.901   4.694  15.212 -0.7620 -0.5631 -0.5165
   32MPD2    C4  500   1.041   4.693  15.205 -0.9602 -0.5036 -0.3686
   32MPD2    C5  501   1.108   0.034  15.116 -0.6635  0.2206 -0.2191
   32MPD2     H  502   0.722   0.050  15.132 -0.3936 -1.0369 -1.5233
   32MPD2    H1  503   1.103   4.632  15.270 -0.6020  1.2435  0.9327
   32MPD2    H2  504   1.099   0.178  14.969  1.8757 -0.3532  0.0030
   32MPD2    H3  505   1.215   0.030  15.101 -0.6666 -1.2452  0.1792
   32MPD2     N  506   0.836   4.626  15.321  0.1920 -0.1005 -0.1450
   32MPD2    H5  507   0.896   4.585  15.391 -1.1031 -0.4783  0.7474
   32MPD2    N1  508   0.836   0.218  14.961 -0.1894  0.1514 -0.3641
   32MPD2    H7  509   0.903   0.279  14.916  0.7571 -0.1760  0.6152
   33TMC2    C1  510   1.107   2.980  10.513  0.2575 -0.2342  0.9170
   33TMC2    C2  511   1.180   3.070  10.446 -0.1246  0.2797 -0.5153
   33TMC2    C3  512   1.109   3.164  10.369 -0.3957  0.8253 -0.4565
   33TMC2    C4  513   0.974   2.967  10.513  0.1994  0.1951  0.6683
   33TMC2    C5  514   0.909   3.062  10.448  0.0268  0.1603  0.0353
   33TMC2    C6  515   0.974   3.162  10.379 -0.0510 -0.0221  0.2025
   33TMC2     C  516   1.177   2.869  10.563  0.0207  0.3207  0.1932
   33TMC2     O  517   1.111   2.765  10.570  0.3051  0.2248 -0.0160
   33TMC2     H  518   1.288   3.078  10.455 -0.0294 -0.7475 -0.7259
   33TMC2    H1  519   0.920   2.898  10.577  1.6041 -0.7335  0.8405
   33TMC2    H2  520   0.917   3.233  10.320  0.9481 -0.0481 -0.7858
   33TMC2    C7  521   0.764   3.084  10.466 -0.2627  0.0006  0.8894
   33TMC2    C8  522   1.183   3.274  10.313 -0.2185 -0.4178  0.5109
   33TMC2    O1  523   0.720   3.191  10.428  0.0973  0.1162  0.3608
   33TMC2    O2  524   1.302   3.289  10.343 -0.2820 -0.1657 -0.0129
   33TMC2    O5  525   1.095   3.376  10.280 -0.1818  0.2332 -0.1570
   33TMC2    H5  526   0.998   3.363  10.276  0.0065 -0.7695 -1.4935
   34MPD2     C  527   1.586   2.619  10.723  0.0538 -0.0408  0.2551
   34MPD2    C1  528   1.454   2.583  10.718  0.1527  0.6853 -0.0374
   34MPD2    C2  529   1.361   2.670  10.678 -0.7005 -0.4706 -0.4268
   34MPD2    C3  530   1.391   2.801  10.651  0.1101  0.6130 -0.6613
   34MPD2    C4  531   1.526   2.839  10.693 -0.1166 -1.0875 -0.3447
   34MPD2    C5  532   1.623   2.750  10.723  0.0923  0.1434 -0.3626
   34MPD2     H  533   1.262   2.631  10.656 -0.5957 -0.8733 -0.1870
   34MPD2    H1  534   1.551   2.945  10.691  0.2611 -1.1507  1.4345
   34MPD2    H2  535   1.666   2.548  10.742 -0.1781 -0.4972 -0.4772
   34MPD2    H3  536   1.725   2.784  10.735 -0.2475  1.0732 -0.1170
   34MPD2     N  537   1.304   2.898  10.598  0.1790  1.0161  0.6949
   34MPD2    H5  538   1.329   2.996  10.599  0.8401  0.8387  1.5656
   34MPD2    N1  539   1.426   2.442  10.728  0.3603 -0.3618 -0.3798
   34MPD2    H7  540   1.507   2.381  10.736 -0.0475 -0.5729  2.0506
   35TMC2    C1  541   1.388   4.076  11.595 -0.2621  0.2655  0.2300
   35TMC2    C2  542   1.266   4.110  11.552 -0.0955  0.5210  0.1875
   35TMC2    C3  543   1.172   4.008  11.535 -1.0077 -0.0971 -0.1669
   35TMC2    C4  544   1.419   3.949  11.628 -0.0289  0.3439 -0.4132
   35TMC2    C5  545   1.324   3.846  11.598  0.4358 -0.2445 -0.0306
   35TMC2    C6  546   1.200   3.873  11.551 -0.0233 -0.8823 -0.2548
   35TMC2     C  547   1.495   4.178  11.584  0.2420  0.0546 -0.1374
   35TMC2     O  548   1.483   4.274  11.508  0.4334 -0.3136 -0.7727
   35TMC2     H  549   1.244   4.207  11.511  1.7347  0.1462 -1.6970
   35TMC2    H1  550   1.523   3.924  11.646  0.1275  0.0037 -1.7374
   35TMC2    H2  551   1.127   3.794  11.538 -0.8085  0.1176 -1.9304
   35TMC2    C7  552   1.356   3.705  11.622  0.1269  0.0518 -0.8103
   35TMC2    C8  553   1.044   4.040  11.467  0.8485  0.1752 -0.0420
   35TMC2    O1  554   1.291   3.624  11.553 -0.1180  0.7729  0.0618
   35TMC2    O2  555   0.999   3.959  11.382 -0.6414  0.1944  0.0057
   35TMC2    O5  556   0.963   4.110  11.554 -0.1917  0.0466 -0.3080
   35TMC2    H5  557   1.015   4.170  11.611 -1.7745 -0.8919  2.0918
   36MPD2     C  558   1.986   4.289  11.688 -0.2469  0.0208 -0.4060
   36MPD2    C1  559   1.965   4.159  11.735 -0.1765 -0.5245 -0.1933
   36MPD2    C2  560   1.837   4.104  11.720 -0.0792 -0.5369 -0.5856
   36MPD2    C3  561   1.739   4.181  11.655 -0.4195 -0.3927  0.4509
   36MPD2    C4  562   1.766   4.307  11.602 -0.1551  0.3235 -0.3551
   36MPD2    C5  563   1.886   4.357  11.624  0.9612  0.2133 -0.1753
   36MPD2     H  564   1.817   4.006  11.761 -1.3139 -0.7240 -1.6358
   36MPD2    H1  565   1.689   4.369  11.557 -0.5126 -0.3858 -0.7387
   36MPD2    H2  566   2.083   4.336  11.698  0.0214 -0.5529 -0.2626
   36MPD2    H3  567   1.914   4.456  11.591  0.5815  0.6963  0.9544
   36MPD2     N  568   1.607   4.131  11.649 -0.0907  0.6868 -0.2908
   36MPD2    H5  569   1.592   4.054  11.713  0.5143  1.0946  0.3460
   36MPD2    N1  570   2.069   4.096  11.814  0.0838  0.4906 -0.0255
   36MPD2    H7  571   2.144   4.158  11.841  2.0281 -0.9999 -1.9738
   37TMC2    C1  572   3.685   3.943  12.203  0.0544 -0.1350 -0.3480
   37TMC2    C2  573   3.597   4.011  12.131 -0.5619  0.6329  0.6650
   37TMC2    C3  574   3.628   4.049  12.005  0.2311 -1.0556  0.9349
   37TMC2    C4  575   3.817   3.927  12.160 -0.4743  0.0611 -0.3814
   37TMC2    C5  576   3.849   3.973  12.038  0.6172 -0.2237 -1.0207
   37TMC2    C6  577   3.756   4.037  11.958 -0.0577 -0.7446  0.0032
   37TMC2     C  578   3.653   3.934  12.345  0.6460 -0.5496  0.0041
   37TMC2     O  579   3.541   3.968  12.388 -0.1706 -0.4646  0.3704
   37TMC2     H  580   3.502   4.041  12.175 -0.0270 -0.1187  2.3451
   37TMC2    H1  581   3.901   3.891  12.219 -1.0132 -0.3527  0.1328
   37TMC2    H2  582   3.786   4.091  11.869 -1.0554 -0.3128 -0.0711
   37TMC2    C7  583   3.985   3.985  12.003  0.0792  0.2645  0.1110
   37TMC2    C8  584   3.553   4.148  11.936  0.0118  0.5829  0.2795
   37TMC2    O1  585   4.068   3.995  12.090  1.1095  0.3089  0.4541
   37TMC2    O2  586   3.473   4.223  11.992  0.0433 -0.3331 -0.0584
   37TMC2    O5  587   3.538   4.099  11.808 -0.0232  0.3970  0.0651
   37TMC2    H5  588   3.593   4.018  11.802 -0.7539 -0.0346 -0.8478
   38MPD2     C  589   3.810   3.878  12.841 -0.2859 -0.4434  0.3664
   38MPD2    C1  590   3.928   3.864  12.760 -0.4905  0.3619 -0.3049
   38MPD2    C2  591   3.908   3.875  12.619 -0.2302  0.1698 -0.7136
   38MPD2    C3  592   3.780   3.884  12.561  0.2177 -0.5627  0.3679
   38MPD2    C4  593   3.671   3.903  12.643 -0.3538 -0.2902  0.5877
   38MPD2    C5  594   3.690   3.895  12.782  0.5055  0.4865 -0.1531
   38MPD2     H  595   3.990   3.863  12.549  0.4163 -3.5150  0.6301
   38MPD2    H1  596   3.573   3.932  12.605  1.2180  1.8589 -1.8518
   38MPD2    H2  597   3.821   3.889  12.949  0.4296 -0.3128  0.2747
   38MPD2    H3  598   3.609   3.930  12.845  2.5930  1.0166  2.2263
   38MPD2     N  599   3.765   3.899  12.413 -0.2436 -0.3288 -0.5610
   38MPD2    H5  600   3.850   3.899  12.358 -0.5507  0.7036 -1.0248
   38MPD2    N1  601   4.063   3.850  12.806 -0.2245 -0.5077  0.4304
   38MPD2    H7  602   4.137   3.846  12.737  1.4025 -2.2465  2.2786
   39TMC2    C1  603   2.610   0.726   1.156  0.5742 -0.4324 -0.3497
   39TMC2    C2  604   2.733   0.741   1.097 -0.4445 -0.0869  0.2001
   39TMC2    C3  605   2.838   0.756   1.186  0.6795 -0.2957  1.0735
   39TMC2    C4  606   2.584   0.737   1.290 -0.3883  0.2858 -0.1765
   39TMC2    C5  607   2.686   0.764   1.372  0.3878  0.0932 -0.8317
   39TMC2    C6  608   2.816   0.762   1.322  0.3329  0.3869  1.0988
   39TMC2     C  609   2.497   0.684   1.076 -0.2820  0.0713  0.6589
   39TMC2     O  610   2.389   0.725   1.105 -0.0990  0.0096  0.2654
   39TMC2     H  611   2.748   0.735   0.989  0.9472 -1.5404  0.4822
   39TMC2    H1  612   2.484   0.728   1.331 -1.1557  1.7537 -1.7713
   39TMC2    H2  613   2.895   0.772   1.395  0.6083  1.4077  0.6632
   39TMC2    C7  614   2.659   0.820   1.500 -0.0283  0.4503 -0.3541
   39TMC2    C8  615   2.972   0.749   1.129 -0.2766 -0.0790 -0.3830
   39TMC2    O1  616   2.544   0.809   1.536 -0.5266 -0.2891 -0.2699
   39TMC2    O2  617   2.986   0.710   1.015  0.2813 -0.0330  0.5188
   39TMC2    O5  618   3.033   0.859   1.184  0.1352  0.4737 -0.1190
   39TMC2    H5  619   3.000   0.885   1.272  1.2927 -0.1698  0.4991
   40MPD2     C  620   2.504   0.398   0.848  0.1290  0.5226 -0.2617
   40MPD2    C1  621   2.443   0.494   0.926 -0.6840 -0.5736 -0.1560
   40MPD2    C2  622   2.308   0.507   0.922  0.7445 -0.1638  0.5958
   40MPD2    C3  623   2.240   0.428   0.827 -0.5138 -0.6342  0.2123
   40MPD2    C4  624   2.300   0.328   0.750  0.7330  0.2046 -0.3047
   40MPD2    C5  625   2.436   0.320   0.754  0.2018 -0.7078  0.3891
   40MPD2     H  626   2.259   0.574   0.991  1.1843 -0.4290  1.1622
   40MPD2    H1  627   2.256   0.261   0.677  1.5105 -1.4579  0.7608
   40MPD2    H2  628   2.610   0.380   0.839  0.4002  0.9700  2.0796
   40MPD2    H3  629   2.485   0.248   0.690 -1.6558 -1.6983  0.0929
   40MPD2     N  630   2.099   0.423   0.812  0.7236 -0.0876 -0.3793
   40MPD2    H5  631   2.066   0.365   0.735  1.4725  0.4044 -1.0653
   40MPD2    N1  632   2.533   0.570   1.009  0.3573  0.8511  0.0651
   40MPD2    H7  633   2.629   0.539   1.006 -0.5058 -1.5395 -2.2486
   41TMC2    C1  634   1.589   4.343  13.823  0.8412 -0.2289 -0.5156
   41TMC2    C2  635   1.464   4.318  13.759  0.0462  0.1314 -0.7476
   41TMC2    C3  636   1.463   4.330  13.621 -0.1905  0.6846  0.0475
   41TMC2    C4  637   1.702   4.376  13.752  0.2730  0.2512 -0.2087
   41TMC2    C5  638   1.693   4.362  13.616 -0.5896  0.9174  0.3323
   41TMC2    C6  639   1.577   4.341  13.549  0.6853 -0.1059  0.3074
   41TMC2     C  640   1.591   4.320  13.966 -0.1680 -0.1534  0.4818
   41TMC2     O  641   1.692   4.287  14.020  0.1155 -0.0147 -0.8525
   41TMC2     H  642   1.380   4.275  13.813  1.7545 -0.7240  1.2011
   41TMC2    H1  643   1.792   4.402  13.806 -0.4725  0.0238  1.1465
   41TMC2    H2  644   1.577   4.346  13.441  0.3243  0.1162  0.3190
   41TMC2    C7  645   1.808   4.412  13.541  0.7120 -0.0042 -0.6966
   41TMC2    C8  646   1.352   4.301  13.534  1.1600  0.8492 -0.6429
   41TMC2    O1  647   1.891   4.465  13.614  0.0525  0.2426 -0.2566
   41TMC2    O2  648   1.361   4.307  13.413 -0.3363  0.1529  0.8376
   41TMC2    O5  649   1.285   4.209  13.598 -0.4505 -0.1438 -0.2192
   41TMC2    H5  650   1.301   4.219  13.694 -0.5590  1.2116 -0.3393
   42MPD2     C  651   1.550   4.326  14.271 -0.1083  0.7493 -0.3710
   42MPD2    C1  652   1.459   4.369  14.174 -0.0923  0.0660  0.1553
   42MPD2    C2  653   1.356   4.448  14.215  0.2065 -0.8224 -0.4044
   42MPD2    C3  654   1.346   4.495  14.342 -0.4578 -0.8088  0.6569
   42MPD2    C4  655   1.435   4.450  14.433 -0.2912  0.1277  0.4558
   42MPD2    C5  656   1.538   4.368  14.400  0.1446  0.4364 -0.5009
   42MPD2     H  657   1.287   4.488  14.142  0.5712 -1.6315 -1.1791
   42MPD2    H1  658   1.433   4.477  14.538 -0.0043  2.2054 -0.0654
   42MPD2    H2  659   1.638   4.270  14.243 -1.9133 -0.9791 -2.5990
   42MPD2    H3  660   1.589   4.309  14.476 -0.0282 -1.1823 -1.6305
   42MPD2     N  661   1.255   4.593  14.387 -0.1417  0.7987  0.9296
   42MPD2    H5  662   1.275   4.622  14.482 -0.9373 -3.1048  2.2898
   42MPD2    N1  663   1.480   4.362  14.034 -0.1329  0.1377  0.1237
   42MPD2    H7  664   1.406   4.404  13.979 -0.3447  1.3559  1.3283
   43TMC2    C1  665   2.751   2.678   0.602 -0.9891  0.0190  0.4975
   43TMC2    C2  666   2.645   2.759   0.572 -0.4072 -0.1712  0.7080
   43TMC2    C3  667   2.624   2.853   0.669 -0.3206  0.3668  0.2064
   43TMC2    C4  668   2.837   2.695   0.705 -0.3148 -0.8372 -0.0415
   43TMC2    C5  669   2.803   2.777   0.806  0.8515  0.3910 -0.4929
   43TMC2    C6  670   2.690   2.860   0.788  0.4790  0.6932  0.2059
   43TMC2     C  671   2.792   2.587   0.501 -0.3128  0.0980 -0.2034
   43TMC2     O  672   2.712   2.500   0.463 -0.7231 -0.3361 -0.0148
   43TMC2     H  673   2.583   2.753   0.484 -1.0349 -2.1630  1.2999
   43TMC2    H1  674   2.928   2.635   0.712 -0.3033 -0.5785  1.9340
   43TMC2    H2  675   2.686   2.956   0.838 -2.8143  1.5715 -1.7748
   43TMC2    C7  676   2.903   2.807   0.910 -0.5249 -0.2109 -0.1534
   43TMC2    C8  677   2.537   2.973   0.637  0.1700  0.6124 -0.2906
   43TMC2    O1  678   3.006   2.746   0.897 -0.1262  0.4000  0.1413
   43TMC2    O2  679   2.542   3.084   0.693 -0.4891  0.2102  0.1930
   43TMC2    O5  680   2.431   2.921   0.571 -0.7513  0.2534 -0.2730
   43TMC2    H5  681   2.421   2.825   0.555 -1.0904  0.2497 -0.0301
   44MPD2     C  682   3.128   2.478   0.130 -0.7241  0.2017  0.0688
   44MPD2    C1  683   3.042   2.397   0.194  0.0781  0.0042  0.1803
   44MPD2    C2  684   2.961   2.448   0.296  0.0426 -0.6520 -0.3742
   44MPD2    C3  685   2.966   2.584   0.328 -0.5084  0.2068  0.1826
   44MPD2    C4  686   3.047   2.670   0.257  0.2022 -0.4142  0.3611
   44MPD2    C5  687   3.129   2.617   0.159 -1.2483 -0.0107  0.2225
   44MPD2     H  688   2.890   2.387   0.352 -0.5711  0.9012  0.5475
   44MPD2    H1  689   3.065   2.774   0.278  0.6902  0.2546 -3.2641
   44MPD2    H2  690   3.191   2.458   0.045 -0.8476  1.0140 -0.2158
   44MPD2    H3  691   3.188   2.688   0.104 -0.3605 -1.0983 -0.2374
   44MPD2     N  692   2.907   2.633   0.449 -0.0539  0.2833  0.7725
   44MPD2    H5  693   2.952   2.713   0.493  1.1082 -0.2224  0.4890
   44MPD2    N1  694   3.031   2.256   0.170 -0.5528  0.4355 -0.2813
   44MPD2    H7  695   2.960   2.210   0.226  0.8175 -2.5835 -1.0127
   45TMC2    C1  696   3.120   4.503  10.224  0.7794 -0.3049 -0.1894
   45TMC2    C2  697   3.020   4.543  10.139  0.0222 -0.5177 -0.5517
   45TMC2    C3  698   2.998   4.678  10.120 -0.7191 -0.1092  0.8627
   45TMC2    C4  699   3.192   4.599  10.295  0.3641 -0.6260 -0.4901
   45TMC2    C5  700   3.159   4.736  10.279  0.6235 -0.4455  0.0749
   45TMC2    C6  701   3.065   0.038  10.190  0.0544  0.2953  0.2068
   45TMC2     C  702   3.170   4.366  10.229 -0.1053 -0.0807 -0.5761
   45TMC2     O  703   3.282   4.358  10.272 -0.0236  0.4076  0.5205
   45TMC2     H  704   2.967   4.471  10.077 -1.6139 -0.3077  0.6076
   45TMC2    H1  705   3.273   4.569  10.360 -0.9253 -1.0638  0.9274
   45TMC2    H2  706   3.042   0.143  10.178 -0.3889  0.1700 -0.0455
   45TMC2    C7  707   3.255   0.089  10.331 -0.4171 -0.7793 -0.0098
   45TMC2    C8  708   2.895   4.707  10.027  0.7181 -0.1936  0.1531
   45TMC2    O1  709   3.318   0.044  10.425  0.1629 -0.4335  0.3594
   45TMC2    O2  710   2.840   4.635   9.947 -0.0119  0.4401 -0.3079
   45TMC2    O5  711   2.853   0.091  10.054  0.2809  0.4551 -0.2653
   45TMC2    H5  712   2.881   0.136  10.137 -1.7867  2.0332 -0.4248
   46MPD2     C  713   3.257   4.080  10.186 -0.4396  0.3818  0.5711
   46MPD2    C1  714   3.149   4.142  10.128 -0.1495 -0.8509  0.3630
   46MPD2    C2  715   3.071   4.067  10.041  0.1647 -0.4936 -0.1927
   46MPD2    C3  716   3.100   3.936  10.004  0.4730  0.4521 -1.0471
   46MPD2    C4  717   3.222   3.878  10.058 -0.4388 -0.4312  0.3348
   46MPD2    C5  718   3.295   3.952  10.150 -0.1834 -0.3159 -0.8762
   46MPD2     H  719   2.974   4.107  10.016  0.7861  1.1712  0.0618
   46MPD2    H1  720   3.259   3.782  10.023  0.5691 -0.9061  2.7193
   46MPD2    H2  721   3.320   4.129  10.259 -0.9487  0.5100  0.9175
   46MPD2    H3  722   3.378   3.908  10.205  0.2852  1.4042 -0.1985
   46MPD2     N  723   3.005   3.864   9.928 -0.1438  0.1937  0.3957
   46MPD2    H5  724   2.923   3.911   9.892 -1.2652 -0.7981  1.6521
   46MPD2    N1  725   3.101   4.271  10.160 -0.5296 -0.6732  0.6653
   46MPD2    H7  726   3.020   4.310  10.113  0.6673  1.3749  0.2717
   47TMC2    C1  727   0.689   0.186   9.658  0.2432  0.2055 -0.0172
   47TMC2    C2  728   0.719   0.270   9.559 -0.2351  0.6143  1.1186
   47TMC2    C3  729   0.622   0.352   9.511 -0.4788 -0.0524  0.7452
   47TMC2    C4  730   0.572   0.186   9.724 -0.1785  0.2019 -0.1243
   47TMC2    C5  731   0.475   0.261   9.666  0.6686  0.9233  0.6351
   47TMC2    C6  732   0.494   0.346   9.564  0.0424 -0.0923  0.0993
   47TMC2     C  733   0.783   0.074   9.663  0.8197  0.6522 -0.1166
   47TMC2     O  734   0.838   0.046   9.556 -0.6602 -0.1851 -0.2899
   47TMC2     H  735   0.809   0.250   9.503  0.7227  1.8294  2.2335
   47TMC2    H1  736   0.555   0.128   9.815  1.6183  0.1854  0.2067
   47TMC2    H2  737   0.417   0.415   9.533 -0.6791 -1.4695 -1.1904
   47TMC2    C7  738   0.344   0.270   9.729 -0.5356  0.2196 -0.9393
   47TMC2    C8  739   0.645   0.423   9.387 -0.4745  0.1878  0.7112
   47TMC2    O1  740   0.246   0.272   9.653 -0.6924 -0.2356 -0.3562
   47TMC2    O2  741   0.552   0.482   9.333 -0.2269 -0.4405  0.2344
   47TMC2    O5  742   0.765   0.482   9.391  0.3032  0.0591  0.3266
   47TMC2    H5  743   0.829   0.454   9.461  0.1780  0.6410  0.6678
   48MPD2     C  744   0.956   4.579   9.732 -0.1817 -0.4439 -0.5478
   48MPD2    C1  745   0.843   4.614   9.807  0.0474  0.3633  0.0535
   48MPD2    C2  746   0.803   4.540   9.912 -0.0870  0.1632  0.5592
   48MPD2    C3  747   0.869   4.427   9.956  0.3263  0.6831 -0.2117
   48MPD2    C4  748   0.978   4.387   9.877 -0.2549  0.5773 -0.9565
   48MPD2    C5  749   1.014   4.457   9.762  0.5241  0.1461  0.1632
   48MPD2     H  750   0.711   4.572   9.958 -1.7757 -1.0516 -1.9607
   48MPD2    H1  751   1.035   4.296   9.893  0.7818  1.0789 -1.8064
   48MPD2    H2  752   0.989   4.631   9.643 -0.4025 -1.7433 -1.3884
   48MPD2    H3  753   1.075   4.404   9.689  0.1611  0.4268 -0.3431
   48MPD2     N  754   0.821   4.356  10.067  0.1188  0.4853  0.3178
   48MPD2    H5  755   0.739   4.385  10.121 -0.7312 -1.4640  0.0734
   48MPD2    N1  756   0.762   4.730   9.771  0.2258 -0.5368 -0.3873
   48MPD2    H7  757   0.700   0.019   9.846 -1.3549  2.2946 -2.8360
   49TMC2    C1  758   4.636   1.560  10.140  0.7111 -0.6651  0.0300
   49TMC2    C2  759   4.644   1.476  10.031  0.8749 -0.3176  0.2878
   49TMC2    C3  760   4.637   1.348  10.064 -0.1345  0.2673  0.2452
   49TMC2    C4  761   4.632   1.517  10.272 -0.1854  0.0562 -0.3211
   49TMC2    C5  762   4.612   1.390  10.290  0.2912  0.1802 -0.5001
   49TMC2    C6  763   4.609   1.300  10.187 -0.3505 -0.3559 -0.1111
   49TMC2     C  764   4.669   1.701  10.107  0.1578 -0.0042 -0.0548
   49TMC2     O  765   4.712   1.728   9.998  0.0158 -0.3488  0.0701
   49TMC2     H  766   4.686   1.503   9.935  0.9099 -0.6677  0.2068
   49TMC2    H1  767   4.629   1.586  10.355  0.2997  1.9488 -1.8831
   49TMC2    H2  768   4.599   1.193  10.202 -2.5714  0.0780  1.5691
   49TMC2    C7  769   4.641   1.328  10.419  0.4269 -0.3110  0.0513
   49TMC2    C8  770   4.598   1.246   9.964 -0.1664 -0.7828  0.0719
   49TMC2    O1  771   4.672   1.209  10.404 -0.1467 -0.2095 -0.1991
   49TMC2    O2  772   4.661   1.141   9.965 -0.0741  0.7203  0.5362
   49TMC2    O5  773   4.464   1.253   9.959  0.5802 -0.5348  0.1501
   49TMC2    H5  774   4.425   1.343   9.960 -1.5669 -1.4832  0.3069
   50MPD2     C  775   0.009   1.981  10.116  0.7153 -0.2221  0.3430
   50MPD2    C1  776   4.682   1.924  10.224 -0.0723  0.1845 -0.4962
   50MPD2    C2  777   4.666   2.002  10.335 -0.0286 -0.5871 -0.1134
   50MPD2    C3  778   4.710   2.131  10.348 -0.6559  0.3011  1.0034
   50MPD2    C4  779   0.022   2.194  10.240 -0.6329  0.5824 -0.3989
   50MPD2    C5  780   0.042   2.117  10.128 -0.1797  0.1241 -0.3572
   50MPD2     H  781   4.624   1.957  10.424 -1.2192  0.3299 -0.2227
   50MPD2    H1  782   0.047   2.299  10.237 -2.7234  1.0820 -0.5250
   50MPD2    H2  783   0.041   1.940  10.021 -0.6489  2.8543 -1.4627
   50MPD2    H3  784   0.076   2.170  10.040 -1.7422 -0.4064 -1.2946
   50MPD2     N  785   4.684   2.210  10.454 -0.1540 -0.5015 -0.9037
   50MPD2    H5  786   4.731   2.299  10.443 -0.0457 -0.3459  0.7243
   50MPD2    N1  787   4.643   1.788  10.215 -0.5197 -0.4180  0.0643
   50MPD2    H7  788   4.585   1.747  10.288 -1.8544  1.3552  0.0261
   51TMC2    C1  789   0.667   4.429   1.290 -0.8271 -0.4242 -0.5326
   51TMC2    C2  790   0.664   4.391   1.417  0.5428 -0.4812 -0.4146
   51TMC2    C3  791   0.590   4.469   1.506  0.0657  0.0655  0.2099
   51TMC2    C4  792   0.611   4.546   1.257 -0.2105 -0.0167 -0.5076
   51TMC2    C5  793   0.535   4.618   1.352  0.2293  0.0725 -0.6723
   51TMC2    C6  794   0.517   4.582   1.480 -0.2222  0.0270  1.0510
   51TMC2     C  795   0.742   4.351   1.194  0.2638 -0.7165  0.1159
   51TMC2     O  796   0.768   4.406   1.088 -1.2003  0.4732 -0.2509
   51TMC2     H  797   0.721   4.310   1.463  3.6257  2.8018  1.5039
   51TMC2    H1  798   0.622   4.570   1.151 -0.1560  4.1736  0.4173
   51TMC2    H2  799   0.460   4.635   1.556 -2.6563  0.3052 -0.9373
   51TMC2    C7  800   0.467   0.001   1.307 -0.0307 -0.0906  0.4751
   51TMC2    C8  801   0.599   4.415   1.638  0.1622 -0.0196  0.9049
   51TMC2    O1  802   0.446   0.084   1.394  0.6335 -0.3392  0.0008
   51TMC2    O2  803   0.704   4.391   1.700 -0.2579  0.3027  0.0289
   51TMC2    O5  804   0.475   4.379   1.668 -0.2622 -0.2047 -0.2838
   51TMC2    H5  805   0.419   4.386   1.588 -0.4052  2.1980  0.0330
   52MPD2     C  806   1.039   3.939   1.078 -0.2520  0.2928  0.5441
   52MPD2    C1  807   0.976   4.027   0.992  0.4708  0.1961  0.4035
   52MPD2    C2  808   0.893   4.135   1.045 -0.2802  0.4984  0.3123
   52MPD2    C3  809   0.889   4.151   1.179 -0.2641  0.5118 -0.2801
   52MPD2    C4  810   0.946   4.060   1.259 -0.9195 -0.1102  0.0125
   52MPD2    C5  811   1.020   3.948   1.207  0.2322 -0.2672 -0.3856
   52MPD2     H  812   0.837   4.193   0.972  2.6666  3.0127  0.0534
   52MPD2    H1  813   0.935   4.063   1.367 -1.9352  2.3773 -0.1656
   52MPD2    H2  814   1.096   3.854   1.042  0.6104  0.5491  1.2928
   52MPD2    H3  815   1.062   3.879   1.280 -2.0092  0.4622  1.5900
   52MPD2     N  816   0.813   4.246   1.254  0.0077 -0.2946  0.2106
   52MPD2    H5  817   0.797   4.226   1.352 -1.3173 -2.8775 -0.5159
   52MPD2    N1  818   0.989   4.019   0.854  0.3078 -0.4645 -0.0668
   52MPD2    H7  819   0.950   4.095   0.800  2.0588  1.2687  1.1196
   53TMC2    C1  820   4.675   3.901  12.044  0.0349  0.1714 -0.1374
   53TMC2    C2  821   0.071   3.879  12.044  0.1294 -0.3261  0.4491
   53TMC2    C3  822   0.136   3.890  12.166 -0.2864  0.6777 -0.6099
   53TMC2    C4  823   4.611   3.949  12.156 -0.3703  0.1578  0.4823
   53TMC2    C5  824   4.687   3.980  12.268  0.1223 -0.6614  0.4044
   53TMC2    C6  825   0.076   3.945  12.276 -0.1806  0.7203 -0.3997
   53TMC2     C  826   4.601   3.871  11.921 -0.0211 -0.5786  0.7183
   53TMC2     O  827   4.655   3.790  11.847 -0.4471  0.0616 -0.3238
   53TMC2     H  828   0.120   3.836  11.957 -0.6837 -0.1345 -0.0956
   53TMC2    H1  829   4.504   3.960  12.165 -0.4815 -1.1875  0.8362
   53TMC2    H2  830   0.137   3.953  12.365  0.3570  1.9131 -0.8711
   53TMC2    C7  831   4.624   4.060  12.369  0.2136  0.4896  0.2585
   53TMC2    C8  832   0.276   3.862  12.180 -0.9655 -0.6114 -0.5108
   53TMC2    O1  833   4.509   4.086  12.346 -0.1562 -0.4151  0.0797
   53TMC2    O2  834   0.333   3.836  12.284  0.2942 -1.0759  0.7164
   53TMC2    O5  835   0.335   3.938  12.092 -0.5029 -0.2083 -0.3706
   53TMC2    H5  836   0.283   3.941  12.009 -0.2214 -0.7091 -0.5652
   54MPD2     C  837   4.369   3.768  11.758 -0.2448  0.5322 -0.1100
   54MPD2    C1  838   4.366   3.874  11.848 -0.4532 -0.1858  0.7892
   54MPD2    C2  839   4.246   3.929  11.879  0.2135 -0.1752  0.1712
   54MPD2    C3  840   4.131   3.875  11.839  0.9794 -0.4426 -0.4011
   54MPD2    C4  841   4.134   3.772  11.743  0.1971  0.3018  0.4941
   54MPD2    C5  842   4.251   3.722  11.705 -1.1494  0.1609  0.6495
   54MPD2     H  843   4.238   4.014  11.946  2.5676 -0.2306  0.5151
   54MPD2    H1  844   4.038   3.726  11.721 -0.1515  0.1201  2.3419
   54MPD2    H2  845   4.459   3.735  11.708  1.2176  2.6118  1.1672
   54MPD2    H3  846   4.258   3.633  11.644 -2.9591  0.6227 -0.2423
   54MPD2     N  847   4.003   3.919  11.879 -0.0145  0.1272  0.4066
   54MPD2    H5  848   3.923   3.871  11.838  1.0655 -0.6036 -0.8538
   54MPD2    N1  849   4.477   3.931  11.922  0.0314  0.0083 -0.6843
   54MPD2    H7  850   4.455   3.997  11.996 -2.5945 -1.7657  0.1292
   55TMC2    C1  851   1.184   1.726   0.993  0.5553  0.2372 -0.3247
   55TMC2    C2  852   1.290   1.755   0.902 -0.0945  0.0210 -0.7709
   55TMC2    C3  853   1.343   1.639   0.854  0.0908 -0.5958 -0.5046
   55TMC2    C4  854   1.127   1.606   1.025  0.1068 -0.5751  0.0023
   55TMC2    C5  855   1.182   1.501   0.954  0.0710 -0.0350 -0.2650
   55TMC2    C6  856   1.284   1.513   0.870 -0.2342  0.8914 -0.5425
   55TMC2     C  857   1.096   1.842   1.016  0.1348  0.3205 -0.0805
   55TMC2     O  858   0.982   1.808   1.049  0.2891 -0.5156 -0.5792
   55TMC2     H  859   1.335   1.851   0.880 -1.1746  0.6840 -0.1023
   55TMC2    H1  860   1.039   1.600   1.087 -0.1380 -0.0528 -0.2944
   55TMC2    H2  861   1.342   1.428   0.834  0.8994  1.8775 -1.0553
   55TMC2    C7  862   1.134   1.363   0.983  0.5986 -0.3569  0.0830
   55TMC2    C8  863   1.487   1.636   0.862 -0.0895 -0.1534 -1.3134
   55TMC2    O1  864   1.214   1.270   0.967 -0.3078  0.1850 -0.3617
   55TMC2    O2  865   1.552   1.575   0.778 -0.1460 -0.2474 -0.1544
   55TMC2    O5  866   1.514   1.682   0.986 -0.6618  0.3005  0.4068
   55TMC2    H5  867   1.433   1.726   1.020 -0.5479  0.8329  0.0022
   56MPD2     C  868   1.142   2.205   0.967 -0.1701  0.1452  0.0000
   56MPD2    C1  869   1.074   2.085   0.973  0.2368  0.2241  0.1762
   56MPD2    C2  870   0.934   2.081   0.977 -0.0051 -0.0050 -0.7433
   56MPD2    C3  871   0.868   2.195   0.975 -0.0933 -0.1479 -0.5422
   56MPD2    C4  872   0.936   2.320   0.973  0.3522 -0.7054  0.4814
   56MPD2    C5  873   1.072   2.315   0.962 -0.3030 -0.2621  0.1455
   56MPD2     H  874   0.874   1.991   0.978  0.0025  0.0412  1.8342
   56MPD2    H1  875   0.883   2.413   0.961 -0.6548 -1.3650 -0.1797
   56MPD2    H2  876   1.249   2.211   0.956 -0.0699 -0.9978  0.4113
   56MPD2    H3  877   1.127   2.406   0.937 -0.9923  0.7376  2.3104
   56MPD2     N  878   0.730   2.181   0.989 -0.8522  0.1370 -0.4900
   56MPD2    H5  879   0.693   2.086   0.997  0.1246  0.0847  3.0251
   56MPD2    N1  880   1.145   1.965   0.982 -0.0944  0.5644 -0.1075
   56MPD2    H7  881   1.244   1.982   0.967 -0.1459  0.4487 -0.6010
   57TMC2    C1  882   0.771   3.040  13.791 -0.5690  0.1149 -0.1134
   57TMC2    C2  883   0.824   3.021  13.914  0.2394  0.3839  0.3951
   57TMC2    C3  884   0.909   2.914  13.924  0.2559 -0.6370  0.0159
   57TMC2    C4  885   0.831   2.985  13.683  0.2800  0.0769  1.1431
   57TMC2    C5  886   0.920   2.883  13.699  0.3676 -0.5771  0.0930
   57TMC2    C6  887   0.954   2.836  13.822  0.3125 -0.3684  0.5816
   57TMC2     C  888   0.656   3.126  13.764  0.2798 -0.1565  0.4865
   57TMC2     O  889   0.604   3.108  13.653  0.0182  0.3967 -0.0357
   57TMC2     H  890   0.765   3.052  13.999  2.0599  0.4814  1.6103
   57TMC2    H1  891   0.807   3.025  13.585  2.0964 -0.1990  0.6055
   57TMC2    H2  892   1.028   2.758  13.832 -0.8476 -1.2683  2.3123
   57TMC2    C7  893   0.995   2.841  13.585  0.0346  0.1839  0.4325
   57TMC2    C8  894   0.908   2.857  14.055 -0.4101  0.3528 -0.3679
   57TMC2    O1  895   0.984   2.918  13.488 -0.1889  0.3575 -0.0805
   57TMC2    O2  896   0.909   2.926  14.154  0.4798 -0.0113 -0.2610
   57TMC2    O5  897   0.879   2.732  14.034  0.1058  0.6274 -0.1292
   57TMC2    H5  898   0.859   2.706  13.941  1.5516 -2.7406  0.4840
   58MPD2     C  899   0.307   3.475  13.877  0.0182 -0.5984 -1.3217
   58MPD2    C1  900   0.297   3.348  13.818  0.0774  0.7099 -0.2139
   58MPD2    C2  901   0.396   3.256  13.823 -0.0388 -0.4453  0.4774
   58MPD2    C3  902   0.516   3.305  13.873  0.5405  0.3618  0.2127
   58MPD2    C4  903   0.521   3.416  13.961  0.7233  0.0456 -0.4227
   58MPD2    C5  904   0.419   3.505  13.956 -0.9387 -0.6325 -0.4113
   58MPD2     H  905   0.382   3.163  13.770 -0.4312 -0.0932 -0.0408
   58MPD2    H1  906   0.610   3.437  14.020  0.6176 -0.2435 -0.1583
   58MPD2    H2  907   0.228   3.548  13.863  0.2136 -0.5949 -2.3969
   58MPD2    H3  908   0.428   3.606  13.995  1.8199 -0.1970 -2.1975
   58MPD2     N  909   0.633   3.227  13.858 -0.2814 -0.1397 -0.2314
   58MPD2    H5  910   0.711   3.245  13.921 -0.9883 -2.0973  1.2167
   58MPD2    N1  911   0.179   3.306  13.744  0.1085 -0.0989 -0.1112
   58MPD2    H7  912   0.177   3.209  13.712  0.6135 -0.8207  2.0093
   59TMC2    C1  913   2.472   3.090  12.796  0.4060 -0.0228  0.7910
   59TMC2    C2  914   2.508   2.956  12.823 -0.1970 -0.0269 -0.3087
   59TMC2    C3  915   2.500   2.874  12.718  0.0150  0.8616  0.7454
   59TMC2    C4  916   2.420   3.129  12.675  0.0312 -0.0841  0.0810
   59TMC2    C5  917   2.413   3.036  12.574 -0.4124 -0.0419 -0.8572
   59TMC2    C6  918   2.459   2.912  12.592 -0.1991  0.0129  0.0638
   59TMC2     C  919   2.537   3.201  12.862  0.3857  1.1747 -0.3932
   59TMC2     O  920   2.576   3.292  12.789  0.5179 -0.1968  0.0849
   59TMC2     H  921   2.546   2.919  12.918  2.7017  0.5582 -1.2428
   59TMC2    H1  922   2.399   3.234  12.660  0.9246 -0.0186 -0.6946
   59TMC2    H2  923   2.459   2.842  12.509  0.9574  0.8694 -0.6456
   59TMC2    C7  924   2.361   3.072  12.441  0.1493 -0.3761 -0.0147
   59TMC2    C8  925   2.555   2.738  12.718 -0.0504 -0.3371 -0.9168
   59TMC2    O1  926   2.373   2.979  12.359 -0.4331  0.3350 -0.0464
   59TMC2    O2  927   2.631   2.706  12.628 -0.3625  0.5931  0.3959
   59TMC2    O5  928   2.473   2.659  12.797  0.0701 -0.5719 -0.3967
   59TMC2    H5  929   2.403   2.697  12.854  0.7748 -0.9573  0.7028
   60MPD2     C  930   2.705   3.365  13.038  0.3088 -0.2503 -0.2396
   60MPD2    C1  931   2.652   3.241  13.080 -0.6841 -0.1806  0.6066
   60MPD2    C2  932   2.671   3.195  13.205  0.2185 -0.6119  0.5494
   60MPD2    C3  933   2.778   3.244  13.273  0.1719 -0.3175  0.0197
   60MPD2    C4  934   2.839   3.361  13.238 -0.2727  0.2969 -0.0742
   60MPD2    C5  935   2.797   3.421  13.124  0.7586  0.1186 -0.1064
   60MPD2     H  936   2.620   3.104  13.232 -0.0377 -0.7338 -0.3578
   60MPD2    H1  937   2.924   3.409  13.287 -0.1313  0.7215 -0.7459
   60MPD2    H2  938   2.678   3.415  12.946 -2.9631 -0.8232  0.4329
   60MPD2    H3  939   2.844   3.516  13.101  1.3198 -0.1914 -0.2512
   60MPD2     N  940   2.826   3.179  13.390 -0.1305 -0.4445  0.4803
   60MPD2    H5  941   2.908   3.216  13.435 -0.0591  1.6369 -1.3930
   60MPD2    N1  942   2.564   3.166  12.995  0.9247 -0.7366 -0.1830
   60MPD2    H7  943   2.522   3.081  13.031  0.3371  0.3089  1.6170
   61TMC2    C1  944   2.062   4.167  15.923  0.0406  0.1481 -0.0932
   61TMC2    C2  945   1.969   4.144  16.023 -0.4303  0.5036  0.1548
   61TMC2    C3  946   1.979   4.222  16.135  0.0268  0.3252 -0.2960
   61TMC2    C4  947   2.152   4.274  15.925  0.6205 -0.5901  0.1096
   61TMC2    C5  948   2.154   4.343  16.042  0.1524 -0.0094  0.1156
   61TMC2    C6  949   2.075   4.321  16.152  0.0306 -0.1818 -0.1853
   61TMC2     C  950   2.010   4.123  15.794  0.3881 -0.2884 -0.1876
   61TMC2     O  951   1.984   4.008  15.771 -0.1808 -0.2429  0.1272
   61TMC2     H  952   1.888   4.073  16.009  1.3687 -1.1586 -1.7375
   61TMC2    H1  953   2.229   4.289  15.850  0.3169  0.8981  0.0886
   61TMC2    H2  954   2.077   4.385  16.239 -1.6011  0.2210 -0.4408
   61TMC2    C7  955   2.214   4.471  16.037  0.1870  0.5714 -0.3364
   61TMC2    C8  956   1.888   4.184  16.236 -0.5623  0.2807 -1.6915
   61TMC2    O1  957   2.143   4.564  16.065  0.1934 -0.3951  0.2724
   61TMC2    O2  958   1.838   4.071  16.255 -0.0275  0.4493 -0.4604
   61TMC2    O5  959   1.874   4.290  16.317  0.0320 -0.0938 -0.2926
   61TMC2    H5  960   1.891   4.381  16.285  0.7492 -0.0267  0.2956
   62MPD2     C  961   1.924   4.099  15.498 -0.3946 -0.2585 -0.2109
   62MPD2    C1  962   1.949   4.217  15.576  0.2821  0.2145  0.0133
   62MPD2    C2  963   1.927   4.330  15.502  0.6301  0.6482  0.1758
   62MPD2    C3  964   1.891   4.336  15.364 -0.8084  0.4430 -0.3905
   62MPD2    C4  965   1.868   4.221  15.294 -0.2838 -0.1167 -0.5719
   62MPD2    C5  966   1.893   4.107  15.362 -0.0849 -0.7639 -0.6087
   62MPD2     H  967   1.940   4.428  15.546  0.0237  0.6949  0.2548
   62MPD2    H1  968   1.840   4.210  15.189 -0.7541  3.0551 -0.7834
   62MPD2    H2  969   1.931   3.996  15.531  0.8146 -0.0564  0.1764
   62MPD2    H3  970   1.878   4.012  15.311 -0.6395 -1.3056  0.5476
   62MPD2     N  971   1.900   4.462  15.306  0.0429  0.3655 -0.1003
   62MPD2    H5  972   1.925   4.539  15.368 -2.1948  0.5832  0.5352
   62MPD2    N1  973   1.994   4.229  15.707 -0.4003 -0.0606 -0.2806
   62MPD2    H7  974   2.009   4.321  15.748 -1.1038  0.3814 -1.0154
   63TMC2    C1  975   0.792   0.082  10.661 -0.7709 -0.5875  0.0796
   63TMC2    C2  976   0.927   0.075  10.688  0.3689 -0.3487 -0.1181
   63TMC2    C3  977   1.006   0.153  10.606 -0.4305  0.0844  0.1207
   63TMC2    C4  978   0.731   0.148  10.558  0.1186  0.3285  0.1667
   63TMC2    C5  979   0.810   0.227  10.488 -0.1498 -0.0639  0.4215
   63TMC2    C6  980   0.949   0.230  10.506 -0.2628  0.0185 -0.3971
   63TMC2     C  981   0.692   4.733  10.718 -0.9615 -0.7270  0.2104
   63TMC2     O  982   0.576   0.027  10.717 -0.2975  0.0355  0.1824
   63TMC2     H  983   0.978   0.025  10.769 -1.1562  1.9875  2.3025
   63TMC2    H1  984   0.623   0.154  10.553 -0.0003 -1.0274  0.9737
   63TMC2    H2  985   1.010   0.299  10.449  0.2693 -1.5151 -1.6816
   63TMC2    C7  986   0.744   0.295  10.375 -0.5161 -0.0782  0.1505
   63TMC2    C8  987   1.148   0.168  10.614  0.6195  0.5977 -0.8404
   63TMC2    O1  988   0.620   0.290  10.378  0.4621  0.0926  0.0066
   63TMC2    O2  989   1.219   0.176  10.518  0.1065 -0.3802 -0.5377
   63TMC2    O5  990   1.188   0.172  10.739 -0.4083  0.2980  0.3979
   63TMC2    H5  991   1.124   0.203  10.806  0.8587  0.8859  1.3379
   64MPD2     C  992   0.520   4.272  10.868  0.2523  0.0628  0.6939
   64MPD2    C1  993   0.661   4.266  10.852 -0.7625 -0.2650 -0.2575
   64MPD2    C2  994   0.726   4.385  10.824 -0.4609 -0.8929  0.5975
   64MPD2    C3  995   0.662   4.503  10.789 -0.9496  0.2535  0.9554
   64MPD2    C4  996   0.522   4.500  10.801 -0.6813 -0.1459 -0.5891
   64MPD2    C5  997   0.461   4.386  10.834 -0.0559  0.4146  0.1871
   64MPD2     H  998   0.833   4.374  10.831 -0.1093  1.6997 -0.8268
   64MPD2    H1  999   0.464   4.587  10.771  0.4459  0.5631 -0.7378
   64MPD2    H2 1000   0.458   4.190  10.904  1.5659 -1.4892 -0.5802
   64MPD2    H3 1001   0.354   4.400  10.845 -0.2236  0.0132 -0.9508
   64MPD2     N 1002   0.742   4.610  10.748 -0.2235 -0.7121  0.5444
   64MPD2    H5 1003   0.839   4.589  10.728 -0.6748 -1.9353 -0.3438
   64MPD2    N1 1004   0.731   4.142  10.872 -0.0323 -0.5932 -0.2536
   64MPD2    H7 1005   0.833   4.137  10.871 -0.1227 -2.3512 -1.1556
   65TMC2    C1 1006   2.928   4.558  15.519 -0.5585  0.6529  0.5445
   65TMC2    C2 1007   2.835   4.525  15.423 -0.0187 -0.3889  0.2842
   65TMC2    C3 1008   2.756   4.632  15.371 -0.2233  0.7418  0.3121
   65TMC2    C4 1009   2.948   4.686  15.557 -0.1446 -0.5082 -0.0595
   65TMC2    C5 1010   2.869   0.044  15.506 -0.7127 -0.3413  0.1693
   65TMC2    C6 1011   2.781   0.022  15.406 -0.2611 -0.3319 -0.2355
   65TMC2     C 1012   2.940   4.477  15.640 -0.0363 -0.2216  0.3903
   65TMC2     O 1013   2.930   4.539  15.744 -0.1151  0.4748 -0.1556
   65TMC2     H 1014   2.803   4.422  15.408  0.1297 -0.2453 -1.0036
   65TMC2    H1 1015   3.032   4.712  15.621  0.1601 -0.8310 -0.3278
   65TMC2    H2 1016   2.712   0.103  15.384 -0.6735 -0.2322  1.4560
   65TMC2    C7 1017   2.842   0.154  15.601  0.1591  0.2141  0.6552
   65TMC2    C8 1018   2.623   4.606  15.337  0.0651  0.0707  0.3931
   65TMC2    O1 1019   2.780   0.249  15.560 -0.5915 -0.3089  0.0066
   65TMC2    O2 1020   2.536   4.632  15.414 -0.0103 -0.2012  0.1319
   65TMC2    O5 1021   2.629   4.496  15.254 -0.1517 -0.1924 -0.0921
   65TMC2    H5 1022   2.715   4.485  15.208 -0.5310  0.8012 -1.0337
   66MPD2     C 1023   3.019   4.264  15.836  0.0922  0.5872 -0.1028
   66MPD2    C1 1024   2.990   4.240  15.704 -0.8294 -0.1548  0.2801
   66MPD2    C2 1025   3.001   4.112  15.655 -0.2942  0.0242  0.3542
   66MPD2    C3 1026   3.027   4.008  15.749 -0.4272  0.2154 -0.3249
   66MPD2    C4 1027   3.046   4.032  15.883  0.1712  0.4794 -0.4483
   66MPD2    C5 1028   3.041   4.163  15.923 -0.0682 -0.6429 -0.4809
   66MPD2     H 1029   2.953   4.085  15.562 -0.4833  0.2380  0.3895
   66MPD2    H1 1030   3.068   3.961  15.962  1.5109  1.0191 -0.3462
   66MPD2    H2 1031   3.030   4.364  15.876 -0.1360 -0.2440  2.0042
   66MPD2    H3 1032   3.057   4.184  16.028  0.3767 -0.5108 -0.5763
   66MPD2     N 1033   3.032   3.870  15.707 -0.2585 -0.0448  0.1767
   66MPD2    H5 1034   3.032   3.803  15.784  1.2544  0.6541  0.7782
   66MPD2    N1 1035   2.960   4.345  15.614  0.3781 -0.0401  0.7544
   66MPD2    H7 1036   2.934   4.310  15.522  0.2456 -0.0758  0.8062
   67TMC2    C1 1037   2.980   3.244  14.295  0.2199 -0.2929 -0.4407
   67TMC2    C2 1038   2.918   3.360  14.331 -0.9695  0.0623  0.4994
   67TMC2    C3 1039   2.970   3.428  14.439 -0.3487 -0.1287  0.4497
   67TMC2    C4 1040   3.099   3.203  14.348 -0.4549 -0.4191 -0.1188
   67TMC2    C5 1041   3.154   3.281  14.446 -0.4239  0.3185 -1.3028
   67TMC2    C6 1042   3.090   3.390  14.496  0.1220 -0.6153 -0.6758
   67TMC2     C 1043   2.925   3.137  14.222  0.2832 -0.1383 -0.2677
   67TMC2     O 1044   2.961   3.023  14.249 -0.0121 -0.4541 -0.2917
   67TMC2     H 1045   2.829   3.398  14.282 -1.5335 -1.6279  0.1969
   67TMC2    H1 1046   3.152   3.116  14.313  0.2972  0.0795 -0.2180
   67TMC2    H2 1047   3.130   3.453  14.574  1.6809 -1.7567 -0.5663
   67TMC2    C7 1048   3.290   3.247  14.495  0.2116  0.0582  0.0801
   67TMC2    C8 1049   2.900   3.543  14.494 -0.3143  0.0721 -0.7366
   67TMC2    O1 1050   3.366   3.182  14.421  0.4832 -0.2035  0.1266
   67TMC2    O2 1051   2.791   3.578  14.445 -0.3994 -0.4379 -0.2286
   67TMC2    O5 1052   2.923   3.546  14.623  0.1317 -0.7667 -0.2705
   67TMC2    H5 1053   2.982   3.480  14.665 -0.2944  0.1554  1.7756
   68MPD2     C 1054   2.773   2.971  14.030  0.2518  0.2802 -0.0150
   68MPD2    C1 1055   2.734   3.099  14.064  0.5057  0.3184  0.5707
   68MPD2    C2 1056   2.622   3.154  14.008 -0.3616  0.4194 -0.1220
   68MPD2    C3 1057   2.538   3.083  13.930  0.0457 -0.5206 -0.6172
   68MPD2    C4 1058   2.576   2.953  13.899  0.1384 -0.6926  0.2909
   68MPD2    C5 1059   2.691   2.906  13.952 -0.6869 -0.3515  0.4365
   68MPD2     H 1060   2.594   3.255  14.037  2.2799  0.7795  1.1999
   68MPD2    H1 1061   2.513   2.888  13.839  0.4182  0.1744 -0.9309
   68MPD2    H2 1062   2.864   2.929  14.071 -0.6810 -0.0702  1.7045
   68MPD2    H3 1063   2.714   2.805  13.921 -0.1947  0.0653 -0.5641
   68MPD2     N 1064   2.414   3.123  13.884  0.3979  0.2441 -0.2060
   68MPD2    H5 1065   2.351   3.052  13.848  0.2387  1.5140 -2.4239
   68MPD2    N1 1066   2.813   3.184  14.155 -0.4085 -0.7233 -0.4697
   68MPD2    H7 1067   2.784   3.281  14.163  0.0587 -0.6582  0.5067
   69TMC2    C1 1068   4.639   4.576  12.674 -0.1193  0.0561  0.7145
   69TMC2    C2 1069   4.503   4.572  12.674  0.1470  0.1600 -0.1106
   69TMC2    C3 1070   4.442   4.512  12.572 -1.1050 -0.1555  0.4623
   69TMC2    C4 1071   4.711   4.522  12.574  0.3504 -0.2594 -0.2734
   69TMC2    C5 1072   4.646   4.480  12.462 -0.6390 -0.0681  0.2919
   69TMC2    C6 1073   4.511   4.467  12.459 -0.4507 -0.0745 -0.3019
   69TMC2     C 1074   4.685   4.573  12.809 -0.6214  0.2833 -0.7377
   69TMC2     O 1075   4.611   4.541  12.898 -0.1854 -0.0441  0.0195
   69TMC2     H 1076   4.439   4.611  12.752  1.3853  1.8109  0.0749
   69TMC2    H1 1077   0.078   4.518  12.581  0.5502  3.6951 -1.0967
   69TMC2    H2 1078   4.459   4.456  12.365  1.0080 -1.2652 -0.9833
   69TMC2    C7 1079   4.729   4.430  12.355  0.2900 -0.2132 -0.4455
   69TMC2    C8 1080   4.303   4.479  12.589  0.0634 -0.0235 -0.4238
   69TMC2    O1 1081   0.109   4.457  12.361 -0.2060  0.0689  0.6814
   69TMC2    O2 1082   4.251   4.493  12.693  0.3290  0.5003  0.3207
   69TMC2    O5 1083   4.270   4.379  12.506  0.6617 -0.4831 -0.2155
   69TMC2    H5 1084   4.309   4.364  12.417  0.7670 -1.8612  0.0596
   70MPD2     C 1085   0.310   4.543  12.898  0.0998  0.3390 -0.2951
   70MPD2    C1 1086   0.172   4.521  12.912  0.4083  0.1580 -0.4380
   70MPD2    C2 1087   0.126   4.451  13.020 -0.1270  0.3859  0.0552
   70MPD2    C3 1088   0.219   4.398  13.109 -0.5137 -0.2313 -0.2138
   70MPD2    C4 1089   0.351   4.430  13.103  0.3593 -0.4223 -0.8904
   70MPD2    C5 1090   0.397   4.499  12.993  0.3113  0.6913 -0.1195
   70MPD2     H 1091   0.023   4.418  13.023  0.2387 -0.6695  0.8052
   70MPD2    H1 1092   0.414   4.421  13.191  0.9624 -0.3126 -1.3113
   70MPD2    H2 1093   0.354   4.609  12.825  0.1585 -0.7491 -1.2494
   70MPD2    H3 1094   0.500   4.532  12.985  0.4297 -0.6036 -4.1920
   70MPD2     N 1095   0.194   4.314  13.225 -0.0406 -0.3445  0.0277
   70MPD2    H5 1096   0.272   4.269  13.273 -0.3973 -0.1074  0.8292
   70MPD2    N1 1097   0.085   4.571  12.812  0.1186 -0.2514 -0.4211
   70MPD2    H7 1098   0.134   4.611  12.733 -0.6314 -0.2821 -0.9036
   71TMC2    C1 1099   2.286   4.674   0.906 -0.2499 -0.1253 -0.3902
   71TMC2    C2 1100   2.422   4.664   0.930  0.0634 -0.4703 -0.3387
   71TMC2    C3 1101   2.463   4.638   1.053  0.1549  0.8586 -0.0550
   71TMC2    C4 1102   2.195   4.663   1.004  0.1873 -0.3185  0.3482
   71TMC2    C5 1103   2.242   4.644   1.128 -0.5997  0.2941  0.2334
   71TMC2    C6 1104   2.377   4.634   1.153  0.3382  0.5895  0.6886
   71TMC2     C 1105   2.254   4.686   0.765  0.1977 -0.1578 -0.1581
   71TMC2     O 1106   2.150   0.007   0.738 -0.0361 -0.3897  0.0291
   71TMC2     H 1107   2.494   4.694   0.854 -0.7623  1.0215 -0.5461
   71TMC2    H1 1108   2.090   4.688   0.989  0.1381  0.0678  1.3558
   71TMC2    H2 1109   2.407   4.617   1.256 -0.3994  2.2130  1.1763
   71TMC2    C7 1110   2.150   4.633   1.242  0.7593 -0.0384 -0.1377
   71TMC2    C8 1111   2.604   4.608   1.066 -0.1846 -0.7053 -0.4476
   71TMC2    O1 1112   2.196   4.634   1.350 -0.8951  0.6685  0.2093
   71TMC2    O2 1113   2.682   4.557   0.987 -0.5542 -0.1401 -0.4489
   71TMC2    O5 1114   2.657   4.694   1.160 -0.0302 -0.5033 -0.7372
   71TMC2    H5 1115   2.593   0.020   1.194  0.4056 -0.3791 -0.1724
   72MPD2     C 1116   2.437   4.690   0.287  0.2010 -0.1302 -0.3842
   72MPD2    C1 1117   2.344   0.032   0.351 -0.2630  0.1697 -0.5849
   72MPD2    C2 1118   2.290   4.733   0.474 -0.3537 -0.0719  0.4972
   72MPD2    C3 1119   2.358   4.638   0.541 -0.2737  1.5267 -0.3893
   72MPD2    C4 1120   2.442   4.556   0.481  0.1146  0.6671  0.4467
   72MPD2    C5 1121   2.483   4.583   0.352  0.1147  0.0796 -0.5050
   72MPD2     H 1122   2.218   0.058   0.523 -2.5894 -0.0883 -2.7271
   72MPD2    H1 1123   2.494   4.482   0.541 -2.5907 -3.3031 -2.1478
   72MPD2    H2 1124   2.477   4.718   0.190 -1.1920  2.1103 -0.3348
   72MPD2    H3 1125   2.558   4.526   0.299  1.8486 -0.3365  2.3863
   72MPD2     N 1126   2.346   4.620   0.685 -0.1104  0.0466  0.1855
   72MPD2    H5 1127   2.390   4.539   0.727 -0.4062  0.0916  0.5900
   72MPD2    N1 1128   2.303   0.154   0.299  0.2141 -0.1119 -0.2902
   72MPD2    H7 1129   2.239   0.210   0.355  0.8832  1.3529 -0.9911
   73TMC2    C1 1130   1.987   2.031  14.252 -0.3602 -0.5843  0.4916
   73TMC2    C2 1131   1.945   2.099  14.364 -0.0667 -0.5757  0.5931
   73TMC2    C3 1132   2.008   2.070  14.476  0.0667  1.0565  0.5781
   73TMC2    C4 1133   2.097   1.953  14.259  0.2868 -0.2819  0.4567
   73TMC2    C5 1134   2.166   1.944  14.377 -0.3669  0.3747 -0.3975
   73TMC2    C6 1135   2.125   2.006  14.490  0.5849 -0.2340 -0.0077
   73TMC2     C 1136   2.018   2.138  14.156 -0.2203 -0.0951  0.1610
   73TMC2     O 1137   2.141   2.144  14.129  0.4520 -0.0795  0.0839
   73TMC2     H 1138   1.867   2.174  14.361  1.7765  1.2620 -1.4009
   73TMC2    H1 1139   2.151   1.911  14.174  0.4891  1.9579 -0.5157
   73TMC2    H2 1140   2.177   1.988  14.583  0.6456  3.3661  0.6383
   73TMC2    C7 1141   2.307   1.954  14.378  0.2639  0.1030 -0.2797
   73TMC2    C8 1142   1.952   2.139  14.588 -0.1316  0.2026 -0.4093
   73TMC2    O1 1143   2.373   1.912  14.474 -0.5899 -0.3957 -0.1613
   73TMC2    O2 1144   1.832   2.157  14.613  0.1918  0.2639  0.5943
   73TMC2    O5 1145   2.058   2.177  14.663  0.3323  0.6529 -0.1062
   73TMC2    H5 1146   2.145   2.162  14.621  0.1945 -0.7676  0.1162
   74MPD2     C 1147   1.963   2.575  13.895  0.2583  0.3527 -0.1998
   74MPD2    C1 1148   2.080   2.517  13.932 -0.2264 -0.2606  0.3803
   74MPD2    C2 1149   2.071   2.392  13.997  0.0244  0.4849 -0.5017
   74MPD2    C3 1150   1.943   2.338  14.028  0.1481  0.6603  0.0198
   74MPD2    C4 1151   1.831   2.401  13.986  0.1973  0.0715  0.8774
   74MPD2    C5 1152   1.846   2.521  13.926  0.1714 -0.3487 -0.7470
   74MPD2     H 1153   2.157   2.331  14.024 -0.2866  1.8528  3.6930
   74MPD2    H1 1154   1.735   2.359  14.012 -0.1017 -0.4424 -1.0298
   74MPD2    H2 1155   1.972   2.675  13.853  3.4584  0.6759  1.1796
   74MPD2    H3 1156   1.763   2.587  13.901  0.2226 -0.2253 -0.5900
   74MPD2     N 1157   1.922   2.218  14.102 -0.3282  0.2250  0.3663
   74MPD2    H5 1158   1.828   2.192  14.132  0.5573 -4.2659 -0.7050
   74MPD2    N1 1159   2.202   2.579  13.901  0.9354  0.5256  0.6129
   74MPD2    H7 1160   2.204   2.666  13.849  0.8718 -0.0737 -0.4001
   75TMC2    C1 1161   2.227   3.264  13.904 -0.0789  0.3154  0.0623
   75TMC2    C2 1162   2.159   3.181  13.993 -1.2087 -0.1018 -0.6729
   75TMC2    C3 1163   2.031   3.209  14.011 -0.2596  0.1321 -0.1340
   75TMC2    C4 1164   2.167   3.360  13.829 -0.3447  0.3475 -0.8754
   75TMC2    C5 1165   2.041   3.385  13.854  0.2061 -0.7996  0.1907
   75TMC2    C6 1166   1.969   3.309  13.942 -0.2373 -0.9575  0.1412
   75TMC2     C 1167   2.366   3.256  13.893  0.4320  0.0263  0.2020
   75TMC2     O 1168   2.435   3.358  13.889  0.2912 -0.0353  0.2079
   75TMC2     H 1169   2.213   3.108  14.052 -1.9972  0.3793  0.6268
   75TMC2    H1 1170   2.220   3.400  13.743 -0.7343  0.0685 -1.2445
   75TMC2    H2 1171   1.867   3.337  13.968  0.3603 -0.5360  2.0057
   75TMC2    C7 1172   1.969   3.436  13.745 -0.5757 -0.0429 -0.2698
   75TMC2    C8 1173   1.970   3.145  14.120 -1.1306 -0.8721 -0.1764
   75TMC2    O1 1174   1.976   3.376  13.640  0.0590 -0.2131 -0.8063
   75TMC2    O2 1175   2.020   3.120  14.231  0.2275  0.3788 -0.0734
   75TMC2    O5 1176   1.851   3.105  14.073  0.4299  0.5454  0.3874
   75TMC2    H5 1177   1.851   3.123  13.977  1.0161 -0.9642  0.0925
   76TMC2    C1 1178   1.240   3.485  12.055 -0.3063 -0.0944 -0.0955
   76TMC2    C2 1179   1.188   3.358  12.031  0.2983 -0.0783 -0.0389
   76TMC2    C3 1180   1.246   3.255  12.099  0.0331 -0.1379  0.5572
   76TMC2    C4 1181   1.338   3.506  12.149 -0.0327  0.5141 -0.0913
   76TMC2    C5 1182   1.398   3.402  12.211 -0.0501 -0.1140  0.6438
   76TMC2    C6 1183   1.355   3.278  12.181  0.2667  0.3078 -0.4534
   76TMC2     C 1184   1.181   3.597  11.990 -0.9315 -0.3203  0.4977
   76TMC2     O 1185   1.217   3.706  12.019  0.1038  0.2948  0.6544
   76TMC2     H 1186   1.101   3.343  11.969  0.8449 -0.3115 -0.7507
   76TMC2    H1 1187   1.381   3.605  12.158  0.6271  0.2158  0.0725
   76TMC2    H2 1188   1.399   3.197  12.238  1.0826 -0.5518 -2.3095
   76TMC2    C7 1189   1.529   3.421  12.269 -0.5550 -0.4009  0.9334
   76TMC2    C8 1190   1.225   3.119  12.049  0.0026  0.0366  0.0344
   76TMC2    O1 1191   1.602   3.326  12.258 -0.4929  0.5776 -0.0830
   76TMC2    O2 1192   1.268   3.021  12.106  0.8403 -0.3396 -0.4182
   76TMC2    O5 1193   1.184   3.117  11.922  0.4861 -0.2791  0.0839
   76TMC2    H5 1194   1.166   3.204  11.881 -1.4461  1.3986  4.5842
   77MPD2     C 1195   0.852   3.811  11.670  0.0836  0.0575  0.0331
   77MPD2    C1 1196   0.894   3.848  11.798 -0.6025  0.0825  0.1105
   77MPD2    C2 1197   0.988   3.769  11.858 -0.2330  0.3773  0.0929
   77MPD2    C3 1198   1.038   3.653  11.799 -0.5590 -0.5532  0.2459
   77MPD2    C4 1199   0.988   3.610  11.675 -0.4923  0.2761 -0.3868
   77MPD2    C5 1200   0.909   3.694  11.610  0.9756 -0.1036  0.4966
   77MPD2     H 1201   1.022   3.800  11.956 -0.8522 -2.2554  1.1380
   77MPD2    H1 1202   1.025   3.517  11.633 -1.0415  0.4056 -1.1369
   77MPD2    H2 1203   0.792   3.879  11.611 -1.5222  0.0086  1.6034
   77MPD2    H3 1204   0.886   3.664  11.508  0.6091  2.1158 -0.0692
   77MPD2     N 1205   1.109   3.563  11.878 -0.1866 -0.1471 -0.5722
   77MPD2    H5 1206   1.109   3.466  11.847  0.8446 -0.0321 -0.9322
   77MPD2    N1 1207   0.857   3.977  11.854 -0.4454 -0.1573 -0.1637
   77MPD2    H7 1208   0.906   4.012  11.935 -0.1354 -0.7799 -0.0776
   78TMC2    C1 1209   1.878   4.213   0.736  0.1381 -0.7874 -0.0074
   78TMC2    C2 1210   1.783   4.141   0.797 -0.2629 -0.3504 -0.1415
   78TMC2    C3 1211   1.799   4.122   0.930 -0.8301 -0.4376 -0.4157
   78TMC2    C4 1212   1.968   4.290   0.808  0.6233 -0.1186 -0.2439
   78TMC2    C5 1213   1.984   4.259   0.938 -1.0370  0.2644  0.1232
   78TMC2    C6 1214   1.910   4.160   0.996 -0.2383 -0.4855  0.3874
   78TMC2     C 1215   1.897   4.189   0.592  0.5775 -0.1292 -0.0579
   78TMC2     O 1216   1.834   4.097   0.546 -0.2157 -0.3513  0.1118
   78TMC2     H 1217   1.706   4.083   0.747 -0.4089 -1.7635  1.6954
   78TMC2    H1 1218   2.041   4.361   0.769  0.4972 -0.6909 -1.5373
   78TMC2    H2 1219   1.933   4.121   1.094  2.7495 -3.4249 -1.4944
   78TMC2    C7 1220   2.113   4.289   0.991 -0.0524  0.9670  0.0105
   78TMC2    C8 1221   1.723   4.017   0.996  0.1173 -0.4050  0.0377
   78TMC2    O1 1222   2.207   4.322   0.919  0.6050  0.6661  0.6722
   78TMC2    O2 1223   1.667   3.931   0.928  0.4410  0.5198  0.1109
   78TMC2    O5 1224   1.686   4.060   1.116 -0.1247 -0.2114 -0.6389
   78TMC2    H5 1225   1.717   4.153   1.127 -0.3680 -0.7356  4.3533
   79MPD1     C 1226   2.223   4.219   0.185 -0.3004 -1.1313  0.5990
   79MPD1    C1 1227   2.123   4.130   0.210 -0.5717  0.1411 -0.2375
   79MPD1    C2 1228   2.043   4.148   0.319  1.1395 -0.2446 -0.0361
   79MPD1    C3 1229   2.061   4.260   0.406  0.3855  0.0250 -0.7500
   79MPD1    C4 1230   2.160   4.350   0.377  0.5519  0.0593  0.3373
   79MPD1    C5 1231   2.240   4.329   0.266 -0.1579 -0.0315  0.0665
   79MPD1     H 1232   1.965   4.077   0.344  1.6088 -0.9587 -0.5914
   79MPD1    H1 1233   2.181   4.437   0.439 -2.1506  0.2618  0.9888
   79MPD1    H2 1234   2.300   4.192   0.114 -1.0502  1.5652 -1.2274
   79MPD1    H3 1235   2.312   4.408   0.246 -1.2145  0.6103 -1.1903
   79MPD1     N 1236   1.984   4.277   0.526 -1.2247 -0.9482  0.3158
   79MPD1    H5 1237   1.992   4.359   0.585 -0.7517 -1.0091  0.3426
   79MPD1    N1 1238   2.129   4.010   0.140 -0.1924  0.7177  0.4194
   79MPD1    H6 1239   2.045   3.953   0.147 -1.4663  2.3492 -1.2959
   79MPD1    H7 1240   2.142   4.038   0.043  2.6317 -1.0520  0.3054
   80TMC2    C1 1241   4.324   3.558  12.147  0.0890 -0.0487  0.5386
   80TMC2    C2 1242   4.233   3.606  12.058 -0.3975 -0.4667  0.1084
   80TMC2    C3 1243   4.136   3.519  12.009 -0.1144 -0.4353 -0.2786
   80TMC2    C4 1244   4.319   3.431  12.200  0.4613  0.1904  0.4210
   80TMC2    C5 1245   4.204   3.358  12.171  0.0792 -0.2030  0.0720
   80TMC2    C6 1246   4.117   3.391  12.064 -0.4310 -0.8625  0.2474
   80TMC2     C 1247   4.398   3.652  12.226  0.3011 -0.4828  0.1949
   80TMC2     O 1248   4.360   3.767  12.247 -0.4906 -0.2105 -0.2444
   80TMC2     H 1249   4.245   3.710  12.028  0.4193  0.3250  3.1976
   80TMC2    H1 1250   4.370   3.407  12.293  1.4080 -0.4735 -0.2641
   80TMC2    H2 1251   4.028   3.332  12.044 -0.3636 -1.1251  0.7073
   80TMC2    C7 1252   4.166   3.240  12.249  0.9793 -0.7667 -0.2470
   80TMC2    C8 1253   4.010   3.571  11.968 -0.3505  0.3678 -0.9553
   80TMC2    O1 1254   4.049   3.208  12.236 -1.0910  0.1946 -0.4220
   80TMC2    O2 1255   3.928   3.505  11.906 -0.2165 -0.3570  0.6122
   80TMC2    O5 1256   3.968   3.668  12.052  0.4296 -0.2559 -0.4187
   80TMC2    H5 1257   4.034   3.708  12.112 -0.0828 -2.3009  1.4852
   81MPD2     C 1258   4.733   3.603  12.360  0.5515  0.3832 -0.9102
   81MPD2    C1 1259   4.604   3.640  12.364  0.0435 -0.4582 -0.1270
   81MPD2    C2 1260   4.567   3.732  12.461  0.1734 -0.0810 -0.0305
   81MPD2    C3 1261   4.650   3.767  12.565  0.2244  0.5543 -0.6070
   81MPD2    C4 1262   0.040   3.729  12.552 -0.5844 -0.2574  0.0333
   81MPD2    C5 1263   0.085   3.657  12.449 -0.2401 -0.4343 -0.0958
   81MPD2     H 1264   4.469   3.778  12.452  1.4957  2.6883 -0.0655
   81MPD2    H1 1265   0.110   3.760  12.629 -1.5831 -0.7269  1.1373
   81MPD2    H2 1266   0.037   3.543  12.281  1.6656  1.2844 -0.9594
   81MPD2    H3 1267   0.191   3.636  12.444 -0.5493 -0.9634 -3.9720
   81MPD2     N 1268   4.609   3.834  12.688  0.1757  0.6453 -0.1391
   81MPD2    H5 1269   4.680   3.851  12.759 -1.3756 -0.5638  1.6718
   81MPD2    N1 1270   4.517   3.596  12.262  0.2375 -0.6290 -0.1665
   81MPD2    H7 1271   4.547   3.516  12.207 -1.3243 -0.2227 -1.6343
   82TMC2    C1 1272   2.850   3.065  10.914 -0.3385  0.0810  0.1806
   82TMC2    C2 1273   2.936   3.037  10.816  0.2943 -0.4126  0.3008
   82TMC2    C3 1274   3.023   2.928  10.832  0.3173 -0.3765  0.3129
   82TMC2    C4 1275   2.822   2.978  11.012 -0.2442  0.9404  0.7419
   82TMC2    C5 1276   2.903   2.871  11.019 -0.4280  0.3915  0.3083
   82TMC2    C6 1277   2.995   2.834  10.924 -0.7376 -0.0618 -0.4460
   82TMC2     C 1278   2.738   3.141  10.865  0.1292 -0.8164  0.4361
   82TMC2     O 1279   2.726   3.150  10.747  0.1749 -0.1749  0.2997
   82TMC2     H 1280   2.948   3.112  10.739 -1.9095 -0.4830 -0.1019
   82TMC2    H1 1281   2.730   2.984  11.070  0.0576 -3.4297  1.6396
   82TMC2    H2 1282   3.039   2.736  10.916 -1.0377 -0.1444 -1.0911
   82TMC2    C7 1283   2.853   2.765  11.106  0.6159 -0.1883 -0.2115
   82TMC2    C8 1284   3.105   2.882  10.715 -0.5464 -0.3590  0.0270
   82TMC2    O1 1285   2.781   2.794  11.197  0.1710 -0.3174  0.1538
   82TMC2    O2 1286   3.119   2.766  10.679  0.2421 -0.1948  0.2276
   82TMC2    O5 1287   3.112   2.989  10.640 -0.0517  0.1429 -0.1892
   82TMC2    H5 1288   3.108   3.076  10.684  1.5528 -0.3947  1.0335
   83MPD2     C 1289   2.243   3.246  10.926  0.1678 -0.2493 -0.1899
   83MPD2    C1 1290   2.315   3.205  10.814 -0.7457 -0.1060 -0.2273
   83MPD2    C2 1291   2.450   3.176  10.828  0.2727  0.3096  0.2703
   83MPD2    C3 1292   2.514   3.203  10.946  0.4602  0.9446  0.1540
   83MPD2    C4 1293   2.441   3.246  11.055 -0.9770 -0.6363 -0.1685
   83MPD2    C5 1294   2.308   3.260  11.044  0.4402 -0.0616  0.0373
   83MPD2     H 1295   2.506   3.145  10.741  0.5657 -2.7441  1.5645
   83MPD2    H1 1296   2.491   3.261  11.150 -0.1194 -0.6513 -0.6166
   83MPD2    H2 1297   2.141   3.282  10.922 -0.0203 -0.6122  1.5038
   83MPD2    H3 1298   2.247   3.288  11.129  2.6087 -3.2436  2.6200
   83MPD2     N 1299   2.650   3.169  10.968  0.2395 -0.6500  0.3881
   83MPD2    H5 1300   2.667   3.166  11.068  2.7179  1.1640  0.0178
   83MPD2    N1 1301   2.241   3.187  10.691 -0.5437  0.1421  0.1908
   83MPD2    H7 1302   2.142   3.210  10.692 -0.9720 -1.6300 -1.5558
   84TMC2    C1 1303   4.593   2.295  10.907  0.2104  0.4471  0.2133
   84TMC2    C2 1304   4.680   2.402  10.906  0.0300 -0.5008  0.2416
   84TMC2    C3 1305   4.720   2.447  10.782  0.3493  0.2776 -0.2361
   84TMC2    C4 1306   4.551   2.235  10.790 -0.7598 -0.2997  0.6378
   84TMC2    C5 1307   4.586   2.283  10.664 -0.4506  0.6045 -0.3865
   84TMC2    C6 1308   4.679   2.392  10.666 -0.2037 -0.1415  0.2909
   84TMC2     C 1309   4.513   2.275  11.028 -0.0763  0.1328 -0.3310
   84TMC2     O 1310   4.397   2.245  10.999  0.3805  1.0460 -0.2357
   84TMC2     H 1311   4.696   2.470  10.988  0.7140  1.3011 -1.3833
   84TMC2    H1 1312   4.492   2.145  10.804  0.6288 -1.4394 -0.9015
   84TMC2    H2 1313   4.707   2.432  10.569 -0.8924  0.1541  0.2168
   84TMC2    C7 1314   4.592   2.185  10.555  0.4071  0.3909  0.2780
   84TMC2    C8 1315   0.088   2.548  10.774 -0.9337  0.3266  0.5215
   84TMC2    O1 1316   4.529   2.086  10.578 -0.6943  0.5097 -0.5879
   84TMC2    O2 1317   0.181   2.547  10.849  0.4408 -0.0501 -0.4602
   84TMC2    O5 1318   0.063   2.624  10.665  0.0888  0.7027 -0.4409
   84TMC2    H5 1319   4.706   2.622  10.654 -0.0766  1.2027  0.9605
   85TMC2    C1 1320   0.484   0.345  15.936 -0.3061  0.3085 -0.4247
   85TMC2    C2 1321   0.363   0.404  15.956 -0.6902 -0.4241 -0.6373
   85TMC2    C3 1322   0.351   0.533  15.909  0.1560 -0.0271  0.2039
   85TMC2    C4 1323   0.592   0.410  15.873 -0.1064 -0.6602  0.7683
   85TMC2    C5 1324   0.572   0.534  15.824 -0.2687  0.0362  0.1363
   85TMC2    C6 1325   0.451   0.595  15.840  0.3143 -0.1006 -0.3515
   85TMC2     C 1326   0.491   0.212  15.984 -0.5028  0.5325 -0.0531
   85TMC2     O 1327   0.597   0.175  16.037 -0.3085  0.3808  0.0737
   85TMC2     H 1328   0.289   0.373  16.030 -0.0249  0.5995  0.4521
   85TMC2    H1 1329   0.682   0.355  15.851 -0.3453 -1.1079  0.9149
   85TMC2    H2 1330   0.423   0.695  15.812  1.7500 -0.4962 -3.2148
   85TMC2    C7 1331   0.660   0.582  15.719 -0.1101  0.4311  0.4778
   85TMC2    C8 1332   0.239   0.612  15.935 -0.3374 -0.0376 -0.0015
   85TMC2    O1 1333   0.722   0.490  15.670  0.2285  0.3592  0.2367
   85TMC2    O2 1334   0.240   0.734  15.943  0.1822 -0.8221 -0.3914
   85TMC2    O5 1335   0.150   0.537  15.995 -0.4660 -0.0491  0.2969
   85TMC2    H5 1336   0.142   0.443  15.966  1.0646  0.0328 -0.3751
   86MPD2     C 1337   0.201   4.604  16.213  0.3472  0.3767  0.1315
   86MPD2    C1 1338   0.163   4.610  16.075 -0.2347  0.2068 -0.2021
   86MPD2    C2 1339   0.215   4.704  15.992  0.2422  0.6569 -0.4961
   86MPD2    C3 1340   0.309   0.052  16.033 -0.2335 -0.7012 -0.3322
   86MPD2    C4 1341   0.351   0.034  16.159  0.0732 -0.1534  0.3968
   86MPD2    C5 1342   0.297   4.694  16.252 -0.6187 -1.2222  0.1158
   86MPD2     H 1343   0.174   4.706  15.892 -0.7832  1.3622 -0.0611
   86MPD2    H1 1344   0.425   0.101  16.201 -2.2907  1.3755  2.1700
   86MPD2    H2 1345   0.182   4.529  16.289 -0.4147  0.6736  0.2318
   86MPD2    H3 1346   0.313   4.697  16.359  1.3529 -1.8956 -0.1653
   86MPD2     N 1347   0.371   0.151  15.956  0.1982 -0.3497 -0.0497
   86MPD2    H5 1348   0.315   0.179  15.876 -0.9072 -1.3852  0.3504
   86MPD2    N1 1349   0.066   4.522  16.018  0.0542  0.1789  0.4900
   86MPD2    H7 1350   0.047   4.540  15.920 -1.2626  0.1700  0.7488
   87TMC2    C1 1351   1.967   2.834   0.485  0.1427  0.5354  0.0575
   87TMC2    C2 1352   1.841   2.786   0.492 -0.2683 -0.1908 -0.1499
   87TMC2    C3 1353   1.777   2.773   0.611 -0.6649  0.1125 -0.3263
   87TMC2    C4 1354   2.032   2.864   0.596 -0.3910  0.4683 -0.1567
   87TMC2    C5 1355   1.963   2.868   0.712  0.5937 -0.4592 -0.0628
   87TMC2    C6 1356   1.834   2.820   0.724  0.0448 -0.4780 -0.4106
   87TMC2     C 1357   2.043   2.794   0.360 -0.4859  0.2692  0.5372
   87TMC2     O 1358   1.986   2.709   0.295 -0.1911 -0.6016 -0.4564
   87TMC2     H 1359   1.786   2.758   0.403 -0.8606  2.5376 -0.6412
   87TMC2    H1 1360   2.139   2.879   0.594 -0.4301  0.8991  1.5615
   87TMC2    H2 1361   1.783   2.805   0.818  0.0324 -2.2647 -0.7160
   87TMC2    C7 1362   2.016   2.949   0.818  0.3479 -0.1702 -0.6450
   87TMC2    C8 1363   1.639   2.723   0.612  0.1992  0.5721  0.8018
   87TMC2    O1 1364   2.137   2.959   0.819  0.2006 -0.7138 -0.2509
   87TMC2    O2 1365   1.588   2.650   0.535  0.2964  0.2450  0.0739
   87TMC2    O5 1366   1.583   2.803   0.706 -0.0825  0.0652  0.2557
   87TMC2    H5 1367   1.635   2.884   0.728 -2.0286  1.1357  0.8879
   88MPD2     C 1368   2.052   3.128   1.038  0.4230 -0.7229 -0.4268
   88MPD2    C1 1369   1.930   3.116   0.986  0.2157  0.2474  0.1116
   88MPD2    C2 1370   1.829   3.204   1.027  0.2805 -0.6926 -0.5651
   88MPD2    C3 1371   1.847   3.306   1.117  0.2307  0.0966 -0.6274
   88MPD2    C4 1372   1.974   3.320   1.171 -0.4403  0.2069 -0.6412
   88MPD2    C5 1373   2.075   3.227   1.129  0.5346  0.0395  0.4171
   88MPD2     H 1374   1.731   3.193   0.982 -0.1621  0.9515 -0.0254
   88MPD2    H1 1375   1.991   3.401   1.239 -2.3506 -0.1446  0.2580
   88MPD2    H2 1376   2.137   3.064   1.021  2.0125  1.2679 -0.0928
   88MPD2    H3 1377   2.176   3.233   1.169  0.4821  1.9584  0.2880
   88MPD2     N 1378   1.752   3.403   1.166  0.5037 -0.1445 -0.5132
   88MPD2    H5 1379   1.781   3.478   1.228 -1.0740  0.8458 -0.9481
   88MPD2    N1 1380   1.911   3.012   0.893 -0.0928 -0.0066 -0.5667
   88MPD2    H7 1381   1.821   3.013   0.846  0.3567 -1.0660 -1.4565
   89TMC2    C1 1382   2.855   1.576   1.700 -0.5813 -0.0344  0.1148
   89TMC2    C2 1383   2.933   1.673   1.759 -0.9679 -0.2416  0.4368
   89TMC2    C3 1384   2.982   1.763   1.676 -0.1163  0.3024  0.2496
   89TMC2    C4 1385   2.821   1.570   1.573 -0.6272  0.6863 -0.5688
   89TMC2    C5 1386   2.868   1.671   1.496  0.5131 -0.1969  0.8836
   89TMC2    C6 1387   2.946   1.775   1.548 -0.4942 -0.8707  0.2551
   89TMC2     C 1388   2.818   1.457   1.775 -0.2002 -0.9211  0.4434
   89TMC2     O 1389   2.784   1.469   1.892 -0.5331  0.4000  0.0128
   89TMC2     H 1390   2.966   1.670   1.862  0.8357  1.0891 -0.1159
   89TMC2    H1 1391   2.779   1.481   1.528 -0.4631 -0.0884  0.8273
   89TMC2    H2 1392   2.966   1.866   1.494 -0.5324 -0.5174  0.8396
   89TMC2    C7 1393   2.840   1.651   1.355  0.2343  0.9128  0.1647
   89TMC2    C8 1394   3.050   1.881   1.734  0.4206 -0.7678  0.3521
   89TMC2    O1 1395   2.742   1.592   1.323 -0.4927  0.4552  0.2375
   89TMC2    O2 1396   3.045   1.991   1.690  0.0943  0.3915  0.0847
   89TMC2    O5 1397   3.136   1.846   1.835 -0.3954  0.6086  0.6314
   89TMC2    H5 1398   3.149   1.749   1.841  1.8120  0.8135 -1.0687
   90MPD2     C 1399   2.656   0.968   1.761  0.5189  0.2740 -0.2325
   90MPD2    C1 1400   2.744   0.988   1.656 -0.3019  0.2428  0.2290
   90MPD2    C2 1401   2.792   1.118   1.649  0.6844 -0.1009  1.0704
   90MPD2    C3 1402   2.773   1.218   1.738 -0.6215 -0.0399  0.4783
   90MPD2    C4 1403   2.694   1.188   1.851 -0.0667 -0.4098  0.0129
   90MPD2    C5 1404   2.627   1.064   1.852 -0.1441 -0.0301  0.2805
   90MPD2     H 1405   2.843   1.148   1.558  1.3049 -1.2563  1.0393
   90MPD2    H1 1406   2.683   1.255   1.936  1.2821  0.4951 -0.5331
   90MPD2    H2 1407   2.601   0.875   1.770  2.5900 -0.9270 -0.1143
   90MPD2    H3 1408   2.567   1.039   1.939 -1.1103 -1.7961 -0.8850
   90MPD2     N 1409   2.826   1.342   1.707  0.6851 -0.7442  0.1934
   90MPD2    H5 1410   2.883   1.344   1.623  0.3232  1.3262 -0.0006
   90MPD2    N1 1411   2.754   0.910   1.537  0.5646  0.2625 -0.6810
   90MPD2    H7 1412   2.833   0.927   1.476 -0.3906  1.1207 -1.6735
   91TMC2    C1 1413   0.552   1.108  16.816  0.5283  0.4160 -0.5002
   91TMC2    C2 1414   0.615   1.096  16.697 -0.1698  0.0808 -0.0229
   91TMC2    C3 1415   0.543   1.045  16.593  0.1591  0.2450 -0.5429
   91TMC2    C4 1416   0.417   1.090  16.826 -0.4840 -0.0831  0.0212
   91TMC2    C5 1417   0.348   1.046  16.722 -0.2952 -0.0298 -0.2204
   91TMC2    C6 1418   0.408   1.010  16.603  0.5383 -0.2996  0.3998
   91TMC2     C 1419   0.617   1.132  16.938 -0.2609 -0.2385 -0.5178
   91TMC2     O 1420   0.554   1.127  17.046  0.3022  0.3574  0.1915
   91TMC2     H 1421   0.716   1.128  16.675  0.1264  1.4023  3.1888
   91TMC2    H1 1422   0.360   1.125  16.911  0.9454 -0.9612  1.3260
   91TMC2    H2 1423   0.353   0.968  16.519 -1.6088  2.6806  0.2945
   91TMC2    C7 1424   0.209   1.014  16.746  0.2293  0.1998  0.2359
   91TMC2    C8 1425   0.614   1.032  16.471  0.4018 -0.3630 -0.6792
   91TMC2    O1 1426   0.168   1.002  16.859  0.4566  0.0032 -0.6219
   91TMC2    O2 1427   0.737   1.022  16.463 -0.5726 -0.1465 -0.7535
   91TMC2    O5 1428   0.537   1.073  16.371 -0.5410 -0.0098 -0.0235
   91TMC2    H5 1429   0.445   1.097  16.397 -1.2410 -0.7314 -1.8114
   92MPD2     C 1430   0.845   1.122  17.135  0.0044  0.9951  0.2754
   92MPD2    C1 1431   0.851   1.176  17.009 -0.5008  0.4139  0.3988
   92MPD2    C2 1432   0.972   1.220  16.965 -0.4345 -0.1812 -0.1003
   92MPD2    C3 1433   1.080   1.229  17.049 -0.5062  0.3276 -0.1542
   92MPD2    C4 1434   1.065   1.197  17.176 -0.4700 -0.4631 -0.7514
   92MPD2    C5 1435   0.952   1.132  17.218 -0.2644  0.0450 -0.0392
   92MPD2     H 1436   0.993   1.229  16.859 -1.2635  0.2166 -0.2344
   92MPD2    H1 1437   1.136   1.206  17.257 -0.1191  0.3065 -1.1520
   92MPD2    H2 1438   0.759   1.071  17.176  0.9811 -0.4844  0.5020
   92MPD2    H3 1439   0.941   1.118  17.325 -1.7592  0.8164 -0.0868
   92MPD2     N 1440   1.191   1.305  16.996  0.4243 -0.1410  0.0563
   92MPD2    H5 1441   1.173   1.360  16.914 -1.3973  0.3722  0.8056
   92MPD2    N1 1442   0.747   1.162  16.913  0.1914 -0.1843  0.0098
   92MPD2    H7 1443   0.774   1.179  16.816  0.7251 -1.4319 -0.0563
   93TMC2    C1 1444   2.037   1.082  14.101 -0.7120 -0.2147  0.5308
   93TMC2    C2 1445   1.967   1.136  14.208  0.5222 -0.1677 -0.4735
   93TMC2    C3 1446   2.013   1.255  14.251  0.1326  0.0561 -0.5193
   93TMC2    C4 1447   2.133   1.146  14.026 -0.4045  0.0771 -0.5159
   93TMC2    C5 1448   2.157   1.277  14.069  0.7549  0.1910 -0.5938
   93TMC2    C6 1449   2.103   1.329  14.189 -0.8884  0.0055  0.0108
   93TMC2     C 1450   1.977   0.967  14.036  0.7704 -0.7659  0.7005
   93TMC2     O 1451   2.042   0.907  13.946 -0.1810  0.2429 -0.1806
   93TMC2     H 1452   1.919   1.068  14.277  2.4180 -0.2555  0.7584
   93TMC2    H1 1453   2.189   1.095  13.949 -0.8369 -0.9254 -0.1640
   93TMC2    H2 1454   2.135   1.426  14.227  2.0267 -0.6209 -0.8620
   93TMC2    C7 1455   2.282   1.330  14.022  0.0150  0.0903 -0.2252
   93TMC2    C8 1456   1.969   1.295  14.377  0.0297  0.4522 -0.3843
   93TMC2    O1 1457   2.365   1.250  13.979  0.1062  0.7906 -0.3391
   93TMC2    O2 1458   2.047   1.347  14.460 -0.1816  0.1167 -0.5228
   93TMC2    O5 1459   1.841   1.335  14.349 -0.6597  0.3000 -0.0749
   93TMC2    H5 1460   1.806   1.307  14.261  0.3303 -1.7440  0.1829
   94MPD2     C 1461   1.813   0.750  13.929 -0.3148 -0.6497 -0.8442
   94MPD2    C1 1462   1.769   0.850  14.011 -0.7885  0.1223 -0.3338
   94MPD2    C2 1463   1.633   0.871  14.013 -1.1967 -0.4658  0.6703
   94MPD2    C3 1464   1.544   0.811  13.936  0.0100  0.5966  0.4073
   94MPD2    C4 1465   1.592   0.709  13.863 -0.7278  0.6424  0.0885
   94MPD2    C5 1466   1.723   0.673  13.860  0.1479  0.0352  0.4167
   94MPD2     H 1467   1.598   0.954  14.073 -0.3608  1.0055 -0.8477
   94MPD2    H1 1468   1.522   0.648  13.806 -1.3849  1.3644  0.1205
   94MPD2    H2 1469   1.916   0.737  13.896 -1.2565  1.6198 -4.6453
   94MPD2    H3 1470   1.753   0.578  13.815 -3.5773 -0.6654 -0.6294
   94MPD2     N 1471   1.416   0.871  13.916 -0.3087 -0.2216 -0.0442
   94MPD2    H5 1472   1.400   0.963  13.956 -0.1992  0.0595 -0.6494
   94MPD2    N1 1473   1.847   0.951  14.072 -0.2649  0.1301  0.3885
   94MPD2    H7 1474   1.808   1.008  14.146 -1.9973  0.4505 -0.7585
   95TMC2    C1 1475   2.485   3.345  16.290  0.4755  0.3624 -0.6716
   95TMC2    C2 1476   2.427   3.235  16.352  0.3462  0.2106 -0.5155
   95TMC2    C3 1477   2.392   3.241  16.482 -0.2025 -0.1395 -0.2081
   95TMC2    C4 1478   2.517   3.456  16.360 -0.1662 -0.2062 -0.1483
   95TMC2    C5 1479   2.498   3.446  16.492  0.6366 -0.5883  0.6179
   95TMC2    C6 1480   2.427   3.349  16.550  0.2447 -0.0825 -0.1006
   95TMC2     C 1481   2.546   3.340  16.164  0.0786  0.7665  0.3275
   95TMC2     O 1482   2.620   3.423  16.128  0.2996  0.1309 -0.0598
   95TMC2     H 1483   2.406   3.140  16.305  2.1390  0.4909 -1.8434
   95TMC2    H1 1484   2.588   3.528  16.321  2.9280 -2.2273  1.7012
   95TMC2    H2 1485   2.392   3.370  16.650 -0.5826 -0.6609 -0.2740
   95TMC2    C7 1486   2.496   3.573  16.567 -0.1603 -0.0645  0.0892
   95TMC2    C8 1487   2.386   3.106  16.544  0.4253 -0.1013  0.0685
   95TMC2    O1 1488   2.422   3.585  16.662 -0.2720  0.1948  0.1127
   95TMC2    O2 1489   2.303   3.027  16.506  0.0252 -0.4436 -0.3182
   95TMC2    O5 1490   2.509   3.081  16.605 -0.0136  0.0251 -0.1242
   95TMC2    H5 1491   2.557   3.160  16.637 -0.8620  0.1658  0.7917
   96MPD2     C 1492   2.680   3.073  15.740  0.1659  0.5092  0.2675
   96MPD2    C1 1493   2.714   3.208  15.773  0.2442 -0.3251 -0.1952
   96MPD2    C2 1494   2.680   3.246  15.904 -0.3491 -0.0178 -0.4430
   96MPD2    C3 1495   2.596   3.167  15.985  0.7292  1.0879 -0.7818
   96MPD2    C4 1496   2.568   3.037  15.944  0.9466 -0.1662 -0.5215
   96MPD2    C5 1497   2.605   2.990  15.818 -0.3679  1.4084  0.2373
   96MPD2     H 1498   2.706   3.345  15.939 -1.9713  0.2496 -0.0062
   96MPD2    H1 1499   2.494   2.979  15.997  1.0869  1.8359  1.9012
   96MPD2    H2 1500   2.711   3.032  15.644  1.0475 -1.5520  1.4324
   96MPD2    H3 1501   2.577   2.889  15.791  0.5128  1.0596  0.6538
   96MPD2     N 1502   2.531   3.217  16.106  0.5004 -0.2547  0.7200
   96MPD2    H5 1503   2.463   3.153  16.147 -0.8635  1.3217  0.9185
   96MPD2    N1 1504   2.783   3.293  15.690 -0.0792  0.5682  0.2289
   96MPD2    H7 1505   2.789   3.271  15.592  2.6657 -1.6311  0.8985
   97TMC2    C1 1506   4.156   0.995  17.552  0.7011 -0.4741  0.8325
   97TMC2    C2 1507   4.124   1.031  17.423 -0.3894 -0.4666 -0.2020
   97TMC2    C3 1508   4.166   1.155  17.392  0.4873  0.0675  0.2575
   97TMC2    C4 1509   4.235   1.069  17.630 -0.0148  0.3360  0.1021
   97TMC2    C5 1510   4.280   1.186  17.584 -0.2553 -0.0205  0.1800
   97TMC2    C6 1511   4.238   1.237  17.472  0.4279  0.0377 -0.3696
   97TMC2     C 1512   4.084   0.892  17.624  0.3029 -0.0261 -0.0789
   97TMC2     O 1513   4.053   0.909  17.740  0.5691 -0.2124  0.2122
   97TMC2     H 1514   4.055   0.976  17.360 -1.3250  0.8271 -0.3025
   97TMC2    H1 1515   4.253   1.029  17.729 -1.5014  0.1691  0.3109
   97TMC2    H2 1516   4.276   1.330  17.433  0.0880  0.4852  0.3697
   97TMC2    C7 1517   4.355   1.271  17.677 -0.3165 -0.0968 -0.2500
   97TMC2    C8 1518   4.121   1.210  17.268 -0.6262 -0.0483 -0.1416
   97TMC2    O1 1519   4.391   1.232   0.028  0.1002 -0.3086 -0.6153
   97TMC2    O2 1520   4.184   1.291  17.197 -0.1137  0.0675  0.4235
   97TMC2    O5 1521   3.988   1.206  17.289 -0.0390  0.1906 -0.4179
   97TMC2    H5 1522   3.951   1.148  17.359 -1.8398  0.9614 -0.7228
   98MPD2     C 1523   3.922   0.415  17.659  0.5898 -0.1447 -0.0169
   98MPD2    C1 1524   3.892   0.522  17.742 -0.7777 -0.0772  0.7045
   98MPD2    C2 1525   3.930   0.650  17.705  0.4235 -0.0895  0.6580
   98MPD2    C3 1526   4.008   0.672  17.585 -0.0037 -0.4743 -0.0253
   98MPD2    C4 1527   4.033   0.563  17.506  0.2689  0.6727  0.0727
   98MPD2    C5 1528   3.990   0.435  17.544 -0.0413 -0.7367  0.0832
   98MPD2     H 1529   3.900   0.740  17.757 -1.9517 -0.1435 -0.6355
   98MPD2    H1 1530   4.084   0.576  17.410  0.3114 -0.0625 -0.0067
   98MPD2    H2 1531   3.907   0.311  17.685  2.4656 -0.4104 -0.0037
   98MPD2    H3 1532   4.016   0.347  17.487 -0.4981  0.1487 -1.4911
   98MPD2     N 1533   4.055   0.793  17.540 -0.1452  0.2250 -0.0556
   98MPD2    H5 1534   4.101   0.783  17.451 -0.3374  1.7688 -0.3385
   98MPD2    N1 1535   3.832   0.485   0.110 -0.0529  0.7202  0.0247
   98MPD2    H7 1536   3.804   0.389   0.122 -0.8753  1.0681  0.8674
   99TMC2    C1 1537   2.867   3.219   1.672 -0.2646  0.2978 -0.1461
   99TMC2    C2 1538   2.936   3.281   1.776  0.2662  0.1525 -0.3547
   99TMC2    C3 1539   2.858   3.314   1.883 -0.5084 -0.9733 -0.1318
   99TMC2    C4 1540   2.733   3.196   1.682  0.2056 -0.2900 -0.7173
   99TMC2    C5 1541   2.661   3.238   1.788  0.2318 -0.2057  0.5827
   99TMC2    C6 1542   2.725   3.291   1.894  0.2215  0.2859 -0.5912
   99TMC2     C 1543   2.943   3.189   1.552 -0.3710 -0.2987  0.2604
   99TMC2     O 1544   3.051   3.250   1.543  0.3363  0.1903  0.2462
   99TMC2     H 1545   3.032   3.330   1.763  0.7304 -0.1500  1.8736
   99TMC2    H1 1546   2.681   3.158   1.594  0.4937 -2.6742  0.1386
   99TMC2    H2 1547   2.691   3.326   1.991 -0.9261 -0.5421 -0.7084
   99TMC2    C7 1548   2.519   3.202   1.796  0.1098 -0.3145 -0.8970
   99TMC2    C8 1549   2.913   3.392   1.981 -0.0477  0.6127  0.2449
   99TMC2    O1 1550   2.451   3.266   1.876 -0.3090  0.4489 -0.4265
   99TMC2    O2 1551   2.860   3.486   2.045 -0.0914  0.5338 -0.2474
   99TMC2    O5 1552   3.047   3.360   1.982  0.8733  0.2805 -0.2305
   99TMC2    H5 1553   3.068   3.266   1.962 -0.5250 -0.1033  0.1069
  100MPD2     C 1554   3.076   3.059   1.324 -0.3688 -0.1445 -0.1131
  100MPD2    C1 1555   2.935   3.050   1.338  0.6792  0.4384  0.0172
  100MPD2    C2 1556   2.857   2.979   1.244 -0.0733  0.3559  0.0747
  100MPD2    C3 1557   2.919   2.918   1.138 -0.2929  0.0953 -0.4237
  100MPD2    C4 1558   3.057   2.933   1.123 -0.4119  0.2294 -0.1846
  100MPD2    C5 1559   3.133   2.994   1.219  0.8033 -0.0444 -0.0543
  100MPD2     H 1560   2.749   2.975   1.253  0.0532 -1.1691  0.9288
  100MPD2    H1 1561   3.108   2.912   1.030 -2.6316  0.2655 -1.3962
  100MPD2    H2 1562   3.146   3.108   1.390  0.0561 -0.4723 -0.3234
  100MPD2    H3 1563   3.240   3.005   1.205  1.1745 -2.1207  1.1594
  100MPD2     N 1564   2.843   2.864   1.026 -0.4502 -0.1389 -0.5028
  100MPD2    H5 1565   2.746   2.895   1.024 -0.5163 -0.3552 -0.7152
  100MPD2    N1 1566   2.878   3.105   1.457  0.1129 -0.5520  1.0984
  100MPD2    H7 1567   2.781   3.081   1.476  0.1908  1.2252  3.6723
  101TMC2    C1 1568   3.427   3.652  13.733 -0.3458  0.0664  0.3205
  101TMC2    C2 1569   3.402   3.695  13.857  0.3951 -0.4629  0.6699
  101TMC2    C3 1570   3.441   3.820  13.891 -0.0209  0.0419 -0.5006
  101TMC2    C4 1571   3.490   3.740  13.645  0.4079 -0.6331  0.0972
  101TMC2    C5 1572   3.511   3.870  13.680  0.6240  0.3698 -0.5241
  101TMC2    C6 1573   3.495   3.910  13.807 -0.7821 -0.0224  0.6711
  101TMC2     C 1574   3.399   3.516  13.711 -0.5319  0.5372  0.5724
  101TMC2     O 1575   3.303   3.471  13.769  0.1214  0.5224 -0.0342
  101TMC2     H 1576   3.345   3.633  13.926  0.8300 -0.8759  0.6605
  101TMC2    H1 1577   3.510   3.707  13.544  1.6441  0.6105 -0.0577
  101TMC2    H2 1578   3.498   4.013  13.842  2.9285 -0.3871  1.4354
  101TMC2    C7 1579   3.604   3.928  13.590  0.6615 -0.4353  0.0874
  101TMC2    C8 1580   3.377   3.873  14.006  0.0883 -0.1206  0.9508
  101TMC2    O1 1581   3.587   3.899  13.471  0.7043 -0.5251  0.2158
  101TMC2    O2 1582   3.281   3.816  14.047  0.2366  0.1918 -0.3587
  101TMC2    O5 1583   3.478   3.923  14.085  0.2290  0.0550  0.1685
  101TMC2    H5 1584   3.557   3.958  14.039  0.4790  1.3182  1.5579
  102MPD2     C 1585   3.521   3.293  13.466  0.1467 -0.0836  0.4329
  102MPD2    C1 1586   3.464   3.321  13.582 -0.3982 -0.3107  0.2549
  102MPD2    C2 1587   3.374   3.231  13.635 -0.3910  0.0665 -0.2084
  102MPD2    C3 1588   3.343   3.106  13.570  0.1371  0.5648 -0.2110
  102MPD2    C4 1589   3.408   3.079  13.452 -0.1605  0.7687  0.5904
  102MPD2    C5 1590   3.503   3.170  13.408  0.5679 -1.1971 -0.0348
  102MPD2     H 1591   3.329   3.250  13.732  1.0583  0.4055  0.3938
  102MPD2    H1 1592   3.406   2.980  13.407  3.1739  1.0809 -0.2350
  102MPD2    H2 1593   3.584   3.366  13.416 -0.7541  0.7921  0.5846
  102MPD2    H3 1594   3.558   3.159  13.315  2.2999 -0.3781  0.8886
  102MPD2     N 1595   3.253   3.018  13.637  0.0445  0.3807 -0.0302
  102MPD2    H5 1596   3.202   3.052  13.718  0.2694  0.2501  0.1660
  102MPD2    N1 1597   3.480   3.450  13.626  0.0356  0.4483 -0.0564
  102MPD2    H7 1598   3.552   3.495  13.570 -0.6016  2.2656  0.5690
  103TMC2    C1 1599   1.740   4.129  12.596 -0.4468 -0.6283  0.1579
  103TMC2    C2 1600   1.753   4.230  12.507  0.1818  0.3484 -0.2296
  103TMC2    C3 1601   1.810   4.349  12.545  0.0749  0.5851 -0.1406
  103TMC2    C4 1602   1.789   4.137  12.717  0.4347  0.9983 -0.4108
  103TMC2    C5 1603   1.847   4.259  12.758 -0.3402 -0.6176 -0.3479
  103TMC2    C6 1604   1.855   4.364  12.670 -0.4754  0.1776 -0.4352
  103TMC2     C 1605   1.690   4.004  12.547  0.6479 -0.2040  0.6942
  103TMC2     O 1606   1.574   3.994  12.509  0.2998  0.2179 -0.0161
  103TMC2     H 1607   1.723   4.225  12.403 -0.2821  0.8453 -0.1182
  103TMC2    H1 1608   1.789   4.049  12.780 -1.4272  1.1301 -0.1981
  103TMC2    H2 1609   1.892   4.463  12.696 -1.2774  0.5333 -0.6708
  103TMC2    C7 1610   1.856   4.278  12.893  0.3233 -0.7447  0.1865
  103TMC2    C8 1611   1.897   4.403  12.443 -0.3228 -0.3568  0.7580
  103TMC2    O1 1612   1.784   4.203  12.962 -0.4534 -0.2184 -0.4349
  103TMC2    O2 1613   1.857   4.438  12.332  0.1201  0.1499  0.3141
  103TMC2    O5 1614   2.021   4.380  12.485  0.2878  0.2627  0.0398
  103TMC2    H5 1615   2.029   4.323  12.564 -0.1590  0.1487 -0.0003
  104MPD2     C 1616   1.901   3.705  12.474  0.0606 -0.1914  0.2306
  104MPD2    C1 1617   1.789   3.781  12.478  0.1843 -0.5363 -0.8308
  104MPD2    C2 1618   1.671   3.725  12.431  0.9453  0.2502 -0.0209
  104MPD2    C3 1619   1.667   3.599  12.368 -0.4286 -0.0111 -0.6137
  104MPD2    C4 1620   1.785   3.537  12.358  0.0577 -0.2840  0.2893
  104MPD2    C5 1621   1.900   3.585  12.413  0.1081  0.2497 -0.9201
  104MPD2     H 1622   1.585   3.789  12.443  1.4553  1.1661 -1.1466
  104MPD2    H1 1623   1.795   3.437  12.318  0.0113 -0.3273  0.3859
  104MPD2    H2 1624   1.997   3.737  12.513 -0.5203 -0.2965  1.7728
  104MPD2    H3 1625   1.989   3.525  12.404 -0.6979 -1.5206  2.6449
  104MPD2     N 1626   1.551   3.549  12.312 -0.7278  0.1191  0.5668
  104MPD2    H5 1627   1.475   3.616  12.317 -1.0156 -0.1035 -0.7263
  104MPD2    N1 1628   1.788   3.912  12.539  0.3992  0.1802 -0.4392
  104MPD2    H7 1629   1.882   3.945  12.560  1.2297 -1.8177 -1.0600
  105TMC2    C1 1630   2.438   2.430  17.378  0.5507  0.0983  0.0025
  105TMC2    C2 1631   2.319   2.371  17.359 -0.0169  0.3596 -1.4742
  105TMC2    C3 1632   2.204   2.425  17.414 -0.4000 -0.4872  1.0695
  105TMC2    C4 1633   2.451   2.546  17.442 -0.3527  0.0611  0.1596
  105TMC2    C5 1634   2.334   2.614  17.466  0.1200 -0.4811  0.0961
  105TMC2    C6 1635   2.209   2.556  17.451  0.9647  0.0362  0.8415
  105TMC2     C 1636   2.552   2.358  17.330 -0.1674 -0.1252  0.0127
  105TMC2     O 1637   2.549   2.239  17.312 -0.3849  0.0573  0.1274
  105TMC2     H 1638   2.318   2.272  17.315 -1.2966 -0.5225  0.5654
  105TMC2    H1 1639   2.547   2.592  17.461  0.7301 -0.7656 -3.3469
  105TMC2    H2 1640   2.125   2.601  17.503  1.1797  3.0389 -1.4146
  105TMC2    C7 1641   2.351   2.733  17.542 -0.6955 -0.0960 -0.0203
  105TMC2    C8 1642   2.076   2.367  17.382 -0.2225  0.0270 -0.1974
  105TMC2    O1 1643   2.436   2.811  17.501  0.2815  0.1484 -0.3909
  105TMC2    O2 1644   1.974   2.439  17.382  0.1808  0.3687 -0.3897
  105TMC2    O5 1645   2.083   2.228  17.360  0.0260 -0.0460  0.0791
  105TMC2    H5 1646   2.173   2.198  17.384  0.5659  2.4664  1.2546
  106MPD2     C 1647   3.040   2.350  17.150 -0.0206 -0.2782  0.7282
  106MPD2    C1 1648   3.005   2.477  17.171 -0.5108 -0.0071  0.0904
  106MPD2    C2 1649   2.873   2.500  17.213 -0.5325 -0.3036 -0.2601
  106MPD2    C3 1650   2.784   2.401  17.241  0.3578 -0.2125 -0.4467
  106MPD2    C4 1651   2.819   2.273  17.220 -0.3534 -0.1014 -0.1371
  106MPD2    C5 1652   2.951   2.252  17.187  0.1248  0.3555 -0.4468
  106MPD2     H 1653   2.845   2.604  17.225  1.1820 -0.0458  1.4955
  106MPD2    H1 1654   2.755   2.185  17.222 -1.2366  0.5203 -1.9625
  106MPD2    H2 1655   3.147   2.331  17.147 -0.1796 -0.7518 -1.7818
  106MPD2    H3 1656   2.983   2.149  17.182  2.1250  0.9933 -0.6698
  106MPD2     N 1657   2.656   2.439  17.290  0.4146  0.5577 -0.1665
  106MPD2    H5 1658   2.642   2.539  17.296 -1.3537  0.2742  0.5913
  106MPD2    N1 1659   3.095   2.585  17.155  0.4477  0.3631  0.7887
  106MPD2    H7 1660   3.047   2.673  17.164  2.4884  1.4349  1.2674
  107TMC2    C1 1661   3.758   2.407  11.578  0.7891 -0.1185  0.9973
  107TMC2    C2 1662   3.696   2.313  11.497  0.3133  0.2444  0.3719
  107TMC2    C3 1663   3.772   2.246  11.406 -0.1554  0.0324  0.5872
  107TMC2    C4 1664   3.893   2.422  11.588 -0.5317  0.0764  0.1550
  107TMC2    C5 1665   3.966   2.347  11.504 -0.6899  0.6123 -0.4095
  107TMC2    C6 1666   3.911   2.256  11.420  0.8233  0.0748 -0.9559
  107TMC2     C 1667   3.674   2.496  11.655 -0.6601  0.3870  0.3393
  107TMC2     O 1668   3.697   2.495  11.779 -0.2030 -0.0585  0.0021
  107TMC2     H 1669   3.588   2.312  11.490  0.4269  1.1908 -1.7492
  107TMC2    H1 1670   3.936   2.487  11.664  0.9045 -2.9308  1.8956
  107TMC2    H2 1671   3.966   2.210  11.339  0.9677  1.0319 -1.4083
  107TMC2    C7 1672   4.110   2.358  11.520 -0.5759  0.1454  0.0148
  107TMC2    C8 1673   3.703   2.200  11.285  0.3901 -1.2032  0.1942
  107TMC2    O1 1674   4.144   2.399  11.631 -0.1686  0.3777  0.1907
  107TMC2    O2 1675   3.727   2.233  11.170  0.7063  0.3094  0.4194
  107TMC2    O5 1676   3.586   2.154  11.319  0.4897  0.5822 -0.0919
  107TMC2    H5 1677   3.573   2.144  11.416 -2.5395  2.1219 -0.3263
  108MPD2     C 1678   3.420   2.746  11.559  0.4879  0.6645 -0.5727
  108MPD2    C1 1679   3.511   2.692  11.635  0.4682  0.5448 -0.3954
  108MPD2    C2 1680   3.502   2.721  11.767 -0.3533  0.5664 -0.2756
  108MPD2    C3 1681   3.416   2.812  11.820 -0.4463  0.3618  0.2299
  108MPD2    C4 1682   3.329   2.873  11.735 -0.0112 -0.0418 -0.0821
  108MPD2    C5 1683   3.332   2.843  11.598  0.3785 -0.0324 -0.5304
  108MPD2     H 1684   3.574   2.678  11.836 -1.7441  1.3860  1.6869
  108MPD2    H1 1685   3.250   2.933  11.779 -0.0445 -2.4621  3.1419
  108MPD2    H2 1686   3.417   2.715  11.456 -1.2791 -2.9749  0.5670
  108MPD2    H3 1687   3.250   2.871  11.533 -0.8705 -0.6176  0.7859
  108MPD2     N 1688   3.417   2.856  11.957 -0.1088 -0.5361 -0.4398
  108MPD2    H5 1689   3.371   2.941  11.987 -1.7332 -1.6510  0.2459
  108MPD2    N1 1690   3.588   2.578  11.581 -0.3392  0.7772  0.6872
  108MPD2    H7 1691   3.575   2.552  11.483  2.3763  1.2307  0.2243
  109TMC2    C1 1692   3.120   4.238   0.060  0.6796 -0.4848 -0.9242
  109TMC2    C2 1693   3.089   4.287  17.699 -0.1534  0.2835  0.3847
  109TMC2    C3 1694   3.145   4.409  17.659 -0.1576  0.3564  0.0544
  109TMC2    C4 1695   3.194   4.317   0.144 -0.0097 -0.3068 -0.2396
  109TMC2    C5 1696   3.242   4.446   0.106 -0.5920  0.3248 -0.6895
  109TMC2    C6 1697   3.210   4.489  17.741  0.0730 -0.3017 -0.3792
  109TMC2     C 1698   3.028   4.140   0.117 -0.1593  0.3820 -0.3306
  109TMC2     O 1699   2.963   4.072   0.034  0.4724 -0.2432 -0.2344
  109TMC2     H 1700   3.032   4.233  17.624 -0.2676 -1.8206  2.0051
  109TMC2    H1 1701   3.233   4.272   0.235 -0.8731 -2.0761 -0.7442
  109TMC2    H2 1702   3.254   4.577  17.696 -0.5962  0.5455  0.6214
  109TMC2    C7 1703   3.308   4.534   0.196 -0.2516  0.3182  0.0067
  109TMC2    C8 1704   3.126   4.457  17.527  0.7710  0.6935 -0.4401
  109TMC2    O1 1705   3.358   4.638   0.146 -0.2853  0.3285 -0.6042
  109TMC2    O2 1706   3.120   4.575  17.491 -0.1757 -0.0666 -0.2393
  109TMC2    O5 1707   3.134   4.350  17.448 -0.2941  0.0401 -0.6004
  109TMC2    H5 1708   3.144   4.267  17.499  2.1850  0.5420 -0.3118
  110MPD2     C 1709   2.762   3.926   0.505 -0.2202  0.3334 -0.1037
  110MPD2    C1 1710   2.867   3.997   0.558 -0.1675 -0.1561  0.0998
  110MPD2    C2 1711   2.965   4.057   0.472 -0.0659  0.3908 -0.6947
  110MPD2    C3 1712   2.942   4.061   0.336  0.3639 -0.2505 -0.7726
  110MPD2    C4 1713   2.842   3.981   0.289  0.4887 -0.4087  0.4962
  110MPD2    C5 1714   2.765   3.897   0.373  0.9291  0.2036  0.4171
  110MPD2     H 1715   3.035   4.129   0.514  1.0934 -0.4784 -1.1319
  110MPD2    H1 1716   2.827   3.958   0.184  3.2056 -1.8725  0.4397
  110MPD2    H2 1717   2.693   3.881   0.575  1.9942 -1.5837  0.8339
  110MPD2    H3 1718   2.684   3.836   0.335  0.4897  0.1585  1.4257
  110MPD2     N 1719   3.028   4.134   0.253 -0.1550  0.0748 -0.2501
  110MPD2    H5 1720   3.091   4.196   0.303 -1.4971 -0.3823  1.9971
  110MPD2    N1 1721   2.862   4.011   0.692 -0.7795  0.1485  0.2981
  110MPD2    H7 1722   2.778   3.976   0.736 -0.8028 -0.2577 -0.0723
  111TMC2    C1 1723   3.171   4.428  12.159 -0.2560 -0.4909  0.1227
  111TMC2    C2 1724   3.066   4.460  12.244 -0.3298  0.3227 -0.0808
  111TMC2    C3 1725   3.102   4.496  12.366  0.5267 -0.6094 -0.0733
  111TMC2    C4 1726   3.308   4.437  12.193  1.3128 -0.1580  0.0204
  111TMC2    C5 1727   3.336   4.448  12.326 -0.0253  0.6304 -0.5861
  111TMC2    C6 1728   3.233   4.481  12.411 -0.0292 -0.1517  0.1463
  111TMC2     C 1729   3.140   4.408  12.024  0.4853  0.5530  0.0593
  111TMC2     O 1730   3.219   4.455  11.941  0.2767 -0.1857  0.7754
  111TMC2     H 1731   2.963   4.463  12.211  0.0237  1.4506 -1.0691
  111TMC2    H1 1732   3.384   4.415  12.119  0.8930  0.9940 -0.7578
  111TMC2    H2 1733   3.239   4.451  12.515  0.6587 -0.6762 -0.0456
  111TMC2    C7 1734   3.460   4.395  12.387 -0.1235 -0.5906 -0.3194
  111TMC2    C8 1735   2.994   4.508  12.462  0.1566  0.8420 -0.5475
  111TMC2    O1 1736   3.456   4.362  12.507 -0.0664  0.3100  0.0311
  111TMC2    O2 1737   2.881   4.513  12.425 -0.1611  0.6141  0.5670
  111TMC2    O5 1738   3.038   4.566  12.575  0.4336 -0.1312  0.4056
  111TMC2    H5 1739   3.132   4.552  12.600  1.1612 -1.2227 -2.9966
  112MPD2     C 1740   2.837   4.234  11.643  0.2320 -0.4692  0.0436
  112MPD2    C1 1741   2.917   4.349  11.650  0.1771  0.0668 -0.7140
  112MPD2    C2 1742   2.986   4.379  11.767 -1.0285  0.7257 -0.9752
  112MPD2    C3 1743   2.974   4.300  11.880  0.1743  0.1324 -0.5505
  112MPD2    C4 1744   2.881   4.199  11.880  0.4666 -0.6169 -0.5715
  112MPD2    C5 1745   2.821   4.162  11.758  0.0956 -0.3311  0.2655
  112MPD2     H 1746   3.047   4.469  11.762 -0.3081  0.3070  0.2554
  112MPD2    H1 1747   2.850   4.152  11.973  1.9618 -0.8302 -0.1851
  112MPD2    H2 1748   2.799   4.196  11.549  2.8271 -0.7015 -0.9058
  112MPD2    H3 1749   2.754   4.078  11.744 -0.6893  0.3289  0.0844
  112MPD2     N 1750   3.021   4.334  12.011 -0.6467 -0.4541  0.1705
  112MPD2    H5 1751   2.984   4.278  12.088 -2.2869  1.0753  0.4864
  112MPD2    N1 1752   2.955   4.429  11.538 -0.6392 -0.3245  0.2287
  112MPD2    H7 1753   3.018   4.505  11.558  1.0733 -1.6673 -0.0519
  113TMC2    C1 1754   1.860   2.206   1.156 -0.6789  0.8812 -0.7201
  113TMC2    C2 1755   1.739   2.231   1.103 -0.0424 -0.4132  0.2316
  113TMC2    C3 1756   1.653   2.126   1.093 -0.1852  0.1555 -0.6741
  113TMC2    C4 1757   1.901   2.080   1.183 -0.0002 -0.2337 -0.3291
  113TMC2    C5 1758   1.817   1.973   1.148  0.3969  0.1061 -0.4359
  113TMC2    C6 1759   1.687   1.992   1.102 -0.5097 -0.2620 -0.6269
  113TMC2     C 1760   1.946   2.322   1.181  0.6639  0.1700  0.7259
  113TMC2     O 1761   1.886   2.429   1.190  0.1524 -0.1771 -0.4657
  113TMC2     H 1762   1.721   2.331   1.067 -0.2583 -0.0500  1.3342
  113TMC2    H1 1763   2.000   2.058   1.221  0.8318 -1.3953 -3.0928
  113TMC2    H2 1764   1.615   1.917   1.073 -1.8270  1.1785 -1.0685
  113TMC2    C7 1765   1.856   1.843   1.207  0.0517  0.2850  0.1689
  113TMC2    C8 1766   1.514   2.151   1.055  0.0237  0.5643 -0.4789
  113TMC2    O1 1767   1.948   1.835   1.282  0.6969  0.1297 -0.2215
  113TMC2    O2 1768   1.450   2.071   0.988 -0.2436 -0.2714 -0.1327
  113TMC2    O5 1769   1.481   2.267   1.113 -0.2514  0.6102 -0.4135
  113TMC2    H5 1770   1.546   2.311   1.171 -1.8169  0.0637  1.7654
  114MPD2     C 1771   2.414   2.517   1.291 -0.1848  0.9067  0.6415
  114MPD2    C1 1772   2.294   2.575   1.289 -0.3927  0.4604 -0.4318
  114MPD2    C2 1773   2.181   2.496   1.261 -0.5580 -0.0496  0.4350
  114MPD2    C3 1774   2.193   2.373   1.205 -0.4982 -0.3533 -0.0596
  114MPD2    C4 1775   2.320   2.323   1.193 -0.6132 -0.4309 -0.4333
  114MPD2    C5 1776   2.428   2.390   1.244  0.6786  0.1618 -0.1060
  114MPD2     H 1777   2.083   2.539   1.280 -0.3406  0.2606  0.8614
  114MPD2    H1 1778   2.337   2.221   1.161 -1.4479 -0.6201 -0.2749
  114MPD2    H2 1779   2.505   2.565   1.325  1.5561 -0.8133 -1.6194
  114MPD2    H3 1780   2.529   2.353   1.231  0.4464 -1.0114  1.4045
  114MPD2     N 1781   2.082   2.287   1.179 -0.1377  0.2436 -0.7044
  114MPD2    H5 1782   2.098   2.191   1.152  0.5838  0.4124 -0.8612
  114MPD2    N1 1783   2.273   2.713   1.319  0.3111  0.8202 -0.2811
  114MPD2    H7 1784   2.178   2.748   1.321  0.4233  1.2290 -2.0622
  115TMC2    C1 1785   2.716   0.179  17.758  0.6401 -0.6745 -0.8836
  115TMC2    C2 1786   2.709   0.146   0.129 -0.3734 -0.8575 -0.0386
  115TMC2    C3 1787   2.684   0.248   0.219  0.8434  0.0790 -0.3248
  115TMC2    C4 1788   2.702   0.312  17.711  0.3570  0.5522  0.0497
  115TMC2    C5 1789   2.677   0.407   0.051 -1.0744  0.6563  1.1121
  115TMC2    C6 1790   2.665   0.379   0.187 -0.1424  0.6768  0.3941
  115TMC2     C 1791   2.691   0.073  17.664  0.1193  0.0940 -0.6419
  115TMC2     O 1792   2.742   0.083  17.553  0.2164 -0.6946  0.0796
  115TMC2     H 1793   2.710   0.045   0.168 -0.5951 -0.7253  0.3123
  115TMC2    H1 1794   2.712   0.337  17.606 -1.9430  0.5049 -0.1884
  115TMC2    H2 1795   2.645   0.460   0.257 -0.0226  0.3263  0.8311
  115TMC2    C7 1796   2.665   0.545   0.020  0.3766 -0.2672 -0.0934
  115TMC2    C8 1797   2.697   0.213   0.357  1.1308 -0.0429 -0.1350
  115TMC2    O1 1798   2.610   0.612   0.104 -0.3812  0.8975  0.6514
  115TMC2    O2 1799   2.681   0.095   0.391  0.3188 -0.7957  0.0538
  115TMC2    O5 1800   2.802   0.293   0.397  0.5557 -0.1746 -0.5118
  115TMC2    H5 1801   2.814   0.376   0.345 -1.7632  0.0635 -0.6746
  116MPD2     C 1802   2.461   4.378  17.527 -0.1325  0.2349  0.3119
  116MPD2    C1 1803   2.582   4.432  17.487  0.1355  0.0599  0.2096
  116MPD2    C2 1804   2.620   4.557  17.537 -0.1929  0.5852  0.3162
  116MPD2    C3 1805   2.547   4.614  17.636 -0.0754  0.6022  0.0990
  116MPD2    C4 1806   2.435   4.556  17.681 -0.5518  0.3108 -0.4137
  116MPD2    C5 1807   2.383   4.439  17.623 -0.4535  0.1747 -0.4261
  116MPD2     H 1808   2.699   4.610  17.485 -1.6090 -0.9685 -3.4671
  116MPD2    H1 1809   2.379   4.599   0.003  0.2743 -0.1106  0.3629
  116MPD2    H2 1810   2.425   4.280  17.496 -1.3597  1.3517 -1.7632
  116MPD2    H3 1811   2.294   4.400  17.670  0.2933 -0.5952  0.3344
  116MPD2     N 1812   2.582   4.740  17.701 -0.0556  0.2950 -0.4453
  116MPD2    H5 1813   2.520   0.042   0.009  2.9389 -0.2484  2.6064
  116MPD2    N1 1814   2.649   4.363  17.384  0.7598 -0.5031  0.1476
  116MPD2    H7 1815   2.603   4.282  17.345  0.5468  0.2837 -1.2303
  117TMC2    C1 1816   1.345   1.848  14.194  0.1838 -0.0911  0.2808
  117TMC2    C2 1817   1.444   1.748  14.187  0.2273 -0.1451 -0.6397
  117TMC2    C3 1818   1.578   1.783  14.196  0.1109 -0.2741  0.6308
  117TMC2    C4 1819   1.375   1.979  14.208 -0.3328  0.4965  0.8163
  117TMC2    C5 1820   1.509   2.006  14.217 -0.9794  0.0150  0.5940
  117TMC2    C6 1821   1.612   1.914  14.219 -0.6443  0.1505  0.1380
  117TMC2     C 1822   1.205   1.786  14.199 -0.2702 -0.5919  0.4292
  117TMC2     O 1823   1.196   1.671  14.230  0.2102  0.2160 -0.4936
  117TMC2     H 1824   1.416   1.647  14.157 -1.6085  1.0149 -2.8766
  117TMC2    H1 1825   1.301   2.058  14.212 -1.8714 -0.8277 -2.0918
  117TMC2    H2 1826   1.712   1.942  14.250 -0.5358 -1.0082  0.8292
  117TMC2    C7 1827   1.563   2.143  14.220  0.2845  0.4262 -0.1519
  117TMC2    C8 1828   1.688   1.682  14.180 -0.4109 -0.8473  0.0476
  117TMC2    O1 1829   1.683   2.154  14.217 -0.3518  0.1083  0.0734
  117TMC2    O2 1830   1.802   1.716  14.153  0.0606  0.2419 -0.2383
  117TMC2    O5 1831   1.646   1.574  14.240 -0.2232  0.2636 -0.4898
  117TMC2    H5 1832   1.551   1.575  14.268  0.5820 -0.6701  2.2442
  118MPD2     C 1833   1.368   2.454  14.177  0.6627 -0.5597 -0.4233
  118MPD2    C1 1834   1.478   2.382  14.208  0.2850 -0.2581 -0.0245
  118MPD2    C2 1835   1.595   2.446  14.233 -0.3341 -0.3292  0.0980
  118MPD2    C3 1836   1.600   2.584  14.249 -0.8238  0.0661  0.7328
  118MPD2    C4 1837   1.482   2.660  14.246 -0.3709  0.2736 -0.0261
  118MPD2    C5 1838   1.367   2.586  14.207 -0.4504  0.4443 -0.7053
  118MPD2     H 1839   1.686   2.387  14.232  1.0718  1.8185  0.3816
  118MPD2    H1 1840   1.467   2.764  14.271  1.9364  0.2639  1.3668
  118MPD2    H2 1841   1.283   2.390  14.156 -0.0829  0.3837 -0.2940
  118MPD2    H3 1842   1.276   2.643  14.204 -0.3874  0.5971  0.4199
  118MPD2     N 1843   1.717   2.667  14.285 -0.1539 -0.3807 -0.0027
  118MPD2    H5 1844   1.709   2.768  14.288  0.1683 -0.3131 -1.2647
  118MPD2    N1 1845   1.464   2.238  14.206 -0.0344 -0.3867  0.1970
  118MPD2    H7 1846   1.373   2.200  14.185 -0.4571  1.8954 -2.1506
  119TMC2    C1 1847   4.448   2.411  13.188 -0.1012  0.4454 -0.4241
  119TMC2    C2 1848   4.481   2.295  13.238 -0.5524  0.5475 -0.1652
  119TMC2    C3 1849   4.373   2.225  13.280  0.7334 -1.1061 -0.3519
  119TMC2    C4 1850   4.322   2.457  13.178  0.4723 -0.6772 -0.2693
  119TMC2    C5 1851   4.211   2.390  13.215 -0.3103 -0.1839  0.2438
  119TMC2    C6 1852   4.241   2.268  13.277  0.3112  0.3795  0.4307
  119TMC2     C 1853   4.538   2.523  13.206 -0.2600 -0.3377  0.0238
  119TMC2     O 1854   4.501   2.629  13.157 -0.0236 -0.2360 -1.1288
  119TMC2     H 1855   4.582   2.255  13.235 -0.3731  1.2822 -3.4775
  119TMC2    H1 1856   4.303   2.549  13.123 -1.0610 -0.7110  0.2069
  119TMC2    H2 1857   4.157   2.215  13.321 -0.3801  1.4255  0.3557
  119TMC2    C7 1858   4.100   2.478  13.260  0.3046  0.0131  0.0534
  119TMC2    C8 1859   4.383   2.090  13.339 -0.3157 -0.7432 -0.6451
  119TMC2    O1 1860   4.064   2.570  13.187  0.0613 -0.1333 -0.2103
  119TMC2    O2 1861   4.292   2.041  13.401 -0.9254 -0.6390  0.5233
  119TMC2    O5 1862   4.491   2.025  13.295  0.2348  0.4789 -0.3916
  119TMC2    H5 1863   4.533   2.056  13.212  0.7993  2.2448  0.5472
  120MPD2     C 1864   0.129   2.742  13.540 -0.1257  0.0495 -1.2103
  120MPD2    C1 1865   0.036   2.804  13.460  0.6581  0.1544 -0.3806
  120MPD2    C2 1866   4.698   2.722  13.375  0.7309 -0.1898 -0.2035
  120MPD2    C3 1867   4.720   2.582  13.368 -0.5391  0.3930 -1.1668
  120MPD2    C4 1868   0.086   2.534  13.446 -0.9348  0.7338 -0.5335
  120MPD2    C5 1869   0.160   2.612  13.525 -0.3790  0.1123 -0.7257
  120MPD2     H 1870   4.617   2.766  13.317 -0.6988 -1.3622  0.9100
  120MPD2    H1 1871   0.115   2.430  13.436  1.4207  1.3906 -0.5604
  120MPD2    H2 1872   0.197   2.792  13.608 -0.9475  2.2555 -1.9933
  120MPD2    H3 1873   0.240   2.560  13.577 -0.6055 -0.5997 -1.0939
  120MPD2     N 1874   4.636   2.491  13.305 -0.3646 -0.0185 -0.1847
  120MPD2    H5 1875   4.641   2.391  13.324 -1.2082 -0.2253 -1.0914
  120MPD2    N1 1876   0.018   2.940  13.484 -0.1157  0.2637  0.4095
  120MPD2    H7 1877   0.069   2.980  13.562  1.7534  0.2783 -0.8190
  121TMC2    C1 1878   0.865   4.478  13.977  0.0609 -1.1504  0.9384
  121TMC2    C2 1879   0.984   4.419  13.993  0.4380 -0.4512  0.0109
  121TMC2    C3 1880   0.978   4.283  13.969  0.0454 -1.3299 -0.3411
  121TMC2    C4 1881   0.746   4.414  13.955 -0.4672 -0.5727  0.6521
  121TMC2    C5 1882   0.750   4.281  13.931 -0.3667 -0.0071 -0.1090
  121TMC2    C6 1883   0.870   4.210  13.932 -0.9012  0.9144 -0.2026
  121TMC2     C 1884   0.859   4.619  13.949 -0.0691 -0.0896 -0.1339
  121TMC2     O 1885   0.753   4.659  13.897  0.4355 -0.0668 -0.3247
  121TMC2     H 1886   1.080   4.469  13.995 -1.1143  2.5333 -0.0098
  121TMC2    H1 1887   0.657   4.475  13.960  0.8793  1.4307  0.0561
  121TMC2    H2 1888   0.869   4.102  13.921  2.3337  0.9386 -0.7552
  121TMC2    C7 1889   0.632   4.199  13.929 -0.1340  0.2184  0.4908
  121TMC2    C8 1890   1.104   4.221  13.960  0.1311  0.0549  0.3358
  121TMC2    O1 1891   0.631   4.094  13.864  0.1112  0.0579  0.3795
  121TMC2    O2 1892   1.199   4.271  14.017  0.1953 -0.0794 -0.0658
  121TMC2    O5 1893   1.112   4.147  13.848 -0.0534 -0.5309  0.8512
  121TMC2    H5 1894   1.028   4.133  13.799 -0.4978  0.5197  1.3111
  122MPD2     C 1895   1.043   0.186  14.064  0.8797 -0.3712  0.7985
  122MPD2    C1 1896   0.962   0.110  13.980  0.1736 -0.1626 -0.3644
  122MPD2    C2 1897   0.916   0.175  13.868 -0.1861  0.1845 -0.2963
  122MPD2    C3 1898   0.932   0.311  13.853 -0.2040  0.5263 -0.4617
  122MPD2    C4 1899   1.000   0.388  13.946  0.5247  0.5525  0.1140
  122MPD2    C5 1900   1.063   0.321  14.047 -0.5154 -0.5141  0.0394
  122MPD2     H 1901   0.862   0.115  13.796 -1.8081 -1.5583  2.3775
  122MPD2    H1 1902   0.996   0.496  13.953 -0.7575  0.4357  1.0902
  122MPD2    H2 1903   1.085   0.133  14.148  1.1893 -0.3135  0.6820
  122MPD2    H3 1904   1.115   0.375  14.126  1.3490  0.3299 -1.7502
  122MPD2     N 1905   0.888   0.377  13.735  0.5110 -0.1252  0.3088
  122MPD2    H5 1906   0.930   0.468  13.724 -0.9342  0.2830 -1.7975
  122MPD2    N1 1907   0.957   4.707  14.000  0.8301  0.2530  0.1857
  122MPD2    H7 1908   1.008   4.669  14.078 -1.3932 -0.0875  1.4708
  123TMC2    C1 1909   3.995   2.942  10.703 -0.3445 -0.0211  0.0415
  123TMC2    C2 1910   4.026   3.066  10.752 -0.2537  0.0247  0.3336
  123TMC2    C3 1911   4.128   3.137  10.695  0.2428  0.2414  0.7713
  123TMC2    C4 1912   4.069   2.874  10.612  0.3187 -0.0717 -0.3118
  123TMC2    C5 1913   4.174   2.948  10.561  0.4255 -0.1729  0.0003
  123TMC2    C6 1914   4.196   3.077  10.594  0.5839 -0.0878  0.0229
  123TMC2     C 1915   3.888   2.875  10.767 -0.8906 -0.1927 -0.3599
  123TMC2     O 1916   3.846   2.924  10.864 -0.1195 -0.3626  0.0958
  123TMC2     H 1917   3.968   3.116  10.828 -3.5172 -1.0425 -1.4572
  123TMC2    H1 1918   4.053   2.775  10.571 -1.6949 -0.0759  0.5211
  123TMC2    H2 1919   4.258   3.137  10.529 -0.4535 -0.4740 -1.3153
  123TMC2    C7 1920   4.273   2.878  10.489 -0.9790 -0.1941  0.2379
  123TMC2    C8 1921   4.080   3.266  10.657  0.4052 -0.2228 -0.4461
  123TMC2    O1 1922   4.288   2.763  10.526 -0.2155 -0.4187  0.1655
  123TMC2    O2 1923   3.963   3.286  10.626 -0.3843  0.0569  0.1174
  123TMC2    O5 1924   4.186   3.347  10.643  0.5194 -0.2454  0.5027
  123TMC2    H5 1925   4.261   3.312  10.695  0.4765 -1.4946 -0.2713
  124MPD2     C 1926   3.609   2.437  10.869  0.2625 -0.4429  0.5514
  124MPD2    C1 1927   3.700   2.416  10.766 -0.6435 -0.2009 -0.1207
  124MPD2    C2 1928   3.776   2.522  10.720  0.1711  0.3289 -0.0226
  124MPD2    C3 1929   3.775   2.649  10.778 -0.0208  0.7105 -0.3639
  124MPD2    C4 1930   3.690   2.667  10.884  0.4878 -0.6173  0.2100
  124MPD2    C5 1931   3.609   2.565  10.933 -0.0404 -0.0859  0.2381
  124MPD2     H 1932   3.835   2.498  10.632 -1.4264 -1.2264 -0.6697
  124MPD2    H1 1933   3.677   2.762  10.934 -1.7584 -0.4965 -0.5955
  124MPD2    H2 1934   3.546   2.355  10.899 -2.2422  1.5658  0.7331
  124MPD2    H3 1935   3.538   2.581  11.013  0.3159 -0.5803  0.6563
  124MPD2     N 1936   3.859   2.751  10.712 -0.3325 -0.1172  0.0123
  124MPD2    H5 1937   3.889   2.738  10.615 -1.5303 -0.2166 -0.3452
  124MPD2    N1 1938   3.725   2.283  10.720  0.4328  0.3548  0.2936
  124MPD2    H7 1939   3.646   2.220  10.724 -0.7356  2.0486  3.7619
  125TMC2    C1 1940   4.243   0.336   9.809  0.0638 -0.1357  0.5122
  125TMC2    C2 1941   4.145   0.241   9.847  0.1763  0.0774  0.8160
  125TMC2    C3 1942   4.175   0.161   9.952 -0.3433 -0.3777 -0.1305
  125TMC2    C4 1943   4.370   0.339   9.868  0.2046  0.3732 -0.2831
  125TMC2    C5 1944   4.390   0.250   9.976 -0.0566  0.1012 -0.3779
  125TMC2    C6 1945   4.287   0.174  10.026 -0.2998  0.2666  0.6225
  125TMC2     C 1946   4.209   0.404   9.685 -0.1687  0.1360 -0.3853
  125TMC2     O 1947   4.097   0.402   9.637 -0.3780  0.3826  0.0899
  125TMC2     H 1948   4.050   0.240   9.796 -0.2252  1.6366  1.5166
  125TMC2    H1 1949   4.447   0.412   9.847  1.3083 -0.3997  1.0698
  125TMC2    H2 1950   4.313   0.113  10.112  0.7007 -2.5781 -1.7318
  125TMC2    C7 1951   4.512   0.256  10.052  0.2833  0.2632  0.1738
  125TMC2    C8 1952   4.085   0.061   9.992  0.0734 -0.4858  0.1581
  125TMC2    O1 1953   4.508   0.208  10.164 -0.0522  0.0555  0.0404
  125TMC2    O2 1954   3.991   0.029   9.921 -0.1076  0.4700 -0.0340
  125TMC2    O5 1955   4.085   0.061  10.129  0.0770 -0.0667  0.2057
  125TMC2    H5 1956   4.136   0.128  10.178  1.0116  0.2097 -1.1353
  126MPD1     C 1957   4.347   0.697   9.285  0.5739  0.1520 -0.2110
  126MPD1    C1 1958   4.463   0.667   9.357 -0.2155  0.0687 -0.2276
  126MPD1    C2 1959   4.446   0.583   9.469  0.0258  0.0424 -0.2549
  126MPD1    C3 1960   4.325   0.530   9.505 -0.8814  0.0343 -0.5937
  126MPD1    C4 1961   4.214   0.566   9.438 -0.7086 -0.4617  0.0377
  126MPD1    C5 1962   4.224   0.656   9.335 -0.2790  0.6016  0.4835
  126MPD1     H 1963   4.532   0.561   9.530 -0.7425  1.0001  1.1739
  126MPD1    H1 1964   4.113   0.536   9.466 -1.1275  2.2537  1.3812
  126MPD1    H2 1965   4.341   0.753   9.192 -0.5029 -0.6923 -0.6530
  126MPD1    H3 1966   4.133   0.686   9.285  0.2072  0.8414 -0.2496
  126MPD1     N 1967   4.320   0.450   9.621 -0.2923  0.3243 -0.3753
  126MPD1    H5 1968   4.404   0.446   9.679  0.1786 -2.5848 -1.2534
  126MPD1    N1 1969   4.588   0.723   9.319  0.4142 -0.3674 -0.5853
  126MPD1    H6 1970   4.647   0.760   9.393 -1.6318  0.8310  0.4453
  126MPD1    H7 1971   4.582   0.800   9.251 -1.2467  1.1167  1.2425
  127TMC2    C1 1972   0.175   3.588  10.723 -0.0284 -0.8863 -0.5086
  127TMC2    C2 1973   0.077   3.614  10.807 -0.0835  0.3706  0.0846
  127TMC2    C3 1974   0.008   3.514  10.869  0.5423 -0.3819 -0.4270
  127TMC2    C4 1975   0.218   3.459  10.693  0.0560  0.0818  0.2001
  127TMC2    C5 1976   0.148   3.355  10.756  0.0481 -0.0195  0.1008
  127TMC2    C6 1977   0.048   3.388  10.836 -0.4955  0.4431 -0.4111
  127TMC2     C 1978   0.227   3.693  10.644 -0.4027 -0.2369 -0.1601
  127TMC2     O 1979   0.339   3.674  10.594 -0.7514 -0.5441 -0.1318
  127TMC2     H 1980   0.042   3.715  10.827 -0.4440 -0.3007  2.9497
  127TMC2    H1 1981   0.294   3.443  10.619  0.1622  0.4505  0.2288
  127TMC2    H2 1982   4.722   3.311  10.874 -0.1825  0.2369 -0.2768
  127TMC2    C7 1983   0.184   3.220  10.735  0.1751 -0.1189 -0.0320
  127TMC2    C8 1984   4.620   3.521  10.934  1.0201  0.1728  0.8751
  127TMC2    O1 1985   0.104   3.132  10.771 -0.2141 -0.1146  0.2580
  127TMC2    O2 1986   4.536   3.437  10.912 -0.0477 -0.2028 -0.0812
  127TMC2    O5 1987   4.607   3.647  10.981 -0.0748 -0.1895  0.2373
  127TMC2    H5 1988   4.696   3.690  10.984 -0.1803 -0.1280  2.3268
  128MPD2     C 1989   0.103   4.034  10.589  0.2745  0.1461 -0.2336
  128MPD2    C1 1990   0.196   3.935  10.597  0.3676  0.9009  0.0344
  128MPD2    C2 1991   0.329   3.964  10.579  0.5158 -0.1341 -0.2009
  128MPD2    C3 1992   0.362   4.092  10.540  0.3816  0.1272  0.1287
  128MPD2    C4 1993   0.268   4.191  10.543  0.5001  0.5778  0.0083
  128MPD2    C5 1994   0.138   4.163  10.556 -0.3941  0.1220  0.3355
  128MPD2     H 1995   0.408   3.890  10.588 -1.2103 -1.7686  1.3845
  128MPD2    H1 1996   0.294   4.288  10.502 -0.3916  1.1530  0.8289
  128MPD2    H2 1997   4.737   4.018  10.604  1.2936 -4.1248  2.3975
  128MPD2    H3 1998   0.064   4.242  10.561  0.1393  0.6363  0.0184
  128MPD2     N 1999   0.494   4.121  10.517 -0.2722 -0.2317 -0.6267
  128MPD2    H5 2000   0.559   4.044  10.529  3.2440  2.2912 -3.6104
  128MPD2    N1 2001   0.156   3.807  10.641  0.2537 -0.1551 -0.0191
  128MPD2    H7 2002   0.059   3.796  10.670  0.8012  0.5274  2.0432
  129TMC2    C1 2003   0.490   3.144   0.572 -0.1067  0.4520  0.3637
  129TMC2    C2 2004   0.569   3.175   0.677 -0.5664 -0.4737  0.0952
  129TMC2    C3 2005   0.510   3.183   0.799  0.0938 -0.5334 -0.2396
  129TMC2    C4 2006   0.359   3.117   0.590  0.3441  0.4599  0.7540
  129TMC2    C5 2007   0.311   3.113   0.721  0.1413  0.4112 -0.1162
  129TMC2    C6 2008   0.384   3.151   0.826 -0.5675  0.2309 -0.2513
  129TMC2     C 2009   0.539   3.191   0.447 -0.0277 -0.1279  0.2482
  129TMC2     O 2010   0.516   3.120   0.353 -0.4941  0.6472 -0.2549
  129TMC2     H 2011   0.676   3.193   0.673 -0.5292 -0.6111  0.4788
  129TMC2    H1 2012   0.301   3.101   0.500  0.0160 -1.5528  1.3227
  129TMC2    H2 2013   0.346   3.157   0.928 -0.6055  0.2567 -0.2667
  129TMC2    C7 2014   0.176   3.076   0.750 -0.2573 -0.4047 -0.4246
  129TMC2    C8 2015   0.601   3.231   0.906 -0.0509 -0.2536  0.0781
  129TMC2    O1 2016   0.138   3.098   0.864  0.0536  0.4718 -0.4175
  129TMC2    O2 2017   0.722   3.203   0.909  0.1429  0.1461 -0.0603
  129TMC2    O5 2018   0.530   3.299   0.991 -0.1229 -0.4127 -0.6866
  129TMC2    H5 2019   0.449   3.344   0.958 -0.7969  0.7115  2.5320
  130MPD2     C 2020   0.728   3.324   0.257 -0.0366 -0.3686  0.0030
  130MPD2    C1 2021   0.705   3.372   0.385  0.1081 -0.5654 -0.6766
  130MPD2    C2 2022   0.761   3.488   0.425 -0.6427  0.1368  0.3781
  130MPD2    C3 2023   0.831   3.573   0.338  0.7760  0.3766 -0.2430
  130MPD2    C4 2024   0.839   3.535   0.203  0.1867  0.0739  0.4559
  130MPD2    C5 2025   0.789   3.408   0.164 -0.3669  0.1925  0.3214
  130MPD2     H 2026   0.748   3.516   0.529  1.3145  0.7215  0.4807
  130MPD2    H1 2027   0.871   3.600   0.123 -0.8284 -1.3020 -1.0597
  130MPD2    H2 2028   0.683   3.230   0.225  0.3626 -0.5091 -0.1461
  130MPD2    H3 2029   0.807   3.374   0.063 -1.1684 -0.6610  0.4662
  130MPD2     N 2030   0.869   3.698   0.392 -0.2642 -0.0421 -0.4731
  130MPD2    H5 2031   0.860   3.716   0.492  0.1342 -0.0022 -0.4438
  130MPD2    N1 2032   0.613   3.306   0.476 -0.6738  0.1037  0.5813
  130MPD2    H7 2033   0.610   3.346   0.569  0.1443  0.1334  0.5969
  131TMC2    C1 2034   4.122   2.773  10.060  0.2432  0.2763  0.1750
  131TMC2    C2 2035   4.183   2.798   9.938 -0.4976  0.1226 -0.1559
  131TMC2    C3 2036   4.208   2.928   9.922 -0.2302 -0.7446  0.0507
  131TMC2    C4 2037   4.079   2.866  10.151  0.2638  0.2701 -0.1774
  131TMC2    C5 2038   4.116   2.996  10.128  0.2445  0.2578 -0.2790
  131TMC2    C6 2039   4.175   3.032  10.005  0.3436  0.4876  0.3758
  131TMC2     C 2040   4.104   2.636  10.092  0.7958  0.6352  0.2197
  131TMC2     O 2041   4.065   2.618  10.208 -0.1266  0.2111 -0.1388
  131TMC2     H 2042   4.234   2.729   9.871 -0.3551  1.1296 -1.0875
  131TMC2    H1 2043   4.033   2.838  10.245 -0.4655  1.5605 -0.1595
  131TMC2    H2 2044   4.224   3.127   9.987  1.4332 -0.0766  0.3808
  131TMC2    C7 2045   4.029   3.096  10.197 -0.6508  0.4220  0.0770
  131TMC2    C8 2046   4.300   2.952   9.812 -0.3966  0.1774  0.3120
  131TMC2    O1 2047   3.976   3.056  10.302  0.4127 -0.4153 -0.3121
  131TMC2    O2 2048   4.376   2.870   9.766  0.8279 -0.3548 -0.0392
  131TMC2    O5 2049   4.257   3.070   9.754  0.0166  0.1650  0.4257
  131TMC2    H5 2050   4.187   3.121   9.801 -1.7366 -2.1964  0.3448
  132MPD2     C 2051   4.111   2.339   9.876 -0.3997  0.2640 -1.2267
  132MPD2    C1 2052   4.086   2.415   9.991 -0.1027 -0.0717 -0.6507
  132MPD2    C2 2053   4.031   2.347  10.093 -0.0768 -0.0559 -0.5021
  132MPD2    C3 2054   4.010   2.212  10.098  0.2260  0.1591 -0.0781
  132MPD2    C4 2055   4.050   2.139   9.990 -0.0740  0.2901 -0.6446
  132MPD2    C5 2056   4.098   2.203   9.879 -0.2081  0.0207 -0.5979
  132MPD2     H 2057   4.009   2.393  10.188 -0.4311 -0.2943 -0.4708
  132MPD2    H1 2058   4.031   2.034   9.972 -1.3487  0.4805 -0.3884
  132MPD2    H2 2059   4.150   2.380   9.784 -0.8136  3.3023 -0.0384
  132MPD2    H3 2060   4.111   2.145   9.788 -0.9789 -1.8330  0.4664
  132MPD2     N 2061   3.939   2.164  10.206  0.2614  0.5781 -0.3656
  132MPD2    H5 2062   3.909   2.240  10.266 -2.6292  0.9467 -2.2905
  132MPD2    N1 2063   4.109   2.555   9.981  0.4424 -0.7399  0.5459
  132MPD2    H7 2064   4.131   2.598   9.892  1.8332 -0.6308  0.9510
  133TMC2    C1 2065   2.506   2.769  10.172  0.2226  0.1846  0.7372
  133TMC2    C2 2066   2.439   2.822  10.281  0.1186  0.2483  0.2073
  133TMC2    C3 2067   2.413   2.746  10.392  0.0464  1.2819 -0.5382
  133TMC2    C4 2068   2.542   2.637  10.177  0.4134  0.6170  0.2029
  133TMC2    C5 2069   2.531   2.570  10.302  0.2126 -1.2140 -0.1475
  133TMC2    C6 2070   2.467   2.624  10.408  0.1037 -0.2593 -0.1901
  133TMC2     C 2071   2.573   2.865  10.092 -0.2564  0.5157 -0.5224
  133TMC2     O 2072   2.524   2.980  10.089 -0.4009  0.6146 -0.0127
  133TMC2     H 2073   2.411   2.926  10.278  0.3708  0.3818  2.1717
  133TMC2    H1 2074   2.593   2.592  10.093 -0.0962 -2.7267  1.6985
  133TMC2    H2 2075   2.481   2.578  10.505 -0.5046 -0.8464 -0.3765
  133TMC2    C7 2076   2.548   2.425  10.316  0.0432  0.0230  0.6630
  133TMC2    C8 2077   2.328   2.797  10.500  0.6350  0.1952 -0.0191
  133TMC2    O1 2078   2.484   2.374  10.407 -0.2764 -0.2863  0.0943
  133TMC2    O2 2079   2.336   2.750  10.611  0.1804 -0.3835  0.4924
  133TMC2    O5 2080   2.241   2.894  10.455 -0.0554 -0.4718 -0.4425
  133TMC2    H5 2081   2.230   2.904  10.358  0.4253  0.1736 -0.4333
  134MPD2     C 2082   2.913   2.863   9.955  0.5587 -0.7056  0.8011
  134MPD2    C1 2083   2.788   2.908   9.968  0.2511  0.3625 -0.0364
  134MPD2    C2 2084   2.764   3.043   9.938  0.6346  0.1312 -0.3940
  134MPD2    C3 2085   2.866   3.127   9.898  0.4962  0.3512 -0.5965
  134MPD2    C4 2086   2.995   3.075   9.884 -0.9670 -0.0425  0.4523
  134MPD2    C5 2087   3.015   2.943   9.914  0.7021  0.6707 -0.6421
  134MPD2     H 2088   2.670   3.095   9.950  0.3086 -0.4356 -0.4565
  134MPD2    H1 2089   3.076   3.132   9.840 -1.3109 -1.3048 -1.8315
  134MPD2    H2 2090   2.934   2.759   9.977  0.8547 -1.0290 -1.0446
  134MPD2    H3 2091   3.112   2.899   9.891 -1.2215 -2.0039 -3.6634
  134MPD2     N 2092   2.855   3.263   9.864 -0.1163  0.7289 -0.2015
  134MPD2    H5 2093   2.942   3.316   9.854  0.8812 -1.1855 -1.7798
  134MPD2    N1 2094   2.686   2.820  10.020 -0.2677 -1.3113  0.1901
  134MPD2    H7 2095   2.715   2.723  10.017 -0.3947 -1.3586  0.5302
  135TMC2    C1 2096   4.318   0.871   9.753 -0.6243 -0.6425 -0.1319
  135TMC2    C2 2097   4.335   1.004   9.749 -0.2845  0.1834  1.0264
  135TMC2    C3 2098   4.231   1.080   9.705  0.6356  0.3055 -0.6218
  135TMC2    C4 2099   4.202   0.813   9.715  0.3515  0.5553 -0.0918
  135TMC2    C5 2100   4.098   0.892   9.670  0.4123  0.2120 -0.1158
  135TMC2    C6 2101   4.111   1.027   9.668 -1.2316 -0.6334  0.3931
  135TMC2     C 2102   4.433   0.787   9.755  1.0057 -0.0582 -0.0924
  135TMC2     O 2103   4.427   0.675   9.806  0.2769  0.4896  1.1017
  135TMC2     H 2104   4.423   1.053   9.787  2.1147 -2.0544 -1.6720
  135TMC2    H1 2105   4.180   0.707   9.711 -3.6824  1.4288 -1.6488
  135TMC2    H2 2106   4.025   1.084   9.636 -0.1555  2.5574  3.1449
  135TMC2    C7 2107   3.958   0.848   9.667 -0.2224 -0.0726  0.1129
  135TMC2    C8 2108   4.250   1.218   9.687 -0.0156  0.1612  0.1426
  135TMC2    O1 2109   3.876   0.931   9.627  0.5216 -0.6773 -0.4762
  135TMC2    O2 2110   4.162   1.304   9.672 -0.1944 -0.4263  0.4890
  135TMC2    O5 2111   4.371   1.238   9.639 -0.2868  0.6306  0.5669
  135TMC2    H5 2112   4.408   1.148   9.628 -1.0229  0.0914  2.4521
  136MPD2     C 2113   4.714   0.689   9.705 -0.0544  0.5488 -0.0485
  136MPD2    C1 2114   4.670   0.814   9.670  0.1273 -0.1072  0.1297
  136MPD2    C2 2115   0.018   0.900   9.612 -0.3057 -1.1178  0.0760
  136MPD2    C3 2116   0.148   0.859   9.585 -0.0890 -0.2223 -0.5121
  136MPD2    C4 2117   0.189   0.735   9.637 -0.4170  0.4856  0.1319
  136MPD2    C5 2118   0.098   0.647   9.688  0.3908 -0.3516  0.0438
  136MPD2     H 2119   4.726   0.995   9.572  0.6174 -0.3801  1.0627
  136MPD2    H1 2120   0.288   0.698   9.612 -1.0056 -1.0744  0.0830
  136MPD2    H2 2121   4.641   0.630   9.758  1.0029 -1.3573 -0.7278
  136MPD2    H3 2122   0.127   0.550   9.726 -0.5195 -0.3477  0.7538
  136MPD2     N 2123   0.244   0.948   9.512  0.0030  0.0314  1.0181
  136MPD2    H5 2124   0.338   0.910   9.504 -0.3493 -0.1992 -1.9311
  136MPD2    N1 2125   4.535   0.851   9.682  0.0246 -0.2483  0.0526
  136MPD2    H7 2126   4.514   0.941   9.640  0.0570 -0.2112  0.1157
  137TMC2    C1 2127   0.133   4.345  10.146 -0.3010  0.0813  0.6168
  137TMC2    C2 2128   0.263   4.369  10.131 -0.7943  0.2298 -0.0426
  137TMC2    C3 2129   0.319   4.357  10.006 -0.5861 -0.8388 -0.6693
  137TMC2    C4 2130   0.051   4.312  10.044 -0.6297  0.4262  0.2837
  137TMC2    C5 2131   0.108   4.317   9.921 -0.5657 -0.5200 -0.0993
  137TMC2    C6 2132   0.240   4.335   9.896 -0.2846 -0.1627 -0.3661
  137TMC2     C 2133   0.079   4.375  10.274  0.2556 -0.0030 -0.3054
  137TMC2     O 2134   0.138   4.437  10.362 -0.0084  0.2697  0.4047
  137TMC2     H 2135   0.324   4.405  10.213  2.3514 -2.6355 -1.1122
  137TMC2    H1 2136   4.684   4.307  10.048 -0.6662 -0.2244 -1.3461
  137TMC2    H2 2137   0.295   4.351   9.803 -1.6776 -1.1675 -1.3536
  137TMC2    C7 2138   0.025   4.314   9.798  0.3439 -0.0819 -0.2158
  137TMC2    C8 2139   0.460   4.387   9.993 -0.5393 -0.5444  0.2094
  137TMC2    O1 2140   0.071   4.356   9.694  0.1855  0.2710 -0.2011
  137TMC2    O2 2141   0.523   4.421  10.088  0.2002  0.0483 -0.5427
  137TMC2    O5 2142   0.497   4.300   9.895  0.0328  0.2104  0.5872
  137TMC2    H5 2143   0.414   4.250   9.879  2.2789 -2.5398 -2.4320
  138MPD2     C 2144   4.513   4.255  10.413  0.4617  0.0380  0.2034
  138MPD2    C1 2145   4.611   4.345  10.395  0.0783 -0.0438  0.4844
  138MPD2    C2 2146   4.612   4.465  10.471 -0.3672 -0.0425  0.0874
  138MPD2    C3 2147   4.517   4.486  10.563 -0.4979 -0.0974 -0.2346
  138MPD2    C4 2148   4.404   4.403  10.570  0.3523 -0.5298  0.2839
  138MPD2    C5 2149   4.407   4.286  10.500  0.2373  0.3270  0.0904
  138MPD2     H 2150   4.692   4.536  10.454  0.9237 -1.7181 -0.8530
  138MPD2    H1 2151   4.314   4.431  10.623  1.1151  1.2535  0.6233
  138MPD2    H2 2152   4.523   4.158  10.365  0.3435  0.2393 -0.2302
  138MPD2    H3 2153   4.335   4.207  10.514  1.9521 -1.4092 -0.9480
  138MPD2     N 2154   4.528   4.607  10.637  0.9656  0.1351 -0.0204
  138MPD2    H5 2155   4.605   4.668  10.611  0.8238  0.6761  0.8121
  138MPD2    N1 2156   4.706   4.309  10.293 -0.4327 -0.2085 -0.1445
  138MPD2    H7 2157   4.683   4.228  10.237 -1.4960  0.6280 -0.9174
  139TMC2    C1 2158   1.498   2.752  13.641 -0.4517  0.1294  0.1789
  139TMC2    C2 2159   1.517   2.805  13.515  0.0638  0.5575  0.3335
  139TMC2    C3 2160   1.450   2.915  13.478  0.0408  0.0467  0.2173
  139TMC2    C4 2161   1.426   2.813  13.735  0.2532 -0.6963 -0.6861
  139TMC2    C5 2162   1.366   2.929  13.697 -1.0049  0.6380 -0.3147
  139TMC2    C6 2163   1.363   2.979  13.565  0.3601  0.3723 -0.1764
  139TMC2     C 2164   1.552   2.624  13.680 -0.1538 -0.0371 -0.1800
  139TMC2     O 2165   1.648   2.586  13.616 -0.1668 -0.2562  0.1145
  139TMC2     H 2166   1.568   2.744  13.441  1.8076 -1.2016  2.9847
  139TMC2    H1 2167   1.426   2.793  13.842 -1.2626 -0.6083 -0.6714
  139TMC2    H2 2168   1.310   3.066  13.527 -0.3480 -1.8704 -4.2758
  139TMC2    C7 2169   1.287   3.006  13.788  0.1104  0.3250  0.1373
  139TMC2    C8 2170   1.493   2.990  13.361 -0.5919 -0.1072  0.1394
  139TMC2    O1 2171   1.208   3.082  13.737  0.2240  0.1963  0.1971
  139TMC2    O2 2172   1.548   2.937  13.266  0.2652 -0.2681 -0.2486
  139TMC2    O5 2173   1.541   3.100  13.414  0.4036  0.0132  0.4187
  139TMC2    H5 2174   1.543   3.098  13.512 -1.2735 -1.5808  0.4161
  140MPD2     C 2175   1.363   2.356  13.839 -0.3046 -0.0461  0.0204
  140MPD2    C1 2176   1.474   2.412  13.792 -0.9445  0.1017  0.0076
  140MPD2    C2 2177   1.596   2.341  13.789 -0.7569  0.4575  0.4657
  140MPD2    C3 2178   1.591   2.201  13.810  0.3909  0.1228  0.6334
  140MPD2    C4 2179   1.465   2.141  13.836  0.4871 -0.6142 -0.7478
  140MPD2    C5 2180   1.358   2.223  13.855 -0.1260 -0.3854  0.3288
  140MPD2     H 2181   1.688   2.388  13.757  0.4037 -1.6094  0.7282
  140MPD2    H1 2182   1.451   2.034  13.850  0.4073 -0.5956 -0.6868
  140MPD2    H2 2183   1.278   2.421  13.856  1.1897  1.7441  0.5321
  140MPD2    H3 2184   1.264   2.172  13.871 -0.1355 -0.3800  0.2905
  140MPD2     N 2185   1.710   2.134  13.820  0.1418  0.0830 -0.1403
  140MPD2    H5 2186   1.789   2.195  13.801  0.4944 -0.1679  0.5277
  140MPD2    N1 2187   1.464   2.553  13.767 -0.7931 -0.0478 -0.1702
  140MPD2    H7 2188   1.375   2.595  13.789 -1.2636 -0.7119 -0.7977
  141TMC2    C1 2189   1.067   0.003  14.393  0.0131 -0.3157 -0.0497
  141TMC2    C2 2190   0.929   4.718  14.397 -0.5225 -0.8073  0.1539
  141TMC2    C3 2191   0.862   0.018  14.508  0.0681 -0.4290  0.0307
  141TMC2    C4 2192   1.135   0.057  14.497 -0.0226 -0.1179 -0.0542
  141TMC2    C5 2193   1.057   0.101  14.605 -0.0720  0.0786 -0.6077
  141TMC2    C6 2194   0.920   0.078  14.619  0.1585 -0.0275 -0.4192
  141TMC2     C 2195   1.147   4.646  14.316 -0.5161  0.3284 -0.1640
  141TMC2     O 2196   1.103   4.610  14.205 -0.1511 -0.9790 -0.1682
  141TMC2     H 2197   0.881   4.651  14.327 -3.4756 -0.3370  1.7434
  141TMC2    H1 2198   1.238   0.090  14.486 -0.3151  0.6361 -0.5504
  141TMC2    H2 2199   0.861   0.107  14.706  0.3755 -1.0144  0.0530
  141TMC2    C7 2200   1.108   0.203  14.692 -0.0085 -0.1739  0.3197
  141TMC2    C8 2201   0.719   4.728  14.520 -0.1805  0.0142 -0.4481
  141TMC2    O1 2202   1.027   0.268  14.758  0.5195  0.2214  0.5429
  141TMC2    O2 2203   0.683   4.700  14.628  0.2066 -0.2030 -0.9830
  141TMC2    O5 2204   0.663   4.692  14.397 -0.2804 -0.3396 -0.1513
  141TMC2    H5 2205   0.711   4.733  14.322  1.5315  0.6544  1.5383
  142TMC2    C1 2206   4.348   2.078  10.250  0.5556 -0.3669 -0.8624
  142TMC2    C2 2207   4.391   2.038  10.130  0.5066  0.3175 -0.0922
  142TMC2    C3 2208   4.448   2.130  10.048  0.3572  0.6096 -0.7654
  142TMC2    C4 2209   4.347   2.213  10.285 -0.2642  0.3256  0.3024
  142TMC2    C5 2210   4.402   2.304  10.197  0.0241  0.1409 -0.2249
  142TMC2    C6 2211   4.458   2.262  10.077  0.9382  0.4751 -0.0419
  142TMC2     C 2212   4.271   1.983  10.338  0.2426  0.3447  0.6365
  142TMC2     O 2213   4.246   1.868  10.299 -0.2162 -0.3435 -0.1370
  142TMC2     H 2214   4.397   1.930  10.122 -3.7963  0.1614 -1.0485
  142TMC2    H1 2215   4.302   2.244  10.379  0.1628  0.7519  0.3713
  142TMC2    H2 2216   4.510   2.321  10.003 -0.2265  0.6671 -0.7155
  142TMC2    C7 2217   4.409   2.443  10.245  0.4673 -0.4243  0.3508
  142TMC2    C8 2218   4.517   2.090   9.933 -0.7620  0.1490 -0.5367
  142TMC2    O1 2219   4.394   2.459  10.365 -0.0894  0.0544 -0.2581
  142TMC2    O2 2220   4.590   2.162   9.869  0.2980 -0.5930 -0.0069
  142TMC2    O5 2221   4.435   2.002   9.875  0.1840 -0.7993  0.0586
  142TMC2    H5 2222   4.366   1.953   9.925  0.8566 -1.9757 -0.1667
  143MPD2     C 2223   4.082   1.850  10.795  0.1114 -0.0281 -0.1454
  143MPD2    C1 2224   4.050   1.797  10.668  0.3317  0.0878  0.2048
  143MPD2    C2 2225   4.125   1.846  10.559 -0.0516 -0.5441 -0.0688
  143MPD2    C3 2226   4.207   1.956  10.576 -0.4833  0.5675  0.1043
  143MPD2    C4 2227   4.229   2.008  10.701  0.6922  0.1043 -0.0984
  143MPD2    C5 2228   4.173   1.948  10.810  0.3451 -0.6287 -0.2507
  143MPD2     H 2229   4.100   1.811  10.459  1.6212  1.0700 -1.0486
  143MPD2    H1 2230   4.304   2.085  10.713  1.1903 -0.2249 -1.0520
  143MPD2    H2 2231   4.032   1.812  10.883  0.9514  1.7184  1.1034
  143MPD2    H3 2232   4.193   1.995  10.905  0.4108  0.1791 -0.6617
  143MPD2     N 2233   4.279   2.020  10.474 -0.5556  0.2083  0.0606
  143MPD2    H5 2234   4.331   2.106  10.492 -1.3955  0.9559 -1.0651
  143MPD2    N1 2235   3.963   1.691  10.672 -0.2891  0.1369 -0.0792
  143MPD2    H7 2236   3.911   1.680  10.759  2.6390  1.7029  1.8793
  144TMC2    C1 2237   2.576   1.786   0.787 -0.9365 -0.2171  0.3071
  144TMC2    C2 2238   2.598   1.830   0.662  0.1605 -0.0966  0.2118
  144TMC2    C3 2239   2.702   1.922   0.647  0.1443 -0.6873 -0.0822
  144TMC2    C4 2240   2.619   1.854   0.905 -0.1689 -0.0217  0.2360
  144TMC2    C5 2241   2.715   1.946   0.881 -1.0052 -0.3604 -0.5247
  144TMC2    C6 2242   2.767   1.973   0.756  0.3224  0.4702  0.2844
  144TMC2     C 2243   2.481   1.674   0.805 -0.1468 -0.4942  0.3383
  144TMC2     O 2244   2.451   1.616   0.703 -0.6516 -0.2484  0.0516
  144TMC2     H 2245   2.572   1.778   0.570 -0.8231  1.0685 -0.1633
  144TMC2    H1 2246   2.593   1.829   1.008  2.7877 -2.5905  0.3478
  144TMC2    H2 2247   2.848   2.044   0.740  0.6431  0.1657  0.5758
  144TMC2    C7 2248   2.774   2.018   0.987  0.7820 -0.1934  0.4156
  144TMC2    C8 2249   2.723   1.976   0.520 -0.6944  0.6959 -0.4111
  144TMC2    O1 2250   2.875   2.081   0.966  0.4259 -0.0670 -0.1581
  144TMC2    O2 2251   2.643   1.964   0.428 -0.4149  0.0687  0.3283
  144TMC2    O5 2252   2.851   1.998   0.499  0.3178  0.4190  0.2328
  144TMC2    H5 2253   2.909   1.949   0.561  0.6683  0.6888  0.1132
  145MPD2     C 2254   2.196   1.318   1.038 -1.2771 -0.6232 -0.4294
  145MPD2    C1 2255   2.190   1.371   0.909 -0.3439  0.2766 -0.5733
  145MPD2    C2 2256   2.281   1.466   0.870 -0.7447  0.2359 -0.3528
  145MPD2    C3 2257   2.369   1.525   0.961 -0.3308 -0.3583  0.3678
  145MPD2    C4 2258   2.365   1.481   1.085  0.0614  0.3850  0.1168
  145MPD2    C5 2259   2.286   1.378   1.126  0.4543  0.7247  0.0174
  145MPD2     H 2260   2.284   1.490   0.765  0.6013  0.6296 -0.2168
  145MPD2    H1 2261   2.436   1.525   1.154 -0.1857  0.3305  0.4076
  145MPD2    H2 2262   2.121   1.247   1.071 -2.2325  0.6369  0.1220
  145MPD2    H3 2263   2.273   1.346   1.228 -0.9601  0.7499 -0.1430
  145MPD2     N 2264   2.460   1.633   0.931  0.3798  0.7704  0.0683
  145MPD2    H5 2265   2.505   1.678   1.010  2.3529 -1.6519  0.3153
  145MPD2    N1 2266   2.108   1.319   0.808 -0.6003 -0.4034 -0.0044
  145MPD2    H7 2267   2.125   1.350   0.713  0.4702 -1.2985 -0.1047
  146TMC2    C1 2268   2.775   0.364  12.650  0.2259 -0.0195 -0.1163
  146TMC2    C2 2269   2.647   0.320  12.664  0.5585 -0.2943 -0.0466
  146TMC2    C3 2270   2.615   0.221  12.578 -0.4995 -0.1661 -0.7325
  146TMC2    C4 2271   2.864   0.312  12.565 -0.0994  0.3185 -0.5036
  146TMC2    C5 2272   2.826   0.212  12.481 -0.0756 -0.3604  0.0302
  146TMC2    C6 2273   2.700   0.162  12.490 -0.2247  0.3017 -0.4893
  146TMC2     C 2274   2.802   0.480  12.733 -0.6106  0.5638 -0.0305
  146TMC2     O 2275   2.701   0.546  12.759 -0.3570 -0.4701  0.0774
  146TMC2     H 2276   2.575   0.373  12.725  0.3612 -0.8354  0.1826
  146TMC2    H1 2277   2.957   0.367  12.555  1.5072 -2.0703  1.2069
  146TMC2    H2 2278   2.665   0.093  12.414 -0.1053  1.3668 -1.5001
  146TMC2    C7 2279   2.913   0.162  12.378 -0.2637 -0.2281 -0.0263
  146TMC2    C8 2280   2.475   0.177  12.571  0.3845 -0.2590  0.0608
  146TMC2    O1 2281   2.854   0.129  12.277  0.8511 -0.3349  0.4635
  146TMC2    O2 2282   2.388   0.245  12.628  0.3516 -0.5413 -0.3751
  146TMC2    O5 2283   2.477   0.041  12.565  0.2265 -0.0376  0.3159
  146TMC2    H5 2284   2.564   4.738  12.567  1.4576  2.4945  2.0668
  147MPD2     C 2285   3.360   0.086  12.162 -0.2772  0.0199  0.3533
  147MPD2    C1 2286   3.371   0.063  12.298 -0.4815 -0.1088 -0.0822
  147MPD2    C2 2287   3.267   0.099  12.382 -0.5215 -0.4602  0.1762
  147MPD2    C3 2288   3.146   0.132  12.329 -0.9722 -0.0423  0.8230
  147MPD2    C4 2289   3.139   0.153  12.191 -0.3671 -0.3861  0.5308
  147MPD2    C5 2290   3.249   0.145  12.107  0.0504 -0.5643 -0.2965
  147MPD2     H 2291   3.264   0.069  12.486 -0.3961  1.1308  0.6340
  147MPD2    H1 2292   3.056   0.194  12.135  1.4392  2.4758 -0.0476
  147MPD2    H2 2293   3.441   0.052  12.098 -0.3170 -1.0555  0.8737
  147MPD2    H3 2294   3.243   0.158  12.000 -1.2982  0.2377 -0.1253
  147MPD2     N 2295   3.045   0.161  12.415 -0.4273  0.2535  0.3189
  147MPD2    H5 2296   3.075   0.160  12.511 -1.6179  3.8566  0.7351
  147MPD2    N1 2297   3.490   4.736  12.336  0.2483 -0.1497 -0.0758
  147MPD2    H7 2298   3.559   4.703  12.269  0.9211 -0.7528  0.9224
  148TMC2    C1 2299   3.164   4.011  10.957  0.1923  0.7540  0.0282
  148TMC2    C2 2300   3.194   4.135  11.006  0.2572  0.5362  0.1066
  148TMC2    C3 2301   3.329   4.146  11.043  0.0539  0.0435 -0.0829
  148TMC2    C4 2302   3.253   3.907  10.948 -0.5692 -0.6305  0.5031
  148TMC2    C5 2303   3.386   3.933  10.971 -0.2008  0.2068  0.2841
  148TMC2    C6 2304   3.424   4.053  11.017 -0.0719 -0.1943  0.0552
  148TMC2     C 2305   3.030   3.992  10.914 -0.0128 -0.2069  0.2969
  148TMC2     O 2306   2.951   4.086  10.932 -0.4120  0.1548 -0.3523
  148TMC2     H 2307   3.116   4.207  11.028  1.2281  2.0068 -1.2720
  148TMC2    H1 2308   3.228   3.805  10.919 -1.2927 -0.7917  1.6810
  148TMC2    H2 2309   3.528   4.081  11.026 -0.0132 -0.2549 -0.4596
  148TMC2    C7 2310   3.475   3.819  10.961  0.2131 -0.3016  0.1747
  148TMC2    C8 2311   3.381   4.275  11.079  0.4615  1.0718  0.0352
  148TMC2    O1 2312   3.420   3.708  10.969  0.6054  0.1623  0.8652
  148TMC2    O2 2313   3.484   4.330  11.039 -0.0065 -0.1602 -0.5302
  148TMC2    O5 2314   3.292   4.336  11.158  0.4855  0.0470  0.2815
  148TMC2    H5 2315   3.218   4.274  11.181 -0.5009  0.8561 -0.7184
  149MPD2     C 2316   2.767   3.888  10.820 -0.6724  0.3567  0.0745
  149MPD2    C1 2317   2.884   3.830  10.784 -0.0484  0.4045 -0.4192
  149MPD2    C2 2318   2.882   3.727  10.694  0.8479 -0.0808  0.3728
  149MPD2    C3 2319   2.762   3.681  10.647 -0.6240 -0.1279  0.2851
  149MPD2    C4 2320   2.645   3.750  10.669 -0.0425 -0.7965 -0.0107
  149MPD2    C5 2321   2.648   3.847  10.768  0.2926 -0.0257 -0.0071
  149MPD2     H 2322   2.975   3.690  10.654 -0.6526 -0.6980 -2.5334
  149MPD2    H1 2323   2.555   3.712  10.622 -0.3233 -1.1130  0.7776
  149MPD2    H2 2324   2.767   3.971  10.890  0.5733  1.6156 -1.4157
  149MPD2    H3 2325   2.557   3.898  10.797  0.0945 -0.7128  0.5917
  149MPD2     N 2326   2.751   3.565  10.566 -0.1604 -0.3252  0.0895
  149MPD2    H5 2327   2.659   3.548  10.526  0.1778  1.5151 -1.4522
  149MPD2    N1 2328   3.010   3.879  10.831 -0.1712 -0.3299 -0.1720
  149MPD2    H7 2329   3.091   3.826  10.802  0.6731 -0.1624  1.8469
  150TMC2    C1 2330   0.557   3.099  12.495 -0.4314 -0.4218  0.3551
  150TMC2    C2 2331   0.471   3.184  12.429 -0.1629 -0.1576  0.2853
  150TMC2    C3 2332   0.526   3.291  12.367 -0.0163  0.0134 -0.1372
  150TMC2    C4 2333   0.694   3.117  12.488  0.3401 -0.5695 -0.0558
  150TMC2    C5 2334   0.745   3.224  12.412 -0.0652 -0.5727  0.3188
  150TMC2    C6 2335   0.661   3.317  12.358  0.1086 -0.3254 -0.0480
  150TMC2     C 2336   0.506   2.982  12.552 -0.2086  0.0090  0.6671
  150TMC2     O 2337   0.589   2.921  12.620  0.2725 -0.3690  0.5187
  150TMC2     H 2338   0.363   3.171  12.422  0.1175 -1.4151 -1.7924
  150TMC2    H1 2339   0.760   3.049  12.540 -0.5889 -1.1626  0.3587
  150TMC2    H2 2340   0.699   3.408  12.314 -1.4256  0.9512  1.2252
  150TMC2    C7 2341   0.884   3.264  12.414 -0.4179  0.5058  1.0737
  150TMC2    C8 2342   0.430   3.381  12.299 -0.6215  0.2529  0.2650
  150TMC2    O1 2343   0.912   3.373  12.366  0.0845 -0.2722 -0.1756
  150TMC2    O2 2344   0.313   3.392  12.334  0.2018 -0.1540  0.4767
  150TMC2    O5 2345   0.480   3.419  12.184 -0.0407  0.1807 -0.9067
  150TMC2    H5 2346   0.565   3.380  12.155  0.9251 -0.4168  2.7600
  151MPD2     C 2347   0.166   2.598  12.590 -0.1972 -0.1218 -0.1944
  151MPD2    C1 2348   0.110   2.698  12.511 -0.0872 -0.4791  1.0203
  151MPD2    C2 2349   0.187   2.805  12.482 -0.1851 -0.4244 -0.1006
  151MPD2    C3 2350   0.303   2.830  12.541 -0.0604  0.9244  0.2779
  151MPD2    C4 2351   0.355   2.733  12.628 -0.3517 -0.0456 -0.2450
  151MPD2    C5 2352   0.288   2.622  12.649 -0.0173 -0.0189  0.2725
  151MPD2     H 2353   0.156   2.865  12.396 -0.1449 -1.8260 -1.0953
  151MPD2    H1 2354   0.453   2.746  12.672 -0.5499 -0.5486  0.3452
  151MPD2    H2 2355   0.110   2.513  12.629 -1.5179  0.8751  0.1023
  151MPD2    H3 2356   0.318   2.549  12.723 -1.3368  0.6838  1.4789
  151MPD2     N 2357   0.375   2.948  12.513 -0.0186  0.3425 -0.5216
  151MPD2    H5 2358   0.333   3.001  12.437 -1.4652  0.7521  0.5512
  151MPD2    N1 2359   4.715   2.707  12.460 -0.0282  0.1633  0.1745
  151MPD2    H7 2360   4.697   2.785  12.398  2.2840 -0.3003 -1.0679
  152TMC2    C1 2361   0.724   2.239  13.244  0.2415 -0.0218  0.4853
  152TMC2    C2 2362   0.722   2.244  13.380  0.5575 -0.1578  0.6413
  152TMC2    C3 2363   0.787   2.345  13.439 -0.0960  1.0110  0.0565
  152TMC2    C4 2364   0.796   2.331  13.171 -1.1456 -0.3142  0.5469
  152TMC2    C5 2365   0.856   2.436  13.240  0.4076  0.4967  0.4280
  152TMC2    C6 2366   0.861   2.442  13.372 -0.3544 -0.5989  0.0474
  152TMC2     C 2367   0.612   2.181  13.182 -0.9283  0.3867 -1.2105
  152TMC2     O 2368   0.563   2.081  13.226  0.7356  0.5517  0.1394
  152TMC2     H 2369   0.658   2.186  13.446 -3.7049  2.9570 -0.7520
  152TMC2    H1 2370   0.789   2.330  13.063 -1.2673 -1.1769  0.5655
  152TMC2    H2 2371   0.908   2.526  13.421  2.1711  0.8561 -4.7860
  152TMC2    C7 2372   0.817   2.559  13.175 -0.3678 -0.0596  0.2588
  152TMC2    C8 2373   0.773   2.369  13.579 -0.6447  0.3067  0.4427
  152TMC2    O1 2374   0.718   2.536  13.106  0.3558  0.0686  0.3553
  152TMC2    O2 2375   0.788   2.473  13.642  0.0325  0.8375 -0.0312
  152TMC2    O5 2376   0.754   2.255  13.650  0.1532 -0.4223  0.3032
  152TMC2    H5 2377   0.767   2.170  13.602 -0.2804 -0.1737 -0.2612
  153MPD2     C 2378   0.331   2.183  13.098 -0.2714 -0.5720 -0.4595
  153MPD2    C1 2379   0.408   2.291  13.090 -0.4442  0.0930  0.1364
  153MPD2    C2 2380   0.355   2.413  13.043 -0.1109 -0.0459 -0.8716
  153MPD2    C3 2381   0.221   2.426  13.020 -0.4118  0.2435  0.5196
  153MPD2    C4 2382   0.143   2.315  13.020  0.6197  0.0991  0.1179
  153MPD2    C5 2383   0.200   2.194  13.061  0.0929  0.4718  0.3337
  153MPD2     H 2384   0.421   2.498  13.030  0.0580 -0.0762 -0.1832
  153MPD2    H1 2385   0.046   2.320  12.972  1.1864  0.5799 -0.9886
  153MPD2    H2 2386   0.370   2.087  13.130 -0.9239 -0.8687 -0.5411
  153MPD2    H3 2387   0.140   2.104  13.059  1.4187 -0.4208  0.3163
  153MPD2     N 2388   0.171   2.554  12.978 -0.3526  0.2148  0.6457
  153MPD2    H5 2389   0.242   2.625  12.997 -0.0752  0.0214  0.3371
  153MPD2    N1 2390   0.544   2.288  13.120  1.2164 -0.2255  0.4048
  153MPD2    H7 2391   0.600   2.373  13.116  0.0348  0.4697 -1.4295
  154TMC2    C1 2392   2.229   2.596   0.925  0.0556  0.4505  0.1054
  154TMC2    C2 2393   2.263   2.721   0.972  0.2538  0.9576 -0.2554
  154TMC2    C3 2394   2.399   2.735   0.980 -0.1881  0.1920 -0.2648
  154TMC2    C4 2395   2.316   2.497   0.889  0.2972  0.2015 -0.4667
  154TMC2    C5 2396   2.448   2.526   0.912 -0.4519 -1.2671  0.2084
  154TMC2    C6 2397   2.493   2.646   0.953 -0.0666 -0.2449 -0.1149
  154TMC2     C 2398   2.090   2.576   0.903  0.1215  0.1460  0.1642
  154TMC2     O 2399   2.015   2.670   0.933  0.6174 -0.3050  0.1376
  154TMC2     H 2400   2.196   2.793   1.018 -0.3457 -0.3302  0.8813
  154TMC2    H1 2401   2.294   2.391   0.883 -0.6891  0.4432 -1.0094
  154TMC2    H2 2402   2.599   2.668   0.955  0.0232 -0.6905 -0.1054
  154TMC2    C7 2403   2.535   2.435   0.835  0.0700 -0.3297  0.8576
  154TMC2    C8 2404   2.437   2.874   1.005 -1.3761 -0.2867  0.0571
  154TMC2    O1 2405   2.483   2.373   0.740  0.6081 -0.4985 -0.3244
  154TMC2    O2 2406   2.552   2.900   1.042 -0.0060 -0.5620 -0.3065
  154TMC2    O5 2407   2.347   2.967   0.966  0.4303 -0.3198 -0.2097
  154TMC2    H5 2408   2.269   2.930   0.919  1.1046  0.4243 -1.9093
  155MPD2     C 2409   1.911   2.313   0.723 -0.2303  0.1438 -1.0126
  155MPD2    C1 2410   1.928   2.422   0.805 -0.0949 -0.0637 -0.4121
  155MPD2    C2 2411   1.813   2.483   0.853 -0.6280 -0.1078 -0.0134
  155MPD2    C3 2412   1.683   2.445   0.813 -0.0078 -0.8036  0.7201
  155MPD2    C4 2413   1.672   2.348   0.711 -0.8221 -0.4538 -0.2084
  155MPD2    C5 2414   1.786   2.282   0.671 -0.5648  0.3523  0.2890
  155MPD2     H 2415   1.818   2.575   0.911  0.0946  0.7522 -1.4475
  155MPD2    H1 2416   1.581   2.306   0.670 -1.2752 -0.2850  0.6150
  155MPD2    H2 2417   1.990   2.252   0.682  1.9890  0.0317  3.4163
  155MPD2    H3 2418   1.780   2.199   0.601 -1.0469  1.2169 -0.6901
  155MPD2     N 2419   1.568   2.516   0.850  0.5406 -0.1905  0.0487
  155MPD2    H5 2420   1.584   2.591   0.917 -0.1751 -0.2949  0.3418
  155MPD2    N1 2421   2.059   2.457   0.842  0.2088 -0.4604 -0.1097
  155MPD2    H7 2422   2.136   2.405   0.801  0.1862 -1.1716  0.7544
  156TMC2    C1 2423   0.596   0.367  11.512 -1.0766 -0.1028  0.0963
  156TMC2    C2 2424   0.607   0.243  11.463 -1.0438  0.1508 -0.2600
  156TMC2    C3 2425   0.549   0.219  11.339 -0.0366  0.6558  0.8277
  156TMC2    C4 2426   0.540   0.472  11.439  0.0314  0.1430 -0.0474
  156TMC2    C5 2427   0.504   0.442  11.310  0.1452  0.1336  0.4727
  156TMC2    C6 2428   0.497   0.314  11.255 -0.4357 -0.3520  0.0385
  156TMC2     C 2429   0.632   0.395  11.646  0.0279 -0.3539  0.4336
  156TMC2     O 2430   0.585   0.495  11.692  0.6398  0.2213 -0.5503
  156TMC2     H 2431   0.653   0.163  11.520  0.8448  0.3233 -1.5486
  156TMC2    H1 2432   0.555   0.571  11.481 -0.8209  0.0807  0.4114
  156TMC2    H2 2433   0.487   0.292  11.149 -3.1358  2.4926 -0.3035
  156TMC2    C7 2434   0.454   0.545  11.230 -0.1221  0.1689 -0.4084
  156TMC2    C8 2435   0.514   0.082  11.307  0.0503  0.2691 -0.0448
  156TMC2    O1 2436   0.462   0.650  11.287  0.1940 -0.3650  0.4574
  156TMC2    O2 2437   0.558   4.737  11.379 -0.5959 -0.4845 -0.0990
  156TMC2    O5 2438   0.385   0.088  11.261  0.4193  0.0723  0.8736
  156TMC2    H5 2439   0.359   0.158  11.198  3.1630 -2.1893 -2.7507
  157MPD2     C 2440   0.822   0.209  11.882  0.9033 -0.0246 -0.2023
  157MPD2    C1 2441   0.775   0.318  11.823 -0.0485  0.0304 -0.6571
  157MPD2    C2 2442   0.804   0.444  11.868  0.3469 -0.2753  0.0265
  157MPD2    C3 2443   0.873   0.458  11.983  0.3017  0.0938  0.1335
  157MPD2    C4 2444   0.918   0.345  12.045 -0.3282 -0.2634  0.1376
  157MPD2    C5 2445   0.895   0.224  11.996 -0.6590  0.0044 -0.0924
  157MPD2     H 2446   0.762   0.537  11.831 -0.3100 -0.4914  0.2152
  157MPD2    H1 2447   0.970   0.349  12.140  0.6277  1.2468 -0.4499
  157MPD2    H2 2448   0.810   0.107  11.846  2.3754 -0.4641  0.5437
  157MPD2    H3 2449   0.932   0.138  12.049  1.1989 -0.5013 -2.2304
  157MPD2     N 2450   0.902   0.593  12.033 -0.0102  0.2424  0.3845
  157MPD2    H5 2451   0.886   0.663  11.961 -0.7727 -1.8106 -1.4367
  157MPD2    N1 2452   0.694   0.294  11.716 -0.7243  0.5698 -0.0053
  157MPD2    H7 2453   0.695   0.200  11.679  2.1783  0.3113  0.7439
  158TMC2    C1 2454   1.421   4.082  13.208 -0.3959  0.0473  0.7519
  158TMC2    C2 2455   1.447   4.093  13.076  0.0016  0.5305  0.0857
  158TMC2    C3 2456   1.347   4.048  12.993 -0.6459 -0.4923 -0.0078
  158TMC2    C4 2457   1.305   4.020  13.257 -0.4401 -0.0446  0.1638
  158TMC2    C5 2458   1.208   3.981  13.165  0.2782  0.1055 -0.3555
  158TMC2    C6 2459   1.222   4.002  13.034  0.5883 -0.1593 -0.1753
  158TMC2     C 2460   1.546   4.087  13.285 -0.1070 -0.1693  0.1932
  158TMC2     O 2461   1.631   4.169  13.254  0.1208 -0.7791  0.1095
  158TMC2     H 2462   1.537   4.127  13.026  0.6077 -1.9419 -0.5033
  158TMC2    H1 2463   1.293   4.000  13.363  2.1248  2.4855  0.9254
  158TMC2    H2 2464   1.145   3.977  12.962 -0.4594  2.5971 -0.0443
  158TMC2    C7 2465   1.072   3.969  13.218 -0.4130  0.2732 -0.3611
  158TMC2    C8 2466   1.365   4.047  12.843 -0.1399  0.3863 -0.5380
  158TMC2    O1 2467   0.987   3.976  13.130  0.3169 -0.4199  0.4427
  158TMC2    O2 2468   1.278   4.062  12.759  0.1204  0.2402  1.0699
  158TMC2    O5 2469   1.496   4.025  12.827  0.1394 -0.0800  0.0134
  158TMC2    H5 2470   1.536   3.990  12.909 -0.2841  0.8283  0.6040
  159MPD2     C 2471   1.826   4.014  13.720 -0.2133 -0.0269 -0.3809
  159MPD2    C1 2472   1.693   3.998  13.751  0.4278 -0.2989 -0.1190
  159MPD2    C2 2473   1.601   4.004  13.647 -0.1194  0.1398 -0.0265
  159MPD2    C3 2474   1.636   4.031  13.514 -1.0612 -0.5941  0.7494
  159MPD2    C4 2475   1.770   4.035  13.488 -0.6705 -0.8481 -0.0016
  159MPD2    C5 2476   1.867   4.031  13.591  0.3337 -0.1553 -1.2172
  159MPD2     H 2477   1.494   3.991  13.656 -0.0641 -0.4911 -0.2733
  159MPD2    H1 2478   1.817   4.045  13.391 -1.0938  1.6890  0.0552
  159MPD2    H2 2479   1.901   4.007  13.798  1.1644  0.0350 -1.7081
  159MPD2    H3 2480   1.972   4.050  13.572  0.4617 -0.1142 -0.4742
  159MPD2     N 2481   1.530   4.034  13.411 -0.5623  0.1397 -0.1327
  159MPD2    H5 2482   1.448   3.989  13.451 -0.0658  0.3042  1.0481
  159MPD2    N1 2483   1.657   3.982  13.883  0.9756  0.1090  0.4952
  159MPD2    H7 2484   1.738   3.982  13.944 -0.0032 -1.4699  1.8039
  160TMC2    C1 2485   0.191   2.691   0.992  0.1289  0.0014 -0.9045
  160TMC2    C2 2486   0.057   2.703   0.978 -0.3199  0.0128  0.0160
  160TMC2    C3 2487   4.714   2.641   1.066 -0.2473  0.5049 -0.1782
  160TMC2    C4 2488   0.247   2.625   1.094  0.3066 -0.5009  0.1541
  160TMC2    C5 2489   0.162   2.565   1.181  0.1270 -0.1575  0.1052
  160TMC2    C6 2490   0.024   2.574   1.168  0.0418 -0.0084 -0.0235
  160TMC2     C 2491   0.284   2.731   0.879  0.0790  0.3089 -0.4465
  160TMC2     O 2492   0.394   2.770   0.916 -0.4148  0.0050  0.3432
  160TMC2     H 2493   0.015   2.761   0.897 -0.4463 -1.9821 -1.3571
  160TMC2    H1 2494   0.355   2.614   1.102 -0.0831 -0.7230  5.2805
  160TMC2    H2 2495   4.702   2.522   1.240 -2.2554 -0.0678 -2.0604
  160TMC2    C7 2496   0.218   2.482   1.284  0.3256  0.2289  0.1500
  160TMC2    C8 2497   4.577   2.688   1.063  0.1650 -0.5790  0.4557
  160TMC2    O1 2498   0.147   2.435   1.375  0.3611  0.2793 -0.6807
  160TMC2    O2 2499   4.550   2.806   1.044 -0.3178  0.1950 -0.1845
  160TMC2    O5 2500   4.494   2.595   1.114 -0.4984  0.2103  0.1153
  160TMC2    H5 2501   4.536   2.507   1.124 -0.1665  0.4066  0.4257
  161MPD2     C 2502   0.412   2.809   0.618 -0.1439  0.3494  0.4728
  161MPD2    C1 2503   0.287   2.751   0.629 -0.6929 -0.0988  0.9575
  161MPD2    C2 2504   0.218   2.730   0.511  0.6984  0.6460 -0.7777
  161MPD2    C3 2505   0.280   2.743   0.385  0.1554 -0.2596  0.2964
  161MPD2    C4 2506   0.404   2.798   0.379 -0.3849  0.1391  0.5061
  161MPD2    C5 2507   0.464   2.837   0.489 -0.0828  0.2089 -0.1796
  161MPD2     H 2508   0.118   2.691   0.523  1.7829 -2.0585 -0.5812
  161MPD2    H1 2509   0.459   2.810   0.286  1.0055  0.6247  1.3862
  161MPD2    H2 2510   0.474   2.837   0.702  0.4205  0.6065 -0.0309
  161MPD2    H3 2511   0.556   2.893   0.478 -0.2768  0.5171 -0.2611
  161MPD2     N 2512   0.209   2.712   0.268  0.7227 -0.0617  0.1840
  161MPD2    H5 2513   0.264   2.720   0.183  1.5056 -2.3263  0.4750
  161MPD2    N1 2514   0.229   2.718   0.752  0.5095  0.4163 -0.1512
  161MPD2    H7 2515   0.135   2.680   0.761  0.0447  1.6930  0.4472
  162TMC2    C1 2516   3.878   4.078   1.086 -0.0362 -0.2063 -0.0990
  162TMC2    C2 2517   3.813   4.110   1.203 -0.1300 -0.2185  0.0615
  162TMC2    C3 2518   3.890   4.139   1.314 -0.4736  0.7794  0.6917
  162TMC2    C4 2519   4.015   4.068   1.079 -0.0133 -0.7467 -0.3604
  162TMC2    C5 2520   4.083   4.095   1.197  0.4424  0.1351 -0.1257
  162TMC2    C6 2521   4.026   4.139   1.316 -0.1780  0.6364  0.2370
  162TMC2     C 2522   3.796   4.067   0.967  0.5294  0.8033  0.8159
  162TMC2     O 2523   3.853   4.086   0.857 -0.0107 -0.8383  0.1542
  162TMC2     H 2524   3.707   4.126   1.213  0.1880 -0.1328  3.1206
  162TMC2    H1 2525   4.057   4.023   0.990 -0.7125 -0.8102 -0.6559
  162TMC2    H2 2526   4.083   4.145   1.408  2.5370  1.8497 -1.5419
  162TMC2    C7 2527   4.201   4.009   1.220  1.0379  0.2852  0.1371
  162TMC2    C8 2528   3.835   4.185   1.437 -0.3785 -0.6632 -0.1218
  162TMC2    O1 2529   4.272   4.023   1.324  0.6812 -0.5393  0.4694
  162TMC2    O2 2530   3.900   4.252   1.518 -0.3714  0.4950  0.1505
  162TMC2    O5 2531   3.753   4.086   1.485  0.0267 -0.2269 -0.2206
  162TMC2    H5 2532   3.701   4.027   1.427  1.2860  1.0075 -2.6228
  163MPD2     C 2533   3.363   3.915   0.730  0.5077 -0.0361  0.1576
  163MPD2    C1 2534   3.488   3.939   0.673 -0.1910 -0.0395 -0.2678
  163MPD2    C2 2535   3.589   3.988   0.750 -0.0619 -0.0012  0.1280
  163MPD2    C3 2536   3.569   3.993   0.891 -0.1372 -0.3589 -0.4444
  163MPD2    C4 2537   3.448   3.959   0.948 -0.0104  0.7859 -0.2227
  163MPD2    C5 2538   3.347   3.927   0.867 -0.5392 -0.1255 -0.1763
  163MPD2     H 2539   3.685   4.014   0.707 -0.9193  0.5774 -1.4524
  163MPD2    H1 2540   3.430   3.959   1.055 -0.3930 -1.9735 -0.2981
  163MPD2    H2 2541   3.283   3.889   0.662 -0.0354  1.5583  0.1860
  163MPD2    H3 2542   3.254   3.902   0.917 -1.5548  2.5317 -0.7349
  163MPD2     N 2543   3.667   4.034   0.985 -0.6855  0.6113  0.0021
  163MPD2    H5 2544   3.641   4.033   1.084 -0.3791 -0.9351  0.0681
  163MPD2    N1 2545   3.518   3.904   0.544  0.6503 -0.2664  0.2582
  163MPD2    H7 2546   3.445   3.866   0.485 -0.2459  0.7065  0.7356
  164TMC2    C1 2547   3.759   3.483  11.159 -0.5767 -1.2113  0.5928
  164TMC2    C2 2548   3.874   3.474  11.091 -0.2214  0.3321  0.4618
  164TMC2    C3 2549   3.945   3.586  11.084 -0.1987 -0.6581  0.3142
  164TMC2    C4 2550   3.715   3.599  11.211  0.0379  0.3941 -0.2887
  164TMC2    C5 2551   3.788   3.710  11.194  0.0235  0.2840  0.7713
  164TMC2    C6 2552   3.907   3.708  11.133 -0.3554  0.1897  0.1301
  164TMC2     C 2553   3.695   3.357  11.207  0.0633 -1.0904  0.2562
  164TMC2     O 2554   3.583   3.364  11.255  0.4089  0.1030  0.0442
  164TMC2     H 2555   3.903   3.382  11.041 -0.8866  0.1037  0.5084
  164TMC2    H1 2556   3.632   3.597  11.281  1.6137  2.5224  1.6464
  164TMC2    H2 2557   3.972   3.794  11.120  0.3458 -0.7221 -2.5129
  164TMC2    C7 2558   3.750   3.829  11.258 -0.3337 -0.8217  0.0760
  164TMC2    C8 2559   4.067   3.593  10.998 -0.3219  0.1645 -0.4994
  164TMC2    O1 2560   3.834   3.920  11.268  0.9043  0.2031 -0.3516
  164TMC2    O2 2561   4.122   3.701  10.969  0.0959  0.1598  0.0788
  164TMC2    O5 2562   4.120   3.479  10.969  0.2322  0.4765 -0.1143
  164TMC2    H5 2563   4.089   3.405  11.024 -0.7239  0.9588 -0.0057
  165TMC2    C1 2564   0.269   0.644   1.237  0.0400  0.1171 -0.1369
  165TMC2    C2 2565   0.145   0.671   1.191 -0.0063  0.2346  0.4969
  165TMC2    C3 2566   0.110   0.801   1.195  0.0116 -0.1847  0.0362
  165TMC2    C4 2567   0.350   0.740   1.292 -0.2715 -0.3161  0.5015
  165TMC2    C5 2568   0.303   0.868   1.299  1.0062 -0.5292 -0.6855
  165TMC2    C6 2569   0.178   0.899   1.247 -0.5212  0.0038  0.5478
  165TMC2     C 2570   0.319   0.510   1.220 -0.7647  0.8762 -0.2781
  165TMC2     O 2571   0.419   0.474   1.279 -0.0013 -0.6253  0.5014
  165TMC2     H 2572   0.063   0.601   1.172 -2.1017  3.4557 -2.3727
  165TMC2    H1 2573   0.444   0.705   1.333 -0.0124  0.4074  0.5321
  165TMC2    H2 2574   0.143   1.002   1.248 -0.3481  0.0614  0.9409
  165TMC2    C7 2575   0.401   0.972   1.341 -0.3743  0.0992  0.4405
  165TMC2    C8 2576   4.732   0.830   1.129 -0.4117 -0.6840  0.9215
  165TMC2    O1 2577   0.516   0.927   1.332  0.3075 -1.0046 -0.3770
  165TMC2    O2 2578   4.659   0.929   1.154  0.5691 -0.3691  0.0908
  165TMC2    O5 2579   0.002   0.763   1.011  0.1820  0.5139  0.4488
  165TMC2    H5 2580   0.078   0.701   1.007  0.0836  0.4630 -0.7043
  166MPD2     C 2581   0.283   0.060   0.993 -0.7263  1.0415 -0.3457
  166MPD2    C1 2582   0.340   0.094   1.115 -0.3014 -0.0779 -0.4669
  166MPD2    C2 2583   0.332   0.219   1.165 -0.8501 -0.4992 -0.2465
  166MPD2    C3 2584   0.253   0.310   1.096  0.3465 -1.0633 -0.0422
  166MPD2    C4 2585   0.204   0.283   0.971 -0.0980  0.5806 -0.3778
  166MPD2    C5 2586   0.225   0.157   0.918  0.4212 -0.1179 -0.2881
  166MPD2     H 2587   0.367   0.246   1.264  1.4237  1.0180 -1.4690
  166MPD2    H1 2588   0.142   0.354   0.919 -1.9042 -0.0781  0.8848
  166MPD2    H2 2589   0.279   4.696   0.965  2.3882  1.0574 -0.8406
  166MPD2    H3 2590   0.177   0.125   0.827 -1.1067  0.5504  0.2915
  166MPD2     N 2591   0.239   0.443   1.131 -0.2060 -0.3398 -0.2118
  166MPD2    H5 2592   0.182   0.510   1.081 -1.1932 -0.5477  0.6532
  166MPD2    N1 2593   0.413   4.729   1.180 -0.0467  0.2625  0.1903
  166MPD2    H7 2594   0.408   4.643   1.126 -0.0085  0.1086  0.4322
  167TMC2    C1 2595   3.141   3.746  13.498 -0.0619 -0.6188  0.3812
  167TMC2    C2 2596   3.040   3.760  13.589  0.3322  0.4131  0.0041
  167TMC2    C3 2597   2.977   3.648  13.634 -0.1975 -0.2369  0.1922
  167TMC2    C4 2598   3.172   3.627  13.440 -0.3655 -0.2664 -0.5065
  167TMC2    C5 2599   3.110   3.516  13.494 -0.8887  0.8295  0.6376
  167TMC2    C6 2600   3.015   3.527  13.589  0.3796  0.3478 -0.6855
  167TMC2     C 2601   3.196   3.873  13.447  0.1766  0.3510  0.0189
  167TMC2     O 2602   3.212   3.966  13.526 -0.2103 -0.3526 -0.0701
  167TMC2     H 2603   3.013   3.861  13.616 -0.6621 -0.1868  1.2297
  167TMC2    H1 2604   3.266   3.620  13.386 -0.6015  0.8423 -1.0591
  167TMC2    H2 2605   2.957   3.443  13.626  1.5993  0.7309  2.0992
  167TMC2    C7 2606   3.127   3.382  13.442 -0.2784  0.0850  0.2517
  167TMC2    C8 2607   2.845   3.648  13.683 -0.1465  0.1091 -0.2211
  167TMC2    O1 2608   3.050   3.292  13.474  0.9311  0.5147  0.2819
  167TMC2    O2 2609   2.760   3.565  13.652 -0.1246  0.4084 -0.6929
  167TMC2    O5 2610   2.814   3.775  13.714 -0.4517 -0.1200 -0.2994
  167TMC2    H5 2611   2.889   3.822  13.755 -2.1050  1.4816  0.8504
  168MPD2     C 2612   3.342   4.072  13.289  0.5732 -0.2862 -0.4764
  168MPD2    C1 2613   3.298   3.957  13.236 -0.2707  0.2631 -0.1745
  168MPD2    C2 2614   3.299   3.931  13.104  1.0034  0.0272 -0.2205
  168MPD2    C3 2615   3.348   4.026  13.020 -0.5744 -0.2453  0.9986
  168MPD2    C4 2616   3.400   4.144  13.066 -0.6521  0.0524 -0.5054
  168MPD2    C5 2617   3.390   4.168  13.199 -0.0763 -0.0815  0.1396
  168MPD2     H 2618   3.258   3.837  13.070  1.4061  0.4244 -1.7857
  168MPD2    H1 2619   3.452   4.215  13.003  0.7850  1.0814  1.8226
  168MPD2    H2 2620   3.344   4.085  13.397  0.2382 -0.1997 -0.4813
  168MPD2    H3 2621   3.422   4.264  13.237  0.7117  0.4173 -1.7530
  168MPD2     N 2622   3.359   4.002  12.883 -0.1580  0.2796 -0.4822
  168MPD2    H5 2623   3.389   4.077  12.822 -0.8150  0.0010 -1.1475
  168MPD2    N1 2624   3.229   3.861  13.313  0.0286  0.4035 -0.2619
  168MPD2    H7 2625   3.186   3.783  13.264 -0.4041  0.6127 -0.2224
  169MPD1     C 2626   4.049   4.192  10.143 -0.1134  0.2569  0.2724
  169MPD1    C1 2627   4.049   4.068  10.206 -0.5809 -0.2531 -0.4350
  169MPD1    C2 2628   4.171   4.002  10.206  0.4544  0.2063  0.1279
  169MPD1    C3 2629   4.290   4.054  10.159 -0.7473 -0.0958  0.0622
  169MPD1    C4 2630   4.293   4.177  10.103  0.5749  0.3217 -0.3362
  169MPD1    C5 2631   4.169   4.240  10.096 -0.6155 -0.4002  0.0628
  169MPD1     H 2632   4.175   3.899  10.240 -1.0761  0.4299  1.0241
  169MPD1    H1 2633   4.375   4.228  10.054  0.0425 -0.5541 -2.1730
  169MPD1    H2 2634   3.967   4.255  10.109 -1.0681 -0.7305  0.7459
  169MPD1    H3 2635   4.167   4.340  10.053  0.4391 -0.3189  0.2050
  169MPD1     N 2636   4.403   3.974  10.166  0.3977 -0.0903  0.1033
  169MPD1    H5 2637   4.401   3.881  10.206  0.1166  0.7334  2.0057
  169MPD1    N1 2638   3.940   3.983  10.230  0.3897 -0.7733 -0.0552
  169MPD1    H6 2639   3.973   3.908  10.291 -0.4587 -1.9737 -1.0668
  169MPD1    H7 2640   3.861   4.025  10.279 -0.0557 -2.1097  0.3914
  170MPD1     C 2641   4.088   0.771  13.294 -0.0082  0.9372 -0.4532
  170MPD1    C1 2642   4.101   0.911  13.291 -0.0999  1.0437  1.2690
  170MPD1    C2 2643   4.133   0.974  13.412  0.3006  0.1264  0.3726
  170MPD1    C3 2644   4.164   0.902  13.526  0.3215 -0.0546 -0.1983
  170MPD1    C4 2645   4.177   0.766  13.517  0.0258 -0.0952 -0.7891
  170MPD1    C5 2646   4.147   0.703  13.397 -0.2037 -0.9278  0.4467
  170MPD1     H 2647   4.149   1.081  13.419  0.6755  0.1220 -0.3547
  170MPD1    H1 2648   4.207   0.705  13.601 -2.2499 -0.6792 -0.3885
  170MPD1    H2 2649   4.047   0.718  13.208  0.8133 -1.1884  0.4717
  170MPD1    H3 2650   4.138   0.595  13.393 -2.6761 -0.7601  1.4336
  170MPD1     N 2651   4.206   0.973  13.641 -0.5715 -0.1503  0.6243
  170MPD1    H5 2652   4.206   1.074  13.643  2.3665 -0.1315  0.2134
  170MPD1    N1 2653   4.030   0.987  13.198  0.3009 -0.6218  0.2992
  170MPD1    H6 2654   4.056   1.085  13.192  0.7537 -0.7558  0.0396
  170MPD1    H7 2655   4.032   0.930  13.113  3.2884  1.3053 -0.9479
  171MPD1     C 2656   3.461   2.574  15.325  0.2418 -0.0343  0.3115
  171MPD1    C1 2657   3.382   2.473  15.265 -0.2051  0.0220  0.2873
  171MPD1    C2 2658   3.366   2.358  15.335 -0.3358 -0.0192 -0.1096
  171MPD1    C3 2659   3.400   2.346  15.470  0.0483  0.0124  0.7309
  171MPD1    C4 2660   3.458   2.454  15.531  0.0070 -0.3983 -0.5211
  171MPD1    C5 2661   3.483   2.560  15.457  0.0390  0.0513 -0.0576
  171MPD1     H 2662   3.317   2.272  15.291  1.0298 -0.3649 -0.9712
  171MPD1    H1 2663   3.465   2.461  15.639  0.2166 -0.0153 -0.5589
  171MPD1    H2 2664   3.488   2.669  15.280  1.5601 -1.5064 -1.9838
  171MPD1    H3 2665   3.529   2.646  15.504  1.5071 -0.6486 -0.1889
  171MPD1     N 2666   3.373   2.237  15.551 -0.1768  0.1048 -0.5159
  171MPD1    H5 2667   3.407   2.232  15.646 -0.2415 -0.4436 -0.5244
  171MPD1    N1 2668   3.324   2.495  15.139  0.8114 -0.2740  0.3687
  171MPD1    H6 2669   3.282   2.411  15.100  1.9690 -1.4152  1.6179
  171MPD1    H7 2670   3.373   2.552  15.069 -2.1883 -0.8644 -2.2381
  172MPD1     C 2671   2.040   1.699   0.927 -0.5769 -0.0181  0.2631
  172MPD1    C1 2672   1.929   1.648   0.862  0.6060  0.2519 -0.4707
  172MPD1    C2 2673   1.936   1.620   0.726 -0.4291 -0.5719  0.3179
  172MPD1    C3 2674   2.045   1.656   0.653  0.6422  0.0498 -0.2910
  172MPD1    C4 2675   2.155   1.711   0.715  0.8833 -0.0670  0.5787
  172MPD1    C5 2676   2.150   1.733   0.847  0.1655  0.1305 -0.4591
  172MPD1     H 2677   1.865   1.547   0.690 -0.7774 -1.1890  2.2593
  172MPD1    H1 2678   2.240   1.748   0.659 -0.2217 -1.1488 -1.8024
  172MPD1    H2 2679   2.050   1.714   1.034 -1.2485  2.8694 -0.0812
  172MPD1    H3 2680   2.234   1.771   0.904 -1.1084  0.5109  1.1762
  172MPD1     N 2681   2.051   1.626   0.515 -0.0452 -0.9654  0.7206
  172MPD1    H5 2682   2.143   1.649   0.481 -0.2491 -0.6702  0.3693
  172MPD1    N1 2683   1.821   1.594   0.935  0.4135  0.0343  0.7958
  172MPD1    H6 2684   1.740   1.588   0.874  1.4197  0.6360 -0.5904
  172MPD1    H7 2685   1.802   1.634   1.027 -0.0615 -1.0567  1.1711
  173MPD1     C 2686   2.776   0.927  13.920  1.0177 -0.0632 -0.1304
  173MPD1    C1 2687   2.712   1.047  13.945  0.1687 -0.3118  0.5653
  173MPD1    C2 2688   2.773   1.132  14.045  0.1890 -0.2809  0.1577
  173MPD1    C3 2689   2.878   1.085  14.118  0.7910 -0.1467  0.0944
  173MPD1    C4 2690   2.947   0.974  14.085 -0.0281  0.1399 -0.2140
  173MPD1    C5 2691   2.892   0.892  13.987  0.0816  0.0065  0.9774
  173MPD1     H 2692   2.723   1.225  14.068  0.8448 -0.2865  1.6048
  173MPD1    H1 2693   3.040   0.945  14.133  0.1472 -0.6921 -1.0556
  173MPD1    H2 2694   2.750   0.873  13.829 -2.7700 -0.4325  1.1869
  173MPD1    H3 2695   2.939   0.798  13.959  2.0710  1.5149 -0.7805
  173MPD1     N 2696   2.929   1.174  14.212 -0.3253  0.8330  0.0333
  173MPD1    H5 2697   2.877   1.261  14.225  0.0686  1.4649 -2.6195
  173MPD1    N1 2698   2.611   1.098  13.865 -0.3570  0.5256 -0.8016
  173MPD1    H6 2699   2.549   1.169  13.903  1.5474  1.3771  0.6631
  173MPD1    H7 2700   2.551   1.026  13.825  1.0414 -2.1920  2.0051
  174MPD1     C 2701   3.535   1.936  14.192 -0.6685 -0.0655 -0.2270
  174MPD1    C1 2702   3.400   1.932  14.166 -0.2958 -0.1872 -0.0582
  174MPD1    C2 2703   3.333   1.815  14.203 -0.4074  0.0628  0.7060
  174MPD1    C3 2704   3.401   1.725  14.289  0.0890  0.3356 -0.0942
  174MPD1    C4 2705   3.528   1.741  14.322 -0.4818  0.1234 -0.0793
  174MPD1    C5 2706   3.599   1.839  14.265  0.1705  1.0567 -0.2230
  174MPD1     H 2707   3.225   1.814  14.189 -0.4464 -0.1199  1.0180
  174MPD1    H1 2708   3.585   1.676  14.388  0.1889 -1.4254 -2.1975
  174MPD1    H2 2709   3.604   2.011  14.154  0.4767 -0.9278  0.1438
  174MPD1    H3 2710   3.707   1.850  14.270  0.2959  0.6691 -1.9263
  174MPD1     N 2711   3.338   1.610  14.339 -0.8881  0.0803  0.1769
  174MPD1    H5 2712   3.399   1.547  14.391 -1.7568  0.3969  1.5954
  174MPD1    N1 2713   3.340   2.032  14.091  0.0566 -0.3753  0.1095
  174MPD1    H6 2714   3.377   2.126  14.097 -0.0831 -0.0512 -4.1866
  174MPD1    H7 2715   3.240   2.026  14.110 -0.4475 -1.4992 -2.8861
  175MPD1     C 2716   2.204   2.716  15.948  0.9189 -0.1000 -1.1315
  175MPD1    C1 2717   2.080   2.740  16.015  0.2023 -0.1442  0.2481
  175MPD1    C2 2718   2.026   2.643  16.101  0.9602 -0.0765  0.7940
  175MPD1    C3 2719   2.100   2.532  16.136  0.2818 -0.2297  0.0665
  175MPD1    C4 2720   2.217   2.505  16.069 -0.1356  0.3074 -0.0228
  175MPD1    C5 2721   2.269   2.597  15.982 -0.2010 -0.3867 -0.2436
  175MPD1     H 2722   1.929   2.666  16.142 -0.4276 -2.2681 -1.2364
  175MPD1    H1 2723   2.268   2.416  16.104  0.0196  1.1417  1.8693
  175MPD1    H2 2724   2.246   2.788  15.880  0.3667  0.0497 -1.3104
  175MPD1    H3 2725   2.361   2.573  15.932 -1.0380 -1.3098 -1.3418
  175MPD1     N 2726   2.059   2.435  16.228 -0.1017  0.1975  0.3516
  175MPD1    H5 2727   2.124   2.360  16.252 -0.3809 -0.7373 -1.8334
  175MPD1    N1 2728   2.002   2.844  15.973  0.1586 -0.2725 -0.4404
  175MPD1    H6 2729   2.062   2.916  15.934  2.1770 -1.8037 -0.1437
  175MPD1    H7 2730   1.937   2.890  16.036 -0.3887 -0.0824 -1.1470
  176MPD1     C 2731   3.415   4.464  17.090  0.1138  0.4789  0.0242
  176MPD1    C1 2732   3.522   4.533  17.029  0.1639  0.7602 -0.9158
  176MPD1    C2 2733   3.565   4.653  17.097 -0.2881 -0.1141 -0.5368
  176MPD1    C3 2734   3.504   4.688  17.218 -0.7573  0.5939  0.1407
  176MPD1    C4 2735   3.395   4.622  17.267  0.0406 -0.2638 -0.4773
  176MPD1    C5 2736   3.354   4.513  17.198  0.0753 -0.4120 -0.3289
  176MPD1     H 2737   3.651   4.706  17.057  0.4247 -1.6487 -1.0558
  176MPD1    H1 2738   3.326   4.651  17.346 -1.3404 -1.2421 -1.3218
  176MPD1    H2 2739   3.364   4.383  17.038  1.5633 -2.3086  2.9082
  176MPD1    H3 2740   3.264   4.457  17.224 -0.5668 -0.2249 -2.1924
  176MPD1     N 2741   3.545   0.069  17.272  0.7067 -0.2786  0.8407
  176MPD1    H5 2742   3.624   0.109  17.221 -0.6504 -0.0347 -1.0502
  176MPD1    N1 2743   3.589   4.483  16.917 -0.1035 -0.2300 -0.2847
  176MPD1    H6 2744   3.632   4.549  16.852  1.0742  0.2302  0.9509
  176MPD1    H7 2745   3.537   4.414  16.864  0.7442 -2.1401  1.3798
  177MPD1     C 2746   1.402   3.936  10.808 -0.0900 -0.1828  0.2810
  177MPD1    C1 2747   1.431   4.019  10.703  0.6075  0.4084 -0.3548
  177MPD1    C2 2748   1.338   4.047  10.604 -0.1686  0.4263  0.0268
  177MPD1    C3 2749   1.210   4.006  10.615  0.0077 -0.5434  0.4408
  177MPD1    C4 2750   1.177   3.926  10.717  0.1974 -0.6351  0.0416
  177MPD1    C5 2751   1.269   3.899  10.816 -0.5452  0.0409 -0.6744
  177MPD1     H 2752   1.371   4.097  10.514  0.8126 -0.6915 -0.2413
  177MPD1    H1 2753   1.081   3.881  10.735  0.2607 -1.0981 -0.8177
  177MPD1    H2 2754   1.470   3.905  10.886  0.4994 -0.4112 -0.3286
  177MPD1    H3 2755   1.253   3.827  10.895 -1.7787 -0.2898 -1.2209
  177MPD1     N 2756   1.109   4.061  10.532 -0.2260  0.0623 -0.1116
  177MPD1    H5 2757   1.140   4.127  10.462  1.1861 -1.8296 -1.2865
  177MPD1    N1 2758   1.566   4.054  10.684  0.0829 -0.4490 -0.1454
  177MPD1    H6 2759   1.580   4.143  10.638  2.2083 -1.7245 -1.9448
  177MPD1    H7 2760   1.604   4.069  10.777 -1.8916  1.5740  0.3442
  178MPD1     C 2761   4.435   0.486   0.091 -0.6835  1.1920  0.4112
  178MPD1    C1 2762   4.339   0.455   0.008  0.2268  0.5916 -0.3184
  178MPD1    C2 2763   4.355   0.407  17.646 -0.0906  0.2772  0.1521
  178MPD1    C3 2764   4.487   0.388  17.605 -0.5560 -0.5912 -0.5922
  178MPD1    C4 2765   4.595   0.405  17.699  0.5285 -0.0069  0.9545
  178MPD1    C5 2766   4.570   0.448   0.062 -0.4343  1.0134 -1.0797
  178MPD1     H 2767   4.270   0.378  17.585  2.2313  0.3161 -3.1314
  178MPD1    H1 2768   4.701   0.395  17.676  0.6476 -0.6094  1.7246
  178MPD1    H2 2769   4.415   0.523   0.190  1.4791 -0.2858  1.4055
  178MPD1    H3 2770   4.651   0.463   0.132 -0.2849 -0.6745 -0.8858
  178MPD1     N 2771   4.517   0.334  17.479 -0.1473 -0.8736  0.3212
  178MPD1    H5 2772   4.611   0.298  17.464 -0.1614  0.2099 -2.2579
  178MPD1    N1 2773   4.213   0.457   0.068  0.3293 -0.3477 -0.0996
  178MPD1    H6 2774   4.133   0.467   0.007 -0.7573  0.8179  1.5286
  178MPD1    H7 2775   4.214   0.531   0.138  1.0411 -0.8302  0.4040
  179MPD1     C 2776   4.655   2.643  14.949 -0.5809  0.7801  0.0185
  179MPD1    C1 2777   4.522   2.675  14.915 -0.6048 -0.6113 -0.1869
  179MPD1    C2 2778   4.442   2.704  15.022 -0.4317  0.1213 -0.1989
  179MPD1    C3 2779   4.486   2.708  15.155  0.0450  0.2702 -0.0428
  179MPD1    C4 2780   4.617   2.683  15.178 -0.9082  0.4589 -0.0690
  179MPD1    C5 2781   4.702   2.653  15.076  0.5882 -0.0821 -0.0306
  179MPD1     H 2782   4.336   2.724  15.012 -0.3938  1.1175  1.2878
  179MPD1    H1 2783   4.661   2.682  15.277 -0.8377  1.4589 -0.0943
  179MPD1    H2 2784   4.728   2.608  14.877  2.0627 -0.1027  3.1441
  179MPD1    H3 2785   0.065   2.626  15.094  0.4367  1.0004  2.4836
  179MPD1     N 2786   4.406   2.733  15.268 -0.1662 -0.7039  0.0504
  179MPD1    H5 2787   4.445   2.734  15.361  0.5334 -1.0605 -0.2395
  179MPD1    N1 2788   4.482   2.675  14.780  0.0037  0.3296  0.1791
  179MPD1    H6 2789   4.563   2.685  14.720  0.5385  0.0213  0.8419
  179MPD1    H7 2790   4.411   2.746  14.766  0.0420  0.0310 -1.5049
  180MPD1     C 2791   4.041   4.106  14.929  0.3726 -0.0605 -0.3702
  180MPD1    C1 2792   4.111   4.207  14.877 -0.5855 -0.5749 -0.9184
  180MPD1    C2 2793   4.059   4.335  14.875  0.1146 -0.2215 -0.4332
  180MPD1    C3 2794   3.925   4.356  14.910  0.0207  0.2026 -0.8560
  180MPD1    C4 2795   3.849   4.241  14.946  0.1164  0.0613 -0.4691
  180MPD1    C5 2796   3.908   4.121  14.958  0.3209  0.2658 -0.3988
  180MPD1     H 2797   4.114   4.425  14.854 -1.3610  0.4154 -1.5295
  180MPD1    H1 2798   3.743   4.248  14.964  0.1327 -0.0359 -0.3358
  180MPD1    H2 2799   4.075   4.004  14.941  0.5017  0.0905  0.5751
  180MPD1    H3 2800   3.853   4.034  14.991 -0.3156  0.0606 -1.9634
  180MPD1     N 2801   3.870   4.487  14.900 -0.2094  0.8226  0.7231
  180MPD1    H5 2802   3.925   4.555  14.849  0.5781 -0.3521  0.0307
  180MPD1    N1 2803   4.245   4.181  14.852 -0.4298 -0.4501  0.2988
  180MPD1    H6 2804   4.287   4.252  14.792  1.9210 -0.6413  1.7561
  180MPD1    H7 2805   4.258   4.086  14.818  0.6265 -0.1542 -0.1312
  181MPD1     C 2806   0.640   2.595   9.641  0.3044 -1.2120  0.4064
  181MPD1    C1 2807   0.626   2.474   9.709 -0.4329  0.0904  0.4633
  181MPD1    C2 2808   0.680   2.466   9.842  0.0267  0.3276 -0.3077
  181MPD1    C3 2809   0.734   2.583   9.900  0.1818 -0.0989 -0.5122
  181MPD1    C4 2810   0.722   2.702   9.833 -0.7262 -0.2474 -0.4365
  181MPD1    C5 2811   0.680   2.713   9.704 -0.1909 -0.5622  0.2245
  181MPD1     H 2812   0.671   2.370   9.891  0.9920 -0.0423 -0.8617
  181MPD1    H1 2813   0.758   2.795   9.876  1.3510 -0.4747 -1.6490
  181MPD1    H2 2814   0.592   2.605   9.544 -0.3604 -0.9875  0.7580
  181MPD1    H3 2815   0.682   2.808   9.654 -2.4418  0.0762  1.3095
  181MPD1     N 2816   0.806   2.577  10.018 -0.5793 -0.8425 -0.5392
  181MPD1    H5 2817   0.867   2.656  10.036 -0.6349 -0.9158 -0.0218
  181MPD1    N1 2818   0.602   2.361   9.636 -0.1108 -0.1995  0.3916
  181MPD1    H6 2819   0.543   2.383   9.556  0.4193  1.0821  0.3456
  181MPD1    H7 2820   0.560   2.298   9.704 -0.1413 -1.1029 -0.4640
  182MPD1     C 2821   1.747   0.143   1.127  0.1228  0.6560  0.1224
  182MPD1    C1 2822   1.801   0.146   1.004 -0.2138  0.0039 -0.1331
  182MPD1    C2 2823   1.710   0.171   0.900 -0.6659  0.0639 -0.0117
  182MPD1    C3 2824   1.577   0.199   0.925 -0.6887  0.3336  0.9209
  182MPD1    C4 2825   1.529   0.206   1.056 -0.0641  0.5223 -0.2370
  182MPD1    C5 2826   1.616   0.182   1.158  0.4403  0.3049 -0.5962
  182MPD1     H 2827   1.753   0.180   0.800  0.4250  0.5148  0.4947
  182MPD1    H1 2828   1.426   0.237   1.073  0.4866  1.0651  2.1369
  182MPD1    H2 2829   1.808   0.112   1.211  1.3701 -2.7823 -2.0653
  182MPD1    H3 2830   1.594   0.183   1.264  1.8602 -1.9573 -0.2913
  182MPD1     N 2831   1.486   0.235   0.822  0.1744 -0.4256  0.0325
  182MPD1    H5 2832   1.398   0.268   0.861  0.5647 -1.3355  1.6610
  182MPD1    N1 2833   1.941   0.123   0.983  0.7982  0.5513 -0.0110
  182MPD1    H6 2834   1.983   0.190   0.919  1.1445  0.9070  0.5974
  182MPD1    H7 2835   1.987   0.142   1.072  1.5497  0.7639 -0.4389
  183MPD1     C 2836   2.190   1.597   9.285 -0.1699  0.3304 -0.6096
  183MPD1    C1 2837   2.123   1.713   9.316 -0.3132 -0.8663 -0.2236
  183MPD1    C2 2838   2.113   1.753   9.449 -0.2364  0.7452 -0.1333
  183MPD1    C3 2839   2.174   1.675   9.545  0.5331  0.6933  1.4165
  183MPD1    C4 2840   2.255   1.562   9.514  0.4370  0.6747 -0.2382
  183MPD1    C5 2841   2.264   1.523   9.382 -0.1959  0.3862  0.3657
  183MPD1     H 2842   2.066   1.848   9.470 -3.1210 -0.7259 -0.0577
  183MPD1    H1 2843   2.299   1.505   9.595 -2.2152 -2.5781 -1.0713
  183MPD1    H2 2844   2.190   1.567   9.181  1.9636 -0.1955 -0.4484
  183MPD1    H3 2845   2.318   1.432   9.356 -2.3372 -0.5741 -0.7376
  183MPD1     N 2846   2.162   1.716   9.685  0.1669  0.4934 -0.2632
  183MPD1    H5 2847   2.121   1.808   9.697 -1.4853 -0.1641 -0.7882
  183MPD1    N1 2848   2.059   1.785   9.213 -0.1093 -0.8855  0.4736
  183MPD1    H6 2849   2.070   1.758   9.116  0.8801  1.1111  0.0421
  183MPD1    H7 2850   2.055   1.886   9.226 -0.5170 -0.4738 -3.0557
  184MPD1     C 2851   0.070   4.648  10.934  0.0586 -0.4159  0.5518
  184MPD1    C1 2852   0.068   0.035  10.879 -0.6736 -0.2668 -0.3094
  184MPD1    C2 2853   0.100   0.040  10.747 -0.2099  0.5490 -0.8147
  184MPD1    C3 2854   0.136   4.677  10.671  0.4604  0.7378  0.2974
  184MPD1    C4 2855   0.139   4.555  10.729 -0.0323  0.4015 -0.5357
  184MPD1    C5 2856   0.092   4.540  10.856  0.0343  0.3510  0.3943
  184MPD1     H 2857   0.107   0.143  10.712  1.6177 -0.3722 -3.1816
  184MPD1    H1 2858   0.174   4.467  10.675  0.8413 -0.6657  1.8004
  184MPD1    H2 2859   0.049   4.634  11.039 -0.4994 -1.1686  0.3347
  184MPD1    H3 2860   0.091   4.436  10.886 -0.5890  0.7086  1.6083
  184MPD1     N 2861   0.189   4.679  10.538 -0.2157  0.4491  0.1309
  184MPD1    H5 2862   0.193   4.596  10.480 -0.4722  1.2759 -1.0634
  184MPD1    N1 2863   0.057   0.143  10.973  0.4698 -0.3172  0.2700
  184MPD1    H6 2864   0.016   0.226  10.930  0.1065 -0.9614 -0.6362
  184MPD1    H7 2865   0.024   0.123  11.067  2.8018  1.8569  1.5393
  185MPD1     C 2866   4.384   4.554   9.871 -0.3804  0.6330 -0.8704
  185MPD1    C1 2867   4.499   4.585   9.802 -0.0294 -0.5029  0.4755
  185MPD1    C2 2868   4.608   4.635   9.875 -0.5579 -0.0154 -0.1402
  185MPD1    C3 2869   4.611   4.634  10.011 -0.4696 -0.5251 -0.0062
  185MPD1    C4 2870   4.503   4.585  10.079 -0.3316  0.3741 -0.5741
  185MPD1    C5 2871   4.388   4.556  10.012 -1.1028 -0.4938 -0.2189
  185MPD1     H 2872   4.685   4.676   9.812  0.2858 -0.6543  0.4808
  185MPD1    H1 2873   4.499   4.582  10.188  0.0915 -0.5816 -0.5937
  185MPD1    H2 2874   4.293   4.524   9.820 -0.6893  1.6851 -0.9275
  185MPD1    H3 2875   4.306   4.517  10.071  0.2409 -0.7725  1.4596
  185MPD1     N 2876   4.725   4.661  10.086 -0.4124  0.2290  0.1426
  185MPD1    H5 2877   4.708   4.689  10.183 -0.6273 -0.0201  0.1736
  185MPD1    N1 2878   4.490   4.598   9.664  0.3195 -0.6981  0.3969
  185MPD1    H6 2879   4.421   4.534   9.625  0.2091 -0.0519 -0.4725
  185MPD1    H7 2880   4.577   4.585   9.612  0.5102 -1.3038  0.8706
  186MPD1     C 2881   4.606   2.851  16.048  0.1839 -0.2586 -0.5114
  186MPD1    C1 2882   4.597   2.934  15.936  0.0700 -0.3842  0.0874
  186MPD1    C2 2883   4.572   3.071  15.957  0.2207 -0.1709 -0.7783
  186MPD1    C3 2884   4.543   3.118  16.081  0.6472  0.1710 -0.3046
  186MPD1    C4 2885   4.546   3.032  16.188  0.0068 -0.7838  0.0221
  186MPD1    C5 2886   4.571   2.900  16.169 -0.2326  0.1522  0.2310
  186MPD1     H 2887   4.573   3.130  15.866 -0.5107  1.1778  0.0984
  186MPD1    H1 2888   4.517   3.066  16.287  1.7702 -1.8021  0.8955
  186MPD1    H2 2889   4.630   2.746  16.033 -0.5666 -0.4408 -0.4343
  186MPD1    H3 2890   4.565   2.833  16.254 -1.9187 -1.0461 -0.8359
  186MPD1     N 2891   4.506   3.244  16.109  0.3348  0.0656 -0.2958
  186MPD1    H5 2892   4.484   3.268  16.206 -0.0227 -0.5106 -0.2342
  186MPD1    N1 2893   4.634   2.884  15.809  0.2944  0.3889  0.7078
  186MPD1    H6 2894   4.607   2.939  15.728  3.1012 -0.0111 -0.5174
  186MPD1    H7 2895   4.608   2.793  15.773 -0.2210 -0.0367  2.1918
  187MPD1     C 2896   3.021   1.403   0.142 -0.0300  0.5205  0.7869
  187MPD1    C1 2897   3.044   1.273   0.188 -0.3729 -0.1393 -0.3107
  187MPD1    C2 2898   3.120   1.190   0.109 -0.9036  0.5853  0.2174
  187MPD1    C3 2899   3.168   1.218  17.739  0.2789  0.2478  0.3601
  187MPD1    C4 2900   3.157   1.351  17.703 -0.3679 -0.3431 -0.0489
  187MPD1    C5 2901   3.076   1.436   0.019 -0.0452 -0.5644 -0.7128
  187MPD1     H 2902   3.142   1.095   0.157  1.4645  1.4553  0.8541
  187MPD1    H1 2903   3.188   1.385  17.605 -0.3513  0.6286  0.2877
  187MPD1    H2 2904   2.983   1.486   0.200  2.2318  1.5061  0.8641
  187MPD1    H3 2905   3.081   1.541  17.754  0.8798 -0.2479  0.7909
  187MPD1     N 2906   3.243   1.130  17.668 -0.1569  0.0938  0.3000
  187MPD1    H5 2907   3.281   1.177  17.587 -1.1454  0.1169 -0.1567
  187MPD1    N1 2908   3.013   1.245   0.321 -0.3693  0.1963  0.3566
  187MPD1    H6 2909   2.993   1.146   0.334 -1.0365 -0.0593 -2.7577
  187MPD1    H7 2910   2.937   1.301   0.360 -0.3781 -0.7130  1.6631
  188MPD1     C 2911   3.345   0.687  10.584 -0.1716 -0.6764 -0.5041
  188MPD1    C1 2912   3.256   0.640  10.490  0.4239  0.3025 -1.0693
  188MPD1    C2 2913   3.184   0.526  10.520  0.1724 -0.2680  0.2954
  188MPD1    C3 2914   3.204   0.456  10.639  0.5615  1.2788 -0.6767
  188MPD1    C4 2915   3.282   0.505  10.734  0.2491 -0.4641  0.0523
  188MPD1    C5 2916   3.359   0.613  10.704 -0.1896  0.1730 -0.1081
  188MPD1     H 2917   3.115   0.502  10.439  1.6867  0.2507 -1.1333
  188MPD1    H1 2918   3.290   0.457  10.831 -0.2481  1.6792  1.1688
  188MPD1    H2 2919   3.406   0.773  10.559 -0.1726 -0.5726 -0.1462
  188MPD1    H3 2920   3.419   0.652  10.786  0.2739 -0.6257 -0.0679
  188MPD1     N 2921   3.129   0.337  10.677 -0.3691  0.4590  0.0615
  188MPD1    H5 2922   3.165   0.292  10.760  0.9204 -1.5644 -1.5906
  188MPD1    N1 2923   3.225   0.720  10.377  0.1728 -0.3934 -0.5986
  188MPD1    H6 2924   3.189   0.660  10.302 -1.1468  0.6243 -0.7704
  188MPD1    H7 2925   3.310   0.769  10.349 -1.2649  1.6750 -1.3676
  189MPD1     C 2926   0.381   1.577   0.766  0.5063  0.6704 -0.2098
  189MPD1    C1 2927   0.330   1.458   0.730  0.6205  0.9562 -0.1404
  189MPD1    C2 2928   0.194   1.451   0.739 -0.6400 -0.0043 -0.1112
  189MPD1    C3 2929   0.113   1.559   0.760 -0.5091  0.3440 -0.7873
  189MPD1    C4 2930   0.168   1.676   0.778  0.2301 -0.4772 -0.7325
  189MPD1    C5 2931   0.303   1.684   0.784  0.5375 -0.1064 -0.1183
  189MPD1     H 2932   0.146   1.354   0.741  0.2980 -0.4407  0.9345
  189MPD1    H1 2933   0.118   1.772   0.781  2.4219  0.6751 -0.9699
  189MPD1    H2 2934   0.488   1.591   0.763  0.5158  0.7277  0.3355
  189MPD1    H3 2935   0.353   1.775   0.814 -0.4020  0.5229 -0.4683
  189MPD1     N 2936   4.710   1.550   0.767 -0.4111  0.4749  0.1938
  189MPD1    H5 2937   4.662   1.463   0.744  2.2631 -1.3837  1.6567
  189MPD1    N1 2938   0.416   1.341   0.729 -0.3726  0.3012  0.4522
  189MPD1    H6 2939   0.507   1.364   0.690  0.0800 -1.2626  0.5951
  189MPD1    H7 2940   0.374   1.270   0.670 -0.9613 -0.4522  1.7815
  190MPD1     C 2941   4.258   0.106  14.867  0.2324  0.4267  0.7422
  190MPD1    C1 2942   4.382   0.048  14.838  0.3725 -0.1357 -0.4140
  190MPD1    C2 2943   4.447   4.719  14.934 -0.1006  0.0570 -0.0216
  190MPD1    C3 2944   4.384   4.693  15.058 -0.0602 -0.3547 -0.2148
  190MPD1    C4 2945   4.253   4.735  15.076  0.0547 -0.7165 -0.2378
  190MPD1    C5 2946   4.191   0.076  14.984  0.0731  0.3001  0.5183
  190MPD1     H 2947   4.547   4.680  14.922  0.0349  0.4978 -0.3296
  190MPD1    H1 2948   4.196   4.718  15.167 -0.7561 -1.5281 -0.8880
  190MPD1    H2 2949   4.218   0.182  14.801 -0.6947 -1.0240 -0.3732
  190MPD1    H3 2950   4.090   0.112  14.996  0.2633  0.9135  0.2784
  190MPD1     N 2951   4.466   4.624  15.162 -0.6991  0.1895 -0.0334
  190MPD1    H5 2952   4.565   4.607  15.154 -0.6305 -0.7539  3.1203
  190MPD1    N1 2953   4.452   0.084  14.722  0.3038  0.0451  0.2786
  190MPD1    H6 2954   4.509   0.012  14.679  0.5181  1.6456 -2.1083
  190MPD1    H7 2955   4.392   0.120  14.649 -0.7159  2.1213  2.1422
  191MPD1     C 2956   2.614   1.454  12.199 -1.0957  0.5477 -0.6244
  191MPD1    C1 2957   2.584   1.361  12.296  0.5510  0.2853 -0.1303
  191MPD1    C2 2958   2.649   1.385  12.417 -1.3642  0.5173  0.0200
  191MPD1    C3 2959   2.750   1.480  12.434 -0.0713  0.0778 -0.3895
  191MPD1    C4 2960   2.778   1.562  12.327  0.4986  0.0687 -0.4462
  191MPD1    C5 2961   2.698   1.555  12.214 -0.1923 -0.0423 -0.3340
  191MPD1     H 2962   2.612   1.331  12.503 -0.5880 -2.3094 -1.4198
  191MPD1    H1 2963   2.849   1.642  12.343  1.4144 -0.6482 -0.9331
  191MPD1    H2 2964   2.554   1.454  12.109  1.8829 -0.6100 -2.6372
  191MPD1    H3 2965   2.711   1.629  12.135  2.1074  0.3927  0.4380
  191MPD1     N 2966   2.810   1.500  12.566 -0.4045 -0.9049  0.3704
  191MPD1    H5 2967   2.784   1.432  12.636  2.0015 -1.2977  0.8798
  191MPD1    N1 2968   2.475   1.273  12.279 -0.4678  0.0764  0.0739
  191MPD1    H6 2969   2.459   1.236  12.186  1.3197  0.4650 -0.3764
  191MPD1    H7 2970   2.474   1.198  12.348 -0.0535  1.4770  1.6028
  192MPD1     C 2971   3.216   1.109  13.397  0.2512  0.2307  0.0404
  192MPD1    C1 2972   3.110   1.085  13.309  0.1285 -0.1574  0.3017
  192MPD1    C2 2973   3.093   1.175  13.198 -0.1648  0.1147  0.2736
  192MPD1    C3 2974   3.171   1.286  13.185  0.0667  0.2819 -0.8273
  192MPD1    C4 2975   3.274   1.303  13.275 -0.2114  0.2896 -0.0429
  192MPD1    C5 2976   3.303   1.218  13.375  0.7832 -0.2544  0.6078
  192MPD1     H 2977   3.007   1.150  13.136 -0.1864 -1.9833  1.1330
  192MPD1    H1 2978   3.343   1.386  13.262  0.5794 -0.5041 -0.8299
  192MPD1    H2 2979   3.235   1.053  13.488 -3.6816  0.5529  1.0439
  192MPD1    H3 2980   3.383   1.243  13.444 -0.0020 -0.3273  1.5455
  192MPD1     N 2981   3.143   1.385  13.093  0.4018  0.5163  0.3715
  192MPD1    H5 2982   3.210   1.461  13.099  0.1201  0.5480  3.0300
  192MPD1    N1 2983   3.037   0.966  13.311 -0.5711 -0.4348 -0.1759
  192MPD1    H6 2984   2.943   0.968  13.271 -0.3697  0.4250 -0.6036
  192MPD1    H7 2985   3.022   0.918  13.399  0.0564 -1.9338 -0.8778
  193MPD1     C 2986   3.344   1.348  15.977  0.1987 -0.6234 -0.2720
  193MPD1    C1 2987   3.240   1.406  16.045 -0.6102  0.0128 -0.2132
  193MPD1    C2 2988   3.264   1.519  16.125 -1.1037  0.0185  0.0437
  193MPD1    C3 2989   3.380   1.588  16.106  0.8663 -0.0741  0.7447
  193MPD1    C4 2990   3.474   1.543  16.022 -0.0071 -0.2957  0.0314
  193MPD1    C5 2991   3.451   1.430  15.952  0.6837 -0.5221 -0.7447
  193MPD1     H 2992   3.189   1.544  16.199  1.5595 -2.0033  3.4293
  193MPD1    H1 2993   3.567   1.597  16.011  0.0113 -0.3916 -0.3030
  193MPD1    H2 2994   3.339   1.253  15.924 -1.3194 -1.7598  1.9203
  193MPD1    H3 2995   3.525   1.398  15.880 -0.0179 -0.4107 -1.5231
  193MPD1     N 2996   3.423   1.689  16.192 -0.4182 -0.3233 -0.1503
  193MPD1    H5 2997   3.514   1.729  16.170 -0.9226 -0.0092 -1.6767
  193MPD1    N1 2998   3.131   1.322  16.074 -0.1544  0.5515 -0.2288
  193MPD1    H6 2999   3.047   1.376  16.095 -0.1408 -0.7599  3.3090
  193MPD1    H7 3000   3.114   1.259  15.996  1.7809  0.7548 -0.7944
  194MPD1     C 3001   2.322   3.724  17.310  0.0750 -0.3769  0.2673
  194MPD1    C1 3002   2.291   3.747  17.442  0.1794 -0.8023  0.4083
  194MPD1    C2 3003   2.177   3.696  17.496  0.5714  0.0602 -0.4575
  194MPD1    C3 3004   2.085   3.623  17.422 -0.1351  0.0549 -0.2896
  194MPD1    C4 3005   2.122   3.594  17.290  0.1022  0.2532 -0.5237
  194MPD1    C5 3006   2.240   3.642  17.240  0.8880  0.6447 -0.0418
  194MPD1     H 3007   2.158   3.714  17.601  2.3986 -1.5058  0.1494
  194MPD1    H1 3008   2.059   3.538  17.221  0.7145 -3.3181  1.7981
  194MPD1    H2 3009   2.409   3.765  17.260  0.0295 -0.2899  0.2610
  194MPD1    H3 3010   2.257   3.603  17.139  1.3613 -2.9110  1.3935
  194MPD1     N 3011   1.961   3.572  17.474  0.3436 -0.6942  0.1614
  194MPD1    H5 3012   1.903   3.515  17.413 -1.4091 -0.1260  1.3283
  194MPD1    N1 3013   2.361   3.842  17.522 -0.1081  0.6147 -0.7584
  194MPD1    H6 3014   2.370   3.810  17.618  2.4478  0.8964 -0.8901
  194MPD1    H7 3015   2.459   3.860  17.498  0.1505  0.0233 -0.1211
  195MPD1     C 3016   3.371   0.175   1.320 -0.0900 -0.3707  0.2441
  195MPD1    C1 3017   3.379   0.056   1.256 -0.3084 -0.1276  0.0106
  195MPD1    C2 3018   3.318   0.054   1.134  0.4875  0.0259 -0.3335
  195MPD1    C3 3019   3.286   0.178   1.069 -0.0301  0.1022  0.7282
  195MPD1    C4 3020   3.301   0.294   1.132 -0.0846 -0.3587 -0.2352
  195MPD1    C5 3021   3.354   0.295   1.257  0.0897  0.3623 -0.4380
  195MPD1     H 3022   3.302   4.700   1.082 -2.5295  0.9729 -1.0896
  195MPD1    H1 3023   3.256   0.381   1.086  1.8285  0.8024  0.1179
  195MPD1    H2 3024   3.402   0.197   1.421 -0.0886  1.5756 -0.1888
  195MPD1    H3 3025   3.360   0.390   1.309  1.4564 -1.1217  2.1412
  195MPD1     N 3026   3.223   0.188   0.941  0.1417 -0.3635 -0.1370
  195MPD1    H5 3027   3.208   0.284   0.911 -1.4177  0.2101  2.4912
  195MPD1    N1 3028   3.397   4.676   1.316  0.4001 -0.4047 -0.0996
  195MPD1    H6 3029   3.433   4.602   1.257  1.5460  0.9217 -1.0603
  195MPD1    H7 3030   3.457   4.672   1.398 -0.0439  0.1145  0.2588
  196MPD1     C 3031   2.167   0.974  17.339 -0.1148  0.0287  0.6218
  196MPD1    C1 3032   2.282   0.901  17.359 -0.0971  0.4134  0.0482
  196MPD1    C2 3033   2.283   0.803  17.457 -0.8124  0.2240 -0.9866
  196MPD1    C3 3034   2.182   0.789  17.547  0.4064  0.3739 -0.5044
  196MPD1    C4 3035   2.070   0.864  17.535 -0.8578  0.3661  0.0500
  196MPD1    C5 3036   2.061   0.949  17.425  0.1020 -0.0924 -0.0577
  196MPD1     H 3037   2.375   0.746  17.467 -0.7279  0.4025 -0.7392
  196MPD1    H1 3038   1.984   0.854  17.600 -1.5811  0.8262 -0.8311
  196MPD1    H2 3039   2.154   1.042  17.256 -0.0792 -3.2276 -2.0876
  196MPD1    H3 3040   1.965   0.999  17.411  0.0875 -0.1137 -0.0361
  196MPD1     N 3041   2.190   0.702  17.661  0.3635 -0.7989 -0.1306
  196MPD1    H5 3042   2.117   0.695  17.730 -1.4070  0.1111 -1.9135
  196MPD1    N1 3043   2.393   0.940  17.280 -0.6776 -0.0395  0.4295
  196MPD1    H6 3044   2.372   0.976  17.187 -2.6894 -2.8845 -0.2278
  196MPD1    H7 3045   2.471   0.875  17.274  0.1952  1.2295 -1.9136
  197MPD1     C 3046   1.487   2.822  16.416  0.4585  0.0270  0.2453
  197MPD1    C1 3047   1.511   2.815  16.551 -0.1869 -0.5056 -0.8217
  197MPD1    C2 3048   1.633   2.787  16.602  0.7640 -0.3696  0.3105
  197MPD1    C3 3049   1.738   2.763  16.518  0.1528 -0.8016 -0.0848
  197MPD1    C4 3050   1.720   2.774  16.382  0.1868 -0.5117  0.4799
  197MPD1    C5 3051   1.591   2.801  16.331 -0.3845 -0.2727  0.3328
  197MPD1     H 3052   1.645   2.790  16.710 -0.6795  1.0482  0.4411
  197MPD1    H1 3053   1.799   2.766  16.308 -0.3246  1.1824 -0.2484
  197MPD1    H2 3054   1.393   2.859  16.377  0.8812  1.9213  1.0381
  197MPD1    H3 3055   1.573   2.806  16.224 -1.2314  0.9900  0.5323
  197MPD1     N 3056   1.869   2.735  16.566 -0.2053  0.0315  0.3980
  197MPD1    H5 3057   1.941   2.704  16.502 -1.0224  0.4378 -0.7151
  197MPD1    N1 3058   1.408   2.869  16.636 -0.2486 -0.0261  0.0758
  197MPD1    H6 3059   1.406   2.826  16.728 -1.4656  2.0343  1.0142
  197MPD1    H7 3060   1.323   2.836  16.591  0.3403  0.8430 -1.7076
  198MPD1     C 3061   3.998   1.055  15.350 -0.4100 -0.7544 -0.1544
  198MPD1    C1 3062   4.094   1.145  15.370  0.7303 -0.6717  0.1380
  198MPD1    C2 3063   4.144   1.158  15.501 -0.1039  0.1914 -0.3393
  198MPD1    C3 3064   4.092   1.090  15.607 -0.7063 -0.6260  0.2245
  198MPD1    C4 3065   3.991   1.002  15.587  0.0836 -0.0143  0.1751
  198MPD1    C5 3066   3.952   0.981  15.456  0.9433 -0.4555  0.1823
  198MPD1     H 3067   4.225   1.229  15.516  1.4394 -1.6815  0.1224
  198MPD1    H1 3068   3.959   0.957  15.680  3.4958 -0.3355  1.2300
  198MPD1    H2 3069   3.971   1.026  15.249  0.4026  0.8283 -0.8235
  198MPD1    H3 3070   3.881   0.900  15.444 -1.2283  1.2493  1.3917
  198MPD1     N 3071   4.150   1.113  15.735  0.1327 -0.3939 -0.4333
  198MPD1    H5 3072   4.221   1.184  15.749 -0.6172  0.2271  0.2060
  198MPD1    N1 3073   4.158   1.201  15.259 -0.3864 -1.0965  0.5089
  198MPD1    H6 3074   4.204   1.290  15.275 -0.9981 -0.4143 -1.6148
  198MPD1    H7 3075   4.102   1.204  15.174 -0.3373 -0.8206  0.4864
  199MPD1     C 3076   1.032   3.184   9.935 -0.4562 -0.5906  0.0851
  199MPD1    C1 3077   1.044   3.061  10.001  0.0538 -0.1136 -0.4673
  199MPD1    C2 3078   0.929   3.002  10.049 -0.9968 -0.1965 -0.8333
  199MPD1    C3 3079   0.805   3.067  10.055 -0.3324  0.4445  0.1885
  199MPD1    C4 3080   0.796   3.194  10.001 -0.1521 -0.7781  0.2687
  199MPD1    C5 3081   0.907   3.244   9.931  0.8690  0.4172 -0.2553
  199MPD1     H 3082   0.930   2.899  10.084  3.0586  0.0799 -0.1248
  199MPD1    H1 3083   0.699   3.241  10.005  0.3194  0.0515  1.5463
  199MPD1    H2 3084   1.114   3.241   9.893 -0.6656  1.4991  2.5114
  199MPD1    H3 3085   0.891   3.337   9.877  0.1231  0.5345  0.1644
  199MPD1     N 3086   0.687   3.014  10.110 -0.5131  0.2249  0.0228
  199MPD1    H5 3087   0.605   3.073  10.102 -1.0279 -0.5350 -0.3674
  199MPD1    N1 3088   1.155   2.983   9.988  0.1152  0.1068 -0.1354
  199MPD1    H6 3089   1.160   2.911  10.060  1.0083 -0.3398 -0.6417
  199MPD1    H7 3090   1.236   3.044   9.999  1.3102 -1.5207  0.2491
  200MPD1     C 3091   0.192   2.077  15.080 -0.2396 -0.1390  0.6154
  200MPD1    C1 3092   0.215   2.050  14.947 -0.1645 -0.0167 -0.6616
  200MPD1    C2 3093   0.343   2.051  14.910  0.5218 -0.2269 -0.4401
  200MPD1    C3 3094   0.453   2.062  14.994  0.7436  0.0245  0.1550
  200MPD1    C4 3095   0.429   2.084  15.123  0.0293  0.0398 -0.0221
  200MPD1    C5 3096   0.299   2.094  15.168 -0.6401 -0.0306  0.1956
  200MPD1     H 3097   0.365   2.067  14.805  3.0580 -1.9246 -0.1783
  200MPD1    H1 3098   0.505   2.102  15.197  1.1668 -1.4232 -0.8358
  200MPD1    H2 3099   0.094   2.095  15.121 -0.4354  0.7494 -0.2496
  200MPD1    H3 3100   0.267   2.107  15.271 -0.3998  0.6493  0.1826
  200MPD1     N 3101   0.579   2.079  14.932  0.4861  0.1318 -0.6980
  200MPD1    H5 3102   0.593   2.059  14.833  0.5883  1.8208 -1.0133
  200MPD1    N1 3103   0.117   2.059  14.846  0.5963  0.5677 -0.0963
  200MPD1    H6 3104   0.136   1.996  14.768  0.0194  0.6467 -0.3044
  200MPD1    H7 3105   0.031   2.023  14.887 -1.2488  1.1502 -3.3926
  201MPD1     C 3106   1.816   1.326  12.702  0.1315 -0.5649  0.3467
  201MPD1    C1 3107   1.817   1.189  12.675 -0.7763 -0.0262  0.0197
  201MPD1    C2 3108   1.874   1.108  12.768  0.2390 -0.6812  0.1584
  201MPD1    C3 3109   1.943   1.153  12.878 -0.2335  0.3503 -0.2695
  201MPD1    C4 3110   1.944   1.296  12.897 -0.0737  0.5029 -0.3906
  201MPD1    C5 3111   1.888   1.385  12.802  0.0040  0.1675 -0.2336
  201MPD1     H 3112   1.860   1.001  12.754 -0.5529 -0.3116 -2.0011
  201MPD1    H1 3113   1.988   1.341  12.985  4.5404 -0.9241 -1.9770
  201MPD1    H2 3114   1.765   1.395  12.636  0.0293 -1.3208 -0.3721
  201MPD1    H3 3115   1.897   1.492  12.815 -4.4930  0.6687 -1.4732
  201MPD1     N 3116   2.016   1.059  12.954 -0.6200 -0.5019 -0.3839
  201MPD1    H5 3117   1.988   0.963  12.938 -1.9628  0.1343 -1.7606
  201MPD1    N1 3118   1.757   1.136  12.555 -0.0290 -0.0565 -0.3731
  201MPD1    H6 3119   1.718   1.043  12.572  1.2949 -0.3456  1.0907
  201MPD1    H7 3120   1.687   1.198  12.516 -1.0021 -0.7574  0.2774
  202MPD1     C 3121   1.385   0.947   9.552  0.4108 -0.1644 -0.3263
  202MPD1    C1 3122   1.371   0.811   9.578 -0.5550  0.5232 -0.3496
  202MPD1    C2 3123   1.449   0.767   9.686  0.3370 -0.5918  0.4127
  202MPD1    C3 3124   1.496   0.857   9.785  0.4404  0.3937  0.5184
  202MPD1    C4 3125   1.488   0.993   9.759 -0.4888 -0.4472  0.3450
  202MPD1    C5 3126   1.436   1.039   9.643  1.2786  0.4442  0.1422
  202MPD1     H 3127   1.448   0.660   9.700 -2.0740 -0.9646 -2.6721
  202MPD1    H1 3128   1.538   1.055   9.833 -3.3403  1.4544  0.6703
  202MPD1    H2 3129   1.315   0.988   9.480  1.0708  1.1968 -0.1993
  202MPD1    H3 3130   1.428   1.147   9.637 -1.6887  0.2728  1.2101
  202MPD1     N 3131   1.564   0.829   9.905  0.4467  0.0834  0.2937
  202MPD1    H5 3132   1.605   0.909   9.952  1.1702 -1.0647  1.5996
  202MPD1    N1 3133   1.351   0.723   9.468  0.5560  0.5617  0.2305
  202MPD1    H6 3134   1.269   0.752   9.415 -0.5161 -0.3068  1.4306
  202MPD1    H7 3135   1.336   0.631   9.507  0.3144  0.3565 -0.3404
  203MPD1     C 3136   0.921   1.762  12.664 -0.2481 -0.2620 -0.0465
  203MPD1    C1 3137   0.911   1.644  12.593 -0.1754  0.7916 -0.1048
  203MPD1    C2 3138   0.984   1.536  12.632  0.3774 -0.5607  0.5904
  203MPD1    C3 3139   1.063   1.536  12.747 -0.0197 -0.3573  0.0594
  203MPD1    C4 3140   1.053   1.652  12.820 -1.1861  0.5445 -0.1676
  203MPD1    C5 3141   0.987   1.766  12.779 -0.3802  0.3607 -0.4941
  203MPD1     H 3142   0.986   1.447  12.569  2.1157 -0.4928  0.5482
  203MPD1    H1 3143   1.118   1.682  12.902 -1.0524 -1.1373  0.3498
  203MPD1    H2 3144   0.872   1.854  12.633 -1.5401 -1.5102 -1.7221
  203MPD1    H3 3145   0.994   1.855  12.841 -0.1292  0.8556 -1.2458
  203MPD1     N 3146   1.137   1.427  12.776  0.0561 -0.2758 -0.0194
  203MPD1    H5 3147   1.152   1.355  12.706  1.8816  0.2654 -0.1909
  203MPD1    N1 3148   0.811   1.630  12.495  0.3099 -0.5404 -0.0269
  203MPD1    H6 3149   0.824   1.567  12.416 -1.9624 -1.7529  0.5680
  203MPD1    H7 3150   0.787   1.719  12.452 -0.5026  0.2868  2.0900
  204MPD1     C 3151   4.641   2.779  17.536 -0.1535 -0.5289 -0.0924
  204MPD1    C1 3152   0.029   2.834  17.540 -0.0416  0.4075  0.2081
  204MPD1    C2 3153   0.129   2.744  17.569 -0.1160 -1.0562  0.4121
  204MPD1    C3 3154   0.112   2.615  17.581 -0.0830 -0.0652  0.2165
  204MPD1    C4 3155   4.725   2.565  17.581  0.5757 -0.6396  0.1685
  204MPD1    C5 3156   4.622   2.648  17.563 -0.4069  0.0379  0.0032
  204MPD1     H 3157   0.229   2.786  17.570  1.4667 -4.7822 -2.7631
  204MPD1    H1 3158   4.700   2.460  17.586  3.2905 -1.2895 -0.2001
  204MPD1    H2 3159   4.559   2.843  17.509 -0.6979 -1.0005  0.4412
  204MPD1    H3 3160   4.525   2.605  17.542  0.1543 -0.8513 -0.7969
  204MPD1     N 3161   0.226   2.544  17.613 -0.5456  0.4902 -0.4158
  204MPD1    H5 3162   0.315   2.591  17.603 -0.9106  0.9077 -1.6794
  204MPD1    N1 3163   0.053   2.971  17.531 -0.0682 -0.2235 -0.4696
  204MPD1    H6 3164   4.727   3.026  17.478 -0.1046  0.5392  0.3628
  204MPD1    H7 3165   0.148   2.994  17.502 -0.2172  0.4902 -0.3876
  205MPD1     C 3166   1.408   1.286   0.000 -0.2224  0.2166  0.2880
  205MPD1    C1 3167   1.347   1.208   0.094 -0.2294  0.1066  0.3294
  205MPD1    C2 3168   1.209   1.208   0.097  0.3978  0.5311 -0.4083
  205MPD1    C3 3169   1.122   1.279   0.010 -0.0014  0.4480  0.9650
  205MPD1    C4 3170   1.187   1.352  17.681  0.0820  0.2216  0.0418
  205MPD1    C5 3171   1.325   1.361  17.685  0.3687 -0.1558  0.1635
  205MPD1     H 3172   1.163   1.152   0.178  2.8790  1.9861  2.0200
  205MPD1    H1 3173   1.134   1.404  17.603 -0.3428  1.3966  1.1234
  205MPD1    H2 3174   1.515   1.288  17.744 -0.4717  1.9139 -1.1274
  205MPD1    H3 3175   1.373   1.440  17.627  2.4032 -1.2179  0.4145
  205MPD1     N 3176   0.979   1.271   0.001  1.4511 -0.3807 -0.2487
  205MPD1    H5 3177   0.932   1.338  17.701 -0.8513 -2.3068 -0.5936
  205MPD1    N1 3178   1.422   1.149   0.193  0.6375  0.3975  0.1196
  205MPD1    H6 3179   1.517   1.129   0.163  0.7468  0.7313  0.2503
  205MPD1    H7 3180   1.384   1.064   0.234  0.6229  0.6155  0.5648
  206MPD1     C 3181   0.666   4.275  17.243  0.4272 -0.1735 -0.2377
  206MPD1    C1 3182   0.745   4.368  17.177 -0.6246 -0.2800 -0.0423
  206MPD1    C2 3183   0.802   4.331  17.048  0.5941 -0.0590  0.0415
  206MPD1    C3 3184   0.773   4.206  16.993  0.0604 -0.6339  0.0216
  206MPD1    C4 3185   0.687   4.121  17.062  0.2986 -0.1723 -0.4543
  206MPD1    C5 3186   0.635   4.154  17.188  0.7156 -0.3237  0.3112
  206MPD1     H 3187   0.872   4.395  16.995 -0.2720  0.1654 -0.8242
  206MPD1    H1 3188   0.665   4.021  17.027  0.8565  0.3053 -2.1634
  206MPD1    H2 3189   0.621   4.305  17.337 -3.4313 -1.1079 -1.7782
  206MPD1    H3 3190   0.573   4.080  17.237  0.3632  1.9011  3.2606
  206MPD1     N 3191   0.826   4.157  16.868  0.0198  0.6280  0.8463
  206MPD1    H5 3192   0.795   4.063  16.844  3.6346 -0.1920 -0.5034
  206MPD1    N1 3193   0.774   4.488  17.236 -0.1805 -0.4202 -0.1717
  206MPD1    H6 3194   0.702   4.531  17.293 -1.0593 -0.4065 -1.3034
  206MPD1    H7 3195   0.815   4.558  17.175  0.2910 -0.3750  0.1945
  207MPD1     C 3196   3.743   0.782  10.120  0.3949 -0.4648  0.3485
  207MPD1    C1 3197   3.686   0.907  10.111 -0.2942  0.0936  0.5571
  207MPD1    C2 3198   3.703   0.996  10.213 -0.4860  0.3968 -0.2403
  207MPD1    C3 3199   3.787   0.973  10.318  0.0894  0.7952  0.3060
  207MPD1    C4 3200   3.850   0.852  10.321 -0.1901  0.5026  0.4929
  207MPD1    C5 3201   3.830   0.763  10.220  0.6352  0.0631  0.0791
  207MPD1     H 3202   3.634   1.080  10.206 -0.3173  0.4223 -1.6487
  207MPD1    H1 3203   3.922   0.831  10.399  3.0858 -0.5297 -2.8613
  207MPD1    H2 3204   3.732   0.703  10.047  2.5226  2.1758 -2.8554
  207MPD1    H3 3205   3.880   0.667  10.229  1.5221  0.5178  0.0599
  207MPD1     N 3206   3.824   1.065  10.412 -0.5078 -0.2614 -0.4412
  207MPD1    H5 3207   3.897   1.045  10.479  0.5651 -2.8686 -2.4024
  207MPD1    N1 3208   3.581   0.929  10.018 -0.0223 -0.3741  0.6116
  207MPD1    H6 3209   3.552   1.025   9.999 -0.0165 -0.6753 -0.8637
  207MPD1    H7 3210   3.593   0.895   9.923  0.0351  0.2704  0.3861
  208MPD1     C 3211   0.316   4.612  16.943 -0.4040 -0.1163 -0.3842
  208MPD1    C1 3212   0.277   4.739  16.978  0.4392 -0.4900  0.2027
  208MPD1    C2 3213   0.316   0.048  17.100 -0.1056 -0.0909 -0.8535
  208MPD1    C3 3214   0.401   4.712  17.182  0.1629  0.0381  0.6514
  208MPD1    C4 3215   0.446   4.590  17.143  0.4754 -0.1409 -0.1047
  208MPD1    C5 3216   0.394   4.538  17.025  0.1883  0.0161  0.8981
  208MPD1     H 3217   0.310   0.153  17.127 -2.1412 -0.4353  0.0964
  208MPD1    H1 3218   0.500   4.527  17.213 -0.5789 -0.2681  0.6030
  208MPD1    H2 3219   0.289   4.571  16.846  0.0040 -0.9664 -0.1376
  208MPD1    H3 3220   0.403   4.439  16.983 -2.0413  0.4080 -0.5012
  208MPD1     N 3221   0.451   0.036  17.296 -0.1080 -0.6749  0.1283
  208MPD1    H5 3222   0.428   0.132  17.320  0.6515 -0.6411  0.7217
  208MPD1    N1 3223   0.230   0.084  16.873  0.3544 -0.3488  0.7592
  208MPD1    H6 3224   0.188   0.039  16.792 -0.8341 -1.1750  1.8501
  208MPD1    H7 3225   0.172   0.164  16.898  0.3782 -0.0689 -0.0757
  209MPD1     C 3226   3.744   1.029  12.277 -0.6009  1.0662  0.3252
  209MPD1    C1 3227   3.783   1.160  12.264 -0.4982 -0.0673  0.0647
  209MPD1    C2 3228   3.866   1.193  12.160  0.0991  0.2954 -0.5799
  209MPD1    C3 3229   3.887   1.107  12.056  0.5394 -0.2783  0.5478
  209MPD1    C4 3230   3.841   0.976  12.066  0.2582  0.0686 -0.8933
  209MPD1    C5 3231   3.782   0.937  12.186 -0.0327  0.3850 -0.0452
  209MPD1     H 3232   3.885   1.299  12.144  0.5300  0.4136  0.7355
  209MPD1    H1 3233   3.875   0.893  12.005  0.6722  0.6286 -1.4190
  209MPD1    H2 3234   3.701   0.984  12.366  1.4800 -1.5945 -0.0236
  209MPD1    H3 3235   3.752   0.833  12.200 -1.9894  1.0662  0.8990
  209MPD1     N 3236   3.968   1.150  11.944  0.7116  0.1816  0.0469
  209MPD1    H5 3237   4.000   1.246  11.946  2.1518 -0.2855 -0.9417
  209MPD1    N1 3238   3.761   1.252  12.369  0.2882 -0.0999  0.4051
  209MPD1    H6 3239   3.668   1.253  12.410 -0.1133  0.9093 -0.5472
  209MPD1    H7 3240   3.774   1.346  12.331  0.8686 -0.3843 -0.1062
  210MPD1     C 3241   4.287   1.992  11.636 -0.4666 -0.6215  0.5238
  210MPD1    C1 3242   4.374   1.896  11.691  0.6950  0.1480 -0.4132
  210MPD1    C2 3243   4.315   1.777  11.724  0.1221 -0.3387  0.3006
  210MPD1    C3 3244   4.189   1.740  11.670 -0.0107 -0.1006 -0.2664
  210MPD1    C4 3245   4.112   1.839  11.612 -0.4446  0.3424  0.5462
  210MPD1    C5 3246   4.162   1.958  11.587  0.4526  0.5480 -0.3103
  210MPD1     H 3247   4.377   1.705  11.777  0.3735  1.0998  1.9582
  210MPD1    H1 3248   4.019   1.819  11.561  1.5029 -3.5479 -1.4964
  210MPD1    H2 3249   4.316   2.092  11.610 -0.7612 -0.3826  1.1105
  210MPD1    H3 3250   4.107   2.030  11.526  0.3396 -0.5594 -1.5155
  210MPD1     N 3251   4.132   1.615  11.676  0.8756 -0.1242 -0.0751
  210MPD1    H5 3252   4.038   1.603  11.640  0.7778 -2.4154  0.8962
  210MPD1    N1 3253   4.501   1.938  11.740 -0.3746 -0.4384  0.1897
  210MPD1    H6 3254   4.570   1.863  11.746 -0.1011 -0.0785  1.4880
  210MPD1    H7 3255   4.536   1.999  11.666  0.5548 -0.4208  0.6459
  211MPD1     C 3256   2.200   1.563  16.800 -0.1846  0.8413 -0.1794
  211MPD1    C1 3257   2.145   1.685  16.842  0.0657  0.3330  0.2444
  211MPD1    C2 3258   2.008   1.690  16.867  0.4975  0.4349  0.8920
  211MPD1    C3 3259   1.937   1.571  16.869  0.1458  0.0958  0.0166
  211MPD1    C4 3260   1.994   1.453  16.848 -0.2867  0.4764  0.2152
  211MPD1    C5 3261   2.124   1.452  16.807 -0.0115 -0.2782  0.3338
  211MPD1     H 3262   1.958   1.781  16.898  0.2583  0.6801 -0.2200
  211MPD1    H1 3263   1.926   1.369  16.842  1.0559 -0.4963 -1.6165
  211MPD1    H2 3264   2.305   1.553  16.776  0.0386  3.7856 -0.3472
  211MPD1    H3 3265   2.174   1.359  16.781  0.4044  0.4177 -1.3465
  211MPD1     N 3266   1.806   1.581  16.907  0.3539 -0.5593  0.1834
  211MPD1    H5 3267   1.776   1.676  16.924  0.5110 -0.6227  0.8140
  211MPD1    N1 3268   2.224   1.801  16.830 -0.2422  0.2991 -0.1944
  211MPD1    H6 3269   2.320   1.773  16.845 -0.3844 -0.3504 -0.4815
  211MPD1    H7 3270   2.193   1.874  16.895 -3.2701 -0.2244 -1.0317
  212MPD1     C 3271   0.582   4.330  16.528 -0.5417  0.1433  0.2043
  212MPD1    C1 3272   0.572   4.354  16.663  0.4735 -0.1178 -0.4098
  212MPD1    C2 3273   0.491   4.267  16.743  0.8094 -0.0972  0.2386
  212MPD1    C3 3274   0.439   4.155  16.691 -0.0589 -0.1039 -0.1239
  212MPD1    C4 3275   0.457   4.128  16.555  0.6600  0.4631 -0.6016
  212MPD1    C5 3276   0.526   4.217  16.478  0.0624 -0.5127 -0.3497
  212MPD1     H 3277   0.467   4.284  16.847  0.0311 -3.9717  0.6933
  212MPD1    H1 3278   0.430   4.032  16.514 -0.6689  0.8275 -0.5672
  212MPD1    H2 3279   0.630   4.398  16.458 -0.4991 -0.9392 -0.8168
  212MPD1    H3 3280   0.552   4.192  16.376  1.2234 -1.2863  0.1430
  212MPD1     N 3281   0.362   4.057  16.772 -0.3547 -0.1907  0.0175
  212MPD1    H5 3282   0.330   3.975  16.721 -0.1965  0.1417 -0.6293
  212MPD1    N1 3283   0.620   4.470  16.720  0.4589 -0.0570  0.0421
  212MPD1    H6 3284   0.639   4.450  16.817 -0.1738 -0.1534  0.1499
  212MPD1    H7 3285   0.703   4.507  16.675  0.3471  0.8101  0.5390
  213MPD1     C 3286   3.736   0.079  15.561 -0.6022  0.6140 -0.3893
  213MPD1    C1 3287   3.611   0.043  15.591 -0.4167  0.4795  0.6509
  213MPD1    C2 3288   3.513   0.141  15.563  0.4706  0.5551  0.5329
  213MPD1    C3 3289   3.532   0.252  15.485 -0.2689 -0.0408  0.4255
  213MPD1    C4 3290   3.661   0.275  15.440  0.9031 -0.3989  0.3127
  213MPD1    C5 3291   3.760   0.188  15.477 -0.0929 -0.0922  0.7141
  213MPD1     H 3292   3.417   0.122  15.609 -0.8932  2.4636 -1.5212
  213MPD1    H1 3293   3.677   0.367  15.384  0.9620 -1.8233 -1.9936
  213MPD1    H2 3294   3.813   0.005  15.577 -0.2421  1.2741  0.9139
  213MPD1    H3 3295   3.863   0.202  15.446  0.1885 -3.1593  0.2776
  213MPD1     N 3296   3.426   0.337  15.466 -0.0703 -1.1651 -0.1198
  213MPD1    H5 3297   3.339   0.301  15.503  0.8334 -3.1669  0.0479
  213MPD1    N1 3298   3.589   4.681  15.689  0.3212 -0.2808  0.3226
  213MPD1    H6 3299   3.499   4.635  15.676  1.6313 -2.0820 -2.3067
  213MPD1    H7 3300   3.667   4.616  15.696 -0.0845 -0.5799  2.0801
  214MPD1     C 3301   2.854   4.521  14.915  0.9256 -0.1974 -0.8885
  214MPD1    C1 3302   2.890   4.513  15.051 -0.3159 -0.2857  0.0379
  214MPD1    C2 3303   2.955   4.626  15.104  0.4271 -0.4606  0.3391
  214MPD1    C3 3304   2.984   4.738  15.027  0.0035  0.2449 -0.0409
  214MPD1    C4 3305   2.956   4.739  14.893  0.6088  0.4876 -1.4272
  214MPD1    C5 3306   2.885   4.636  14.844 -0.0523  0.9221 -0.0544
  214MPD1     H 3307   2.978   4.626  15.210 -2.4226  2.7942  0.9454
  214MPD1    H1 3308   2.973   0.086  14.831  2.8257  2.1596  1.5015
  214MPD1    H2 3309   2.794   4.440  14.876 -1.4520 -0.0662  2.5289
  214MPD1    H3 3310   2.850   4.650  14.742 -0.2781  2.2410  0.1989
  214MPD1     N 3311   3.034   0.116  15.072 -0.4367 -0.5728 -0.0367
  214MPD1    H5 3312   3.067   0.170  14.992 -1.5116  1.0514  0.6220
  214MPD1    N1 3313   2.856   4.401  15.134  0.1430  0.4932 -0.2119
  214MPD1    H6 3314   2.821   4.320  15.083  2.5962 -0.5500 -0.2149
  214MPD1    H7 3315   2.930   4.376  15.199 -0.2135 -0.8790 -0.3376
  215MPD1     C 3316   3.647   0.886  10.667 -0.4247  0.3629  0.2604
  215MPD1    C1 3317   3.582   1.008  10.666  0.4477  0.3450 -0.4448
  215MPD1    C2 3318   3.566   1.077  10.782  0.4381 -0.0942 -0.4059
  215MPD1    C3 3319   3.644   1.040  10.894  0.5736  0.4848 -0.2460
  215MPD1    C4 3320   3.730   0.932  10.889  0.1603  0.7546  0.0078
  215MPD1    C5 3321   3.723   0.857  10.777 -0.1333  0.1867  0.0440
  215MPD1     H 3322   3.503   1.165  10.794 -3.1148 -2.4166 -2.0555
  215MPD1    H1 3323   3.790   0.896  10.973 -2.1576 -1.8078  0.5520
  215MPD1    H2 3324   3.640   0.819  10.582  1.2601  0.7584 -0.1861
  215MPD1    H3 3325   3.783   0.767  10.767 -1.7824 -1.1246  2.0328
  215MPD1     N 3326   3.639   1.131  11.009  0.0302  0.5687 -0.3611
  215MPD1    H5 3327   3.582   1.214  10.998 -1.8367 -0.8193 -1.4249
  215MPD1    N1 3328   3.509   1.037  10.549  0.4614 -0.4007 -0.0889
  215MPD1    H6 3329   3.507   1.138  10.534 -0.7183 -0.4437 -0.1603
  215MPD1    H7 3330   3.554   0.995  10.467  0.6723 -0.1180 -0.1198
  216MPD1     C 3331   1.401   2.950  17.257 -0.0763 -1.2290 -0.0840
  216MPD1    C1 3332   1.349   2.964  17.384 -0.0099 -0.1673 -0.0579
  216MPD1    C2 3333   1.222   2.913  17.410  0.5391 -0.0015 -0.0049
  216MPD1    C3 3334   1.145   2.862  17.305 -0.1866 -0.1740 -0.4849
  216MPD1    C4 3335   1.192   2.868  17.176  0.1489 -0.1760 -0.2783
  216MPD1    C5 3336   1.316   2.912  17.152 -0.0078 -0.6139 -0.2100
  216MPD1     H 3337   1.178   2.929  17.507 -0.0969 -0.6512 -0.1835
  216MPD1    H1 3338   1.139   2.836  17.087 -1.8958  1.5672  0.3175
  216MPD1    H2 3339   1.499   2.987  17.228 -0.7511  0.8582  0.2473
  216MPD1    H3 3340   1.359   2.906  17.053 -0.9104  1.2394 -0.7021
  216MPD1     N 3341   1.010   2.837  17.332 -0.5615  0.3991  0.1363
  216MPD1    H5 3342   0.981   2.845  17.428  0.7380 -2.2565  0.7386
  216MPD1    N1 3343   1.416   3.045  17.480  0.3393 -0.0946  0.1828
  216MPD1    H6 3344   1.399   3.007  17.573  0.3649 -0.3832  0.0697
  216MPD1    H7 3345   1.513   3.070  17.461 -0.5508  2.0562 -1.4741
  217MPD1     C 3346   0.579   1.805   8.924  0.3257 -0.4080  0.3006
  217MPD1    C1 3347   0.498   1.694   8.890  1.0014  0.2562 -0.1096
  217MPD1    C2 3348   0.476   1.593   8.974 -0.2818 -0.0956  0.1873
  217MPD1    C3 3349   0.535   1.603   9.103  0.7212  0.2743 -0.5574
  217MPD1    C4 3350   0.610   1.714   9.137  0.5602  0.4701  0.0831
  217MPD1    C5 3351   0.636   1.810   9.045  0.6262 -0.1859  0.1001
  217MPD1     H 3352   0.407   1.513   8.951 -1.0502  0.2702  1.1817
  217MPD1    H1 3353   0.664   1.722   9.230  0.4676 -1.6498  0.3200
  217MPD1    H2 3354   0.597   1.894   8.864  0.1707  0.1178  1.0320
  217MPD1    H3 3355   0.688   1.901   9.073 -0.4848  0.9200 -1.3761
  217MPD1     N 3356   0.521   1.509   9.200  0.0884 -0.4054  0.5305
  217MPD1    H5 3357   0.575   1.524   9.285  2.4209 -0.7412 -0.8649
  217MPD1    N1 3358   0.425   1.695   8.771  0.1312  0.0095  0.3198
  217MPD1    H6 3359   0.407   1.597   8.751  0.8682 -0.0953  0.1784
  217MPD1    H7 3360   0.479   1.742   8.699  1.0968 -0.9089  0.4353
  218MPD1     C 3361   3.505   1.802  11.734  0.3147 -0.9104  0.4855
  218MPD1    C1 3362   3.421   1.707  11.677  0.2591 -0.6504 -0.2229
  218MPD1    C2 3363   3.338   1.637  11.763 -0.3185  0.0149 -0.3610
  218MPD1    C3 3364   3.352   1.665  11.897 -0.1660 -0.0633  0.6717
  218MPD1    C4 3365   3.434   1.758  11.953  0.0671 -0.5011 -1.0219
  218MPD1    C5 3366   3.517   1.822  11.870 -0.6987  0.4749  0.4779
  218MPD1     H 3367   3.262   1.573  11.719  0.3300 -1.7838  1.1497
  218MPD1    H1 3368   3.436   1.791  12.056 -0.4264  0.7972 -1.4211
  218MPD1    H2 3369   3.572   1.866  11.677  0.3317 -1.6612 -0.3388
  218MPD1    H3 3370   3.573   1.905  11.911  0.0483  0.7099 -1.0173
  218MPD1     N 3371   3.266   1.594  11.980 -0.4755 -0.0107 -0.0860
  218MPD1    H5 3372   3.205   1.526  11.935  2.4778 -3.9783  1.8066
  218MPD1    N1 3373   3.407   1.697  11.536 -0.4596  0.1881  0.6250
  218MPD1    H6 3374   3.493   1.724  11.488  0.0622  1.1258  2.0834
  218MPD1    H7 3375   3.372   1.614  11.490  1.3885  0.6879 -1.7325
  219MPD1     C 3376   2.518   0.938  11.954  0.0385 -0.4522  0.2099
  219MPD1    C1 3377   2.576   1.030  11.863 -0.2712 -0.0701 -0.5860
  219MPD1    C2 3378   2.683   1.110  11.916 -0.5395 -0.6200  0.2315
  219MPD1    C3 3379   2.709   1.108  12.052  0.0620 -0.7228  0.0708
  219MPD1    C4 3380   2.628   1.033  12.136  0.2676  0.6489 -0.1454
  219MPD1    C5 3381   2.534   0.949  12.085  0.0241 -0.6127  0.3777
  219MPD1     H 3382   2.745   1.168  11.848  0.9925 -1.6738  0.7352
  219MPD1    H1 3383   2.640   1.021  12.243 -4.0178  1.9290  0.4760
  219MPD1    H2 3384   2.444   0.872  11.911  0.7684 -0.2857 -1.3096
  219MPD1    H3 3385   2.481   0.883  12.153  0.1278 -0.9209  0.1646
  219MPD1     N 3386   2.814   1.177  12.112  0.1554 -0.6555  0.2232
  219MPD1    H5 3387   2.815   1.175  12.213 -1.1417  1.4254  0.2767
  219MPD1    N1 3388   2.555   1.033  11.726 -0.3042 -0.4013  0.1228
  219MPD1    H6 3389   2.464   0.994  11.703  0.4056 -1.8787 -0.2026
  219MPD1    H7 3390   2.571   1.123  11.681  1.9639 -0.3640  1.0286
  220MPD1     C 3391   3.132   2.407   9.999  0.0426 -0.5783  0.0193
  220MPD1    C1 3392   3.114   2.434  10.133  1.0833  0.1214 -0.5954
  220MPD1    C2 3393   3.100   2.336  10.221  0.0525 -0.2678  0.0562
  220MPD1    C3 3394   3.116   2.204  10.182 -0.0146 -0.6759 -0.0016
  220MPD1    C4 3395   3.144   2.172  10.050  0.2603 -0.4315 -0.3517
  220MPD1    C5 3396   3.160   2.277   9.960 -0.1968  0.3018 -0.4901
  220MPD1     H 3397   3.075   2.351  10.325 -1.7087 -1.1710 -0.2261
  220MPD1    H1 3398   3.170   2.070  10.023  2.1840  0.2977 -1.2257
  220MPD1    H2 3399   3.157   2.485   9.928 -0.1563 -0.2316  0.3328
  220MPD1    H3 3400   3.191   2.266   9.856 -0.6979  0.4573 -0.6564
  220MPD1     N 3401   3.106   2.105  10.285 -0.3571 -0.3801  0.0807
  220MPD1    H5 3402   3.095   2.134  10.381  2.4137 -1.4831  0.7100
  220MPD1    N1 3403   3.078   2.566  10.160 -0.0972  0.1075  0.6056
  220MPD1    H6 3404   3.118   2.601  10.247  0.0543  0.4838  0.3857
  220MPD1    H7 3405   3.133   2.622  10.095 -0.5085 -0.8589 -0.5801
  221MPD1     C 3406   0.434   0.179  16.490 -0.5420 -0.2705  0.0342
  221MPD1    C1 3407   0.520   0.065  16.515  0.1359 -0.4056  0.6870
  221MPD1    C2 3408   0.644   0.053  16.464 -0.2505  0.0346  0.0440
  221MPD1    C3 3409   0.694   0.152  16.377  0.0492  0.0493  1.0636
  221MPD1    C4 3410   0.618   0.267  16.357 -0.3680  0.0436  0.2409
  221MPD1    C5 3411   0.491   0.281  16.413 -0.7013 -0.3261 -0.1965
  221MPD1     H 3412   0.708   4.712  16.494 -0.4554 -0.2838 -0.3834
  221MPD1    H1 3413   0.659   0.344  16.293 -2.2410  0.8999  0.0484
  221MPD1    H2 3414   0.337   0.183  16.537 -0.8603 -0.6566 -0.5836
  221MPD1    H3 3415   0.437   0.372  16.387 -1.8224 -1.0377 -0.3307
  221MPD1     N 3416   0.829   0.150  16.329 -0.7729  0.4594 -0.2034
  221MPD1    H5 3417   0.867   0.234  16.286  1.1876  0.0165  0.6767
  221MPD1    N1 3418   0.475   4.723  16.618  0.2984 -0.2198  0.0915
  221MPD1    H6 3419   0.374   4.722  16.628  0.0985  0.5923 -1.7738
  221MPD1    H7 3420   0.508   4.627  16.606  0.0885 -0.5607  2.2968
  222MPD1     C 3421   4.010   4.655  17.637  0.6380  0.3027 -0.5029
  222MPD1    C1 3422   4.024   4.720  17.517 -0.0336 -0.5969  0.3314
  222MPD1    C2 3423   4.148   4.718  17.459 -0.3858  0.0178  0.6399
  222MPD1    C3 3424   4.264   4.660  17.525  0.2531  0.2285  0.6803
  222MPD1    C4 3425   4.244   4.602  17.650 -0.2594  0.8441 -0.1188
  222MPD1    C5 3426   4.118   4.604  17.705  0.3361 -0.3375 -0.0505
  222MPD1     H 3427   4.159   0.010  17.356 -0.1935  0.5590  0.8307
  222MPD1    H1 3428   4.322   4.545  17.700 -0.6271  0.5131  0.0770
  222MPD1    H2 3429   3.914   4.653  17.688 -0.1686 -0.2878 -2.0587
  222MPD1    H3 3430   4.097   4.560   0.042 -0.7009 -2.6168 -1.3056
  222MPD1     N 3431   4.382   4.647  17.451  0.2656  0.3489  0.0644
  222MPD1    H5 3432   4.452   4.598  17.506  1.8094  4.1743  1.5051
  222MPD1    N1 3433   3.911   4.739  17.442  0.0163  0.3317  0.4231
  222MPD1    H6 3434   3.833   0.029  17.500 -1.1998 -1.6293 -0.1662
  222MPD1    H7 3435   3.918   0.052  17.356  0.4682  0.7218  0.7064
  223MPD1     C 3436   4.732   4.363  16.533  0.6165  0.5587 -0.0053
  223MPD1    C1 3437   4.662   4.482  16.551  0.6690  0.4477  0.1578
  223MPD1    C2 3438   4.635   4.514  16.683  0.2673 -0.6890 -0.5655
  223MPD1    C3 3439   4.697   4.452  16.795 -0.6306 -0.4963  0.4363
  223MPD1    C4 3440   0.027   4.344  16.777 -0.2023  0.2814 -0.3645
  223MPD1    C5 3441   0.046   4.300  16.651  0.6363 -0.2353  0.8374
  223MPD1     H 3442   4.575   4.603  16.697 -1.8354 -2.4241  1.2694
  223MPD1    H1 3443   0.077   4.287  16.854 -0.6435 -0.2558 -0.4771
  223MPD1    H2 3444   0.015   4.319  16.437 -0.7497  0.2697 -0.2136
  223MPD1    H3 3445   0.092   4.202  16.643  0.1255 -0.4570  0.5741
  223MPD1     N 3446   4.675   4.509  16.922 -0.0618  0.1356 -0.0501
  223MPD1    H5 3447   4.619   4.594  16.922 -1.2860 -0.6632 -0.1508
  223MPD1    N1 3448   4.580   4.540  16.451 -0.2387  0.2992  0.2925
  223MPD1    H6 3449   4.629   4.518  16.364  0.3658  1.6136  0.2901
  223MPD1    H7 3450   4.567   4.640  16.461 -3.0611  0.0030 -0.4578
  224MPD1     C 3451   1.785   2.127   9.486 -0.1227  0.5485  0.0691
  224MPD1    C1 3452   1.789   1.989   9.485 -0.7072  0.2814 -0.4015
  224MPD1    C2 3453   1.767   1.920   9.605 -0.0131 -0.5743  0.1271
  224MPD1    C3 3454   1.748   1.993   9.727  0.3450  0.1800 -0.4860
  224MPD1    C4 3455   1.754   2.134   9.719  0.7512  0.3088 -0.1583
  224MPD1    C5 3456   1.774   2.200   9.601  0.4082 -0.0782 -0.0481
  224MPD1     H 3457   1.763   1.812   9.606 -1.1448 -0.5172  1.2485
  224MPD1    H1 3458   1.730   2.194   9.806 -1.5024 -1.0280  0.1268
  224MPD1    H2 3459   1.811   2.182   9.397  1.8763  0.4348  0.5715
  224MPD1    H3 3460   1.777   2.308   9.605 -0.5819  0.0449 -2.6026
  224MPD1     N 3461   1.721   1.929   9.851 -0.4779  0.1419 -0.5772
  224MPD1    H5 3462   1.696   1.992   9.926  0.6297 -2.3531  1.9057
  224MPD1    N1 3463   1.790   1.920   9.357 -0.4268  0.3864  0.3208
  224MPD1    H6 3464   1.845   1.835   9.360  0.4820  1.0290  1.8052
  224MPD1    H7 3465   1.826   1.974   9.279 -1.4610  2.2352  1.1340
  225MPD1     C 3466   3.138   2.482  12.556  0.6077  0.1717  0.4908
  225MPD1    C1 3467   3.092   2.354  12.541 -0.0488  0.1058 -0.0010
  225MPD1    C2 3468   2.955   2.333  12.535 -0.8381 -0.1132  0.4897
  225MPD1    C3 3469   2.872   2.444  12.534 -0.0632 -0.7044  0.2796
  225MPD1    C4 3470   2.920   2.567  12.534  0.1836  0.4713 -0.1249
  225MPD1    C5 3471   3.053   2.587  12.557 -0.0989  0.4511  0.2676
  225MPD1     H 3472   2.918   2.231  12.533 -2.7590  0.5300  2.7548
  225MPD1    H1 3473   2.856   2.655  12.531 -1.0265 -0.4905 -1.8257
  225MPD1    H2 3474   3.240   2.492  12.591  0.7914  0.4901 -0.1398
  225MPD1    H3 3475   3.101   2.683  12.567  0.3724  0.2231  0.2145
  225MPD1     N 3476   2.734   2.442  12.546  0.3528  0.0747  0.1733
  225MPD1    H5 3477   2.688   2.532  12.555  0.2431 -0.0560  0.8786
  225MPD1    N1 3478   3.190   2.253  12.570 -0.4193 -0.1189  0.0259
  225MPD1    H6 3479   3.290   2.267  12.558 -0.1935 -1.7773 -0.0202
  225MPD1    H7 3480   3.180   2.155  12.545 -3.4518  0.7350 -2.1207
  226MPD1     C 3481   0.998   2.282   9.867  0.5038 -0.0715 -0.0858
  226MPD1    C1 3482   1.025   2.380   9.778 -0.5152 -0.0857  0.0433
  226MPD1    C2 3483   1.147   2.451   9.799  0.6452 -0.3057  0.1312
  226MPD1    C3 3484   1.235   2.432   9.910  0.4095 -0.2793  0.8028
  226MPD1    C4 3485   1.178   2.362  10.012  0.1554 -0.0611  0.0501
  226MPD1    C5 3486   1.070   2.285   9.985 -0.1614  0.0134 -0.0589
  226MPD1     H 3487   1.180   2.513   9.716  1.0101  1.9504  1.9675
  226MPD1    H1 3488   1.218   2.361  10.113  0.9404 -0.8486 -0.2681
  226MPD1    H2 3489   0.918   2.209   9.865 -0.5966  1.1211  0.3698
  226MPD1    H3 3490   1.035   2.213  10.058  2.1160  0.9355  1.9323
  226MPD1     N 3491   1.350   2.507   9.926  0.6632 -0.7244 -0.5425
  226MPD1    H5 3492   1.379   2.577   9.859 -0.9714  1.1005  0.6555
  226MPD1    N1 3493   0.952   2.387   9.659  0.8094  0.0025  0.0007
  226MPD1    H6 3494   0.852   2.377   9.675  0.3690  2.8861 -0.9332
  226MPD1    H7 3495   0.963   2.479   9.617  2.2962 -0.6013 -0.9228
  227MPD1     C 3496   1.320   3.353   9.740 -0.3890  0.5073  0.7232
  227MPD1    C1 3497   1.310   3.237   9.665 -0.3381  0.4201  0.2830
  227MPD1    C2 3498   1.341   3.114   9.720  0.3071  0.0306 -0.3595
  227MPD1    C3 3499   1.418   3.111   9.834  0.0308 -0.5683  0.3877
  227MPD1    C4 3500   1.424   3.226   9.914 -0.6714  0.6054 -0.2096
  227MPD1    C5 3501   1.372   3.348   9.871 -0.0122  0.3537 -0.0432
  227MPD1     H 3502   1.320   3.026   9.661  2.0452 -1.3219  1.0443
  227MPD1    H1 3503   1.481   3.239  10.005 -1.7969  0.0477  0.5769
  227MPD1    H2 3504   1.300   3.450   9.696  2.0149 -0.5102 -2.6103
  227MPD1    H3 3505   1.396   3.446   9.911 -0.7913  0.5425 -0.0363
  227MPD1     N 3506   1.470   2.987   9.878  0.0716  0.7651 -0.0828
  227MPD1    H5 3507   1.446   2.904   9.825  0.6026  0.0209  0.8273
  227MPD1    N1 3508   1.234   3.233   9.543 -0.3697 -0.3755 -0.0347
  227MPD1    H6 3509   1.277   3.167   9.479  1.3977  1.5206 -0.8072
  227MPD1    H7 3510   1.230   3.321   9.492  3.0505  0.2758  0.8897
  228MPD1     C 3511   4.463   4.711  12.241 -0.4325 -1.0021 -0.2590
  228MPD1    C1 3512   4.436   0.042  12.352  0.2055 -0.1520  0.2801
  228MPD1    C2 3513   4.314   0.032  12.415 -0.3546  0.3858 -0.0045
  228MPD1    C3 3514   4.217   4.704  12.350  0.6574  0.3782  0.4096
  228MPD1    C4 3515   4.234   4.633  12.232 -0.4121  0.7838  0.6617
  228MPD1    C5 3516   4.362   4.634  12.183  0.4233  0.4810  0.1190
  228MPD1     H 3517   4.300   0.088  12.507 -1.8387  1.4696 -0.8987
  228MPD1    H1 3518   4.155   4.577  12.184 -0.3042  0.8272  0.4348
  228MPD1    H2 3519   4.562   4.703  12.197 -0.5583 -1.0228 -0.5377
  228MPD1    H3 3520   4.379   4.573  12.096  0.7087 -0.6951  1.0034
  228MPD1     N 3521   4.104   4.682  12.424 -0.6409 -0.3833  0.2144
  228MPD1    H5 3522   4.096   4.707  12.522 -1.8616  4.7360 -1.1925
  228MPD1    N1 3523   4.529   0.129  12.400 -0.3769 -0.5813  0.1427
  228MPD1    H6 3524   4.513   0.150  12.498  1.9047  1.7313  0.0108
  228MPD1    H7 3525   4.625   0.102  12.382 -0.8050 -1.4465 -0.8389
  229MPD1     C 3526   3.939   3.075  15.151  0.0372  0.5256  0.9000
  229MPD1    C1 3527   3.995   3.016  15.038 -0.1036 -0.0480  0.6082
  229MPD1    C2 3528   4.131   3.032  15.030  0.3951  0.3599 -0.3140
  229MPD1    C3 3529   4.208   3.064  15.141 -0.0777 -0.0086  0.4898
  229MPD1    C4 3530   4.144   3.107  15.260  0.2226  0.2843 -0.5038
  229MPD1    C5 3531   4.011   3.114  15.259 -0.0617 -0.7735 -0.3408
  229MPD1     H 3532   4.177   3.002  14.937 -0.0039  0.7340 -0.6329
  229MPD1    H1 3533   4.197   3.135  15.351  1.6578  0.2678 -1.3404
  229MPD1    H2 3534   3.833   3.086  15.167 -0.3520  1.1372 -2.0539
  229MPD1    H3 3535   3.959   3.161  15.342 -0.9756 -1.6602 -0.4081
  229MPD1     N 3536   4.350   3.059  15.139 -0.5446  0.5534  0.5214
  229MPD1    H5 3537   4.395   3.075  15.229 -0.1063  1.2248  0.1756
  229MPD1    N1 3538   3.913   2.985  14.930  0.3941  0.0834  0.7283
  229MPD1    H6 3539   3.963   2.930  14.860  0.3664  3.2449 -1.8070
  229MPD1    H7 3540   3.822   2.940  14.941  1.4736 -2.3338 -0.1459
  230MPD1     C 3541   0.322   3.098  15.772 -0.3670  0.2805 -0.2132
  230MPD1    C1 3542   0.341   2.988  15.692  0.5775  0.5034  0.7257
  230MPD1    C2 3543   0.282   2.987  15.568 -0.6029 -0.0932 -0.5103
  230MPD1    C3 3544   0.198   3.094  15.533 -0.1134 -0.0736  0.7970
  230MPD1    C4 3545   0.173   3.197  15.620 -0.2522 -0.4931  0.6664
  230MPD1    C5 3546   0.239   3.199  15.737 -0.0348 -0.4266  0.3181
  230MPD1     H 3547   0.287   2.904  15.499  3.3864 -3.1069  3.3432
  230MPD1    H1 3548   0.115   3.284  15.594 -1.1390 -0.8953  1.3012
  230MPD1    H2 3549   0.376   3.111  15.865  1.9767 -0.9070 -1.3902
  230MPD1    H3 3550   0.233   3.287  15.800  0.6577 -0.8588  0.9743
  230MPD1     N 3551   0.147   3.075  15.405  0.1991  0.2167  0.5663
  230MPD1    H5 3552   0.178   2.989  15.362 -0.7947  1.0723 -1.9187
  230MPD1    N1 3553   0.418   2.879  15.739 -0.8885 -0.0750 -0.1322
  230MPD1    H6 3554   0.507   2.910  15.777 -0.0471 -0.5008 -1.7705
  230MPD1    H7 3555   0.445   2.824  15.658  0.7493  0.5073  0.0225
  231MPD1     C 3556   2.861   0.924  16.002  0.9295 -0.5439 -0.2176
  231MPD1    C1 3557   2.898   1.008  15.901  0.0109  0.5881 -0.4348
  231MPD1    C2 3558   2.887   0.954  15.773 -0.1146  0.1594  0.3295
  231MPD1    C3 3559   2.835   0.829  15.741  0.6485 -0.2242  1.0218
  231MPD1    C4 3560   2.807   0.741  15.846 -0.1527 -0.1660 -0.3491
  231MPD1    C5 3561   2.826   0.794  15.977 -0.0354 -0.0699 -0.8737
  231MPD1     H 3562   2.906   1.014  15.685  0.0034  1.1714  1.0515
  231MPD1    H1 3563   2.771   0.639  15.835 -0.4349  0.0500 -1.3442
  231MPD1    H2 3564   2.867   0.961  16.104 -0.0689 -0.4544 -0.1965
  231MPD1    H3 3565   2.803   0.729  16.061  1.3518 -0.1681 -0.5739
  231MPD1     N 3566   2.838   0.789  15.607  0.2487  0.2808  0.7111
  231MPD1    H5 3567   2.889   0.853  15.546 -0.9199 -0.3668 -0.9572
  231MPD1    N1 3568   2.962   1.133  15.920 -0.8205  0.4193 -0.0562
  231MPD1    H6 3569   2.928   1.159  16.013 -0.9759 -0.6838  0.2014
  231MPD1    H7 3570   2.939   1.203  15.850  0.5056  0.3263 -0.5898
  232MPD1     C 3571   4.524   3.221  17.590  0.2278  0.8089  0.4806
  232MPD1    C1 3572   4.468   3.125  17.500 -0.1533 -0.1037 -0.6470
  232MPD1    C2 3573   4.357   3.049  17.544 -0.1025  0.1737  0.5925
  232MPD1    C3 3574   4.310   3.077  17.673 -0.2342  0.2956 -0.1830
  232MPD1    C4 3575   4.362   3.170   0.004 -0.3656  0.5043  0.6210
  232MPD1    C5 3576   4.477   3.234  17.716  0.2048 -0.5166  0.4910
  232MPD1     H 3577   4.316   2.967  17.487 -2.0812  2.1047 -0.7568
  232MPD1    H1 3578   4.321   3.176   0.104 -0.6332  0.8991  0.4887
  232MPD1    H2 3579   4.612   3.277  17.559 -1.2755  3.4664  1.0262
  232MPD1    H3 3580   4.527   3.298   0.028 -0.6796  0.4654  0.2358
  232MPD1     N 3581   4.199   3.009  17.728  0.3842  0.0770  0.1212
  232MPD1    H5 3582   4.165   3.039   0.059  0.6566 -2.5069  1.0610
  232MPD1    N1 3583   4.543   3.088  17.386  0.1461 -0.3623 -0.0617
  232MPD1    H6 3584   4.595   3.167  17.347  0.7086 -0.7704 -0.1560
  232MPD1    H7 3585   4.480   3.052  17.315  0.9210 -3.0598  0.6259
  233MPD1     C 3586   0.441   4.667   0.484  0.8048 -0.3156 -0.1002
  233MPD1    C1 3587   0.368   0.049   0.498 -0.3636 -0.3041 -0.5751
  233MPD1    C2 3588   0.406   0.132   0.602 -0.0516 -0.1734  0.2692
  233MPD1    C3 3589   0.529   0.110   0.662 -0.2713  0.0099 -0.3233
  233MPD1    C4 3590   0.607   4.738   0.633 -0.4036  0.5836  0.6440
  233MPD1    C5 3591   0.560   4.651   0.543 -0.7046 -0.1732 -0.3731
  233MPD1     H 3592   0.343   0.215   0.632 -1.7035 -1.2420 -0.1847
  233MPD1    H1 3593   0.696   4.714   0.689 -0.3700 -2.9242 -0.9700
  233MPD1    H2 3594   0.404   4.587   0.422 -0.8511 -0.5356  1.1850
  233MPD1    H3 3595   0.619   4.563   0.522  0.5074  0.6064 -0.2191
  233MPD1     N 3596   0.568   0.191   0.773 -0.6184 -0.6272  0.1998
  233MPD1    H5 3597   0.651   0.165   0.826  0.1187  0.3575 -0.4700
  233MPD1    N1 3598   0.240   0.067   0.448 -0.8430  0.2208  0.1081
  233MPD1    H6 3599   0.196   0.159   0.446  2.4222  1.7339 -1.4330
  233MPD1    H7 3600   0.225   0.009   0.366  0.1197 -0.5179  0.4546
  234MPD1     C 3601   1.280   0.027   9.916 -0.0359  0.5151 -1.1545
  234MPD1    C1 3602   1.364   0.083  10.009 -0.1699 -0.5710 -0.0494
  234MPD1    C2 3603   1.342   0.220  10.040  0.9183  0.0506  0.2483
  234MPD1    C3 3604   1.254   0.295   9.963  0.0578  0.3006 -0.5233
  234MPD1    C4 3605   1.197   0.237   9.853 -0.7137  0.2307  0.1904
  234MPD1    C5 3606   1.202   0.105   9.835 -0.6048  0.4151 -0.3187
  234MPD1     H 3607   1.397   0.279  10.114  2.8356 -2.6292  0.9605
  234MPD1    H1 3608   1.142   0.283   9.772  1.0170  1.2525 -0.3961
  234MPD1    H2 3609   1.281   4.662   9.892  0.0777  0.2462  0.0459
  234MPD1    H3 3610   1.168   0.055   9.745 -0.3961  1.0337 -0.7469
  234MPD1     N 3611   1.251   0.440   9.982 -1.0361 -0.3234  0.2325
  234MPD1    H5 3612   1.269   0.473  10.076 -2.1681  0.4444  0.1769
  234MPD1    N1 3613   1.443   0.006  10.097 -0.2520 -0.3034  0.5178
  234MPD1    H6 3614   1.478   4.658  10.061  0.6925 -0.3170  1.4741
  234MPD1    H7 3615   1.519   0.067  10.127  1.4562 -1.4981 -1.3117
  235MPD1     C 3616   3.350   1.378  10.499  0.9329  0.6557  0.1015
  235MPD1    C1 3617   3.349   1.459  10.387 -0.2474 -0.2174 -0.2630
  235MPD1    C2 3618   3.431   1.567  10.383  0.6485  0.2965 -0.1596
  235MPD1    C3 3619   3.489   1.622  10.489  0.5064  0.0197 -0.3417
  235MPD1    C4 3620   3.479   1.544  10.605 -0.5811 -0.1615  0.4231
  235MPD1    C5 3621   3.413   1.423  10.613 -0.1597 -0.1160  0.6726
  235MPD1     H 3622   3.450   1.608  10.285  2.7886  2.3612  1.1072
  235MPD1    H1 3623   3.513   1.583  10.700 -1.5815 -2.3288  1.6582
  235MPD1    H2 3624   3.311   1.277  10.502  0.8842  0.6769  0.2071
  235MPD1    H3 3625   3.410   1.368  10.706 -0.5882  0.7136  1.1525
  235MPD1     N 3626   3.563   1.744  10.479 -0.0139 -0.0373 -0.5632
  235MPD1    H5 3627   3.557   1.792  10.390  1.0483  3.2649  1.1733
  235MPD1    N1 3628   3.274   1.416  10.275 -0.3949 -0.5270 -0.5982
  235MPD1    H6 3629   3.190   1.374  10.314  0.2903 -0.1557  1.2291
  235MPD1    H7 3630   3.242   1.492  10.215  0.2179  0.1537 -0.0667
  236MPD1     C 3631   2.159   3.310   9.868  0.0858  0.2686 -0.7146
  236MPD1    C1 3632   2.239   3.420   9.879  0.2994 -0.1618 -0.5656
  236MPD1    C2 3633   2.338   3.415   9.978 -0.2552  0.1248 -0.3950
  236MPD1    C3 3634   2.371   3.294  10.045 -0.8131  0.5565 -0.3900
  236MPD1    C4 3635   2.289   3.185  10.021  0.0076  0.1881  0.5497
  236MPD1    C5 3636   2.176   3.194   9.938 -0.4096  0.2116  0.2082
  236MPD1     H 3637   2.393   3.507   9.995  1.0602 -0.9035  1.0190
  236MPD1    H1 3638   2.318   3.092  10.067 -2.3602 -1.2863 -0.9833
  236MPD1    H2 3639   2.078   3.316   9.797  0.4724 -0.4180 -1.2071
  236MPD1    H3 3640   2.107   3.112   9.917 -0.9404  0.6122  0.4042
  236MPD1     N 3641   2.488   3.272  10.129  0.6791 -0.3609  0.0206
  236MPD1    H5 3642   2.517   3.176  10.149  0.6489 -0.4667 -0.4414
  236MPD1    N1 3643   2.201   3.545   9.825 -0.4891  0.4054 -0.2168
  236MPD1    H6 3644   2.135   3.540   9.748 -0.4290  0.4925 -0.2745
  236MPD1    H7 3645   2.271   3.618   9.811  1.6310 -1.2068  1.9315
  237MPD1     C 3646   2.973   2.259  15.872 -0.6103 -0.5686 -0.4682
  237MPD1    C1 3647   2.946   2.277  15.736 -0.5312  0.7851 -0.0840
  237MPD1    C2 3648   2.882   2.169  15.674  0.6439 -0.0631  0.9025
  237MPD1    C3 3649   2.868   2.042  15.735 -0.1902 -0.0583 -0.1000
  237MPD1    C4 3650   2.916   2.028  15.862 -0.5768  0.1335  0.7459
  237MPD1    C5 3651   2.962   2.141  15.929  0.1593 -0.2812  0.2824
  237MPD1     H 3652   2.842   2.186  15.575 -0.2611 -2.9002  0.8001
  237MPD1    H1 3653   2.886   1.940  15.917 -0.6064 -0.1626  0.2560
  237MPD1    H2 3654   3.009   2.341  15.934 -3.0320  0.8991 -0.9943
  237MPD1    H3 3655   2.986   2.134  16.035  0.0543 -1.2897  0.2430
  237MPD1     N 3656   2.809   1.922  15.685  0.1617  0.0878  0.4867
  237MPD1    H5 3657   2.805   1.837  15.741  3.1838 -2.0157 -2.4840
  237MPD1    N1 3658   2.954   2.409  15.679 -0.6433 -0.0984  0.1313
  237MPD1    H6 3659   3.039   2.453  15.712  0.0130 -0.8322 -0.5890
  237MPD1    H7 3660   2.964   2.396  15.579  0.6228 -0.7086  0.3466
  238MPD1     C 3661   4.726   0.092  15.494 -0.4501 -0.5558  0.4217
  238MPD1    C1 3662   0.034   0.120  15.363 -0.1988 -0.7434 -0.8938
  238MPD1    C2 3663   4.683   0.178  15.270 -0.6660  0.0279  0.7668
  238MPD1    C3 3664   4.555   0.210  15.307  0.4854 -0.0199  0.1181
  238MPD1    C4 3665   4.511   0.188  15.435 -0.0125  0.1612  0.6338
  238MPD1    C5 3666   4.593   0.128  15.523  0.1422  0.9976 -0.8058
  238MPD1     H 3667   4.711   0.189  15.166 -3.0675 -0.2524  0.0792
  238MPD1    H1 3668   4.413   0.208  15.475 -1.5642 -2.3262 -1.9138
  238MPD1    H2 3669   0.050   0.036  15.562 -1.8428 -1.7871  0.7184
  238MPD1    H3 3670   4.561   0.108  15.625  4.5105 -1.8944 -0.0374
  238MPD1     N 3671   4.452   0.264  15.222  0.1322 -0.5288 -0.2668
  238MPD1    H5 3672   4.362   0.268  15.268  0.7488 -0.2402  0.9137
  238MPD1    N1 3673   0.169   0.084  15.329  0.0109 -0.2947  0.2240
  238MPD1    H6 3674   0.226   0.060  15.410  1.2179  1.3737 -0.1334
  238MPD1    H7 3675   0.226   0.149  15.275 -0.4589 -0.8168 -0.8966
  239MPD1     C 3676   0.063   0.986  15.202 -0.0471 -0.4833 -0.0101
  239MPD1    C1 3677   0.181   1.012  15.138 -0.0573 -0.5755  0.3668
  239MPD1    C2 3678   0.185   1.104  15.038 -0.8707 -0.0168 -0.0681
  239MPD1    C3 3679   0.063   1.160  14.989  0.2323 -0.3768  0.3578
  239MPD1    C4 3680   4.688   1.116  15.048  0.5410  0.4655 -0.0257
  239MPD1    C5 3681   4.692   1.043  15.156  0.2224  0.1518 -0.4102
  239MPD1     H 3682   0.283   1.121  14.996  0.1597 -1.6102  1.7250
  239MPD1    H1 3683   4.590   1.150  15.016  0.4400 -0.5002 -0.7417
  239MPD1    H2 3684   0.046   0.927  15.291  0.1435  0.5219  0.7007
  239MPD1    H3 3685   4.598   1.028  15.208  0.3474  1.1610  0.1135
  239MPD1     N 3686   0.052   1.244  14.874  0.1656 -0.0776 -0.1302
  239MPD1    H5 3687   4.697   1.256  14.841 -0.4364 -1.8696  0.9349
  239MPD1    N1 3688   0.311   0.978  15.197  0.4233  0.0688 -0.0449
  239MPD1    H6 3689   0.393   0.955  15.141  0.5943 -0.5522  0.4615
  239MPD1    H7 3690   0.297   0.899  15.260 -0.1537 -0.9894 -1.5079
  240MPD1     C 3691   3.645   1.451  14.100 -0.0139  0.1168  0.1354
  240MPD1    C1 3692   3.594   1.338  14.052 -0.2632 -0.2265  0.6722
  240MPD1    C2 3693   3.632   1.220  14.111 -0.1744 -0.3801  0.4362
  240MPD1    C3 3694   3.725   1.216  14.212  0.6706 -0.4284  0.0507
  240MPD1    C4 3695   3.767   1.334  14.263  0.5494  0.2614 -0.3364
  240MPD1    C5 3696   3.718   1.448  14.211 -0.8329  0.0628  0.0108
  240MPD1     H 3697   3.596   1.124  14.075 -1.1050 -0.3663  1.3005
  240MPD1    H1 3698   3.821   1.348  14.356 -0.6963 -1.1103  0.5958
  240MPD1    H2 3699   3.613   1.546  14.059  1.2628 -0.5623 -2.4942
  240MPD1    H3 3700   3.748   1.543  14.254 -0.6752 -0.2528  0.5886
  240MPD1     N 3701   3.740   1.098  14.291  0.5021 -0.4031 -0.5114
  240MPD1    H5 3702   3.675   1.021  14.279  0.4102 -0.4998  0.5598
  240MPD1    N1 3703   3.504   1.337  13.944  0.3277  0.2583  0.3894
  240MPD1    H6 3704   3.547   1.287  13.866 -1.6396  1.7811 -1.6639
  240MPD1    H7 3705   3.479   1.431  13.915  0.0865  0.3953  1.0601
  241MPD1     C 3706   4.407   0.873  15.009 -0.3076  0.1149  0.3201
  241MPD1    C1 3707   4.284   0.823  15.045  0.2903  0.7317  0.1317
  241MPD1    C2 3708   4.183   0.814  14.953  0.4897 -0.8322  0.9395
  241MPD1    C3 3709   4.210   0.845  14.817  0.2262  0.6228  0.5425
  241MPD1    C4 3710   4.333   0.884  14.777  0.2434  0.1670 -0.1741
  241MPD1    C5 3711   4.431   0.916  14.878 -0.6692  0.1755  0.4340
  241MPD1     H 3712   4.085   0.780  14.986  0.0437  0.5336  1.0042
  241MPD1    H1 3713   4.355   0.897  14.672  0.2805  0.6523 -0.1088
  241MPD1    H2 3714   4.492   0.889  15.074 -1.3559 -0.0765  1.7584
  241MPD1    H3 3715   4.526   0.964  14.858 -0.2040 -0.6145  0.7231
  241MPD1     N 3716   4.112   0.821  14.714 -0.2681  0.2617  0.2277
  241MPD1    H5 3717   4.150   0.848  14.624 -1.9180  0.7516 -0.3272
  241MPD1    N1 3718   4.255   0.790  15.183  0.0301 -0.5728  0.4592
  241MPD1    H6 3719   4.321   0.725  15.227  1.3501 -0.6625 -1.6316
  241MPD1    H7 3720   4.157   0.771  15.200 -0.3920  0.5328 -0.8055
  242MPD1     C 3721   3.752   3.409  15.758  0.3279  0.4413  0.5032
  242MPD1    C1 3722   3.880   3.440  15.762  0.1110 -0.6558  0.3087
  242MPD1    C2 3723   3.938   3.447  15.635 -0.9124 -0.0104 -0.7186
  242MPD1    C3 3724   3.882   3.414  15.516  0.4116  0.8740  0.6339
  242MPD1    C4 3725   3.753   3.379  15.522 -0.1765 -0.7193  0.2813
  242MPD1    C5 3726   3.689   3.387  15.642  0.2760 -0.6276  1.0336
  242MPD1     H 3727   4.040   3.484  15.632  0.3473 -3.3957  0.1577
  242MPD1    H1 3728   3.697   3.363  15.431  0.2448 -0.0213 -0.1097
  242MPD1    H2 3729   3.692   3.426  15.847 -0.0844 -1.6670  0.6244
  242MPD1    H3 3730   3.584   3.365  15.655 -0.2345  1.0954 -0.3011
  242MPD1     N 3731   3.949   3.425  15.389 -0.2300 -0.3926 -0.8909
  242MPD1    H5 3732   3.891   3.415  15.307 -1.8931 -1.9089  0.4607
  242MPD1    N1 3733   3.936   3.495  15.869 -0.2865 -0.0001  0.0303
  242MPD1    H6 3734   4.035   3.475  15.877 -0.3652 -0.4216 -0.0504
  242MPD1    H7 3735   3.890   3.464  15.955  0.9567 -2.9105 -0.3319
  243MPD1     C 3736   4.220   2.471  17.373 -0.1373  0.4540  0.3831
  243MPD1    C1 3737   4.290   2.470  17.490  0.3427 -0.5798  0.5477
  243MPD1    C2 3738   4.402   2.387  17.501  0.1255 -0.1776  0.4764
  243MPD1    C3 3739   4.448   2.324  17.385 -0.3970  0.2962 -0.6437
  243MPD1    C4 3740   4.374   2.330  17.275 -0.0836  0.1989 -0.0148
  243MPD1    C5 3741   4.259   2.400  17.265 -0.4686 -0.3745  0.5314
  243MPD1     H 3742   4.460   2.386  17.592 -2.0397 -2.7661  1.8317
  243MPD1    H1 3743   4.412   2.281  17.185 -0.7251 -1.0149  0.3796
  243MPD1    H2 3744   4.132   2.531  17.354  0.2077  0.6086 -0.7214
  243MPD1    H3 3745   4.208   2.421  17.172  0.2014 -0.5000  0.1304
  243MPD1     N 3746   4.579   2.266  17.398  0.1051  0.0722  0.0051
  243MPD1    H5 3747   4.619   2.264  17.491 -1.2603 -3.7047  0.5328
  243MPD1    N1 3748   4.237   2.525  17.605  0.2090  0.1657  0.2145
  243MPD1    H6 3749   4.195   2.617  17.597  0.8970  0.5584  1.2069
  243MPD1    H7 3750   4.304   2.523  17.682 -0.3491  0.0009  0.6986
  244MPD1     C 3751   0.041   1.855   0.311 -0.3681  0.1813  0.1385
  244MPD1    C1 3752   0.034   1.991   0.305 -0.1643 -0.1902 -0.5322
  244MPD1    C2 3753   0.050   2.053   0.177  0.5593  0.1682 -0.2331
  244MPD1    C3 3754   0.112   1.984   0.071 -0.0945 -0.5034  0.4578
  244MPD1    C4 3755   0.129   1.842   0.083  0.5061 -0.8780 -0.4139
  244MPD1    C5 3756   0.081   1.782   0.198 -0.6324 -1.1346 -0.3720
  244MPD1     H 3757   0.035   2.160   0.171  0.4574  0.2799  2.0240
  244MPD1    H1 3758   0.174   1.782   0.005  1.3705 -0.7599 -0.0124
  244MPD1    H2 3759   0.012   1.804   0.402 -0.7516  0.7296  0.3235
  244MPD1    H3 3760   0.081   1.674   0.204  2.2536 -1.1656 -0.6205
  244MPD1     N 3761   0.130   2.044  17.710 -0.1972 -0.2787  0.3790
  244MPD1    H5 3762   0.103   2.142  17.704  1.8608  0.1863 -1.4469
  244MPD1    N1 3763   4.732   2.064   0.414 -0.2386 -0.3338 -0.0962
  244MPD1    H6 3764   0.026   2.159   0.404 -1.8706  0.3156  0.4835
  244MPD1    H7 3765   0.016   2.026   0.505  1.4847  1.1984  0.0756
  245MPD1     C 3766   2.196   3.045  13.018  0.4829 -0.5218  0.4093
  245MPD1    C1 3767   2.233   3.028  13.150  0.5284  0.4191  0.6875
  245MPD1    C2 3768   2.279   3.129  13.225 -0.5062  0.1625 -0.0873
  245MPD1    C3 3769   2.306   3.252  13.165 -0.5291  0.5224 -0.3966
  245MPD1    C4 3770   2.263   3.275  13.035  0.4002  0.4050 -1.0130
  245MPD1    C5 3771   2.201   3.171  12.969 -0.0973 -0.3024  0.5139
  245MPD1     H 3772   2.284   3.109  13.331  0.7389 -0.6239 -0.3016
  245MPD1    H1 3773   2.269   3.375  12.995 -0.7495  0.5914 -0.7369
  245MPD1    H2 3774   2.155   2.963  12.960  1.3091 -1.0639  0.5901
  245MPD1    H3 3775   2.160   3.197  12.872 -0.8214 -0.6861  0.7134
  245MPD1     N 3776   2.376   3.347  13.237  0.1791  0.1808  0.1132
  245MPD1    H5 3777   2.411   3.316  13.327 -0.9225 -2.5534 -0.3965
  245MPD1    N1 3778   2.223   2.904  13.206 -0.2400 -0.1452  0.6101
  245MPD1    H6 3779   2.212   2.907  13.307  0.1386 -0.1126  0.6522
  245MPD1    H7 3780   2.168   2.837  13.153  1.2623 -1.9010  1.2748
  246MPD1     C 3781   2.722   1.963  10.186  0.7104 -0.2099 -0.0925
  246MPD1    C1 3782   2.769   2.063  10.101 -0.5820  0.4164 -0.4363
  246MPD1    C2 3783   2.721   2.189  10.102  0.8776  0.7095 -0.8624
  246MPD1    C3 3784   2.645   2.229  10.213  0.4102 -1.0678 -0.1875
  246MPD1    C4 3785   2.608   2.128  10.308  0.4663 -0.2518 -0.1989
  246MPD1    C5 3786   2.645   1.997  10.288 -0.1016  0.5421 -0.2899
  246MPD1     H 3787   2.750   2.259  10.025  2.2627 -0.4993 -1.4304
  246MPD1    H1 3788   2.562   2.156  10.402  0.8047  0.7499 -0.3272
  246MPD1    H2 3789   2.769   1.865  10.191 -0.4513 -0.7335  0.4027
  246MPD1    H3 3790   2.629   1.933  10.374  1.3602 -1.4085 -1.4954
  246MPD1     N 3791   2.628   2.365  10.229  0.4712  0.5157 -0.2647
  246MPD1    H5 3792   2.669   2.424  10.157 -0.7253  0.8469 -0.6820
  246MPD1    N1 3793   2.842   2.012   9.990  0.1891 -0.0897 -0.6192
  246MPD1    H6 3794   2.926   1.966  10.025 -0.1662  0.5116  1.0507
  246MPD1    H7 3795   2.867   2.088   9.927 -0.9973  0.3374 -0.5726
  247MPD1     C 3796   2.610   4.056  16.648 -0.2659 -0.4503  0.1244
  247MPD1    C1 3797   2.505   3.981  16.693 -0.6995 -0.0845  0.3338
  247MPD1    C2 3798   2.502   3.856  16.641  0.2064  0.7774  0.1836
  247MPD1    C3 3799   2.606   3.794  16.570 -0.4235 -0.6014 -0.3889
  247MPD1    C4 3800   2.713   3.872  16.532 -0.0153 -0.2434 -0.1542
  247MPD1    C5 3801   2.718   4.006  16.578  0.2659 -0.7568 -0.0305
  247MPD1     H 3802   2.414   3.798  16.668  0.6636 -0.0870 -0.2219
  247MPD1    H1 3803   2.794   3.830  16.474  1.2840  1.1575  0.6387
  247MPD1    H2 3804   2.610   4.161  16.673  1.6935 -0.0180 -1.7123
  247MPD1    H3 3805   2.798   4.077  16.560 -1.8575  1.9882  1.4209
  247MPD1     N 3806   2.600   3.662  16.530 -0.0876  0.6074  0.4946
  247MPD1    H5 3807   2.673   3.621  16.473 -1.6361 -0.4797 -0.7419
  247MPD1    N1 3808   2.400   4.042  16.766 -0.1854 -0.3556  0.8833
  247MPD1    H6 3809   2.424   4.132  16.806 -2.3823  0.0240  1.3529
  247MPD1    H7 3810   2.330   4.066  16.696  0.5960 -0.8330 -0.0734
  248MPD1     C 3811   3.004   2.308   0.677  0.0169 -0.7191  0.1626
  248MPD1    C1 3812   3.018   2.376   0.794 -1.1128 -0.4875  0.0397
  248MPD1    C2 3813   2.898   2.410   0.860 -0.2716  0.3099 -0.2404
  248MPD1    C3 3814   2.771   2.374   0.814  0.3484 -0.3176 -0.2771
  248MPD1    C4 3815   2.764   2.324   0.689  0.0886 -0.4943  0.4071
  248MPD1    C5 3816   2.882   2.288   0.629 -0.4314 -0.2903  0.0921
  248MPD1     H 3817   2.914   2.456   0.956 -2.8611 -0.2819  0.4645
  248MPD1    H1 3818   2.668   2.306   0.643  0.9112 -3.3698 -0.1996
  248MPD1    H2 3819   3.095   2.268   0.634  0.8545  0.6215  0.6841
  248MPD1    H3 3820   2.884   2.241   0.532 -1.9371  2.1734 -1.1144
  248MPD1     N 3821   2.662   2.425   0.884 -0.2121 -0.5086 -0.1555
  248MPD1    H5 3822   2.687   2.473   0.970 -1.6420 -0.2920  0.1345
  248MPD1    N1 3823   3.141   2.388   0.861  0.1610 -0.0252 -0.2588
  248MPD1    H6 3824   3.222   2.391   0.801 -0.5617 -1.0498 -1.2853
  248MPD1    H7 3825   3.150   2.452   0.940  3.3612  1.5181 -1.8932
  249MPD1     C 3826   0.040   1.333  10.907 -0.2213  0.0723 -0.8247
  249MPD1    C1 3827   0.045   1.464  10.861 -0.6737  0.1657  0.8612
  249MPD1    C2 3828   0.013   1.481  10.729  0.1257 -0.4140 -0.1314
  249MPD1    C3 3829   4.712   1.378  10.646  0.1485 -0.3126  0.4150
  249MPD1    C4 3830   4.705   1.252  10.696 -0.0505 -1.0876  0.4162
  249MPD1    C5 3831   0.004   1.231  10.826  0.0345 -0.3250 -0.5768
  249MPD1     H 3832   0.009   1.576  10.677 -0.4550 -0.1626  0.3708
  249MPD1    H1 3833   4.668   1.175  10.630  0.4951 -0.2216 -0.8917
  249MPD1    H2 3834   0.052   1.306  11.011 -0.8249 -0.6877 -0.9451
  249MPD1    H3 3835   0.003   1.132  10.871  0.7841 -0.0312  0.0808
  249MPD1     N 3836   4.670   1.416  10.519 -0.0323  0.0337  0.2965
  249MPD1    H5 3837   4.670   1.515  10.495  2.6644 -0.4262 -1.5988
  249MPD1    N1 3838   0.099   1.568  10.939 -0.4264 -0.2337 -0.0134
  249MPD1    H6 3839   0.053   1.654  10.911  0.3815  0.0603 -0.4533
  249MPD1    H7 3840   0.086   1.557  11.039  0.7696 -2.3775 -0.0947
  250MPD2     C 3841   1.470   1.438  13.496 -0.2208 -0.3081  0.2148
  250MPD2    C1 3842   1.380   1.534  13.461 -0.1949 -0.0675 -0.5630
  250MPD2    C2 3843   1.261   1.499  13.405 -0.9563 -0.5073  0.2261
  250MPD2    C3 3844   1.226   1.365  13.376  0.3032  0.5298 -0.2507
  250MPD2    C4 3845   1.323   1.270  13.400 -0.1261 -0.5966  0.2245
  250MPD2    C5 3846   1.440   1.306  13.457 -0.0506  0.1251  0.0223
  250MPD2     H 3847   1.190   1.574  13.372 -1.5196 -0.4477  1.5938
  250MPD2    H1 3848   1.305   1.165  13.380 -0.4367 -0.8926  2.0855
  250MPD2    H2 3849   1.564   1.457  13.547 -1.9993  2.1437  2.6040
  250MPD2    H3 3850   1.507   1.229  13.494 -0.4797  0.2199  0.9978
  250MPD2     N 3851   1.109   1.325  13.308 -0.0671 -0.5533 -0.9933
  250MPD2    H5 3852   1.102   1.228  13.280 -1.7868 -0.2633 -1.5777
  250MPD2    N1 3853   1.411   1.667  13.494  0.4763 -0.2947  0.2331
  250MPD2    H7 3854   1.498   1.681  13.544  0.3775 -0.6561  0.5099
  251TMC3    C1 3855   1.378   1.898  13.539 -0.2080  0.1078  0.1567
  251TMC3    C2 3856   1.287   2.003  13.539 -0.3599  0.7979 -0.5556
  251TMC3    C3 3857   1.343   2.126  13.514  0.0783  0.0827 -0.4305
  251TMC3    C4 3858   1.515   1.917  13.525 -0.3181 -0.2452 -0.1914
  251TMC3    C5 3859   1.561   2.043  13.511  0.3602 -0.3219  0.0441
  251TMC3    C6 3860   1.475   2.150  13.501 -0.1156 -0.2355 -0.6886
  251TMC3     C 3861   1.325   1.777  13.483 -0.5733  0.1618  0.7534
  251TMC3     O 3862   1.203   1.777  13.478 -0.3502 -0.2324  0.0282
  251TMC3     H 3863   1.181   1.990  13.557 -0.0228 -1.9643 -0.5108
  251TMC3    H1 3864   1.581   1.833  13.508  0.2398 -0.0477  0.9874
  251TMC3    H2 3865   1.514   2.249  13.521 -2.0783  0.2905  0.5281
  251TMC3    C7 3866   1.699   2.060  13.503  0.0978 -0.5998 -0.4804
  251TMC3    C8 3867   1.249   2.235  13.497  0.6060 -0.2946 -0.1192
  251TMC3    O1 3868   1.758   1.952  13.506  0.1014 -0.2870 -0.3857
  251TMC3    O2 3869   1.141   2.240  13.548 -0.2684 -0.5681 -0.2155
  252TMC3    C1 3870   4.632   3.921  10.189  0.0328 -0.0193  0.4145
  252TMC3    C2 3871   0.017   3.946  10.146 -0.1167  0.5453 -0.5397
  252TMC3    C3 3872   0.118   3.877  10.212  0.5349  0.3401  0.2991
  252TMC3    C4 3873   4.603   3.850  10.299  0.0842  0.3229  0.1028
  252TMC3    C5 3874   4.702   3.766  10.348  0.6386 -0.1309  0.1413
  252TMC3    C6 3875   0.094   3.784  10.311 -0.3352  0.2345  0.2279
  252TMC3     C 3876   4.532   4.013  10.142 -0.6816 -0.4368 -0.4731
  252TMC3     O 3877   4.568   4.124  10.107  0.7325 -0.0379  0.3992
  252TMC3     H 3878   0.046   3.995  10.054  1.6747  1.2685  0.4094
  252TMC3    H1 3879   4.499   3.835  10.326 -0.0418 -2.6248 -1.9752
  252TMC3    H2 3880   0.175   3.727  10.354  0.1236 -0.1147 -1.1096
  252TMC3    C7 3881   4.663   3.644  10.417  0.8455  0.1432  0.3225
  252TMC3    C8 3882   0.250   3.923  10.172 -0.4016  0.7048 -0.2327
  252TMC3    O1 3883   4.545   3.638  10.447 -0.3471  0.1669  0.3536
  252TMC3    O2 3884   0.265   4.017  10.091  0.0826 -0.0153  0.1587
  253MPD2     C 3885   2.457   1.947  15.822  0.5486  0.4808  0.1293
  253MPD2    C1 3886   2.331   1.901  15.796  0.2440  1.1106 -0.1293
  253MPD2    C2 3887   2.255   1.841  15.894 -0.2778  0.7692  0.0944
  253MPD2    C3 3888   2.301   1.834  16.023 -0.0574 -0.7236 -0.0699
  253MPD2    C4 3889   2.423   1.899  16.053  0.4289 -0.0206  0.2125
  253MPD2    C5 3890   2.498   1.949  15.952 -0.2322 -0.2326  0.1820
  253MPD2     H 3891   2.159   1.795  15.874  0.3421 -0.5946  0.2316
  253MPD2    H1 3892   2.465   1.914  16.152 -1.8343  2.2264  0.8205
  253MPD2    H2 3893   2.527   1.989  15.751  0.0062  1.3840  0.1269
  253MPD2    H3 3894   2.597   1.989  15.971  0.0714 -0.5874 -0.6398
  253MPD2     N 3895   2.225   1.789  16.137  0.5809 -0.5554 -0.0692
  253MPD2    H5 3896   2.260   1.812  16.229 -0.4823 -0.8695  0.4107
  253MPD2    N1 3897   2.267   1.929  15.674 -0.0302  0.4455 -0.0176
  253MPD2    H7 3898   2.169   1.905  15.662 -0.5970  1.8971  1.7338
  254TMC3    C1 3899   2.055   1.704  16.275 -0.3267  1.0934 -0.0655
  254TMC3    C2 3900   2.040   1.819  16.353  0.5663  0.3217 -0.2126
  254TMC3    C3 3901   1.979   1.790  16.469  0.3077 -0.3339 -0.1748
  254TMC3    C4 3902   1.999   1.582  16.304 -0.4792 -0.0295  0.4151
  254TMC3    C5 3903   1.934   1.566  16.417 -0.3966  0.8623 -0.0841
  254TMC3    C6 3904   1.924   1.665  16.508  0.5406  0.0421  0.5439
  254TMC3     C 3905   2.099   1.723  16.135 -0.2085  0.2129 -0.0360
  254TMC3     O 3906   2.023   1.699  16.043  0.8770 -0.6280  0.3350
  254TMC3     H 3907   2.090   1.913  16.333  0.5598  1.2822  4.2971
  254TMC3    H1 3908   2.010   1.504  16.229  0.4034  1.9335 -1.5155
  254TMC3    H2 3909   1.881   1.664  16.608 -1.2362 -2.7783 -0.2580
  254TMC3    C7 3910   1.883   1.433  16.452 -0.5577 -0.5483  0.1878
  254TMC3    C8 3911   1.895   1.903  16.518 -0.5097  0.0824  0.7499
  254TMC3    O1 3912   1.910   1.332  16.382 -0.0010  0.6053  0.0256
  254TMC3    O2 3913   1.855   1.900  16.635 -0.2046 -0.5440  0.6256
  255MPD2     C 3914   3.761   0.075  10.766 -0.0641  0.4365 -0.6471
  255MPD2    C1 3915   3.835   0.121  10.659  0.1095  0.3609 -0.9854
  255MPD2    C2 3916   3.965   0.155  10.686  0.9310  0.1547  0.5068
  255MPD2    C3 3917   4.016   0.155  10.815  0.4344  0.2207  0.2085
  255MPD2    C4 3918   3.935   0.119  10.924 -0.5609 -0.1665  0.5549
  255MPD2    C5 3919   3.810   0.075  10.893  0.0972  0.4486 -0.0155
  255MPD2     H 3920   4.018   0.205  10.606  3.1900 -0.7271  1.4472
  255MPD2    H1 3921   3.973   0.132  11.025 -2.0463 -2.7675  1.4503
  255MPD2    H2 3922   3.663   0.030  10.756 -0.3115  0.5867  1.1190
  255MPD2    H3 3923   3.741   0.035  10.968 -1.3281  2.2171 -0.3811
  255MPD2     N 3924   4.155   0.187  10.821 -0.0566  0.5605  0.5316
  255MPD2    H5 3925   4.196   0.228  10.737 -0.0315  2.1393  1.3039
  255MPD2    N1 3926   3.775   0.118  10.529  0.0323 -0.0236 -0.8239
  255MPD2    H7 3927   3.683   0.075  10.525 -0.2105  0.1699  2.3665
  256TMC3    C1 3928   3.744   0.128  10.293  0.2724  0.2209  0.0336
  256TMC3    C2 3929   3.739   0.217  10.190 -0.2260 -0.4675 -0.1549
  256TMC3    C3 3930   3.654   0.191  10.085  0.1313 -0.0699 -0.3523
  256TMC3    C4 3931   3.666   0.014  10.289  0.3660  0.1219 -0.6282
  256TMC3    C5 3932   3.603   4.721  10.172 -0.0829  0.7063 -0.7105
  256TMC3    C6 3933   3.589   0.072  10.077  0.3440  0.4339  0.1108
  256TMC3     C 3934   3.833   0.156  10.411  0.1911 -0.4422  0.0132
  256TMC3     O 3935   3.928   0.233  10.404 -0.3347 -0.0085 -0.5063
  256TMC3     H 3936   3.799   0.307  10.195 -1.5520  0.5249 -1.8865
  256TMC3    H1 3937   3.682   4.687  10.372  0.8749  0.3652 -0.5336
  256TMC3    H2 3938   3.526   0.054   9.990  0.6526  1.4722 -0.3193
  256TMC3    C7 3939   3.586   4.588  10.143 -0.3879  0.4994  0.6764
  256TMC3    C8 3940   3.636   0.271   9.962 -0.4870  0.4676 -0.2902
  256TMC3    O1 3941   3.549   4.568  10.029 -0.3077 -0.2418 -0.0471
  256TMC3    O2 3942   3.556   0.243   9.875 -0.1132  0.5445  0.2372
  257MPD2     C 3943   4.349   1.819  13.649 -0.8587  1.6406 -0.4060
  257MPD2    C1 3944   4.295   1.720  13.577  0.0650 -0.3682 -0.5442
  257MPD2    C2 3945   4.290   1.588  13.621  0.4324 -0.0783  0.7272
  257MPD2    C3 3946   4.341   1.549  13.746  1.1119  0.0883  0.1480
  257MPD2    C4 3947   4.386   1.658  13.820  0.2629 -0.6243 -0.2343
  257MPD2    C5 3948   4.395   1.789  13.769 -1.0277  0.3043 -0.3357
  257MPD2     H 3949   4.247   1.511  13.557 -2.5819  2.7837 -0.7040
  257MPD2    H1 3950   4.411   1.639  13.923 -0.1651  0.2009  0.0201
  257MPD2    H2 3951   4.345   1.921  13.614  2.9058  1.5820 -1.0612
  257MPD2    H3 3952   4.430   1.870  13.832  0.0084 -0.8539  0.5898
  257MPD2     N 3953   4.335   1.413  13.786 -0.4539 -0.2426  0.4424
  257MPD2    H5 3954   4.296   1.347  13.719 -0.1793 -1.4495  1.4528
  257MPD2    N1 3955   4.235   1.760  13.456  0.5761  0.3576 -0.3345
  257MPD2    H7 3956   4.245   1.858  13.433 -1.4834  0.8201  0.6832
  258TMC3    C1 3957   4.374   1.220  13.920  0.1056 -0.3107 -0.2284
  258TMC3    C2 3958   4.309   1.140  13.825  0.2997  0.1039 -0.3816
  258TMC3    C3 3959   4.265   1.017  13.858  0.5809  0.2530  0.1755
  258TMC3    C4 3960   4.415   1.165  14.035  0.2509 -0.2829 -0.4129
  258TMC3    C5 3961   4.375   1.037  14.062 -0.6228 -0.9385  0.2272
  258TMC3    C6 3962   4.295   0.966  13.980  0.0748 -0.2236 -0.6158
  258TMC3     C 3963   4.382   1.365  13.907  0.0724 -0.4306  0.2029
  258TMC3     O 3964   4.437   1.423  14.000  0.9011 -0.4910 -0.6447
  258TMC3     H 3965   4.307   1.165  13.719  0.7170 -0.1722 -0.4535
  258TMC3    H1 3966   4.459   1.228  14.111 -0.3353 -0.1572 -0.1789
  258TMC3    H2 3967   4.236   0.883  14.016 -1.0035  0.2590 -1.2399
  258TMC3    C7 3968   4.408   0.978  14.195 -0.3425 -0.9592  0.3652
  258TMC3    C8 3969   4.231   0.914  13.758 -0.2855  0.0130 -0.4756
  258TMC3    O1 3970   4.313   0.919  14.247  0.3682 -0.8059  0.1469
  258TMC3    O2 3971   4.216   0.798  13.795 -0.4438 -0.7070  0.4178
  259MPD2     C 3972   2.744   3.580   0.361  0.1335  0.3487 -0.3330
  259MPD2    C1 3973   2.875   3.598   0.373 -0.5092 -0.3036  0.3306
  259MPD2    C2 3974   2.947   3.595   0.256  0.0169 -0.3045  0.0969
  259MPD2    C3 3975   2.886   3.584   0.131 -0.6056 -0.1925  0.0633
  259MPD2    C4 3976   2.748   3.570   0.127 -0.2777 -0.7811  0.0100
  259MPD2    C5 3977   2.678   3.557   0.242  0.6061  0.7146  0.0066
  259MPD2     H 3978   3.054   3.609   0.270  0.2099 -1.5841 -0.0489
  259MPD2    H1 3979   2.690   3.554   0.037  1.7951 -0.1569 -1.4466
  259MPD2    H2 3980   2.691   3.579   0.455  0.8050 -3.8500  0.0118
  259MPD2    H3 3981   2.571   3.541   0.251  0.6144 -0.6283 -2.3009
  259MPD2     N 3982   2.967   3.587   0.018  0.2526  0.7483  0.0891
  259MPD2    H5 3983   3.068   3.590   0.027  0.1893 -1.4974  1.4390
  259MPD2    N1 3984   2.934   3.592   0.507  0.2668 -0.8034 -0.0370
  259MPD2    H7 3985   2.866   3.585   0.582  0.7451 -1.1865  0.3609
  260TMC3    C1 3986   3.030   3.494  17.572  0.1400 -0.3485 -0.3395
  260TMC3    C2 3987   3.149   3.559  17.573 -0.2564  0.0618 -0.5550
  260TMC3    C3 3988   3.259   3.483  17.537  0.3885 -0.2664 -0.6471
  260TMC3    C4 3989   3.008   3.374  17.508 -0.7732  0.4298 -0.5533
  260TMC3    C5 3990   3.122   3.309  17.471  0.5553 -0.4027 -0.2187
  260TMC3    C6 3991   3.252   3.357  17.484  0.4753  0.2680  0.2822
  260TMC3     C 3992   2.927   3.542  17.658  0.9807 -0.1838 -0.2949
  260TMC3     O 3993   2.815   3.530  17.611 -0.7711  0.7227 -0.1518
  260TMC3     H 3994   3.156   3.646  17.638  2.5043 -0.5788  0.0135
  260TMC3    H1 3995   2.913   3.324  17.515  0.4892 -1.7079  1.3093
  260TMC3    H2 3996   3.342   3.302  17.459 -0.1443 -0.8385  0.4877
  260TMC3    C7 3997   3.119   3.159  17.467  0.0957  0.5572 -0.7713
  260TMC3    C8 3998   3.372   3.517  17.617 -0.5089 -0.0028 -0.1511
  260TMC3    O1 3999   3.218   3.100  17.429 -0.4802  0.1704 -0.0107
  260TMC3    O2 4000   3.397   3.636  17.621 -0.0548 -0.1510  0.1962
  261MPD2     C 4001   0.262   1.443  13.093  0.7492 -0.5494  0.0125
  261MPD2    C1 4002   0.354   1.452  12.989  0.2107  0.0265 -0.3387
  261MPD2    C2 4003   0.311   1.494  12.868 -0.0228 -0.2011  0.1782
  261MPD2    C3 4004   0.187   1.535  12.845  0.4401  0.6359  0.1568
  261MPD2    C4 4005   0.092   1.519  12.945 -0.1225  0.4718 -0.3472
  261MPD2    C5 4006   0.137   1.481  13.068 -0.4194  0.0643  0.7244
  261MPD2     H 4007   0.378   1.501  12.783  2.1888  1.7957  2.1037
  261MPD2    H1 4008   4.728   1.543  12.931 -0.7933 -1.2536  1.6228
  261MPD2    H2 4009   0.281   1.414  13.196 -1.7854 -1.0018  0.3440
  261MPD2    H3 4010   0.065   1.466  13.148 -0.5902 -0.4759  0.4711
  261MPD2     N 4011   0.157   1.582  12.720 -0.8445  0.5599  0.1235
  261MPD2    H5 4012   0.232   1.572  12.653  1.9503 -1.0145  3.4616
  261MPD2    N1 4013   0.488   1.423  13.004 -0.5880 -0.2878 -0.6596
  261MPD2    H7 4014   0.540   1.446  12.920  0.4119  1.6266  0.4720
  262TMC3    C1 4015   0.042   1.697  12.548  1.0421 -0.1785 -0.4089
  262TMC3    C2 4016   4.669   1.763  12.516 -0.0426  0.3188  0.8963
  262TMC3    C3 4017   4.662   1.827  12.398 -0.6122  0.2723  0.2234
  262TMC3    C4 4018   0.148   1.678  12.461  0.2702 -0.5590 -0.0979
  262TMC3    C5 4019   0.140   1.749  12.343  0.6000 -0.7510 -0.2899
  262TMC3    C6 4020   0.027   1.820  12.313 -0.5014  0.3530  0.4414
  262TMC3     C 4021   0.036   1.634  12.682  0.0030  0.5354  0.8099
  262TMC3     O 4022   4.676   1.649  12.748  0.2024  0.7583 -0.2911
  262TMC3     H 4023   4.606   1.790  12.600 -3.5227 -1.6499 -1.0951
  262TMC3    H1 4024   0.239   1.625  12.489 -0.2163 -1.9450 -1.1515
  262TMC3    H2 4025   0.018   1.882  12.225  0.5281  1.0542  0.8191
  262TMC3    C7 4026   0.242   1.723  12.236  0.2009  0.2715  0.0137
  262TMC3    C8 4027   4.578   1.938  12.378  0.1215  0.1658  0.0438
  262TMC3    O1 4028   0.364   1.742  12.250  0.4036 -0.0518  0.0532
  262TMC3    O2 4029   4.597   2.022  12.292 -0.5829  0.2354 -0.8581
  263MPD2     C 4030   1.084   1.106  11.725 -0.1837 -0.1197  0.3880
  263MPD2    C1 4031   1.212   1.103  11.672  0.8631 -0.5429  0.0219
  263MPD2    C2 4032   1.242   1.170  11.551 -0.0071  0.2841 -0.0883
  263MPD2    C3 4033   1.141   1.228  11.484  0.3340 -0.2739 -0.0777
  263MPD2    C4 4034   1.012   1.234  11.538  0.3486 -0.7470 -0.1185
  263MPD2    C5 4035   0.985   1.176  11.657 -0.3487 -0.0998 -0.1879
  263MPD2     H 4036   1.344   1.167  11.514  0.2493  3.3486  0.4037
  263MPD2    H1 4037   0.930   1.296  11.506  0.1637 -0.4851  0.8549
  263MPD2    H2 4038   1.057   1.068  11.823  1.2276 -1.1977  0.3588
  263MPD2    H3 4039   0.886   1.202  11.694 -1.2785 -1.4950 -1.6774
  263MPD2     N 4040   1.167   1.289  11.357 -0.8010 -0.2932 -0.6685
  263MPD2    H5 4041   1.262   1.274  11.324 -0.2707 -0.4599  0.9147
  263MPD2    N1 4042   1.315   1.026  11.729  0.0013  0.0471  0.3470
  263MPD2    H7 4043   1.405   1.053  11.691 -0.7582  2.8816  0.5374
  264TMC3    C1 4044   1.135   1.413  11.158  0.0613  0.7197  0.4222
  264TMC3    C2 4045   1.075   1.520  11.104 -1.0382  0.6700  0.1205
  264TMC3    C3 4046   1.120   1.584  10.996  0.6476 -0.0423 -0.0737
  264TMC3    C4 4047   1.238   1.353  11.089 -0.2881  0.1062  0.0881
  264TMC3    C5 4048   1.285   1.415  10.974 -0.8812 -0.8370 -0.1578
  264TMC3    C6 4049   1.224   1.529  10.928 -0.2757 -0.1001  0.1066
  264TMC3     C 4050   1.070   1.351  11.278 -0.0271 -1.0534  0.2629
  264TMC3     O 4051   0.953   1.380  11.299 -0.5349  0.6026  0.1864
  264TMC3     H 4052   0.978   1.547  11.144 -0.9521  0.0252  0.7569
  264TMC3    H1 4053   1.283   1.257  11.111 -2.7665 -1.2191 -0.6338
  264TMC3    H2 4054   1.251   1.572  10.832  0.1656 -0.5045  0.0494
  264TMC3    C7 4055   1.430   1.405  10.949 -0.4931  0.3861  0.6506
  264TMC3    C8 4056   1.175   1.710  11.035  0.0779  0.5989 -0.3346
  264TMC3    O1 4057   1.497   1.300  10.930 -0.0419  0.4841 -0.0196
  264TMC3    O2 4058   1.273   1.740  10.967 -0.0410 -0.1387 -0.2378
  265MPD2     C 4059   3.355   1.392  15.580  0.5649 -0.0640  0.1676
  265MPD2    C1 4060   3.372   1.502  15.496  0.1932 -0.8788  0.1471
  265MPD2    C2 4061   3.444   1.488  15.384 -0.5207 -0.5232  0.1376
  265MPD2    C3 4062   3.491   1.358  15.345  0.0273 -0.2657 -0.1894
  265MPD2    C4 4063   3.466   1.253  15.425 -0.2922  0.2188 -0.0885
  265MPD2    C5 4064   3.397   1.269  15.543  0.0385 -0.5780  0.5456
  265MPD2     H 4065   3.456   1.576  15.322 -0.1529 -0.7167 -0.0656
  265MPD2    H1 4066   3.509   1.155  15.414 -1.2085 -0.1892  0.0044
  265MPD2    H2 4067   3.304   1.397  15.676 -2.0193  2.2518 -1.3176
  265MPD2    H3 4068   3.372   1.188  15.612  0.9039  0.2771  1.8538
  265MPD2     N 4069   3.575   1.336  15.230 -0.2238  0.2621 -0.3669
  265MPD2    H5 4070   3.597   1.237  15.218 -0.0507  0.1805  0.5590
  265MPD2    N1 4071   3.334   1.638  15.533  0.2084  0.2936  0.3659
  265MPD2    H7 4072   3.375   1.710  15.474 -3.6055  1.8455 -0.4042
  266TMC3    C1 4073   3.263   1.814  15.682  0.0606 -0.2401  1.2990
  266TMC3    C2 4074   3.249   1.843  15.816 -0.0134 -0.1458 -0.0660
  266TMC3    C3 4075   3.270   1.973  15.850 -0.6907 -0.3205  0.3888
  266TMC3    C4 4076   3.261   1.902  15.580 -0.8132  0.2905 -0.2032
  266TMC3    C5 4077   3.273   2.029  15.627  0.3016 -0.2757  0.6927
  266TMC3    C6 4078   3.276   2.072  15.757  0.6564 -0.5404  0.2108
  266TMC3     C 4079   3.270   1.674  15.647  0.2047 -0.2526 -0.1459
  266TMC3     O 4080   3.231   1.608  15.744 -0.1044 -0.5070  0.0749
  266TMC3     H 4081   3.262   1.764  15.889 -0.1582 -1.2207 -1.1856
  266TMC3    H1 4082   3.265   1.877  15.474 -0.2450  2.9260 -0.7988
  266TMC3    H2 4083   3.280   2.176  15.786 -1.0505 -0.0651 -1.2794
  266TMC3    C7 4084   3.294   2.129  15.521 -0.7855 -0.3004 -1.1473
  266TMC3    C8 4085   3.268   2.005  15.988  0.7243  0.4243  0.4725
  266TMC3    O1 4086   3.230   2.103  15.416 -0.7608 -0.1623 -0.4900
  266TMC3    O2 4087   3.197   1.938  16.059 -1.0001  0.3914  0.0952
  267MPD2     C 4088   0.675   2.619   0.334  0.4136  0.3701  0.2234
  267MPD2    C1 4089   0.759   2.724   0.298  0.1150 -0.0131  0.5469
  267MPD2    C2 4090   0.766   2.754   0.158 -0.2135 -0.4466  0.1657
  267MPD2    C3 4091   0.689   2.678   0.065  0.0662  0.2286 -0.1327
  267MPD2    C4 4092   0.611   2.572   0.107  0.2432  0.1850  0.2272
  267MPD2    C5 4093   0.603   2.548   0.246 -0.0382 -0.9823  0.4808
  267MPD2     H 4094   0.830   2.834   0.123 -0.4159 -0.1526  0.4665
  267MPD2    H1 4095   0.551   2.518   0.034  0.7551 -1.1575  0.8021
  267MPD2    H2 4096   0.660   2.601   0.440  2.1603 -2.3282  0.0115
  267MPD2    H3 4097   0.537   2.468   0.278  0.9863 -1.8237  0.5134
  267MPD2     N 4098   0.701   2.716  17.688 -0.4386  0.0002 -0.4818
  267MPD2    H5 4099   0.770   2.784  17.661 -1.8738  1.3578 -0.7401
  267MPD2    N1 4100   0.819   2.798   0.401 -0.0887  0.5971  0.3094
  267MPD2    H7 4101   0.811   2.758   0.493 -0.6610 -0.2589 -0.1160
  268TMC3    C1 4102   0.898   2.996   0.500  0.0686 -0.2048 -0.4823
  268TMC3    C2 4103   0.955   3.117   0.488  0.0007  0.3590  0.3248
  268TMC3    C3 4104   1.006   3.177   0.601 -0.3052  0.2417 -0.2433
  268TMC3    C4 4105   0.881   2.940   0.626  0.7953 -0.3814 -0.1571
  268TMC3    C5 4106   0.923   3.009   0.738 -0.2079  0.3466 -0.4644
  268TMC3    C6 4107   0.988   3.128   0.720 -0.3251  0.3720  0.0318
  268TMC3     C 4108   0.875   2.922   0.376 -0.2281  0.1927  0.2468
  268TMC3     O 4109   0.883   2.986   0.271 -0.3681 -0.3419 -0.5097
  268TMC3     H 4110   0.968   3.159   0.389 -2.9153  0.7224  0.0926
  268TMC3    H1 4111   0.824   2.849   0.638  0.5467 -0.0706  0.9304
  268TMC3    H2 4112   1.019   3.187   0.805 -0.3433 -0.4447  0.6083
  268TMC3    C7 4113   0.925   2.929   0.864 -1.1609  0.1533  0.8098
  268TMC3    C8 4114   1.058   3.312   0.588 -0.7273 -0.4077  0.3337
  268TMC3    O1 4115   0.892   2.814   0.853  0.1245  0.5453 -0.1737
  268TMC3    O2 4116   1.076   3.379   0.689 -0.3515  0.0074  0.1733
  269MPD2     C 4117   1.654   2.176  15.751  0.2152  0.0781 -0.3962
  269MPD2    C1 4118   1.519   2.210  15.774 -0.6393  0.3597  0.8120
  269MPD2    C2 4119   1.470   2.329  15.721  0.3182 -0.0802  0.7784
  269MPD2    C3 4120   1.550   2.419  15.658  0.4170 -0.2547  0.1548
  269MPD2    C4 4121   1.680   2.387  15.637  0.2074 -0.6516 -0.3575
  269MPD2    C5 4122   1.734   2.269  15.686  0.2369 -0.9497  0.8262
  269MPD2     H 4123   1.372   2.371  15.739 -0.9785 -2.0884 -1.5547
  269MPD2    H1 4124   1.750   2.451  15.585 -0.5087  0.2042 -0.2725
  269MPD2    H2 4125   1.697   2.079  15.772  1.0138  0.7220  0.9369
  269MPD2    H3 4126   1.839   2.245  15.675  0.2057  0.5114 -2.6786
  269MPD2     N 4127   1.490   2.537  15.606  0.0495 -0.0285 -0.6397
  269MPD2    H5 4128   1.389   2.546  15.612  0.1223 -0.1596  0.7251
  269MPD2    N1 4129   1.436   2.124  15.849 -0.9169 -0.2565 -0.6133
  269MPD2    H7 4130   1.472   2.034  15.879  0.7418  0.0932 -1.5582
  270TMC3    C1 4131   1.250   2.062  15.975  0.3411  0.3236  0.4062
  270TMC3    C2 4132   1.114   2.043  15.953  0.0333  0.6539  0.5799
  270TMC3    C3 4133   1.038   1.956  16.029 -0.0672 -0.5822  0.1576
  270TMC3    C4 4134   1.312   1.997  16.074  0.8451  0.2630  0.0101
  270TMC3    C5 4135   1.229   1.912  16.153  0.1939  0.4122 -0.2803
  270TMC3    C6 4136   1.095   1.902  16.137  0.5077 -0.2738 -0.0638
  270TMC3     C 4137   1.313   2.160  15.891 -0.3068  0.0863 -0.0550
  270TMC3     O 4138   1.229   2.241  15.845  0.1922 -0.6056 -0.2395
  270TMC3     H 4139   1.071   2.084  15.862  0.2391 -1.3828 -0.4238
  270TMC3    H1 4140   1.419   2.005  16.091  0.6878  1.0042  0.6048
  270TMC3    H2 4141   1.044   1.816  16.182  0.1310 -0.0081  0.0208
  270TMC3    C7 4142   1.298   1.793  16.189 -0.2693 -0.2302 -0.4993
  270TMC3    C8 4143   0.933   1.892  15.968 -0.8367 -1.5664  0.7035
  270TMC3    O1 4144   1.402   1.766  16.127  0.2076  0.3938 -0.0108
  270TMC3    O2 4145   0.839   1.861  16.041  0.2458 -0.5782 -0.3437
  271MPD2     C 4146   0.377   1.555  14.202  0.3846  0.2618  0.6674
  271MPD2    C1 4147   0.365   1.634  14.312 -0.0550  0.7015 -0.2847
  271MPD2    C2 4148   0.254   1.720  14.327 -0.8721 -0.5256 -0.0370
  271MPD2    C3 4149   0.162   1.738  14.223 -0.4300 -1.0175  0.0606
  271MPD2    C4 4150   0.184   1.666  14.108  0.0126 -0.4554 -0.2697
  271MPD2    C5 4151   0.291   1.578  14.103 -0.7224 -0.9827 -0.1735
  271MPD2     H 4152   0.237   1.759  14.427 -0.7247 -2.2530  0.6578
  271MPD2    H1 4153   0.101   1.658  14.039 -0.3078  1.4230 -0.0853
  271MPD2    H2 4154   0.451   1.478  14.184 -1.7847 -1.2315 -1.9712
  271MPD2    H3 4155   0.290   1.518  14.013 -0.1772 -1.5686  0.2128
  271MPD2     N 4156   0.047   1.818  14.227  0.4900 -0.5179  0.2481
  271MPD2    H5 4157   0.003   1.831  14.137  3.2410  0.5233 -0.9461
  271MPD2    N1 4158   0.466   1.624  14.419  0.0270 -0.2510 -0.2888
  271MPD2    H7 4159   0.450   1.701  14.483  0.5737 -0.6495  0.3271
  272TMC3    C1 4160   0.644   1.536  14.552 -0.4021 -0.6502  0.0678
  272TMC3    C2 4161   0.776   1.505  14.546 -1.0961 -0.7714  0.5217
  272TMC3    C3 4162   0.834   1.489  14.669  0.5778 -0.0511 -0.9103
  272TMC3    C4 4163   0.568   1.553  14.663 -0.0101  1.2105  0.2215
  272TMC3    C5 4164   0.640   1.547  14.781 -0.0323  0.6779  0.2165
  272TMC3    C6 4165   0.770   1.531  14.786  0.6078 -0.0506  0.6383
  272TMC3     C 4166   0.576   1.535  14.421  0.6517 -0.4288  0.1541
  272TMC3     O 4167   0.629   1.475  14.328 -0.0338  0.1729  0.0965
  272TMC3     H 4168   0.820   1.480  14.450  0.3614  1.2859  0.6444
  272TMC3    H1 4169   0.461   1.572  14.665 -0.3203 -0.5575 -0.0427
  272TMC3    H2 4170   0.805   1.511  14.887 -2.7293  1.0531  2.0154
  272TMC3    C7 4171   0.574   1.585  14.896 -0.3073 -0.0094  0.1799
  272TMC3    C8 4172   0.974   1.443  14.679 -0.1107 -0.0651 -0.3955
  272TMC3    O1 4173   0.455   1.561  14.902 -1.1280 -0.2348 -0.2986
  272TMC3    O2 4174   1.051   1.466  14.584 -0.2993  0.3983  0.3367
  273MPD2     C 4175   1.357   0.438  12.089 -0.6022 -0.5631 -0.1269
  273MPD2    C1 4176   1.486   0.409  12.086  1.1385 -0.4810  0.3044
  273MPD2    C2 4177   1.548   0.418  11.965 -0.1652 -0.6859 -0.2563
  273MPD2    C3 4178   1.481   0.438  11.847 -0.1468  0.9312  0.5324
  273MPD2    C4 4179   1.341   0.464  11.852  0.3145  0.6867 -0.3116
  273MPD2    C5 4180   1.282   0.457  11.973  0.0833  0.2195  0.2065
  273MPD2     H 4181   1.656   0.403  11.968  0.2133  2.3143  1.0084
  273MPD2    H1 4182   1.288   0.485  11.760 -0.0445 -0.4768 -0.3605
  273MPD2    H2 4183   1.310   0.440  12.187  0.9232  2.5667  0.5512
  273MPD2    H3 4184   1.175   0.474  11.978  0.1074  0.6331 -0.6762
  273MPD2     N 4185   1.540   0.433  11.718 -0.0940 -0.0380  0.1899
  273MPD2    H5 4186   1.487   0.465  11.637 -1.3456  0.5374  1.2262
  273MPD2    N1 4187   1.547   0.370  12.212  0.2578 -0.2800 -0.0772
  273MPD2    H7 4188   1.492   0.338  12.291  3.1561 -0.2673  1.9708
  274TMC3    C1 4189   1.694   0.365  11.551 -1.0390 -0.1717  0.3922
  274TMC3    C2 4190   1.609   0.375  11.450 -0.6334 -0.6738 -0.7536
  274TMC3    C3 4191   1.659   0.397  11.327 -0.0796 -0.2634  0.6536
  274TMC3    C4 4192   1.827   0.383  11.529  0.8947  0.0583 -0.6565
  274TMC3    C5 4193   1.874   0.434  11.408 -0.5671  0.3173  0.1711
  274TMC3    C6 4194   1.793   0.416  11.294  0.6812  0.6073 -0.7387
  274TMC3     C 4195   1.656   0.370  11.692  0.3362 -0.1021 -0.0255
  274TMC3     O 4196   1.739   0.328  11.773 -0.5559 -0.0552  0.2071
  274TMC3     H 4197   1.502   0.358  11.447 -0.8347  0.2923  0.9195
  274TMC3    H1 4198   1.890   0.385  11.617 -0.9161 -1.7910  0.6730
  274TMC3    H2 4199   1.822   0.451  11.196 -1.0858  2.4067 -0.6291
  274TMC3    C7 4200   2.011   0.484  11.376 -0.1717 -0.2562 -0.5429
  274TMC3    C8 4201   1.568   0.382  11.211  0.3129 -0.6374 -0.3097
  274TMC3    O1 4202   2.026   0.490  11.254 -0.2708  0.1423  0.4771
  274TMC3    O2 4203   1.448   0.404  11.229  0.5787 -0.0043 -0.0578
  275MPD2     C 4204   2.092   2.666  14.711 -0.2330  0.5044  0.0351
  275MPD2    C1 4205   1.982   2.709  14.778  0.2276  0.4214 -0.5353
  275MPD2    C2 4206   1.862   2.654  14.750 -0.4924 -0.3638 -0.2307
  275MPD2    C3 4207   1.844   2.554  14.662  0.5810 -1.1874  0.1984
  275MPD2    C4 4208   1.956   2.495  14.605 -0.8000 -0.1508  0.0299
  275MPD2    C5 4209   2.079   2.553  14.630  0.2295 -0.1494  0.1058
  275MPD2     H 4210   1.778   2.700  14.801  1.5133  2.6603  0.3643
  275MPD2    H1 4211   1.945   2.410  14.539  0.3977  0.6334 -1.1660
  275MPD2    H2 4212   2.189   2.712  14.727 -0.0041 -0.9990  2.9092
  275MPD2    H3 4213   2.166   2.508  14.583  1.0949  0.8435  0.7729
  275MPD2     N 4214   1.710   2.518  14.619 -0.7857 -0.4768  0.2669
  275MPD2    H5 4215   1.711   2.437  14.557 -3.2568  1.1727 -1.9144
  275MPD2    N1 4216   1.982   2.822  14.865  0.4003 -0.0307 -0.0001
  275MPD2    H7 4217   1.895   2.841  14.913 -0.2460  0.4237 -1.3637
  276TMC3    C1 4218   2.068   3.005  14.988 -0.0330 -0.0611 -0.0160
  276TMC3    C2 4219   2.024   2.948  15.107  0.3512  0.1845  0.0737
  276TMC3    C3 4220   2.056   3.016  15.218 -0.9072 -0.0532 -0.1251
  276TMC3    C4 4221   2.139   3.119  14.976  0.3613  0.4177  0.0495
  276TMC3    C5 4222   2.172   3.183  15.090 -0.0052  0.2190 -0.4713
  276TMC3    C6 4223   2.122   3.137  15.211 -0.2288 -0.4075  0.5184
  276TMC3     C 4224   2.079   2.918  14.879  0.2156 -0.4702  0.1944
  276TMC3     O 4225   2.175   2.938  14.810 -0.1406  0.0914 -0.3968
  276TMC3     H 4226   1.978   2.850  15.115 -0.6775  0.7554  1.1770
  276TMC3    H1 4227   2.175   3.152  14.879 -1.5896 -0.0065 -0.8028
  276TMC3    H2 4228   2.167   3.172  15.303  0.1360  0.7234 -0.0825
  276TMC3    C7 4229   2.304   3.254  15.117 -0.4519  0.5459 -0.4338
  276TMC3    C8 4230   2.062   2.954  15.348  0.1361 -0.0147 -0.1725
  276TMC3    O1 4231   2.351   3.243  15.230 -0.1919 -0.0839 -0.0791
  276TMC3    O2 4232   2.061   3.019  15.451  0.6874  0.2099 -0.2338
  277MPD2     C 4233   3.639   1.760  13.409 -0.6027  0.0950 -0.2523
  277MPD2    C1 4234   3.512   1.811  13.385 -0.6655  0.7596 -0.1001
  277MPD2    C2 4235   3.405   1.749  13.452  0.1722 -0.4700  0.6521
  277MPD2    C3 4236   3.417   1.648  13.545  0.9771 -0.0052  0.0982
  277MPD2    C4 4237   3.539   1.595  13.559 -0.3478  0.1030 -0.1471
  277MPD2    C5 4238   3.646   1.652  13.502  0.3034  0.1213 -0.2349
  277MPD2     H 4239   3.307   1.794  13.450 -0.6269 -2.1530  2.1628
  277MPD2    H1 4240   3.563   1.502  13.611  2.1641  0.7572 -0.1084
  277MPD2    H2 4241   3.728   1.793  13.357 -1.6212 -0.1070 -2.1088
  277MPD2    H3 4242   3.743   1.605  13.518  1.0154  2.3140  1.7584
  277MPD2     N 4243   3.308   1.594  13.615  0.2358  0.6173 -0.0298
  277MPD2    H5 4244   3.228   1.657  13.606  1.0064  1.7351  0.9646
  277MPD2    N1 4245   3.487   1.930  13.312 -0.4787 -0.0906 -0.0368
  277MPD2    H7 4246   3.569   1.987  13.292  0.9604 -1.7400  1.1675
  278TMC3    C1 4247   3.161   1.420  13.705 -0.0346  0.0623  0.5700
  278TMC3    C2 4248   3.141   1.291  13.719 -0.1331 -0.5185  0.2918
  278TMC3    C3 4249   3.012   1.247  13.731  0.1522  0.8365 -0.4410
  278TMC3    C4 4250   3.061   1.517  13.724 -0.1440  0.4332 -0.0239
  278TMC3    C5 4251   2.930   1.469  13.746  0.6291 -0.3686 -0.1727
  278TMC3    C6 4252   2.912   1.333  13.760  0.1728  0.6125 -0.5804
  278TMC3     C 4253   3.298   1.464  13.666  0.9813 -0.2114 -0.2712
  278TMC3     O 4254   3.378   1.371  13.663 -0.0750  0.0175 -0.3291
  278TMC3     H 4255   3.217   1.214  13.720  3.0035  2.5410 -0.0957
  278TMC3    H1 4256   3.076   1.623  13.707  2.5427  0.1105  0.3937
  278TMC3    H2 4257   2.816   1.293  13.789 -0.7535  1.9758 -1.7066
  278TMC3    C7 4258   2.842   1.571  13.804  0.8557 -0.5983  0.1658
  278TMC3    C8 4259   2.988   1.105  13.705 -0.3106  0.5972  0.5383
  278TMC3    O1 4260   2.886   1.688  13.815 -0.3106 -0.1465 -0.5195
  278TMC3    O2 4261   3.081   1.032  13.738  0.2628  0.1191  0.2406
  279MPD2     C 4262   2.570   1.322   0.214  0.3632 -0.2562  0.5306
  279MPD2    C1 4263   2.508   1.420   0.129  0.4207 -0.3983  0.3254
  279MPD2    C2 4264   2.574   1.459   0.005  0.7246  0.1027  0.2250
  279MPD2    C3 4265   2.682   1.381  17.726 -0.1860 -0.1679 -0.1776
  279MPD2    C4 4266   2.728   1.277   0.048 -0.1278  0.3467 -0.7084
  279MPD2    C5 4267   2.679   1.254   0.175  0.3453 -0.2699  0.0557
  279MPD2     H 4268   2.539   1.537  17.700 -1.0130 -0.2799  0.7025
  279MPD2    H1 4269   2.817   1.221   0.022 -0.5664 -1.1270  0.9242
  279MPD2    H2 4270   2.537   1.311   0.316  0.2080 -2.6955  0.2069
  279MPD2    H3 4271   2.717   1.172   0.235 -2.0371 -0.2383  1.6064
  279MPD2     N 4272   2.750   1.400  17.601 -0.1001 -0.6334  0.0622
  279MPD2    H5 4273   2.820   1.331  17.576  0.1234 -1.2131  2.2888
  279MPD2    N1 4274   2.377   1.467   0.163 -0.2022  0.3538  0.0599
  279MPD2    H7 4275   2.333   1.409   0.233 -0.4270 -1.0987 -1.2731
  280TMC3    C1 4276   2.168   1.586   0.136  0.8570 -0.2201  0.0138
  280TMC3    C2 4277   2.131   1.562   0.267 -0.4128  0.1070 -0.4443
  280TMC3    C3 4278   1.999   1.574   0.290  0.1349 -0.1364 -0.0393
  280TMC3    C4 4279   2.083   1.617   0.034  0.3170 -0.7783 -0.1922
  280TMC3    C5 4280   1.953   1.642   0.066 -0.6395  0.5253 -0.2485
  280TMC3    C6 4281   1.910   1.615   0.196 -1.2438  0.4435  0.5697
  280TMC3     C 4282   2.308   1.565   0.094 -0.2665  0.4717 -0.0544
  280TMC3     O 4283   2.354   1.658   0.026 -0.8765 -0.1223  0.5760
  280TMC3     H 4284   2.193   1.527   0.350 -0.5537  0.0988 -0.3429
  280TMC3    H1 4285   2.124   1.641  17.696  0.2424  2.8588  0.6371
  280TMC3    H2 4286   1.810   1.636   0.230 -1.4693  0.1405  0.1075
  280TMC3    C7 4287   1.861   1.672  17.723  0.4337 -0.1520  0.0733
  280TMC3    C8 4288   1.949   1.583   0.427  0.5314 -0.1734  0.4393
  280TMC3    O1 4289   1.893   1.690  17.605 -0.1642  0.1385  0.4579
  280TMC3    O2 4290   1.836   1.550   0.442 -0.7555 -0.5021 -0.5775
  281TMC3    C1 4291   1.862   1.948  13.873 -0.3705  0.4049 -0.4825
  281TMC3    C2 4292   1.974   2.011  13.824 -0.3672  0.0991 -1.0840
  281TMC3    C3 4293   2.074   1.937  13.767  0.0892 -0.2637 -0.3957
  281TMC3    C4 4294   1.860   1.809  13.881 -0.0654 -0.2434 -0.8549
  281TMC3    C5 4295   1.961   1.737  13.821  0.9952 -0.2305 -0.0553
  281TMC3    C6 4296   2.072   1.796  13.768 -0.7712  0.7329  0.1267
  281TMC3     C 4297   1.724   1.997  13.850 -0.4679  0.8333  0.0046
  281TMC3     O 4298   1.636   1.914  13.854 -0.1746  0.4788  0.6645
  281TMC3     H 4299   1.978   2.120  13.824  1.9954  0.0144 -0.5422
  281TMC3    H1 4300   1.787   1.757  13.941  0.6508 -1.8167 -1.3521
  281TMC3    H2 4301   2.149   1.734  13.727 -1.2287 -0.9425  1.7945
  281TMC3    C7 4302   1.955   1.589  13.833  0.3699  0.2171 -0.0792
  281TMC3    C8 4303   2.197   1.992  13.702 -0.2155 -0.8565  0.0225
  281TMC3    O1 4304   2.064   1.533  13.820 -0.1729  0.2741 -0.3091
  281TMC3    O2 4305   2.305   1.925  13.699 -0.3152 -0.3844 -0.3951
  282MPD2     C 4306   3.653   3.375  14.834 -0.1787  0.3298 -0.9279
  282MPD2    C1 4307   3.532   3.394  14.897 -0.4555  0.2893 -0.1079
  282MPD2    C2 4308   3.421   3.351  14.830  0.0393 -0.3787 -0.0313
  282MPD2    C3 4309   3.431   3.314  14.696 -0.3206  0.9350 -0.2167
  282MPD2    C4 4310   3.551   3.305  14.631 -0.1038  0.4822 -0.1806
  282MPD2    C5 4311   3.666   3.331  14.704 -0.3390 -0.1822 -0.8914
  282MPD2     H 4312   3.320   3.350  14.868 -0.1416 -0.9753 -0.5236
  282MPD2    H1 4313   3.564   3.273  14.528  1.4069  0.9121 -0.1291
  282MPD2    H2 4314   3.748   3.393  14.883 -0.4239  0.4154 -0.4832
  282MPD2    H3 4315   3.759   3.326  14.649  0.0204 -1.2639 -0.1911
  282MPD2     N 4316   3.308   3.287  14.629  0.0085 -0.4024  0.1408
  282MPD2    H5 4317   3.226   3.316  14.681 -1.1360 -0.8879 -1.4084
  282MPD2    N1 4318   3.505   3.439  15.030  0.2358  0.9722  0.4939
  282MPD2    H7 4319   3.410   3.471  15.042 -1.2446 -2.9026 -0.9392
  283TMC3    C1 4320   3.561   3.523  15.244 -0.1353 -0.2709  0.7048
  283TMC3    C2 4321   3.648   3.613  15.297 -0.4559  0.6329 -0.5555
  283TMC3    C3 4322   3.612   3.683  15.406  0.0089 -0.4727  0.1343
  283TMC3    C4 4323   3.437   3.496  15.304  0.5372  0.0717  0.2391
  283TMC3    C5 4324   3.406   3.570  15.421 -0.6345  0.5844 -0.3545
  283TMC3    C6 4325   3.490   3.665  15.464  0.7032  0.4165 -0.2882
  283TMC3     C 4326   3.610   3.455  15.121 -0.4311 -0.1622 -0.3932
  283TMC3     O 4327   3.730   3.422  15.114  1.1520  0.8246  0.4007
  283TMC3     H 4328   3.742   3.645  15.253  1.2749  0.7503  3.2395
  283TMC3    H1 4329   3.378   3.411  15.271 -0.0117 -0.0641  1.5849
  283TMC3    H2 4330   3.449   3.714  15.553  0.4023 -0.4972  0.0729
  283TMC3    C7 4331   3.319   3.506  15.525  0.6272 -0.3558 -0.1373
  283TMC3    C8 4332   3.689   3.794  15.461  0.8058  0.0534 -0.1761
  283TMC3    O1 4333   3.317   3.562  15.635 -0.5978  0.3257 -0.8777
  283TMC3    O2 4334   3.809   3.783  15.444  0.4271 -0.2718 -0.0500
  284MPD2     C 4335   0.910   2.636  11.824  0.1542  0.5524  0.4065
  284MPD2    C1 4336   1.040   2.647  11.860 -0.0598 -0.2364 -0.1037
  284MPD2    C2 4337   1.083   2.595  11.980 -0.2780 -0.3681  0.7782
  284MPD2    C3 4338   1.001   2.527  12.059  0.2192 -0.3531 -0.2107
  284MPD2    C4 4339   0.872   2.512  12.023  0.3143  0.9012  0.2125
  284MPD2    C5 4340   0.828   2.571  11.911 -0.4437  0.4898 -0.1158
  284MPD2     H 4341   1.184   2.604  12.017  0.2449 -2.0147 -0.2291
  284MPD2    H1 4342   0.797   2.469  12.088 -0.1950  0.5084 -0.6290
  284MPD2    H2 4343   0.872   2.696  11.742  0.1034  0.0405  0.0586
  284MPD2    H3 4344   0.724   2.577  11.879 -0.4419 -1.8570 -0.5003
  284MPD2     N 4345   1.049   2.486  12.183 -0.3047 -0.3598  0.3569
  284MPD2    H5 4346   1.143   2.516  12.207  0.1163  0.0164 -1.7482
  284MPD2    N1 4347   1.138   2.719  11.788  0.4624  0.3707  0.1350
  284MPD2    H7 4348   1.231   2.721  11.828  0.5102 -3.9242  0.2299
  285TMC3    C1 4349   1.235   2.833  11.613 -0.4579  0.7544  0.9898
  285TMC3    C2 4350   1.344   2.751  11.634 -1.3229  0.0077  0.9987
  285TMC3    C3 4351   1.473   2.805  11.643  0.5452 -0.2955  0.3913
  285TMC3    C4 4352   1.251   2.966  11.591  0.2314  0.2472 -0.2383
  285TMC3    C5 4353   1.374   3.019  11.608  0.9605 -0.2947 -0.4827
  285TMC3    C6 4354   1.486   2.940  11.631 -0.8019  0.9575 -0.4128
  285TMC3     C 4355   1.116   2.797  11.683  0.0026 -0.5966  0.4135
  285TMC3     O 4356   1.010   2.840  11.644  0.1408  0.0816 -0.6137
  285TMC3     H 4357   1.323   2.645  11.642 -0.9264 -0.3455 -2.6019
  285TMC3    H1 4358   1.164   3.031  11.591 -0.0363 -0.1104  1.2398
  285TMC3    H2 4359   1.586   2.983  11.625 -0.2172 -0.8596 -4.1966
  285TMC3    C7 4360   1.382   3.165  11.619 -0.4357  0.1450  0.1658
  285TMC3    C8 4361   1.585   2.713  11.634  0.3834  0.3781 -0.0835
  285TMC3    O1 4362   1.295   3.228  11.560 -0.2793 -0.2662 -0.2417
  285TMC3    O2 4363   1.554   2.594  11.617 -0.3675  0.5781  0.2682
  286MPD2     C 4364   1.297   0.699   1.335 -0.2376 -0.7292 -0.3445
  286MPD2    C1 4365   1.327   0.787   1.238  0.7073  1.0068  0.4460
  286MPD2    C2 4366   1.399   0.749   1.131 -1.0106 -0.3837 -0.1550
  286MPD2    C3 4367   1.449   0.621   1.115 -0.3650  0.3778  0.3621
  286MPD2    C4 4368   1.435   0.533   1.222  0.3078 -0.1560  0.4754
  286MPD2    C5 4369   1.360   0.573   1.335  0.4020 -0.3965 -0.4379
  286MPD2     H 4370   1.417   0.811   1.044  2.2546 -1.5511 -0.3495
  286MPD2    H1 4371   1.494   0.443   1.229  0.7278 -0.0508 -1.7389
  286MPD2    H2 4372   1.241   0.722   1.425  0.6688 -3.0055  0.8182
  286MPD2    H3 4373   1.360   0.505   1.419 -0.6320 -0.5398 -0.5602
  286MPD2     N 4374   1.529   0.578   1.005  0.3467 -0.7253 -0.3321
  286MPD2    H5 4375   1.564   0.483   1.012 -2.1795 -1.7349 -1.0412
  286MPD2    N1 4376   1.292   0.926   1.250  0.1895 -0.5326 -0.1251
  286MPD2    H7 4377   1.322   0.994   1.182 -0.1079 -0.2771  0.0020
  287TMC3    C1 4378   1.653   0.559   0.817  0.9117  0.5570  0.2543
  287TMC3    C2 4379   1.650   0.562   0.680 -0.5160 -0.2734  0.1040
  287TMC3    C3 4380   1.756   0.520   0.608 -0.0111  0.8540 -0.1353
  287TMC3    C4 4381   1.765   0.522   0.886 -0.3097  0.3868 -0.3054
  287TMC3    C5 4382   1.872   0.477   0.811  0.0688  0.0415  0.7911
  287TMC3    C6 4383   1.868   0.477   0.671 -0.8737  0.5531 -0.3457
  287TMC3     C 4384   1.559   0.640   0.889  0.7114  0.9129 -0.2846
  287TMC3     O 4385   1.483   0.711   0.831  0.9202  0.4350 -0.1982
  287TMC3     H 4386   1.568   0.610   0.627  0.4705 -0.6565 -1.7756
  287TMC3    H1 4387   1.780   0.539   0.992  0.9436 -0.1664 -0.3873
  287TMC3    H2 4388   1.950   0.436   0.614 -1.7960  0.5766 -1.6809
  287TMC3    C7 4389   2.002   0.495   0.873 -0.8813 -0.2045 -0.3719
  287TMC3    C8 4390   1.748   0.463   0.477 -0.3556  0.1450  0.1503
  287TMC3    O1 4391   2.008   0.553   0.981 -0.2343 -0.1768 -0.2783
  287TMC3    O2 4392   1.829   0.375   0.452 -0.2556 -0.3155 -0.7533
  288TMC3    C1 4393   3.165   1.455  14.380  0.3332  0.0776 -0.6119
  288TMC3    C2 4394   3.232   1.414  14.496  0.4387  0.1367  0.5833
  288TMC3    C3 4395   3.206   1.289  14.547 -0.5352 -0.0832  0.0585
  288TMC3    C4 4396   3.067   1.380  14.329  0.1736  0.4333  0.1018
  288TMC3    C5 4397   3.055   1.254  14.382 -0.5190  0.4007  1.1067
  288TMC3    C6 4398   3.109   1.208  14.496  0.3885  0.1419 -0.2728
  288TMC3     C 4399   3.206   1.573  14.310  0.4788  0.0846  0.0811
  288TMC3     O 4400   3.145   1.599  14.206  0.7404  0.0059  0.5753
  288TMC3     H 4401   3.313   1.470  14.541 -0.6230  1.8777  0.3015
  288TMC3    H1 4402   3.023   1.407  14.234  0.0770  0.1847  0.0765
  288TMC3    H2 4403   3.070   1.117  14.541  0.4707  1.0330  1.5877
  288TMC3    C7 4404   3.036   1.147  14.290 -0.6828  0.1057  0.3843
  288TMC3    C8 4405   3.243   1.281  14.683 -0.6422  0.6812 -1.3041
  288TMC3    O1 4406   3.098   1.045  14.316 -0.6306  0.8148 -0.0723
  288TMC3    O2 4407   3.306   1.374  14.732  0.0610  0.2650 -0.3825
  289MPD2     C 4408   3.546   0.334  14.647  0.6353  0.5072  0.9026
  289MPD2    C1 4409   3.509   0.446  14.570  0.6283 -0.3489 -0.0670
  289MPD2    C2 4410   3.386   0.470  14.524 -0.3606  0.0813  0.6868
  289MPD2    C3 4411   3.291   0.371  14.552  0.5255  0.2582 -0.2086
  289MPD2    C4 4412   3.320   0.253  14.622  0.0366  0.3518 -0.6612
  289MPD2    C5 4413   3.445   0.242  14.670  0.8258  0.1308  0.5398
  289MPD2     H 4414   3.377   0.560  14.464 -2.4429 -0.0736  0.7641
  289MPD2    H1 4415   3.259   0.169  14.654  0.6768 -0.5985 -1.9229
  289MPD2    H2 4416   3.645   0.324  14.689  0.4490  0.2690  1.2894
  289MPD2    H3 4417   3.462   0.154  14.731 -2.8934 -1.4111 -0.6993
  289MPD2     N 4418   3.156   0.391  14.515 -0.5697 -0.4681 -0.8942
  289MPD2    H5 4419   3.092   0.313  14.527  0.8588 -1.0545  2.7928
  289MPD2    N1 4420   3.616   0.534  14.535  0.0037 -0.5376 -0.0395
  289MPD2    H7 4421   3.704   0.513  14.579 -0.1081 -0.6049  0.1522
  290TMC3    C1 4422   2.961   0.513  14.458 -0.4028  0.0139 -0.4413
  290TMC3    C2 4423   2.902   0.636  14.435  0.5058 -0.6397  1.0178
  290TMC3    C3 4424   2.761   0.636  14.447  0.1491 -0.0864  0.4274
  290TMC3    C4 4425   2.891   0.400  14.497  0.4025  0.0983  0.9909
  290TMC3    C5 4426   2.755   0.404  14.506 -0.7838  0.9834  0.1444
  290TMC3    C6 4427   2.686   0.523  14.481  0.5297  0.0893 -0.5098
  290TMC3     C 4428   3.107   0.510  14.474 -0.1621 -0.4559  0.4359
  290TMC3     O 4429   3.162   0.616  14.444 -0.8463 -0.2669  0.2167
  290TMC3     H 4430   2.954   0.726  14.404 -1.0621 -1.7646 -4.8147
  290TMC3    H1 4431   2.938   0.304  14.518 -0.9210 -0.9141 -0.7125
  290TMC3    H2 4432   2.578   0.530  14.489  0.3361 -3.3466 -0.1700
  290TMC3    C7 4433   2.686   0.299  14.576 -0.1337  0.5156  0.3785
  290TMC3    C8 4434   2.694   0.759  14.439  0.8670 -0.1072 -0.3001
  290TMC3    O1 4435   2.588   0.335  14.637  0.1139 -0.1291 -0.1990
  290TMC3    O2 4436   2.584   0.760  14.389  0.1654 -0.4157  0.4579
  291MPD2     C 4437   2.822   4.455   0.038 -0.0583 -0.2264  0.3595
  291MPD2    C1 4438   2.792   4.426   0.168  0.3172  0.3558  0.2021
  291MPD2    C2 4439   2.849   4.507   0.264 -0.2890 -0.0387 -0.5671
  291MPD2    C3 4440   2.929   4.619   0.229  0.8570  0.0096 -0.1426
  291MPD2    C4 4441   2.944   4.656   0.093 -0.4533  0.4853  0.4359
  291MPD2    C5 4442   2.893   4.571  17.759 -0.5241 -0.4535  0.7613
  291MPD2     H 4443   2.812   4.480   0.362 -0.6974  2.8097  0.0467
  291MPD2    H1 4444   3.008   0.000   0.071 -1.2747  1.2809  1.0973
  291MPD2    H2 4445   2.767   4.402  17.721 -1.6340  1.4158  0.3531
  291MPD2    H3 4446   2.904   4.595  17.654  1.2251 -0.4713  0.9423
  291MPD2     N 4447   2.994   4.686   0.327 -0.0781  0.9676 -0.0977
  291MPD2    H5 4448   3.063   0.015   0.298 -0.2837  0.7922 -1.0077
  291MPD2    N1 4449   2.707   4.322   0.217 -0.1017 -0.1721 -0.1126
  291MPD2    H7 4450   2.694   4.311   0.317  0.3158  0.1283 -0.0238
  292TMC3    C1 4451   2.569   4.127   0.210  0.2360 -0.3588  0.0315
  292TMC3    C2 4452   2.522   4.152   0.332 -0.5705 -0.3800 -0.3901
  292TMC3    C3 4453   2.446   4.049   0.392 -0.3016 -0.1356 -0.3787
  292TMC3    C4 4454   2.539   4.012   0.143 -0.3125 -0.0821  0.0645
  292TMC3    C5 4455   2.464   3.915   0.203 -0.2727 -0.1641 -0.0884
  292TMC3    C6 4456   2.412   3.932   0.330 -0.2416  0.1560 -0.7758
  292TMC3     C 4457   2.647   4.229   0.142 -0.7539 -0.5869 -0.2898
  292TMC3     O 4458   2.642   4.216   0.021 -0.2474 -0.4215  0.1996
  292TMC3     H 4459   2.539   4.242   0.391 -2.1143 -0.9277  0.8957
  292TMC3    H1 4460   2.581   3.991   0.046 -0.7142 -1.5817  0.2179
  292TMC3    H2 4461   2.390   3.847   0.393  1.8354 -0.3188 -0.6781
  292TMC3    C7 4462   2.428   3.797   0.121 -0.0021  0.0656 -0.2341
  292TMC3    C8 4463   2.421   4.065   0.531  0.1169  0.3846  1.4468
  292TMC3    O1 4464   2.482   3.780   0.012  0.2538 -0.0009 -0.2495
  292TMC3    O2 4465   2.497   4.133   0.601  0.0341 -0.4595 -0.4132
  293MPD2     C 4466   4.223   1.575  12.866 -0.2668  0.2814  0.2199
  293MPD2    C1 4467   4.167   1.500  12.961 -0.2152 -0.6949 -0.7028
  293MPD2    C2 4468   4.242   1.483  13.074  0.1750 -0.0526 -0.2329
  293MPD2    C3 4469   4.366   1.538  13.089  0.0446  0.1203  0.4984
  293MPD2    C4 4470   4.426   1.604  12.982  0.1739 -0.0318  0.0552
  293MPD2    C5 4471   4.347   1.629  12.877  0.3517  0.5196 -0.2649
  293MPD2     H 4472   4.206   1.431  13.162  0.8128 -0.0782  0.0170
  293MPD2    H1 4473   4.530   1.635  12.982  0.2707 -0.3461 -2.2447
  293MPD2    H2 4474   4.168   1.599  12.776 -0.7413 -0.5028  0.3043
  293MPD2    H3 4475   4.388   1.685  12.794  3.3785 -1.2420  0.0520
  293MPD2     N 4476   4.427   1.530  13.219  0.0084 -0.2535  0.3886
  293MPD2    H5 4477   4.389   1.461  13.283  0.0646  0.5139  1.2515
  293MPD2    N1 4478   4.033   1.467  12.947  0.5529  0.0118  0.4758
  293MPD2    H7 4479   3.981   1.491  12.863 -0.0701  0.5582  1.0145
  294TMC3    C1 4480   3.846   1.339  12.955  0.8907 -0.5059  0.0866
  294TMC3    C2 4481   3.826   1.212  12.911 -0.3083 -0.5938 -0.2756
  294TMC3    C3 4482   3.745   1.205  12.797  0.3849 -0.0607  0.1623
  294TMC3    C4 4483   3.801   1.449  12.890 -0.0583  0.3271  0.0857
  294TMC3    C5 4484   3.732   1.441  12.776  0.2310  0.2234 -0.7977
  294TMC3    C6 4485   3.699   1.314  12.727  0.0767  0.2899 -0.9798
  294TMC3     C 4486   3.970   1.368  13.020  0.3190 -0.2736  0.8668
  294TMC3     O 4487   4.001   1.287  13.106 -0.0561  0.6720  0.0342
  294TMC3     H 4488   3.859   1.120  12.959 -1.6219 -1.6683 -1.4170
  294TMC3    H1 4489   3.817   1.548  12.932 -0.8811  1.3320 -1.9191
  294TMC3    H2 4490   3.636   1.301  12.640 -0.6179 -0.9170 -0.3011
  294TMC3    C7 4491   3.778   1.535  12.671  0.3692 -0.1373 -0.3362
  294TMC3    C8 4492   3.727   1.078  12.737  0.1518  0.1044 -0.6799
  294TMC3    O1 4493   3.876   1.606  12.705 -0.1594 -0.0009 -0.1279
  294TMC3    O2 4494   3.813   0.993  12.744 -0.4482 -0.2053  0.3517
  295MPD2     C 4495   1.096   0.009   0.559 -0.2239  0.0232 -0.4404
  295MPD2    C1 4496   0.988   4.684   0.498  0.4543 -0.7775 -0.1821
  295MPD2    C2 4497   0.996   4.541   0.499 -0.1848 -0.3727 -0.5091
  295MPD2    C3 4498   1.107   4.473   0.545  0.4812 -0.0755 -0.2429
  295MPD2    C4 4499   1.211   4.540   0.607 -0.0326 -0.2107  0.4109
  295MPD2    C5 4500   1.199   4.679   0.623 -0.4140 -0.1257  0.7517
  295MPD2     H 4501   0.918   4.481   0.452 -1.1471 -0.6713  1.4690
  295MPD2    H1 4502   1.292   4.490   0.659  1.0406  1.4990  0.3636
  295MPD2    H2 4503   1.088   0.115   0.582  0.1711  0.0826 -0.5795
  295MPD2    H3 4504   1.273   4.734   0.680  1.0174 -0.9388 -0.3143
  295MPD2     N 4505   1.115   4.330   0.531 -0.1193 -0.1796 -0.0565
  295MPD2    H5 4506   1.184   4.283   0.588 -0.6499 -0.7799  0.0913
  295MPD2    N1 4507   0.879   0.012   0.436  0.9020 -0.0542 -0.0377
  295MPD2    H7 4508   0.810   4.697   0.387  1.0269 -1.1674  1.0310
  296TMC3    C1 4509   1.056   4.118   0.478 -0.6129 -0.1588 -0.5909
  296TMC3    C2 4510   1.070   4.084   0.610  0.2893  0.5378 -0.0794
  296TMC3    C3 4511   1.044   3.955   0.643  0.2121 -0.6155  0.1024
  296TMC3    C4 4512   1.007   4.029   0.383 -0.1812 -0.3231 -0.1977
  296TMC3    C5 4513   0.991   3.901   0.413  0.6104 -0.6576 -0.0942
  296TMC3    C6 4514   1.014   3.859   0.549  0.3651  0.1129 -0.3730
  296TMC3     C 4515   1.054   4.253   0.434 -0.3865 -0.1189  0.1211
  296TMC3     O 4516   0.979   4.276   0.341  0.0743 -0.4721 -0.5407
  296TMC3     H 4517   1.104   4.154   0.686  0.5664 -2.4035  2.4718
  296TMC3    H1 4518   0.994   4.060   0.280 -2.8889 -1.8054 -0.2974
  296TMC3    H2 4519   1.010   3.756   0.582  1.9990 -0.6493 -2.5378
  296TMC3    C7 4520   0.931   3.798   0.324 -0.2015 -0.0034 -0.5986
  296TMC3    C8 4521   1.032   3.910   0.779  0.4497  0.1715  0.1379
  296TMC3    O1 4522   0.913   3.823   0.208 -0.2814  0.0534  0.2975
  296TMC3    O2 4523   1.052   3.795   0.814  0.4489 -0.2091 -0.0865
  297MPD2     C 4524   2.516   2.148  16.629 -0.1675 -0.1733 -0.1626
  297MPD2    C1 4525   2.471   2.273  16.587 -0.9019  0.4748 -0.4163
  297MPD2    C2 4526   2.562   2.358  16.525 -0.3660 -0.5006 -0.2367
  297MPD2    C3 4527   2.699   2.313  16.505  0.3371  0.4923 -0.4411
  297MPD2    C4 4528   2.745   2.191  16.556  0.2928  0.4189  0.0108
  297MPD2    C5 4529   2.652   2.108  16.617 -0.3035  0.0703 -0.0142
  297MPD2     H 4530   2.521   2.452  16.489 -0.5641  0.1979  1.8212
  297MPD2    H1 4531   2.848   2.156  16.550  1.2347  3.0884  0.6417
  297MPD2    H2 4532   2.442   2.077  16.664  0.3071 -1.1088 -1.0848
  297MPD2    H3 4533   2.667   2.009  16.658 -0.9847 -0.7811 -1.8019
  297MPD2     N 4534   2.781   2.404  16.443 -0.1355 -0.2366 -0.0097
  297MPD2    H5 4535   2.737   2.495  16.434 -0.9255 -0.4883  1.2874
  297MPD2    N1 4536   2.343   2.313  16.581 -0.3396  0.3228  0.2714
  297MPD2    H7 4537   2.325   2.401  16.533  2.3000  1.3516  1.1750
  298TMC3    C1 4538   2.120   2.319  16.609  0.0173 -0.8146 -0.6204
  298TMC3    C2 4539   2.098   2.343  16.476  0.5736 -0.4583 -0.2445
  298TMC3    C3 4540   1.973   2.383  16.438  0.1101  0.2335  1.0037
  298TMC3    C4 4541   2.021   2.332  16.702 -0.3479  0.2565 -0.0826
  298TMC3    C5 4542   1.896   2.383  16.663  0.4465  0.0790 -0.2766
  298TMC3    C6 4543   1.871   2.399  16.527 -0.5744  0.3054  0.1463
  298TMC3     C 4544   2.239   2.248  16.641 -0.4607 -0.0144  0.4574
  298TMC3     O 4545   2.229   2.152  16.714 -0.6206  0.2615  1.0263
  298TMC3     H 4546   2.177   2.311  16.409  0.7163  0.5547 -0.5679
  298TMC3    H1 4547   2.045   2.331  16.808 -1.7549 -2.8417  0.2185
  298TMC3    H2 4548   1.775   2.436  16.493 -0.8388  0.2430  0.8299
  298TMC3    C7 4549   1.793   2.406  16.769  0.0297 -0.8707  0.9062
  298TMC3    C8 4550   1.949   2.447  16.308 -0.7476  0.3115  0.6479
  298TMC3    O1 4551   1.822   2.376  16.884  0.1692  0.0811  0.4568
  298TMC3    O2 4552   1.848   2.513  16.294  0.1220  0.0744  0.0133
  299MPD2     C 4553   3.203   1.814  11.276 -0.3789 -0.8818  0.0528
  299MPD2    C1 4554   3.145   1.923  11.220 -0.6079 -0.1466  0.3665
  299MPD2    C2 4555   3.054   1.899  11.115 -0.6885 -0.6456  0.5616
  299MPD2    C3 4556   3.035   1.769  11.060  0.1227 -0.1825  0.2512
  299MPD2    C4 4557   3.091   1.663  11.129  0.7455 -0.3028 -1.1815
  299MPD2    C5 4558   3.173   1.686  11.235  0.4787 -0.3622 -0.6200
  299MPD2     H 4559   3.005   1.985  11.070  2.0198  1.1136  0.9489
  299MPD2    H1 4560   3.073   1.559  11.102 -0.0888  0.1467 -2.3238
  299MPD2    H2 4561   3.283   1.825  11.349  0.2627 -1.2727 -0.5862
  299MPD2    H3 4562   3.215   1.598  11.282  3.4129  0.1982 -2.1879
  299MPD2     N 4563   2.951   1.735  10.952  0.6201  0.5073  0.5971
  299MPD2    H5 4564   2.930   1.636  10.941 -1.7280  0.8600  1.9819
  299MPD2    N1 4565   3.152   2.048  11.284  0.4622 -0.2755 -0.2922
  299MPD2    H7 4566   3.207   2.062  11.368 -2.0336  0.5957  1.2197
  300TMC3    C1 4567   2.780   1.771  10.792 -0.0948 -0.0670 -0.7675
  300TMC3    C2 4568   2.726   1.848  10.695  0.5186 -0.0307  0.0339
  300TMC3    C3 4569   2.596   1.817  10.660  0.0237 -0.6798  0.7176
  300TMC3    C4 4570   2.716   1.653  10.837 -0.1862  0.1677 -0.7599
  300TMC3    C5 4571   2.588   1.633  10.801  0.1048 -0.2799 -1.0466
  300TMC3    C6 4572   2.519   1.721  10.720 -0.0519  0.1199 -0.1967
  300TMC3     C 4573   2.884   1.830  10.880  0.4211 -0.0593 -0.0227
  300TMC3     O 4574   2.881   1.952  10.878 -0.8986 -0.0200  0.0311
  300TMC3     H 4575   2.789   1.921  10.644  0.3847  0.4280  0.5239
  300TMC3    H1 4576   2.752   1.597  10.922 -1.5188 -0.8398 -0.8577
  300TMC3    H2 4577   2.417   1.692  10.694  0.2958 -1.5849  0.3881
  300TMC3    C7 4578   2.511   1.578  10.910 -0.4255  0.0636  0.0635
  300TMC3    C8 4579   2.512   1.939  10.634  0.3011 -0.1545  0.4890
  300TMC3    O1 4580   2.558   1.495  10.985  0.2130 -0.4955 -0.0339
  300TMC3    O2 4581   2.566   2.048  10.630  0.3820 -0.1935  0.2600
  301MPD2     C 4582   0.167   3.416   0.485  0.4130  0.1272 -0.3572
  301MPD2    C1 4583   0.049   3.355   0.517 -0.2438 -0.7987 -0.3770
  301MPD2    C2 4584   4.737   3.262   0.426  0.5153 -0.1028 -0.4211
  301MPD2    C3 4585   0.060   3.227   0.310  0.0047 -0.7061  0.3764
  301MPD2    C4 4586   0.181   3.279   0.285  0.1889  0.1926 -0.6245
  301MPD2    C5 4587   0.236   3.374   0.379 -0.5063 -0.1376 -0.0538
  301MPD2     H 4588   4.641   3.217   0.450  0.2773  1.1860  1.0429
  301MPD2    H1 4589   0.245   3.262   0.200  1.4655 -1.6755  0.7081
  301MPD2    H2 4590   0.202   3.503   0.540 -1.4052  0.0750  0.8758
  301MPD2    H3 4591   0.326   3.430   0.354 -0.0965 -0.1075  1.5007
  301MPD2     N 4592   0.019   3.126   0.219 -0.0788  0.1525 -0.1194
  301MPD2    H5 4593   0.088   3.094   0.152 -2.0831  1.4230 -2.7847
  301MPD2    N1 4594   4.710   3.388   0.631  0.5780 -0.1913  0.0036
  301MPD2    H7 4595   4.615   3.353   0.625  1.0472 -1.3834 -0.4219
  302TMC3    C1 4596   4.640   2.937   0.155  0.5885  0.2980 -0.3338
  302TMC3    C2 4597   0.015   2.865   0.169 -0.3988  0.8070  0.2875
  302TMC3    C3 4598   0.006   2.724   0.167  0.1218  0.1696  0.8120
  302TMC3    C4 4599   4.518   2.875   0.141 -0.0052 -0.8056 -0.0911
  302TMC3    C5 4600   4.520   2.737   0.133  0.0323  0.3689  0.3519
  302TMC3    C6 4601   4.628   2.664   0.151 -0.5310 -0.5926 -0.2576
  302TMC3     C 4602   4.637   3.064   0.221  0.0829 -0.5307 -0.4043
  302TMC3     O 4603   4.537   3.101   0.282  0.2828 -0.3087 -0.0297
  302TMC3     H 4604   0.110   2.910   0.194 -0.0827  0.3479 -0.0955
  302TMC3    H1 4605   4.431   2.939   0.132  2.2635  2.1061 -1.3702
  302TMC3    H2 4606   4.623   2.556   0.153  0.1405 -0.5870  1.3459
  302TMC3    C7 4607   4.397   2.662   0.128 -0.3330 -0.5299  0.1996
  302TMC3    C8 4608   0.088   2.651   0.257 -0.0846 -1.2282  0.0786
  302TMC3    O1 4609   4.399   2.546   0.084  0.4031  0.0411 -0.4198
  302TMC3    O2 4610   0.033   2.563   0.324  0.3146 -0.3790  0.4949
  303MPD2     C 4611   0.049   1.942  10.900  0.2612  0.0375  0.0745
  303MPD2    C1 4612   4.727   1.844  10.823 -0.3354 -0.3978 -0.8893
  303MPD2    C2 4613   0.029   1.830  10.691 -0.5338  0.1465  1.0269
  303MPD2    C3 4614   0.135   1.901  10.638  0.6999 -0.4619  0.8914
  303MPD2    C4 4615   0.188   2.003  10.711  0.7849  1.0630 -0.4975
  303MPD2    C5 4616   0.147   2.016  10.839  0.7577  0.3954 -0.2425
  303MPD2     H 4617   4.711   1.770  10.621 -0.2343  1.3128 -0.2275
  303MPD2    H1 4618   0.273   2.064  10.679  1.0442  0.4732 -0.9274
  303MPD2    H2 4619   0.015   1.968  10.999 -1.6924  1.6368 -0.9986
  303MPD2    H3 4620   0.204   2.089  10.896 -2.0132  1.8754  0.6641
  303MPD2     N 4621   0.189   1.872  10.513  0.1601  1.1217 -0.0963
  303MPD2    H5 4622   0.268   1.929  10.484  2.3915 -2.5663 -1.2439
  303MPD2    N1 4623   4.612   1.779  10.867  0.9280  0.6930 -0.6191
  303MPD2    H7 4624   4.585   1.802  10.962  0.2370 -2.9816  0.0526
  304TMC3    C1 4625   4.401   1.656  10.862  0.0142  0.2311 -1.2455
  304TMC3    C2 4626   4.309   1.610  10.776 -0.2935  0.2508  0.1125
  304TMC3    C3 4627   4.224   1.511  10.819 -0.4467  0.0122 -0.5218
  304TMC3    C4 4628   4.423   1.599  10.988  0.5687  0.0923  0.1676
  304TMC3    C5 4629   4.340   1.496  11.025  0.1514 -0.4117  0.0757
  304TMC3    C6 4630   4.232   1.455  10.947  0.1017 -0.5036  0.7366
  304TMC3     C 4631   4.520   1.714  10.784 -0.4921 -0.4208 -0.2255
  304TMC3     O 4632   4.506   1.725  10.663  0.2775  0.2635  0.2266
  304TMC3     H 4633   4.286   1.661  10.683  0.1297  1.2526  0.5512
  304TMC3    H1 4634   4.517   1.613  11.039  0.2995 -0.0697  0.7055
  304TMC3    H2 4635   4.161   1.379  10.976  0.7856 -0.7838  1.7072
  304TMC3    C7 4636   4.416   1.386  11.076  0.4290  0.3264 -0.1077
  304TMC3    C8 4637   4.229   1.404  10.725 -0.1825  0.7381  0.5050
  304TMC3    O1 4638   4.502   1.402  11.163 -0.1256  0.4629 -1.0003
  304TMC3    O2 4639   4.238   1.293  10.777 -0.7732 -0.1098 -0.1112
  305MPD2     C 4640   2.935   3.611  14.115  0.0337 -0.2938  0.1691
  305MPD2    C1 4641   3.044   3.535  14.083  0.0169 -0.3473 -0.2467
  305MPD2    C2 4642   3.028   3.434  13.997  0.6767 -0.2877  0.0174
  305MPD2    C3 4643   2.911   3.399  13.940  0.0588  0.0199 -0.0245
  305MPD2    C4 4644   2.801   3.476  13.966 -0.3671  0.0549 -0.3857
  305MPD2    C5 4645   2.818   3.585  14.056  0.3875  0.0040  0.4768
  305MPD2     H 4646   3.111   3.380  13.953  2.0956  0.2954  2.0029
  305MPD2    H1 4647   2.704   3.457  13.921 -0.5771 -0.3673  0.2465
  305MPD2    H2 4648   2.962   3.694  14.179  2.1056 -1.4529  0.7775
  305MPD2    H3 4649   2.741   3.654  14.087  0.5347  0.6318 -0.5439
  305MPD2     N 4650   2.896   3.286  13.851 -0.2077 -0.1692  0.8879
  305MPD2    H5 4651   2.803   3.263  13.816  0.9899 -1.6967 -1.2853
  305MPD2    N1 4652   3.167   3.565  14.151  0.3983  0.1850 -0.6145
  305MPD2    H7 4653   3.180   3.654  14.198 -0.6614 -1.9612  3.6914
  306TMC3    C1 4654   3.394   3.551  14.213  0.1807 -0.0138 -0.3305
  306TMC3    C2 4655   3.513   3.498  14.171  0.0578  0.1857  0.2137
  306TMC3    C3 4656   3.617   3.511  14.255 -0.7478 -0.7387  0.7406
  306TMC3    C4 4657   3.384   3.626  14.329  0.0737  0.0866 -0.3996
  306TMC3    C5 4658   3.495   3.634  14.409 -0.7999  0.2273 -0.3668
  306TMC3    C6 4659   3.618   3.591  14.369  0.1315  0.0628  0.1406
  306TMC3     C 4660   3.280   3.488  14.148  0.2738  0.3326  0.2434
  306TMC3     O 4661   3.279   3.366  14.124 -0.0312 -0.5168  0.0672
  306TMC3     H 4662   3.516   3.438  14.081  1.0405  1.7108 -0.7720
  306TMC3    H1 4663   3.291   3.657  14.375  0.5393  1.2978 -0.2797
  306TMC3    H2 4664   3.703   3.592  14.436  0.6959  0.8629 -0.5998
  306TMC3    C7 4665   3.480   3.698  14.544 -0.0084  0.6021 -0.8672
  306TMC3    C8 4666   3.728   3.419  14.222 -0.8658  0.4692  0.1924
  306TMC3    O1 4667   3.364   3.728  14.578 -0.1430 -0.9287  0.3440
  306TMC3    O2 4668   3.701   3.344  14.128 -0.1015 -0.1735 -0.2687
  307MPD2     C 4669   0.991   1.111   1.036 -0.2500 -0.3632  0.4064
  307MPD2    C1 4670   0.928   1.233   1.008 -0.0344 -0.0118  0.6888
  307MPD2    C2 4671   0.790   1.245   1.007 -0.2456  0.1628  0.1460
  307MPD2    C3 4672   0.713   1.134   1.018  0.3033  0.5041  0.3355
  307MPD2    C4 4673   0.772   1.016   1.056 -0.1708  0.4075 -0.1049
  307MPD2    C5 4674   0.910   1.005   1.069  0.8360 -0.8562 -0.5113
  307MPD2     H 4675   0.747   1.343   0.990 -0.6795 -0.2407 -1.0615
  307MPD2    H1 4676   0.714   0.926   1.075 -0.7745  0.7532 -0.3205
  307MPD2    H2 4677   1.098   1.105   1.048 -0.2216  1.6186  1.1674
  307MPD2    H3 4678   0.949   0.907   1.092  2.5966 -0.4714 -1.8069
  307MPD2     N 4679   0.574   1.148   0.988  0.2255 -0.0277  0.5670
  307MPD2    H5 4680   0.534   1.241   0.984  0.3988  0.1560  3.4036
  307MPD2    N1 4681   0.997   1.358   0.994  0.3029  0.2138  0.8021
  307MPD2    H7 4682   0.945   1.444   0.982 -3.3519 -1.7481  2.4628
  308TMC3    C1 4683   0.137   1.043   0.853  0.8419  1.1321  0.8725
  308TMC3    C2 4684   0.084   1.146   0.919  1.5602  0.7619 -0.3019
  308TMC3    C3 4685   0.166   1.223   1.006  0.5181 -0.6707  0.2865
  308TMC3    C4 4686   0.266   0.998   0.873  0.6391  0.1251  0.2274
  308TMC3    C5 4687   0.350   1.080   0.948 -0.3561 -1.0000 -0.8632
  308TMC3    C6 4688   0.297   1.190   1.016  0.2657  0.2141 -0.3439
  308TMC3     C 4689   0.059   0.967   0.761 -0.6476 -0.1166  0.9254
  308TMC3     O 4690   0.090   0.858   0.721 -0.4305 -0.0096 -0.5149
  308TMC3     H 4691   4.719   1.172   0.924  1.5949  0.4518  2.0839
  308TMC3    H1 4692   0.311   0.913   0.823  2.6639  1.7685 -0.7479
  308TMC3    H2 4693   0.359   1.248   1.084 -2.0008 -0.4764  2.3074
  308TMC3    C7 4694   0.491   1.036   0.977  1.0078  0.3991 -0.8036
  308TMC3    C8 4695   0.093   1.327   1.079  0.7525  0.2151 -0.2141
  308TMC3    O1 4696   0.516   0.918   0.950  0.5813 -0.3068  0.6182
  308TMC3    O2 4697   4.721   1.300   1.109 -0.0926 -0.2027 -0.2021
  309MPD2     C 4698   0.094   1.823  17.235 -0.1250 -0.1058 -0.0358
  309MPD2    C1 4699   0.052   1.867  17.117 -0.6830 -0.3592 -0.2496
  309MPD2    C2 4700   4.660   1.895  17.104  0.4050 -0.2664  0.0551
  309MPD2    C3 4701   4.568   1.882  17.211 -0.1978  0.8115  0.0523
  309MPD2    C4 4702   4.618   1.832  17.328  0.5860  0.6513  0.4542
  309MPD2    C5 4703   0.011   1.810  17.346  0.6530  0.6284  0.3179
  309MPD2     H 4704   4.624   1.931  17.008 -0.4941 -1.0860  0.0734
  309MPD2    H1 4705   4.552   1.796  17.406 -0.4248  1.5972  0.0211
  309MPD2    H2 4706   0.197   1.798  17.257  0.6192  1.4423 -1.8314
  309MPD2    H3 4707   0.044   1.758  17.435  0.4956  1.2056  0.7153
  309MPD2     N 4708   4.432   1.907  17.200  0.2279 -0.7221  0.0116
  309MPD2    H5 4709   4.379   1.923  17.286  0.3161  0.0688 -0.0807
  309MPD2    N1 4710   0.134   1.871  17.002  0.1080  0.0110  0.0383
  309MPD2    H7 4711   0.096   1.924  16.925 -0.4163 -0.4087  0.0111
  310TMC3    C1 4712   0.333   1.857  16.878  0.7810 -0.5523 -0.0661
  310TMC3    C2 4713   0.275   1.915  16.766 -0.8840  0.4571  0.6494
  310TMC3    C3 4714   0.353   1.963  16.658  0.0945 -0.6109  0.5178
  310TMC3    C4 4715   0.471   1.836  16.875  0.1008 -0.1859 -0.0120
  310TMC3    C5 4716   0.548   1.886  16.772 -0.2542 -0.2627 -0.6143
  310TMC3    C6 4717   0.493   1.955  16.667  0.2362 -0.0936 -0.2081
  310TMC3     C 4718   0.260   1.811  16.993  0.6929  0.2416 -0.9139
  310TMC3     O 4719   0.319   1.733  17.067 -0.0861 -0.4746 -0.4118
  310TMC3     H 4720   0.169   1.920  16.747 -0.9567  1.7903  1.4772
  310TMC3    H1 4721   0.518   1.799  16.966  0.9734 -0.2788 -0.5047
  310TMC3    H2 4722   0.557   1.954  16.580 -0.3362 -1.0086 -0.6304
  310TMC3    C7 4723   0.693   1.877  16.784  0.1957 -0.1238  0.9471
  310TMC3    C8 4724   0.293   2.006  16.528 -0.4007 -0.0001  0.3855
  310TMC3    O1 4725   0.726   1.789  16.863 -0.0319 -0.5194 -0.0972
  310TMC3    O2 4726   0.178   1.968  16.509  0.1704  0.0019 -0.4346
  311MPD2     C 4727   1.964   3.331  12.628  0.0901  0.6802 -0.5354
  311MPD2    C1 4728   1.987   3.382  12.753  0.4646  0.2173  0.1862
  311MPD2    C2 4729   1.883   3.384  12.848  1.5130  0.0169 -0.9124
  311MPD2    C3 4730   1.762   3.317  12.825 -0.0557 -0.4802 -0.9223
  311MPD2    C4 4731   1.743   3.253  12.705  0.4314  0.2836 -0.7595
  311MPD2    C5 4732   1.835   3.273  12.607 -0.1622 -0.5018  0.4740
  311MPD2     H 4733   1.898   3.440  12.939  0.1230  1.0124 -1.2983
  311MPD2    H1 4734   1.652   3.209  12.666  0.4292 -0.7524  0.4172
  311MPD2    H2 4735   2.035   3.335  12.546  1.6201  0.2788  0.7746
  311MPD2    H3 4736   1.821   3.235  12.507 -0.2760 -0.9004  0.6443
  311MPD2     N 4737   1.668   3.325  12.929  0.3259 -0.2228  0.5652
  311MPD2    H5 4738   1.694   3.393  13.000  0.6595 -0.0770  0.3067
  311MPD2    N1 4739   2.101   3.463  12.785  0.1274 -0.2292 -0.0055
  311MPD2    H7 4740   2.102   3.535  12.857  1.1562 -0.5621  0.3033
  312TMC3    C1 4741   1.475   3.269  13.063 -0.4958 -0.4871  0.0719
  312TMC3    C2 4742   1.350   3.210  13.055 -0.3510 -0.2657  0.8205
  312TMC3    C3 4743   1.261   3.231  13.159  0.0574  0.4141 -0.5125
  312TMC3    C4 4744   1.512   3.353  13.170  0.1122  0.4271 -0.1291
  312TMC3    C5 4745   1.416   3.352  13.270 -0.4464 -0.2236  0.1300
  312TMC3    C6 4746   1.298   3.291  13.272  0.6050 -0.1616 -0.5166
  312TMC3     C 4747   1.564   3.239  12.943 -0.1772  0.5184  0.0559
  312TMC3     O 4748   1.533   3.141  12.874 -0.3163 -0.3832  0.3929
  312TMC3     H 4749   1.339   3.149  12.966 -0.9388 -2.6027  2.5120
  312TMC3    H1 4750   1.612   3.394  13.178  1.1299 -1.8141 -1.4127
  312TMC3    H2 4751   1.240   3.289  13.364 -0.5241  1.2352 -1.1980
  312TMC3    C7 4752   1.430   3.444  13.382  0.7294 -0.3469 -0.0167
  312TMC3    C8 4753   1.172   3.116  13.177  0.5426  0.2549  0.7223
  312TMC3    O1 4754   1.328   3.501  13.414  0.2265 -1.0834  0.2330
  312TMC3    O2 4755   1.175   3.060  13.286  0.5564 -0.7719 -0.2057
  313MPD2     C 4756   1.596   2.223  10.953  0.1328  0.1862  0.1375
  313MPD2    C1 4757   1.647   2.347  10.981  0.6654  0.7391  0.1701
  313MPD2    C2 4758   1.758   2.394  10.918 -0.1946 -0.1443 -0.3527
  313MPD2    C3 4759   1.834   2.319  10.823  0.0129 -0.6271  0.3598
  313MPD2    C4 4760   1.784   2.191  10.803  0.3983 -0.1600  0.5487
  313MPD2    C5 4761   1.671   2.145  10.859  0.3927  0.5496  0.1694
  313MPD2     H 4762   1.787   2.495  10.942 -3.5735  1.1283 -1.6529
  313MPD2    H1 4763   1.844   2.125  10.741 -1.2412 -0.5645 -0.6071
  313MPD2    H2 4764   1.514   2.173  11.002  1.0835  2.1092  3.7033
  313MPD2    H3 4765   1.647   2.044  10.828 -1.2110  0.9888 -0.0070
  313MPD2     N 4766   1.943   2.368  10.754  0.4008 -0.1437 -0.1856
  313MPD2    H5 4767   1.996   2.305  10.694  1.2968  0.2413  0.2129
  313MPD2    N1 4768   1.577   2.437  11.065 -0.1727  0.4489 -0.0151
  313MPD2    H7 4769   1.620   2.529  11.062  2.5953 -0.8164  1.6563
  314TMC3    C1 4770   1.381   2.551  11.128  0.2302 -0.6060  0.5832
  314TMC3    C2 4771   1.456   2.649  11.189  0.7055  0.2967  0.0454
  314TMC3    C3 4772   1.413   2.780  11.196 -0.8051  1.1589 -0.4310
  314TMC3    C4 4773   1.267   2.586  11.067  0.3051  0.1829 -0.3876
  314TMC3    C5 4774   1.230   2.713  11.071  0.0848  0.1414  0.0208
  314TMC3    C6 4775   1.295   2.815  11.142  0.2723  0.2100 -0.1953
  314TMC3     C 4776   1.443   2.422  11.096 -0.0267 -0.3324 -0.5262
  314TMC3     O 4777   1.361   2.334  11.069 -0.0580  0.2990 -0.5809
  314TMC3     H 4778   1.534   2.620  11.258 -1.8973 -0.8297  2.4999
  314TMC3    H1 4779   1.210   2.510  11.015 -0.1290 -0.0621  0.4361
  314TMC3    H2 4780   1.250   2.913  11.141 -0.4822 -0.1461 -0.6534
  314TMC3    C7 4781   1.106   2.760  11.010 -0.0615  0.2845 -0.0581
  314TMC3    C8 4782   1.492   2.886  11.255  0.9227 -0.9771  0.3778
  314TMC3    O1 4783   1.012   2.684  11.029  0.2120 -0.1141  0.1467
  314TMC3    O2 4784   1.440   2.989  11.292  0.1101 -0.2748  0.2524
  315MPD2     C 4785   1.246   1.228   0.679 -0.0251 -0.3050 -0.1724
  315MPD2    C1 4786   1.325   1.293   0.584 -0.0711 -0.0624  0.8039
  315MPD2    C2 4787   1.266   1.365   0.484  0.6430 -0.4844 -0.2402
  315MPD2    C3 4788   1.130   1.388   0.482  0.3756 -1.3388  0.5040
  315MPD2    C4 4789   1.051   1.333   0.575  0.5691 -0.7963 -0.4105
  315MPD2    C5 4790   1.113   1.251   0.668 -0.4932  0.4869 -0.3347
  315MPD2     H 4791   1.324   1.423   0.413 -2.0149  0.8373 -1.3621
  315MPD2    H1 4792   0.943   1.340   0.572  0.4917 -1.5786  0.5822
  315MPD2    H2 4793   1.280   1.169   0.763  0.9951  1.2328  0.5019
  315MPD2    H3 4794   1.054   1.210   0.749 -0.1041  1.8973  0.6685
  315MPD2     N 4795   1.096   1.473   0.379  0.0409  0.2648 -0.2351
  315MPD2    H5 4796   1.168   1.508   0.316  0.1658  1.5030  0.6064
  315MPD2    N1 4797   1.465   1.296   0.588 -0.2756 -0.0538 -0.7823
  315MPD2    H7 4798   1.508   1.345   0.510  2.7311  0.4877  1.2088
  316TMC3    C1 4799   0.981   1.652   0.272 -0.0607  0.1354 -0.0861
  316TMC3    C2 4800   1.057   1.631   0.168 -0.2261  0.6250  0.1790
  316TMC3    C3 4801   1.030   1.721   0.063  0.3258  0.2625 -0.5947
  316TMC3    C4 4802   0.891   1.757   0.287 -0.2679  0.2707 -0.4199
  316TMC3    C5 4803   0.867   1.848   0.180  0.4687 -0.9105  0.0926
  316TMC3    C6 4804   0.943   1.825   0.062 -0.6523 -0.5048  0.5998
  316TMC3     C 4805   0.977   1.538   0.369  0.3358 -0.1293 -0.0810
  316TMC3     O 4806   0.889   1.549   0.456  0.4730 -0.3258 -0.0909
  316TMC3     H 4807   1.130   1.551   0.163  1.4858  2.2580 -0.6713
  316TMC3    H1 4808   0.839   1.767   0.382 -0.4422  2.6896 -0.7661
  316TMC3    H2 4809   0.929   1.884  17.732  0.7884  0.3138  0.9107
  316TMC3    C7 4810   0.840   1.982   0.220  0.3653 -0.8253  0.6875
  316TMC3    C8 4811   1.130   1.730  17.715 -0.3451 -0.6580  0.1565
  316TMC3    O1 4812   0.817   2.006   0.334  0.3650 -0.5060  0.2215
  316TMC3    O2 4813   1.087   1.778  17.612 -0.2429  0.0251 -0.4490
  317MPD2     C 4814   2.889   0.640  12.981 -0.3361  0.1197 -0.5101
  317MPD2    C1 4815   2.967   0.546  12.909  0.2224  0.3958 -0.1972
  317MPD2    C2 4816   3.096   0.515  12.957 -0.0659  0.7146  0.1492
  317MPD2    C3 4817   3.134   0.574  13.080 -0.5028  0.1849 -0.2739
  317MPD2    C4 4818   3.062   0.670  13.148 -0.6844 -0.2597  0.0151
  317MPD2    C5 4819   2.938   0.688  13.106 -0.0156 -1.2336 -0.3026
  317MPD2     H 4820   3.159   0.437  12.916  0.9458  0.7347  1.6507
  317MPD2    H1 4821   3.104   0.714  13.238 -3.0961  4.1300 -1.0025
  317MPD2    H2 4822   2.783   0.653  12.965 -0.6140 -0.7904  0.5562
  317MPD2    H3 4823   2.876   0.754  13.165 -0.0451 -1.1200 -0.4602
  317MPD2     N 4824   3.258   0.530  13.124  0.3566 -0.0250 -0.6064
  317MPD2    H5 4825   3.306   0.465  13.063 -0.6898 -1.9239  0.5815
  317MPD2    N1 4826   2.924   0.471  12.796  0.2381 -1.3236  0.3057
  317MPD2    H7 4827   2.989   0.401  12.760  1.3157 -1.9091  3.3438
  318TMC3    C1 4828   3.433   0.461  13.254 -0.4374  0.2757  0.1329
  318TMC3    C2 4829   3.399   0.331  13.208  0.0164  0.0162  0.9255
  318TMC3    C3 4830   3.494   0.238  13.230  0.0812  0.7727  0.3824
  318TMC3    C4 4831   3.544   0.485  13.334  0.1797 -0.0411 -0.2236
  318TMC3    C5 4832   3.636   0.384  13.351  0.6012  0.3073  0.4815
  318TMC3    C6 4833   3.614   0.261  13.292 -0.2994 -0.9253 -0.0902
  318TMC3     C 4834   3.326   0.559  13.236  0.2689  0.4817 -0.3984
  318TMC3     O 4835   3.297   0.629  13.332  0.1848  0.3714  0.0136
  318TMC3     H 4836   3.305   0.310  13.158  0.7725  0.6394 -0.7575
  318TMC3    H1 4837   3.557   0.584  13.376 -0.2800  0.3921 -1.0888
  318TMC3    H2 4838   3.675   0.174  13.316  1.6193  0.1818 -0.8980
  318TMC3    C7 4839   3.721   0.398  13.473  0.0657  0.2405  0.1480
  318TMC3    C8 4840   3.457   0.103  13.204  0.0467  0.0896  0.5353
  318TMC3    O1 4841   3.745   0.515  13.517 -0.3405 -0.1684  0.1653
  318TMC3    O2 4842   3.550   0.027  13.173  0.6686  0.1129  0.0375
  319MPD2     C 4843   4.613   1.401  16.668 -0.7604  0.1162 -0.2589
  319MPD2    C1 4844   4.553   1.276  16.705  0.8648 -0.4279 -0.3453
  319MPD2    C2 4845   4.452   1.224  16.626  0.4476 -0.8649 -0.0523
  319MPD2    C3 4846   4.401   1.297  16.512 -0.0816  0.3293 -0.1040
  319MPD2    C4 4847   4.457   1.421  16.482 -0.0082  0.4725  0.5304
  319MPD2    C5 4848   4.565   1.467  16.555 -0.2463  0.8312 -0.3037
  319MPD2     H 4849   4.417   1.123  16.642 -3.6859  0.3359 -1.7805
  319MPD2    H1 4850   4.422   1.471  16.392 -0.8056  0.3905  0.7883
  319MPD2    H2 4851   4.694   1.447  16.724  0.5240 -2.1646 -0.2378
  319MPD2    H3 4852   4.618   1.559  16.536 -0.4113  1.0656  0.3706
  319MPD2     N 4853   4.279   1.256  16.445 -0.5340  0.0836 -0.3815
  319MPD2    H5 4854   4.240   1.317  16.373  1.7145  2.3091  0.2906
  319MPD2    N1 4855   4.579   1.207  16.827 -0.3094  0.5177  0.1382
  319MPD2    H7 4856   4.526   1.123  16.844  0.0755  0.1599 -0.4209
  320TMC3    C1 4857   4.100   1.118  16.372  0.2224  0.8069  0.3361
  320TMC3    C2 4858   4.054   1.212  16.283  0.0473  0.2320 -0.3030
  320TMC3    C3 4859   3.971   1.179  16.180  0.3955  0.2794 -0.6715
  320TMC3    C4 4860   4.058   0.990  16.357  0.6436  0.5184 -0.0382
  320TMC3    C5 4861   3.976   0.956  16.248 -0.2301 -0.6947  0.3699
  320TMC3    C6 4862   3.935   1.050  16.160 -0.4215  0.1354 -0.0215
  320TMC3     C 4863   4.209   1.139  16.469 -0.9631  0.1539  0.3631
  320TMC3     O 4864   4.237   1.042  16.541  0.1682 -0.0124 -0.0379
  320TMC3     H 4865   4.086   1.316  16.286  1.3865 -0.2334  1.1852
  320TMC3    H1 4866   4.090   0.909  16.423 -2.1123  1.2738  2.2134
  320TMC3    H2 4867   3.888   1.020  16.067 -0.3667 -0.8951  0.2863
  320TMC3    C7 4868   3.950   0.814  16.200  0.1331 -0.2689 -0.6435
  320TMC3    C8 4869   3.934   1.280  16.083  0.3967 -0.4585  0.1762
  320TMC3    O1 4870   3.856   0.804  16.124  0.0020 -0.8626  0.2540
  320TMC3    O2 4871   3.938   1.390  16.134 -0.0893 -0.3971 -0.4495
  321TMC3    C1 4872   4.681   1.158  17.035 -0.3608 -0.0732 -0.0870
  321TMC3    C2 4873   4.565   1.092  17.041  0.3933 -0.4251 -0.3980
  321TMC3    C3 4874   4.470   1.117  17.141 -0.4971  0.6665 -0.1078
  321TMC3    C4 4875   4.721   1.245  17.130  0.6859 -0.2890  0.6880
  321TMC3    C5 4876   4.625   1.290  17.218 -0.3314  0.5610  0.2423
  321TMC3    C6 4877   4.503   1.227  17.217 -0.0356 -0.5889 -0.0690
  321TMC3     C 4878   4.680   1.240  16.915 -0.4143  0.1398  0.0210
  321TMC3     O 4879   0.029   1.324  16.901 -0.4446 -0.1547  0.0217
  321TMC3     H 4880   4.555   1.011  16.970  0.7425 -1.3200  0.5677
  321TMC3    H1 4881   0.079   1.290  17.126  0.8246 -0.4640  1.9748
  321TMC3    H2 4882   4.427   1.255  17.290 -0.0298  0.2104 -0.3656
  321TMC3    C7 4883   4.663   1.323  17.356  0.6078  0.2956 -0.0769
  321TMC3    C8 4884   4.469   0.993  17.226  0.1003  1.0588 -1.2281
  321TMC3    O1 4885   4.591   1.272  17.440 -0.4672  0.1284 -0.8116
  321TMC3    O2 4886   4.411   0.892  17.176 -0.0294  0.2371 -0.0242
  322MPD2     C 4887   3.684   2.650  13.406 -0.3519 -0.2585  0.2227
  322MPD2    C1 4888   3.603   2.652  13.516  0.0184  0.0044  0.6895
  322MPD2    C2 4889   3.540   2.537  13.550 -0.3458 -0.3802  0.3460
  322MPD2    C3 4890   3.580   2.418  13.486  0.2875 -0.3563  0.1041
  322MPD2    C4 4891   3.672   2.417  13.379  0.4987  0.3863  0.4748
  322MPD2    C5 4892   3.713   2.539  13.337  0.3563  0.0523  0.0346
  322MPD2     H 4893   3.460   2.532  13.624 -1.4932  1.2594 -0.8011
  322MPD2    H1 4894   3.704   2.326  13.330 -0.6295 -0.1083  0.6657
  322MPD2    H2 4895   3.725   2.747  13.377 -0.3238 -1.0730 -2.3973
  322MPD2    H3 4896   3.793   2.534  13.265  0.8304 -1.1480  0.6309
  322MPD2     N 4897   3.529   2.298  13.536  0.1050  0.1303 -0.0191
  322MPD2    H5 4898   3.461   2.297  13.612  0.1027 -1.6009 -0.0483
  322MPD2    N1 4899   3.598   2.773  13.586  0.1228 -1.0339 -0.6305
  322MPD2    H7 4900   3.666   2.845  13.562 -0.8930  0.5909  1.4191
  323TMC3    C1 4901   3.539   2.938  13.753 -0.5167 -0.2511  0.5427
  323TMC3    C2 4902   3.635   3.019  13.697  0.6393 -0.2026 -0.5160
  323TMC3    C3 4903   3.708   3.094  13.786 -0.0994 -0.2707  0.5284
  323TMC3    C4 4904   3.515   2.940  13.889  0.1221 -0.2784  0.0141
  323TMC3    C5 4905   3.589   3.027  13.973  0.3999 -0.1913 -0.0371
  323TMC3    C6 4906   3.687   3.100  13.920 -0.0909  0.0957 -0.0808
  323TMC3     C 4907   3.510   2.806  13.689 -0.1414  0.4031  0.6662
  323TMC3     O 4908   3.417   2.741  13.732 -0.4234 -0.0238 -0.1162
  323TMC3     H 4909   3.656   3.003  13.592  3.3271  1.8901 -0.2843
  323TMC3    H1 4910   3.436   2.875  13.925  1.3961 -0.0554  3.1796
  323TMC3    H2 4911   3.755   3.155  13.985 -0.0987 -0.8216  0.7006
  323TMC3    C7 4912   3.588   2.975  14.109 -0.2095 -0.0017 -0.4186
  323TMC3    C8 4913   3.831   3.155  13.732 -0.3127 -0.1551 -0.1078
  323TMC3    O1 4914   3.535   2.869  14.130 -0.3207  0.9924  0.5122
  323TMC3    O2 4915   3.925   3.175  13.805 -0.3159 -0.2260  0.5131
  324MPD2     C 4916   0.292   3.762  14.644 -0.2679  0.0177  0.1796
  324MPD2    C1 4917   0.304   3.899  14.642 -0.5694 -0.4732 -0.2316
  324MPD2    C2 4918   0.195   3.977  14.620  0.1099  0.1170 -0.3159
  324MPD2    C3 4919   0.072   3.930  14.601 -0.2214  0.5956 -0.0583
  324MPD2    C4 4920   0.058   3.793  14.602  0.0941 -0.3975  0.6751
  324MPD2    C5 4921   0.162   3.708  14.628  0.8365 -0.1917 -0.1057
  324MPD2     H 4922   0.218   4.083  14.626 -0.7996  0.2171  1.6905
  324MPD2    H1 4923   4.702   3.748  14.580 -0.6128  1.2733  0.3165
  324MPD2    H2 4924   0.375   3.693  14.653  0.9386  1.3635 -0.5651
  324MPD2    H3 4925   0.168   3.600  14.628 -2.3748 -0.3540 -1.0734
  324MPD2     N 4926   4.700   4.009  14.582  0.6044  0.2798 -0.1998
  324MPD2    H5 4927   4.617   3.954  14.564 -0.5722  1.6370  1.0450
  324MPD2    N1 4928   0.425   3.965  14.643  0.6568 -0.5143 -0.1273
  324MPD2    H7 4929   0.423   4.066  14.629  1.0694 -0.6061 -0.8369
  325TMC3    C1 4930   4.559   4.181  14.508  0.2746 -1.3779 -0.5746
  325TMC3    C2 4931   4.446   4.107  14.537  0.4026  0.2540 -0.8664
  325TMC3    C3 4932   4.328   4.163  14.494  0.1975  0.3412 -0.0856
  325TMC3    C4 4933   4.558   4.291  14.427  0.5705 -0.3604 -0.4936
  325TMC3    C5 4934   4.441   4.339  14.383 -0.9494 -0.3716 -0.0847
  325TMC3    C6 4935   4.319   4.276  14.422 -0.0381  0.2247  0.8710
  325TMC3     C 4936   4.687   4.147  14.568 -0.5488  0.3296  0.6669
  325TMC3     O 4937   0.033   4.236  14.559 -0.0382  0.2605  0.1860
  325TMC3     H 4938   4.441   4.016  14.596 -1.3092  1.8410  1.4567
  325TMC3    H1 4939   4.642   4.358  14.415  0.3559 -0.0455 -0.2214
  325TMC3    H2 4940   4.227   4.311  14.378  0.4809  0.0862 -0.3283
  325TMC3    C7 4941   4.424   4.474  14.341 -0.5411 -0.4342  0.7227
  325TMC3    C8 4942   4.221   4.077  14.458 -0.2898 -0.5866  0.1012
  325TMC3    O1 4943   4.510   4.518  14.264 -0.0367 -0.3581 -0.8826
  325TMC3    O2 4944   4.263   3.965  14.441 -0.1722 -0.1015 -0.2555
  326MPD2     C 4945   0.968   0.971  11.173  0.0185 -0.2717 -0.5373
  326MPD2    C1 4946   1.073   0.886  11.137 -0.4461 -0.9112  0.1684
  326MPD2    C2 4947   1.157   0.833  11.235 -1.0509  0.0964  0.1182
  326MPD2    C3 4948   1.132   0.858  11.365  0.1700  0.5148 -0.9169
  326MPD2    C4 4949   1.017   0.924  11.398  0.0505  0.0093 -1.1053
  326MPD2    C5 4950   0.938   0.987  11.311  0.0055 -0.5798 -0.0241
  326MPD2     H 4951   1.239   0.767  11.207 -3.1371 -2.7664  0.7971
  326MPD2    H1 4952   1.001   0.935  11.505 -0.5469 -0.2158 -1.1674
  326MPD2    H2 4953   0.897   1.019  11.106  0.0900 -0.3124 -0.6430
  326MPD2    H3 4954   0.859   1.058  11.333  0.6796 -0.3369  1.6711
  326MPD2     N 4955   1.211   0.804  11.469  0.5015 -0.0185 -0.9403
  326MPD2    H5 4956   1.170   0.797  11.562  0.7734  0.5631 -0.7757
  326MPD2    N1 4957   1.107   0.867  11.003  0.1822  0.2587 -0.2321
  326MPD2    H7 4958   1.194   0.820  10.978  0.4769  0.4207  0.4888
  327TMC3    C1 4959   1.076   0.852  10.775 -0.4471  0.2865 -0.5292
  327TMC3    C2 4960   1.023   0.911  10.667  0.0339 -0.2797 -0.0291
  327TMC3    C3 4961   1.071   0.860  10.549  0.6946  0.3893  0.1635
  327TMC3    C4 4962   1.159   0.743  10.772  0.4750  0.7511  0.3858
  327TMC3    C5 4963   1.201   0.692  10.648 -0.9112  0.3968  0.4515
  327TMC3    C6 4964   1.160   0.753  10.533 -0.2525  0.1279  0.8383
  327TMC3     C 4965   1.028   0.901  10.900 -0.0312 -0.0313  0.7181
  327TMC3     O 4966   0.938   0.985  10.894 -0.0113  0.1690  0.5011
  327TMC3     H 4967   0.944   0.985  10.668 -2.0097 -2.4839 -0.6514
  327TMC3    H1 4968   1.183   0.701  10.869 -0.9757  0.1997  0.5050
  327TMC3    H2 4969   1.185   0.724  10.432 -0.0642 -0.3759  1.0312
  327TMC3    C7 4970   1.285   0.569  10.651 -0.1009 -0.6162  1.2189
  327TMC3    C8 4971   1.036   0.941  10.426 -0.6934  0.7893  0.4862
  327TMC3    O1 4972   1.285   0.501  10.553  0.0872  0.8899  0.2562
  327TMC3    O2 4973   1.065   1.061  10.432  0.1166 -0.6577  0.0288
  328MPD2     C 4974   3.890   0.837  17.201 -0.2017 -0.0396 -0.2962
  328MPD2    C1 4975   3.872   0.705  17.173 -0.3374 -0.1189 -0.4519
  328MPD2    C2 4976   3.890   0.662  17.049  0.0436 -0.1772 -0.2180
  328MPD2    C3 4977   3.934   0.744  16.947  0.0394  0.3813 -0.8676
  328MPD2    C4 4978   3.965   0.878  16.976  0.0977  0.0502  1.1262
  328MPD2    C5 4979   3.942   0.918  17.102 -0.8595 -0.1219  0.3345
  328MPD2     H 4980   3.866   0.561  17.017 -0.5166 -0.4281  0.9875
  328MPD2    H1 4981   4.018   0.946  16.910  0.4517  0.0976  1.4596
  328MPD2    H2 4982   3.866   0.867  17.302  0.5276  0.3672 -0.2399
  328MPD2    H3 4983   3.962   1.023  17.119  0.5792 -0.5709  1.3710
  328MPD2     N 4984   3.966   0.696  16.817 -0.3438 -0.0079  0.2462
  328MPD2    H5 4985   4.006   0.762  16.750  1.6473  1.9548  3.3377
  328MPD2    N1 4986   3.827   0.621  17.280  0.8385  0.2133  0.0126
  328MPD2    H7 4987   3.839   0.656  17.374 -0.0920 -2.3124  1.0667
  329TMC3    C1 4988   3.731   0.429  17.378 -0.3949  0.1706  0.0983
  329TMC3    C2 4989   3.675   0.512  17.473 -0.9099  0.2694  0.6329
  329TMC3    C3 4990   3.563   0.460  17.538  1.1549 -0.1020 -0.7440
  329TMC3    C4 4991   3.683   0.298  17.359  0.3457  0.9118 -0.3062
  329TMC3    C5 4992   3.576   0.254  17.429  0.0356  0.0798  0.0123
  329TMC3    C6 4993   3.513   0.333  17.528  0.3819  0.0147  0.4435
  329TMC3     C 4994   3.794   0.487  17.263  0.1990 -0.3056 -0.3340
  329TMC3     O 4995   3.750   0.440  17.158  0.0477 -0.0588  0.4360
  329TMC3     H 4996   3.711   0.611  17.497  1.0148  0.1646 -1.8513
  329TMC3    H1 4997   3.734   0.242  17.283  1.3868  0.6089  0.6198
  329TMC3    H2 4998   3.423   0.287  17.568  0.3152 -0.3092 -0.0851
  329TMC3    C7 4999   3.501   0.136  17.387 -0.1182  0.5946  0.3088
  329TMC3    C8 5000   3.511   0.545  17.640 -0.3081 -0.0165 -0.2417
  329TMC3    O1 5001   3.405   0.102  17.452  0.0145 -0.7262 -0.0786
  329TMC3    O2 5002   3.544   0.662  17.635 -0.4740  0.0864 -0.8149
  330TMC3    C1 5003   0.853   4.235  10.268  0.4900 -0.7129  1.0232
  330TMC3    C2 5004   0.735   4.272  10.308  0.2529 -0.3285 -0.1259
  330TMC3    C3 5005   0.689   4.237  10.437 -0.2629  0.2225  0.4033
  330TMC3    C4 5006   0.936   4.154  10.346  0.6322 -0.2588  0.0796
  330TMC3    C5 5007   0.890   4.116  10.467 -0.1205 -0.2725  0.2908
  330TMC3    C6 5008   0.764   4.152  10.510  0.3125  0.1782  0.1543
  330TMC3     C 5009   0.897   4.259  10.129  0.3769 -0.0664 -0.3339
  330TMC3     O 5010   1.001   4.199  10.092 -0.0521  0.0577  0.7001
  330TMC3     H 5011   0.657   4.312  10.245  0.1483 -0.5746 -0.1557
  330TMC3    H1 5012   1.028   4.112  10.308  0.0112 -0.7453 -0.8861
  330TMC3    H2 5013   0.742   4.137  10.615 -2.2280  0.5122 -0.3433
  330TMC3    C7 5014   0.974   4.033  10.548  0.2130  0.3102  0.4697
  330TMC3    C8 5015   0.547   4.248  10.470 -0.6935  0.6722 -0.0463
  330TMC3    O1 5016   0.914   3.970  10.632 -0.0086 -0.4354 -0.1945
  330TMC3    O2 5017   0.485   4.351  10.438 -0.0322  0.2955 -0.2969
  331MPD2     C 5018   0.041   3.547  13.273 -0.8351 -0.0327 -0.6663
  331MPD2    C1 5019   4.681   3.519  13.183  0.3303  0.4678 -0.3572
  331MPD2    C2 5020   4.665   3.385  13.142 -0.1651  0.6319  0.4412
  331MPD2    C3 5021   0.012   3.282  13.169 -1.1271 -0.0655 -0.4953
  331MPD2    C4 5022   0.120   3.316  13.250 -0.5743 -0.8622  0.1837
  331MPD2    C5 5023   0.122   3.443  13.309 -0.2111 -0.2094  0.1841
  331MPD2     H 5024   4.587   3.355  13.072  0.8032  1.8627 -1.1805
  331MPD2    H1 5025   0.193   3.239  13.271 -0.6822 -0.5374  1.7227
  331MPD2    H2 5026   0.053   3.647  13.315 -0.4113  0.2525 -1.4655
  331MPD2    H3 5027   0.206   3.469  13.372 -0.3465  0.2137  0.1934
  331MPD2     N 5028   4.724   3.153  13.107  0.1438  0.1746 -0.0106
  331MPD2    H5 5029   4.633   3.133  13.066 -0.7643 -0.9148  2.5106
  331MPD2    N1 5030   4.601   3.621  13.126 -0.6203  0.2818 -0.3775
  331MPD2    H7 5031   4.622   3.718  13.148  0.0467  0.2407 -0.8196
  332TMC3    C1 5032   0.058   2.958  12.978 -0.2440 -0.5288 -0.0524
  332TMC3    C2 5033   4.731   2.999  12.863 -0.2686 -0.5540 -0.0023
  332TMC3    C3 5034   4.683   2.903  12.780  0.5591 -0.7629  0.0449
  332TMC3    C4 5035   0.077   2.824  13.006  0.4308 -0.6953  0.1289
  332TMC3    C5 5036   0.019   2.730  12.922  0.0120  1.1029 -0.5634
  332TMC3    C6 5037   4.699   2.769  12.805  0.0493  0.0561 -0.2108
  332TMC3     C 5038   0.080   3.056  13.085  0.1433 -0.1568 -0.5446
  332TMC3     O 5039   0.188   3.045  13.150  0.1099  0.8885 -0.0417
  332TMC3     H 5040   4.720   3.105  12.844 -0.5121 -0.0033  3.2420
  332TMC3    H1 5041   0.126   2.781  13.093  0.2524 -1.5576 -0.1976
  332TMC3    H2 5042   4.667   2.695  12.732  1.3394 -2.6239  1.9211
  332TMC3    C7 5043   0.050   2.587  12.925 -0.6974  0.6945  0.2818
  332TMC3    C8 5044   4.601   2.951  12.671  0.5252  0.3961  0.0790
  332TMC3    O1 5045   4.717   2.511  12.863 -0.1724  0.1456 -0.4178
  332TMC3    O2 5046   4.642   3.058  12.622  0.1988 -0.4905 -0.4415
  333MPD2     C 5047   3.983   3.592  11.496  0.3606 -0.2221  0.5203
  333MPD2    C1 5048   4.072   3.513  11.427 -0.0002  0.2701  1.2145
  333MPD2    C2 5049   4.044   3.374  11.424  0.8223 -0.5707 -0.1650
  333MPD2    C3 5050   3.937   3.317  11.487 -0.8786  0.3002  0.0560
  333MPD2    C4 5051   3.852   3.401  11.553  0.0672  0.1100  0.4325
  333MPD2    C5 5052   3.867   3.539  11.564  0.3057  0.2707  0.1209
  333MPD2     H 5053   4.114   3.309  11.373  0.2908 -1.6834  0.5256
  333MPD2    H1 5054   3.769   3.355  11.605 -0.8249  0.8220 -0.3827
  333MPD2    H2 5055   3.998   3.700  11.499  1.1180 -0.2586 -1.6066
  333MPD2    H3 5056   3.807   3.610  11.620  1.7174  1.7741 -0.2524
  333MPD2     N 5057   3.921   3.171  11.478 -0.2770 -0.3809 -0.4302
  333MPD2    H5 5058   3.999   3.127  11.431  0.1284  0.1817 -0.2878
  333MPD2    N1 5059   4.190   3.566  11.368  0.1873 -0.1662 -0.0366
  333MPD2    H7 5060   4.205   3.666  11.378  0.4617 -0.0996 -1.1714
  334TMC3    C1 5061   4.423   3.550  11.301  0.9499 -0.4422  0.1191
  334TMC3    C2 5062   4.520   3.468  11.249 -0.4336  0.3566  0.0361
  334TMC3    C3 5063   4.650   3.509  11.262  0.9448 -0.1765 -0.2130
  334TMC3    C4 5064   4.448   3.674  11.360  0.1463 -0.3410 -0.3075
  334TMC3    C5 5065   4.579   3.707  11.373 -0.3446  0.2050  0.5394
  334TMC3    C6 5066   4.681   3.625  11.326 -0.3102  0.1691  0.0134
  334TMC3     C 5067   4.288   3.492  11.302  0.7601 -0.5615  0.3412
  334TMC3     O 5068   4.284   3.382  11.248  0.0172  0.1488 -0.6311
  334TMC3     H 5069   4.512   3.372  11.197 -3.8110  0.8817 -0.3977
  334TMC3    H1 5070   4.367   3.734  11.401  2.1238  0.6531  2.1073
  334TMC3    H2 5071   0.045   3.653  11.325  0.3663 -2.4020 -1.1694
  334TMC3    C7 5072   4.617   3.842  11.418  0.4479  0.1630 -0.5831
  334TMC3    C8 5073   0.013   3.423  11.221  0.1598 -0.0034 -0.2375
  334TMC3    O1 5074   4.731   3.879  11.394  0.1527  0.7576 -0.1709
  334TMC3    O2 5075   4.722   3.307  11.189 -0.2966 -0.2698  0.2418
  335TMC3    C1 5076   4.497   0.293  17.251  1.4720  0.0293 -0.5173
  335TMC3    C2 5077   4.413   0.248  17.148  0.3803 -0.5353 -0.3223
  335TMC3    C3 5078   4.471   0.225  17.027 -0.0796  0.0910  0.6731
  335TMC3    C4 5079   4.630   0.318  17.242 -0.0417  0.0455  0.5183
  335TMC3    C5 5080   4.680   0.305  17.120 -0.0229  0.0612 -0.3586
  335TMC3    C6 5081   4.611   0.239  17.021 -0.1480  0.0776  0.5325
  335TMC3     C 5082   4.432   0.330  17.371 -0.2309  0.1507 -0.7501
  335TMC3     O 5083   4.313   0.358  17.360 -0.0085  0.0925 -0.0200
  335TMC3     H 5084   4.306   0.243  17.161  0.4441 -0.5511  0.2153
  335TMC3    H1 5085   4.686   0.364  17.322 -0.5878 -1.6273  1.8546
  335TMC3    H2 5086   4.650   0.242  16.920 -0.4426 -1.1329  0.3871
  335TMC3    C7 5087   0.076   0.332  17.091  0.7250  0.9875 -1.1808
  335TMC3    C8 5088   4.415   0.130  16.929 -0.0144  0.1806 -0.7110
  335TMC3    O1 5089   0.123   0.317  16.980  0.1906 -0.3039 -0.2304
  335TMC3    O2 5090   4.499   0.095  16.851 -0.2473  0.4007 -0.5284
  336MPD2     C 5091   4.439   2.526  15.981  0.4078  0.1486  0.3996
  336MPD2    C1 5092   4.401   2.461  15.871  0.2077  0.1731 -0.3429
  336MPD2    C2 5093   4.391   2.321  15.869  1.0946 -0.2627 -0.1178
  336MPD2    C3 5094   4.417   2.247  15.984  0.0937 -0.0256 -0.3496
  336MPD2    C4 5095   4.467   2.317  16.094 -0.0991  1.3737 -0.1288
  336MPD2    C5 5096   4.472   2.452  16.090 -0.2391 -0.1742 -0.0589
  336MPD2     H 5097   4.338   2.269  15.790 -0.0141 -1.9383  1.7280
  336MPD2    H1 5098   4.490   2.269  16.188 -0.6753 -2.8344 -2.1327
  336MPD2    H2 5099   4.443   2.634  15.987  1.2272  0.2857 -2.4325
  336MPD2    H3 5100   4.505   2.502  16.180  0.5541  0.6663 -0.8212
  336MPD2     N 5101   4.412   2.110  15.999  0.1315  0.2734  0.2727
  336MPD2    H5 5102   4.436   2.075  16.092  1.3555 -0.9816 -0.5038
  336MPD2    N1 5103   4.350   2.532  15.750  0.2680 -0.0976  0.2094
  336MPD2    H7 5104   4.304   2.477  15.679  0.9147 -0.0515 -0.2461
  337TMC3    C1 5105   4.228   2.682  15.634  0.7144 -0.2480 -0.2629
  337TMC3    C2 5106   4.102   2.733  15.651 -0.0365  0.4367  0.1884
  337TMC3    C3 5107   4.026   2.771  15.543  0.3539  0.1945  0.0772
  337TMC3    C4 5108   4.282   2.670  15.507 -0.3773  0.3184 -0.7829
  337TMC3    C5 5109   4.212   2.730  15.408  0.3206 -0.3231 -0.0076
  337TMC3    C6 5110   4.084   2.775  15.421  0.4115 -0.4429  0.1500
  337TMC3     C 5111   4.308   2.666  15.754  0.7952 -0.1440  0.4985
  337TMC3     O 5112   4.291   2.742  15.847  0.2093 -0.2183 -0.2251
  337TMC3     H 5113   4.047   2.754  15.743  0.0748  0.6034  0.2167
  337TMC3    H1 5114   4.383   2.630  15.505 -0.4553  0.1067 -0.4340
  337TMC3    H2 5115   4.028   2.817  15.338  1.3574  0.1162 -0.1968
  337TMC3    C7 5116   4.273   2.728  15.273  0.1138  0.1896 -0.0132
  337TMC3    C8 5117   3.887   2.824  15.565 -0.7669  0.3096 -0.4649
  337TMC3    O1 5118   4.188   2.713  15.182  0.6858  0.4276  0.4416
  337TMC3    O2 5119   3.847   2.843  15.677 -0.2121  0.3989  0.0814
  338MPD2     C 5120   3.984   1.695   0.794 -0.4182 -0.1778  0.8450
  338MPD2    C1 5121   3.956   1.728   0.664 -0.3389 -0.0348 -0.1833
  338MPD2    C2 5122   3.863   1.830   0.644 -0.0934 -0.0994 -0.3155
  338MPD2    C3 5123   3.791   1.883   0.751 -0.1374  0.0074  1.1119
  338MPD2    C4 5124   3.822   1.850   0.884  0.1896  0.4866 -0.3124
  338MPD2    C5 5125   3.918   1.752   0.899 -0.3014 -0.1838  0.1783
  338MPD2     H 5126   3.839   1.862   0.543  0.2526 -1.1537 -0.7357
  338MPD2    H1 5127   3.775   1.882   0.977  1.4044  3.2288 -0.6444
  338MPD2    H2 5128   4.043   1.608   0.820 -0.4087 -0.1144  1.0322
  338MPD2    H3 5129   3.922   1.715   1.001  1.1957 -0.0701  0.1564
  338MPD2     N 5130   3.683   1.966   0.723 -0.3068  1.0991  0.1133
  338MPD2    H5 5131   3.664   1.991   0.626 -0.6849  0.0496 -0.0844
  338MPD2    N1 5132   4.021   1.661   0.551  0.4291 -0.4319 -0.1107
  338MPD2    H7 5133   3.980   1.677   0.460  4.7446 -0.5029 -2.0699
  339TMC3    C1 5134   3.469   2.052   0.743 -0.0913  0.1627  0.1902
  339TMC3    C2 5135   3.350   1.990   0.781 -0.5745 -0.4519  0.6891
  339TMC3    C3 5136   3.248   1.972   0.694 -0.5903 -0.9024  0.4782
  339TMC3    C4 5137   3.488   2.093   0.615  0.1929  0.2671 -0.3130
  339TMC3    C5 5138   3.383   2.067   0.532 -0.1915  0.2261  0.0421
  339TMC3    C6 5139   3.268   2.011   0.562 -0.1836 -0.2485 -0.2817
  339TMC3     C 5140   3.587   2.010   0.812 -0.8363  0.3353  0.2399
  339TMC3     O 5141   3.571   1.994   0.935  0.3612  0.2711  0.1585
  339TMC3     H 5142   3.342   1.965   0.887 -0.1122  0.2300  0.8822
  339TMC3    H1 5143   3.573   2.149   0.578  1.9213 -0.8114  1.9995
  339TMC3    H2 5144   3.190   2.008   0.486 -0.8255  0.1042  0.3619
  339TMC3    C7 5145   3.409   2.092   0.396 -0.2460 -0.8403  0.4319
  339TMC3    C8 5146   3.126   1.891   0.729 -0.3454 -0.6890 -0.6707
  339TMC3    O1 5147   3.352   2.018   0.314  0.1994 -0.2980 -0.9837
  339TMC3    O2 5148   3.035   1.897   0.648  0.1107  0.2055 -0.1004
  340MPD2     C 5149   3.636   4.103  10.296 -0.4122  0.0421 -0.1076
  340MPD2    C1 5150   3.649   4.160  10.177  0.2867  1.4091 -0.7910
  340MPD2    C2 5151   3.627   4.297  10.165 -0.7904 -0.0285  1.0390
  340MPD2    C3 5152   3.588   4.373  10.268  0.4901  0.2067 -0.5776
  340MPD2    C4 5153   3.572   4.313  10.393 -0.5171  0.0928 -0.1722
  340MPD2    C5 5154   3.594   4.179  10.402  0.9945  0.1666  0.5330
  340MPD2     H 5155   3.646   4.342  10.069 -1.5738 -1.5082  0.1931
  340MPD2    H1 5156   3.543   4.366  10.483  1.7637 -2.7961  2.2590
  340MPD2    H2 5157   3.668   4.000  10.305 -0.3184 -0.0264 -1.2526
  340MPD2    H3 5158   3.596   4.140  10.503  0.6031 -2.4887 -0.4777
  340MPD2     N 5159   3.587   4.513  10.261 -0.4755  0.2783 -0.8035
  340MPD2    H5 5160   3.588   4.564  10.349 -0.5512 -0.7838 -0.1751
  340MPD2    N1 5161   3.693   4.082  10.066 -0.0515 -0.2493  0.2930
  340MPD2    H7 5162   3.714   3.986  10.091 -1.0227 -0.0216  1.9743
  341TMC3    C1 5163   3.801   4.026   9.870  0.0845  0.4664  0.2719
  341TMC3    C2 5164   3.833   3.909   9.936  0.6901  0.1125 -0.0968
  341TMC3    C3 5165   3.953   3.851   9.908 -0.4407 -0.1567 -0.3169
  341TMC3    C4 5166   3.882   4.081   9.775 -0.1708 -0.0760 -0.6625
  341TMC3    C5 5167   3.995   4.018   9.745  0.2129 -0.0605  0.9359
  341TMC3    C6 5168   4.039   3.909   9.823 -0.4792 -0.0240 -0.3548
  341TMC3     C 5169   3.729   4.130   9.943 -0.1962  0.1969 -0.8659
  341TMC3     O 5170   3.705   4.233   9.878  0.6916  0.3493 -0.4516
  341TMC3     H 5171   3.759   3.852   9.991 -0.3572  1.2265 -0.3506
  341TMC3    H1 5172   3.856   4.170   9.719  0.6003  0.4990 -0.1234
  341TMC3    H2 5173   4.121   3.843   9.797 -0.9933 -0.3373 -1.1861
  341TMC3    C7 5174   4.090   4.079   9.655  0.7037  0.2755  0.8881
  341TMC3    C8 5175   3.985   3.720   9.964  0.2189  0.7732  0.1907
  341TMC3    O1 5176   4.052   4.151   9.561  0.3964 -0.3764  0.2746
  341TMC3    O2 5177   4.062   3.645   9.902  0.2565  0.0188  0.0546
  342MPD2     C 5178   2.117   2.501  17.060 -0.0651 -0.4938 -0.5198
  342MPD2    C1 5179   2.252   2.543  17.060 -0.4376 -0.5607  0.2057
  342MPD2    C2 5180   2.281   2.665  17.114  0.5825 -0.0591  0.3904
  342MPD2    C3 5181   2.182   2.750  17.157  0.0311  0.0295  0.5590
  342MPD2    C4 5182   2.052   2.712  17.149  0.1439  0.2413 -0.1196
  342MPD2    C5 5183   2.018   2.590  17.096  0.0934 -0.2610  0.2146
  342MPD2     H 5184   2.385   2.692  17.131  0.8929  0.0699 -1.7160
  342MPD2    H1 5185   1.976   2.765  17.205 -1.9328 -1.8073 -1.0085
  342MPD2    H2 5186   2.080   2.405  17.027  1.1901 -0.3923 -2.2222
  342MPD2    H3 5187   1.913   2.563  17.093  0.0229  0.2314 -1.7607
  342MPD2     N 5188   2.209   2.881  17.207  0.4161  0.3050 -0.9399
  342MPD2    H5 5189   2.130   2.942  17.223 -0.4911 -0.8692 -0.9244
  342MPD2    N1 5190   2.359   2.465  17.017 -0.3484 -1.2662 -0.2439
  342MPD2    H7 5191   2.452   2.505  17.016 -0.8935  0.0018 -0.5717
  343TMC3    C1 5192   2.473   2.270  16.947  0.1187 -0.2882  0.2370
  343TMC3    C2 5193   2.585   2.338  16.936 -0.2651 -0.1259 -0.0172
  343TMC3    C3 5194   2.704   2.262  16.920  0.2840  0.6532  0.4927
  343TMC3    C4 5195   2.472   2.137  16.956  0.9020  0.0507 -0.1131
  343TMC3    C5 5196   2.586   2.073  16.938 -0.1090  0.5850 -0.0761
  343TMC3    C6 5197   2.710   2.128  16.932  0.0039  0.3882 -0.2204
  343TMC3     C 5198   2.344   2.332  16.980 -0.5095  0.0678 -0.1100
  343TMC3     O 5199   2.256   2.250  17.007 -0.1870  0.4310  0.3147
  343TMC3     H 5200   2.601   2.445  16.944 -0.6710 -0.2824  2.8341
  343TMC3    H1 5201   2.381   2.080  16.943  1.6617 -1.1983  0.0350
  343TMC3    H2 5202   2.793   2.059  16.944 -2.5697 -2.7285 -0.3068
  343TMC3    C7 5203   2.581   1.930  16.930 -0.6799  0.9263 -0.3020
  343TMC3    C8 5204   2.819   2.336  16.876  0.5205  0.6467 -0.3186
  343TMC3    O1 5205   2.660   1.875  16.851  0.2469  0.3895  0.2596
  343TMC3    O2 5206   2.817   2.458  16.901  0.6689 -0.5108  0.4210
  344MPD2     C 5207   3.084   2.894  11.284 -0.2487  0.0757  0.1268
  344MPD2    C1 5208   3.172   2.803  11.238  0.1404  0.6873  0.0919
  344MPD2    C2 5209   3.267   2.833  11.141  0.9684 -0.9299 -0.3824
  344MPD2    C3 5210   3.280   2.969  11.101 -0.1109 -0.5023  0.3539
  344MPD2    C4 5211   3.199   3.061  11.167 -1.0908  0.1835 -0.1168
  344MPD2    C5 5212   3.095   3.025  11.251 -0.1200  0.2295 -0.4695
  344MPD2     H 5213   3.335   2.757  11.105  1.2361 -0.3373 -1.1166
  344MPD2    H1 5214   3.208   3.164  11.135 -0.7498  0.1394 -0.1655
  344MPD2    H2 5215   3.002   2.872  11.351  0.0352 -3.4790 -0.6993
  344MPD2    H3 5216   3.027   3.101  11.288  0.0405  0.4607 -0.6499
  344MPD2     N 5217   3.371   3.009  11.000 -0.5012  0.6748 -0.2899
  344MPD2    H5 5218   3.392   3.109  11.001 -1.2001  0.8198  0.1614
  344MPD2    N1 5219   3.169   2.674  11.292 -0.0441  0.2119  0.1491
  344MPD2    H7 5220   3.225   2.605  11.243 -0.0946  1.9920 -2.3982
  345TMC3    C1 5221   3.507   3.010  10.819 -0.6816  0.2103 -0.0769
  345TMC3    C2 5222   3.580   3.108  10.874  0.0577  0.1512 -0.7045
  345TMC3    C3 5223   3.657   3.187  10.791  0.6349  0.5118  0.1062
  345TMC3    C4 5224   3.492   3.003  10.686  0.8062  0.0633  0.1562
  345TMC3    C5 5225   3.556   3.091  10.606 -0.6794 -0.7250 -0.1407
  345TMC3    C6 5226   3.650   3.170  10.654  0.4295 -0.1219 -0.5938
  345TMC3     C 5227   3.426   2.929  10.908  0.2740  0.4439 -0.0560
  345TMC3     O 5228   3.387   2.821  10.870 -0.0327 -0.4915 -0.3040
  345TMC3     H 5229   3.588   3.132  10.980 -1.7720 -2.2798  0.0092
  345TMC3    H1 5230   3.415   2.937  10.647 -1.0443  0.5669  2.9200
  345TMC3    H2 5231   3.715   3.227  10.589 -1.3481  1.3977 -1.0420
  345TMC3    C7 5232   3.476   3.157  10.504 -0.2540 -0.1693 -0.1638
  345TMC3    C8 5233   3.667   3.325  10.834 -0.3353 -0.0354 -0.2870
  345TMC3    O1 5234   3.507   3.271  10.482 -0.2130 -0.2327 -0.1917
  345TMC3    O2 5235   3.596   3.359  10.928  0.5621  0.7362  0.0782
  346MPD2     C 5236   3.556   4.344  14.147  0.3101  0.7873 -0.2448
  346MPD2    C1 5237   3.606   4.465  14.119 -0.7477 -0.5264  0.7416
  346MPD2    C2 5238   3.599   4.564  14.217 -0.7455 -0.8658 -0.4646
  346MPD2    C3 5239   3.563   4.531  14.342  0.6817 -0.7547  0.4485
  346MPD2    C4 5240   3.501   4.410  14.372 -0.7305 -0.7585 -0.5883
  346MPD2    C5 5241   3.502   4.317  14.271  0.2638  0.8132  0.7211
  346MPD2     H 5242   3.641   4.663  14.204 -0.7038 -0.5615  2.0572
  346MPD2    H1 5243   3.452   4.385  14.465  0.5680 -1.2398 -0.0412
  346MPD2    H2 5244   3.563   4.262  14.077 -0.1651  1.0282 -0.5708
  346MPD2    H3 5245   3.472   4.216  14.294 -1.0891  1.5775  2.2998
  346MPD2     N 5246   3.578   4.625  14.443 -0.6400  0.1152  0.0455
  346MPD2    H5 5247   3.633   4.706  14.418 -1.2415  0.8359  1.0214
  346MPD2    N1 5248   3.654   4.506  13.991 -0.0067 -0.3620  0.3614
  346MPD2    H7 5249   3.674   4.605  14.000  2.6878 -1.0851  2.2521
  347TMC3    C1 5250   3.617   4.690  14.666 -0.5832 -0.7110  0.3697
  347TMC3    C2 5251   3.737   0.008  14.632  0.3986 -0.4438  0.5170
  347TMC3    C3 5252   3.832   0.040  14.729 -0.2106 -0.6194  0.0496
  347TMC3    C4 5253   3.596   4.654  14.797 -0.0462 -0.2596  0.5226
  347TMC3    C5 5254   3.704   4.658  14.882 -0.2793 -0.2865  0.3173
  347TMC3    C6 5255   3.815   4.730  14.856  0.4852 -0.6761 -0.0079
  347TMC3     C 5256   3.534   4.619  14.571 -0.1113  0.5422 -0.7934
  347TMC3     O 5257   3.456   4.543  14.626  0.0647  0.3784  0.3993
  347TMC3     H 5258   3.757   0.019  14.526 -2.6430 -2.9173 -0.3027
  347TMC3    H1 5259   3.528   4.571  14.818  0.5928 -0.5808  1.3131
  347TMC3    H2 5260   3.889   0.013  14.931  1.5779  1.5919 -1.8037
  347TMC3    C7 5261   3.738   4.523  14.929 -0.2282 -0.2145  0.6017
  347TMC3    C8 5262   3.966   0.028  14.683  0.0539 -0.0433  0.2099
  347TMC3    O1 5263   3.648   4.455  14.975  0.5011 -0.4483  0.0180
  347TMC3    O2 5264   4.023   4.673  14.745  0.4592  0.2771  0.2116
  348MPD2     C 5265   1.724   4.098  12.178  0.0459 -0.1066 -0.3601
  348MPD2    C1 5266   1.813   4.191  12.131  0.0674 -0.1641 -0.4202
  348MPD2    C2 5267   1.768   4.288  12.043 -0.0471  0.3418 -0.8308
  348MPD2    C3 5268   1.634   4.297  12.008 -0.6832 -0.4792 -0.2834
  348MPD2    C4 5269   1.539   4.220  12.079 -0.8740  0.3083  0.1858
  348MPD2    C5 5270   1.585   4.112  12.151 -0.4536  0.2926  0.2513
  348MPD2     H 5271   1.841   4.356  12.002  2.1982 -2.3689 -1.3117
  348MPD2    H1 5272   1.431   4.228  12.073 -1.0621 -2.2475  0.4267
  348MPD2    H2 5273   1.755   4.005  12.224 -1.2624 -0.3740 -0.0313
  348MPD2    H3 5274   1.510   4.050  12.198 -0.2113 -1.2265 -1.3669
  348MPD2     N 5275   1.591   4.395  11.921  0.5420  0.0281  0.0828
  348MPD2    H5 5276   1.663   4.457  11.885  1.2672 -1.0237 -0.2787
  348MPD2    N1 5277   1.952   4.191  12.164 -0.2832  0.3177  0.0197
  348MPD2    H7 5278   2.010   4.268  12.134 -0.5054  1.2638  2.0390
  349TMC3    C1 5279   2.141   4.047  12.203 -0.5628  0.0049 -0.3656
  349TMC3    C2 5280   2.157   3.918  12.245  0.2434  0.4712 -0.5363
  349TMC3    C3 5281   2.159   3.818  12.159  0.1412 -0.2876  0.0493
  349TMC3    C4 5282   2.156   4.070  12.068  0.1121 -0.2977 -0.4864
  349TMC3    C5 5283   2.160   3.966  11.978  0.3094 -0.5118  0.3632
  349TMC3    C6 5284   2.168   3.840  12.022 -0.3584  0.2740 -0.0447
  349TMC3     C 5285   2.020   4.104  12.250 -0.4296 -0.4417 -0.0749
  349TMC3     O 5286   1.973   4.040  12.342 -0.4404 -0.3330  0.2262
  349TMC3     H 5287   2.156   3.904  12.353  0.6420 -0.0188 -0.5961
  349TMC3    H1 5288   2.158   4.172  12.031 -2.4500 -0.3463 -0.7764
  349TMC3    H2 5289   2.174   3.763  11.945 -0.5596 -1.5262  1.7499
  349TMC3    C7 5290   2.063   3.974  11.872 -0.2684  0.3048 -0.4338
  349TMC3    C8 5291   2.188   3.688  12.225  0.0707 -0.7264 -0.4497
  349TMC3    O1 5292   1.979   3.884  11.867  0.0902  0.0932 -0.7309
  349TMC3    O2 5293   2.256   3.694  12.324  0.3574 -0.7013 -0.4003
  350MPD2     C 5294   1.445   2.895  10.289  0.4488 -0.7337  0.8526
  350MPD2    C1 5295   1.448   2.764  10.321  0.0043 -0.5248 -0.0773
  350MPD2    C2 5296   1.573   2.701  10.359  0.7306  0.4229  0.1140
  350MPD2    C3 5297   1.684   2.782  10.380 -0.1195 -1.4907  0.1270
  350MPD2    C4 5298   1.674   2.916  10.353 -0.4380  0.0454  1.0373
  350MPD2    C5 5299   1.554   2.970  10.321 -0.2742 -0.2981  0.7701
  350MPD2     H 5300   1.582   2.596  10.384 -2.6017  0.1459  0.1471
  350MPD2    H1 5301   1.759   2.983  10.349 -0.9454  0.4977 -2.1671
  350MPD2    H2 5302   1.358   2.948  10.254  0.1040 -1.6099  0.3755
  350MPD2    H3 5303   1.558   3.077  10.304  0.2968 -0.1434  1.9505
  350MPD2     N 5304   1.807   2.715  10.409  0.5604 -0.2481 -0.2282
  350MPD2    H5 5305   1.807   2.614  10.411  0.2836 -0.2219  1.1977
  350MPD2    N1 5306   1.332   2.675  10.317 -0.4272 -0.2221 -0.3150
  350MPD2    H7 5307   1.339   2.586  10.364 -0.0489 -0.7427 -1.3482
  351TMC3    C1 5308   1.116   2.600  10.286  0.3239  0.3319 -0.1913
  351TMC3    C2 5309   1.132   2.494  10.372 -0.4708  0.2826 -0.5538
  351TMC3    C3 5310   1.046   2.395  10.380 -0.2558  0.8067  0.0421
  351TMC3    C4 5311   1.005   2.602  10.205  0.9544  0.7003 -0.5048
  351TMC3    C5 5312   0.920   2.489  10.207 -0.1570  0.3028  0.0542
  351TMC3    C6 5313   0.939   2.381  10.294 -1.3223  0.7198 -0.2999
  351TMC3     C 5314   1.209   2.713  10.271  0.5692 -0.1886 -0.2531
  351TMC3     O 5315   1.182   2.801  10.190  0.3865 -0.3224 -0.0626
  351TMC3     H 5316   1.208   2.498  10.449 -1.9059  1.4820  0.8025
  351TMC3    H1 5317   1.001   2.672  10.122 -3.5407  1.4152  0.3280
  351TMC3    H2 5318   0.882   2.290  10.283  1.4524 -0.8178 -1.9760
  351TMC3    C7 5319   0.827   2.468  10.102 -0.6595  0.5537 -0.1340
  351TMC3    C8 5320   1.122   2.276  10.405  0.3511 -0.3548  0.4158
  351TMC3    O1 5321   0.758   2.368  10.103 -0.6158 -0.3298  0.4642
  351TMC3    O2 5322   1.242   2.272  10.388 -0.0934  0.3883  0.1121
  352MPD2     C 5323   4.464   4.296   1.105 -0.0060 -0.1314 -0.0160
  352MPD2    C1 5324   4.382   4.251   1.001 -0.2521 -0.0700  0.5421
  352MPD2    C2 5325   4.407   4.124   0.949 -0.3386 -0.7147 -0.1006
  352MPD2    C3 5326   4.515   4.052   0.987 -0.0568 -0.8841  0.2765
  352MPD2    C4 5327   4.604   4.098   1.082 -0.3029  0.4387 -0.1001
  352MPD2    C5 5328   4.571   4.221   1.138  0.2750  0.2406 -0.0098
  352MPD2     H 5329   4.328   4.075   0.894  1.3759 -1.0861 -2.2469
  352MPD2    H1 5330   4.693   4.043   1.111 -1.1607 -0.3720  0.9699
  352MPD2    H2 5331   4.444   4.391   1.152 -0.8057 -0.3615  0.1248
  352MPD2    H3 5332   4.639   4.256   1.215 -0.6196  1.1114  0.3877
  352MPD2     N 5333   4.538   3.919   0.944  0.7197  0.6365  0.8178
  352MPD2    H5 5334   4.618   3.873   0.987  0.1682 -0.4034  0.7402
  352MPD2    N1 5335   4.266   4.321   0.976  0.1890  0.2626  0.1069
  352MPD2    H7 5336   4.246   4.396   1.042 -2.5081  1.3812 -1.9523
  353TMC3    C1 5337   4.489   3.713   0.853  1.1135 -0.2126  0.0226
  353TMC3    C2 5338   4.617   3.660   0.839 -0.3604 -0.3133 -0.0111
  353TMC3    C3 5339   4.617   3.530   0.793  0.0412  0.3832  0.2656
  353TMC3    C4 5340   4.377   3.645   0.844 -0.4197  0.1537  0.0397
  353TMC3    C5 5341   4.390   3.512   0.806 -0.2938 -0.9301 -0.5291
  353TMC3    C6 5342   4.508   3.452   0.777  0.2109 -0.3054  0.1682
  353TMC3     C 5343   4.461   3.857   0.852  0.5263 -0.1341  0.0473
  353TMC3     O 5344   4.363   3.884   0.790  0.0853 -0.8256 -0.0879
  353TMC3     H 5345   4.701   3.725   0.816  0.5051 -1.5651 -0.4211
  353TMC3    H1 5346   4.277   3.680   0.864 -0.8426 -0.4909 -0.9764
  353TMC3    H2 5347   4.505   3.348   0.748 -0.1723 -0.3308  0.2974
  353TMC3    C7 5348   4.271   3.446   0.755  0.3249 -0.1086 -0.0974
  353TMC3    C8 5349   4.740   3.485   0.726  0.3237 -0.1964  0.4731
  353TMC3    O1 5350   4.273   3.322   0.737  0.0822  0.3571 -0.4768
  353TMC3    O2 5351   0.097   3.556   0.734  0.0284 -0.4724 -0.1034
  354TMC3    C1 5352   0.809   0.410  13.510 -0.2609  0.5199 -0.3492
  354TMC3    C2 5353   0.845   0.538  13.508 -0.1516  0.7350  0.2170
  354TMC3    C3 5354   0.824   0.606  13.392 -0.3847  0.3380 -0.0425
  354TMC3    C4 5355   0.764   0.339  13.400 -0.4152  0.0831 -0.0771
  354TMC3    C5 5356   0.772   0.398  13.279  0.5153 -1.1401 -0.0441
  354TMC3    C6 5357   0.786   0.537  13.275  0.5427  0.1984  0.5799
  354TMC3     C 5358   0.815   0.325  13.630  0.1606 -0.0760  0.8334
  354TMC3     O 5359   0.765   0.214  13.623 -0.0962  0.0234  0.2264
  354TMC3     H 5360   0.845   0.587  13.605 -0.7524 -1.1201  1.1425
  354TMC3    H1 5361   0.769   0.231  13.394  0.6381  0.3422 -3.7940
  354TMC3    H2 5362   0.796   0.583  13.177  0.9858 -1.4766 -0.1620
  354TMC3    C7 5363   0.877   0.332  13.203  0.1110  0.5814 -0.3369
  354TMC3    C8 5364   0.938   0.690  13.360 -0.2190  0.4632 -0.1517
  354TMC3    O1 5365   0.965   0.267  13.261  0.4991  0.1910  0.0791
  354TMC3    O2 5366   0.931   0.756  13.260  0.4685 -0.1712  0.3671
  355MPD2     C 5367   1.095   1.434  11.900 -0.9488  0.0848  0.1927
  355MPD2    C1 5368   1.160   1.515  11.809 -0.4172  0.3514  0.9985
  355MPD2    C2 5369   1.298   1.504  11.803 -0.3590  0.0137 -0.0722
  355MPD2    C3 5370   1.373   1.435  11.898 -0.2880  0.3191  0.4363
  355MPD2    C4 5371   1.302   1.360  11.991  0.9097  0.4508 -0.5009
  355MPD2    C5 5372   1.166   1.357  11.992 -0.1948 -0.0590 -0.3676
  355MPD2     H 5373   1.357   1.552  11.726 -1.3602  1.1870 -0.1051
  355MPD2    H1 5374   1.356   1.312  12.072  2.2286  1.4302 -0.8029
  355MPD2    H2 5375   0.987   1.432  11.895 -0.9954 -0.1695  1.3950
  355MPD2    H3 5376   1.114   1.308  12.073  0.7444 -0.4512 -0.0072
  355MPD2     N 5377   1.512   1.444  11.916 -0.1441  0.3597  0.4791
  355MPD2    H5 5378   1.548   1.415  12.006 -2.9861 -1.9811  0.8782
  355MPD2    N1 5379   1.073   1.592  11.722 -0.0789  0.2502  0.5646
  355MPD2    H7 5380   0.974   1.569  11.728 -0.3054  1.2924  0.7179
  356TMC3    C1 5381   1.727   1.508  11.873  0.2749 -0.6886 -0.6081
  356TMC3    C2 5382   1.827   1.501  11.787  0.1531  0.0937  0.5221
  356TMC3    C3 5383   1.951   1.529  11.831 -0.8704  1.2865 -0.2014
  356TMC3    C4 5384   1.741   1.544  12.003  0.5740  0.3538 -0.0580
  356TMC3    C5 5385   1.862   1.598  12.034  0.2647 -0.8815 -0.0597
  356TMC3    C6 5386   1.971   1.598  11.953  0.2244 -0.6146  0.1379
  356TMC3     C 5387   1.598   1.490  11.822 -0.0320  0.0063  0.5586
  356TMC3     O 5388   1.585   1.498  11.702  0.3544  0.1564 -0.3566
  356TMC3     H 5389   1.814   1.456  11.689 -2.4763 -1.6811  1.6830
  356TMC3    H1 5390   1.655   1.555  12.068  0.9043 -2.6380  0.8338
  356TMC3    H2 5391   2.070   1.616  11.994  0.7104 -1.6608 -0.5483
  356TMC3    C7 5392   1.902   1.598  12.174 -0.0543  0.2340 -0.3426
  356TMC3    C8 5393   2.054   1.545  11.724  0.8433 -0.3177  0.0083
  356TMC3    O1 5394   1.853   1.515  12.249 -0.3948  0.0793 -0.0807
  356TMC3    O2 5395   2.038   1.483  11.621 -0.1703  0.2949 -0.1959
  357MPD2     C 5396   0.981   0.874   0.578  0.4596 -0.4273 -0.1038
  357MPD2    C1 5397   0.999   0.752   0.635  0.1968  0.3803 -0.5042
  357MPD2    C2 5398   0.922   0.719   0.743 -0.6761  0.0387  0.0320
  357MPD2    C3 5399   0.820   0.798   0.788  0.1376 -0.0191 -0.0105
  357MPD2    C4 5400   0.806   0.921   0.732 -0.2780  0.4437  0.0791
  357MPD2    C5 5401   0.894   0.962   0.638  0.5221  0.0711 -0.5664
  357MPD2     H 5402   0.923   0.615   0.776 -1.8666  0.5331  1.6317
  357MPD2    H1 5403   0.732   0.993   0.765  0.2885  0.5045  1.2067
  357MPD2    H2 5404   1.013   0.904   0.478  2.3334  1.5185  1.0771
  357MPD2    H3 5405   0.881   1.061   0.596  0.8142  0.2931 -0.1373
  357MPD2     N 5406   0.730   0.755   0.886  0.0976 -0.6459  0.1716
  357MPD2    H5 5407   0.637   0.795   0.896 -0.4774 -1.1613 -3.4048
  357MPD2    N1 5408   1.093   0.666   0.575 -0.8887  0.3807  0.4114
  357MPD2    H7 5409   1.137   0.702   0.491 -1.1165 -0.7402 -0.1919
  358TMC3    C1 5410   1.266   0.496   0.586  0.5061  0.9342  0.0570
  358TMC3    C2 5411   1.250   0.468   0.452 -0.0276  0.1872  0.0724
  358TMC3    C3 5412   1.310   0.353   0.401 -0.6023  0.4963 -0.0905
  358TMC3    C4 5413   1.342   0.409   0.663  0.2595  0.3178  0.2229
  358TMC3    C5 5414   1.395   0.294   0.613 -0.2795  0.1906 -0.1138
  358TMC3    C6 5415   1.394   0.276   0.478  0.5741  0.4478  0.3143
  358TMC3     C 5416   1.147   0.558   0.641 -0.7110 -0.7454 -0.5017
  358TMC3     O 5417   1.111   0.502   0.743  0.3138 -0.3206  0.0507
  358TMC3     H 5418   1.170   0.515   0.397  2.2990  1.3160 -2.3566
  358TMC3    H1 5419   1.353   0.439   0.767 -1.2469  0.3021  0.3899
  358TMC3    H2 5420   1.441   0.188   0.435  2.2432  1.8781 -0.8031
  358TMC3    C7 5421   1.495   0.225   0.685  0.3654 -0.4609 -0.2138
  358TMC3    C8 5422   1.218   0.288   0.305 -0.2439 -0.6842  0.4484
  358TMC3    O1 5423   1.579   0.166   0.613  0.3175 -0.4283  0.3914
  358TMC3    O2 5424   1.141   0.362   0.243  0.2861  0.2136  0.0458
  359MPD2     C 5425   1.599   4.572  12.704 -0.3901 -0.1740 -0.0827
  359MPD2    C1 5426   1.561   4.595  12.574  0.8813 -0.0077 -0.0402
  359MPD2    C2 5427   1.468   4.503  12.519  0.2722  0.0969 -0.2020
  359MPD2    C3 5428   1.425   4.397  12.595 -0.2445  0.0845 -0.2855
  359MPD2    C4 5429   1.458   4.382  12.729 -0.6869 -0.1470 -1.3022
  359MPD2    C5 5430   1.549   4.467  12.782  0.2613 -0.1965 -0.8725
  359MPD2     H 5431   1.423   4.517  12.421  1.7918  0.1114 -0.8902
  359MPD2    H1 5432   1.424   4.294  12.782 -0.9651  0.0027 -1.2334
  359MPD2    H2 5433   1.668   4.635  12.759  1.1291 -1.3435 -0.6874
  359MPD2    H3 5434   1.577   4.455  12.886 -0.6286  1.3732 -0.4455
  359MPD2     N 5435   1.346   4.292  12.543 -1.2200 -0.0614 -0.0032
  359MPD2    H5 5436   1.322   4.227  12.617  0.3890 -0.3610  0.2613
  359MPD2    N1 5437   1.622   4.683  12.484 -0.0826 -0.2175  0.2432
  359MPD2    H7 5438   1.586   4.700  12.391 -0.0248  1.7011  0.5738
  360TMC3    C1 5439   1.786   0.107  12.429 -0.3676 -0.2385  0.0926
  360TMC3    C2 5440   1.919   0.150  12.448  0.3406 -0.1092  0.4907
  360TMC3    C3 5441   1.954   0.274  12.418  0.7304  0.8463 -0.7253
  360TMC3    C4 5442   1.693   0.196  12.372 -0.3580 -0.3771  0.0470
  360TMC3    C5 5443   1.736   0.323  12.350 -0.4951 -0.3104 -0.3546
  360TMC3    C6 5444   1.863   0.362  12.380  1.3786 -0.2602  0.1511
  360TMC3     C 5445   1.742   0.006  12.519  0.3083 -0.5394 -0.1483
  360TMC3     O 5446   1.818   4.728  12.617 -0.2442 -0.2459 -0.0023
  360TMC3     H 5447   1.986   0.090  12.509  1.5359 -1.8022 -2.4994
  360TMC3    H1 5448   1.593   0.163  12.349  0.6258 -1.1760 -3.1222
  360TMC3    H2 5449   1.894   0.462  12.352 -2.2135  0.3752 -1.5142
  360TMC3    C7 5450   1.676   0.390  12.239  0.6050 -0.4370 -0.3273
  360TMC3    C8 5451   2.086   0.316  12.392 -0.2647 -0.4304 -0.0877
  360TMC3    O1 5452   1.747   0.469  12.176  0.2751 -0.2187 -0.3564
  360TMC3    O2 5453   2.118   0.435  12.377  0.1394  0.7356 -0.1374
  361MPD2     C 5454   3.992   3.528  16.449  0.3040  0.5738 -0.2875
  361MPD2    C1 5455   3.892   3.579  16.522  0.7219 -0.1616  0.2747
  361MPD2    C2 5456   3.831   3.498  16.615 -0.3974 -0.3682  0.3930
  361MPD2    C3 5457   3.872   3.374  16.649  0.3885  0.3063 -0.1129
  361MPD2    C4 5458   3.972   3.323  16.570  0.2807  0.1502  0.3612
  361MPD2    C5 5459   4.029   3.396  16.472 -0.0047  0.1680  0.1576
  361MPD2     H 5460   3.748   3.539  16.673 -1.3216 -2.0242  0.2478
  361MPD2    H1 5461   4.018   3.226  16.584  1.2956  0.4160 -1.1334
  361MPD2    H2 5462   4.045   3.588  16.376  0.9807 -0.7365 -0.8840
  361MPD2    H3 5463   4.116   3.359  16.419 -0.0398 -0.6122  0.6473
  361MPD2     N 5464   3.819   3.291  16.755  0.0795  0.8052 -0.0292
  361MPD2    H5 5465   3.840   3.192  16.764  0.7124  1.0651  1.3468
  361MPD2    N1 5466   3.853   3.713  16.524  0.0508 -0.4152  0.0063
  361MPD2    H7 5467   3.784   3.744  16.591  1.0619  0.7129  0.5424
  362TMC3    C1 5468   3.833   3.932  16.486 -0.2030  0.1133  0.0553
  362TMC3    C2 5469   3.773   3.931  16.611  0.2424  0.1024  0.1515
  362TMC3    C3 5470   3.651   3.994  16.641  0.5696 -0.0975 -0.2826
  362TMC3    C4 5471   3.771   4.004  16.389 -1.0860 -0.4116 -0.5348
  362TMC3    C5 5472   3.648   4.065  16.420 -0.0591 -0.2384  0.6245
  362TMC3    C6 5473   3.588   4.057  16.543  1.9782  0.0131  0.7447
  362TMC3     C 5474   3.904   3.815  16.449  0.7032 -0.2324  0.7926
  362TMC3     O 5475   3.997   3.812  16.371  0.2670 -0.0276 -0.4345
  362TMC3     H 5476   3.821   3.886  16.697  2.4829 -2.4202 -2.4219
  362TMC3    H1 5477   3.829   4.027  16.300 -0.7617  1.8604  0.2622
  362TMC3    H2 5478   3.490   4.093  16.572  0.8948 -3.2468  1.1583
  362TMC3    C7 5479   3.579   4.145  16.319  0.0529  0.9209  0.9531
  362TMC3    C8 5480   3.596   3.966  16.780  0.2564  0.6424 -0.2607
  362TMC3    O1 5481   3.514   4.239  16.360  0.2826 -0.1332 -0.1557
  362TMC3    O2 5482   3.653   3.875  16.850  0.6215  0.1671 -0.4428
  363TMC3    C1 5483   2.158   1.689   9.921  0.4495 -0.5784  0.3064
  363TMC3    C2 5484   2.114   1.611  10.018  0.2660  0.2621  0.2845
  363TMC3    C3 5485   2.047   1.666  10.128  0.4714 -0.3881 -0.4210
  363TMC3    C4 5486   2.152   1.828   9.938 -0.1984 -0.6024  0.3027
  363TMC3    C5 5487   2.094   1.876  10.051  0.2541  0.5893 -0.2076
  363TMC3    C6 5488   2.031   1.798  10.142 -0.2012 -0.7129 -0.2890
  363TMC3     C 5489   2.186   1.628   9.794 -0.2790 -0.5035  0.1112
  363TMC3     O 5490   2.196   1.508   9.797  0.3236  0.0074 -0.3847
  363TMC3     H 5491   2.118   1.504   9.998  1.6070  0.4087 -0.2705
  363TMC3    H1 5492   2.183   1.906   9.869 -1.6851 -0.5052 -0.2741
  363TMC3    H2 5493   1.985   1.838  10.232 -0.3628 -1.9064  0.1616
  363TMC3    C7 5494   2.069   2.017  10.068 -0.2648 -0.2049 -0.1756
  363TMC3    C8 5495   2.002   1.581  10.241 -0.2473  0.3669 -0.7338
  363TMC3    O1 5496   1.951   2.037  10.096 -0.2332  0.0269  0.0296
  363TMC3    O2 5497   1.980   1.640  10.345 -0.2599 -0.1658  0.4618
  364MPD2     C 5498   0.785   0.994   9.986 -0.0698 -1.1663  0.3791
  364MPD2    C1 5499   0.846   1.085  10.063 -0.1859 -0.1587  0.5618
  364MPD2    C2 5500   0.909   1.048  10.179 -0.3330 -0.5781  0.6794
  364MPD2    C3 5501   0.911   0.914  10.223 -0.2396  0.8693 -0.4750
  364MPD2    C4 5502   0.840   0.820  10.149  0.2580 -0.4962  0.4724
  364MPD2    C5 5503   0.780   0.862  10.030 -0.5667  0.4887  0.0185
  364MPD2     H 5504   0.947   1.127  10.242 -1.2791  0.1314  0.3659
  364MPD2    H1 5505   0.828   0.713  10.162  3.9650 -0.8132  1.3056
  364MPD2    H2 5506   0.733   1.021   9.894 -1.0956  0.4860  1.4577
  364MPD2    H3 5507   0.733   0.785   9.969  0.4584 -0.8889  0.9712
  364MPD2     N 5508   0.972   0.869  10.335  0.5697  0.7296 -0.0086
  364MPD2    H5 5509   0.959   0.770  10.354  0.0620  1.1244  1.7992
  364MPD2    N1 5510   0.825   1.228  10.033  0.0261 -0.3227  0.4308
  364MPD2    H7 5511   0.756   1.246   9.961 -0.6058 -0.9242  0.8887
  365TMC3    C1 5512   0.853   1.468  10.038  0.0961 -0.5489 -0.5381
  365TMC3    C2 5513   0.788   1.461   9.917  0.1422  0.4835  0.0065
  365TMC3    C3 5514   0.744   1.579   9.862  0.4013  0.1053  0.4996
  365TMC3    C4 5515   0.858   1.580  10.110 -0.7427  0.2906  0.3087
  365TMC3    C5 5516   0.803   1.694  10.054 -0.7970  0.1644 -0.0641
  365TMC3    C6 5517   0.758   1.700   9.929 -0.1596 -0.3690 -0.4963
  365TMC3     C 5518   0.886   1.339  10.106  0.5897 -0.2386  0.0210
  365TMC3     O 5519   0.999   1.333  10.155  0.2792  0.2462 -0.0656
  365TMC3     H 5520   0.777   1.368   9.861 -0.8434  1.0898 -0.8071
  365TMC3    H1 5521   0.914   1.564  10.202  0.2406  1.2004 -0.1365
  365TMC3    H2 5522   0.695   1.786   9.912  0.0313 -0.4603 -1.6197
  365TMC3    C7 5523   0.742   1.783  10.149 -0.6932  0.3288 -0.3021
  365TMC3    C8 5524   0.631   1.570   9.774 -0.0189 -0.2770  0.5532
  365TMC3    O1 5525   0.708   1.898  10.125 -0.2065 -0.7764  0.3646
  365TMC3    O2 5526   0.600   1.664   9.707 -0.0859  0.3798  0.0904
  366MPD2     C 5527   3.884   1.771  15.382 -0.3199 -0.5627 -0.4367
  366MPD2    C1 5528   3.961   1.867  15.327  0.2251  0.6885  0.3011
  366MPD2    C2 5529   4.066   1.832  15.246  0.8330 -0.2979  0.3603
  366MPD2    C3 5530   4.105   1.696  15.228 -0.3904  0.2314 -0.7535
  366MPD2    C4 5531   4.025   1.598  15.280 -0.0472  0.5902 -0.0947
  366MPD2    C5 5532   3.916   1.639  15.350 -0.6336  0.2371 -0.5202
  366MPD2     H 5533   4.119   1.910  15.193  0.2372  0.7627  1.3025
  366MPD2    H1 5534   4.028   1.492  15.254 -0.5806  0.5312  0.0747
  366MPD2    H2 5535   3.804   1.791  15.453  0.0506  1.9698 -0.7238
  366MPD2    H3 5536   3.847   1.566  15.390  0.9740  0.2695  2.3503
  366MPD2     N 5537   4.212   1.673  15.149 -0.8415  0.3053 -0.4220
  366MPD2    H5 5538   4.277   1.749  15.136  0.2771 -0.4183  1.0609
  366MPD2    N1 5539   3.935   2.009  15.354  0.3606  0.0634 -0.4516
  366MPD2    H7 5540   4.008   2.076  15.333  0.0557  1.8361  4.1573
  367TMC3    C1 5541   3.839   2.203  15.440 -0.2717 -0.1603 -1.1129
  367TMC3    C2 5542   3.968   2.237  15.487 -0.7854 -0.7857 -0.6144
  367TMC3    C3 5543   4.034   2.337  15.422  0.1508  0.2033 -0.2966
  367TMC3    C4 5544   3.778   2.286  15.351 -0.4362 -0.6398  0.1424
  367TMC3    C5 5545   3.844   2.394  15.302  0.0291  0.1008  0.9981
  367TMC3    C6 5546   3.969   2.429  15.342  0.0486  0.9447  0.2283
  367TMC3     C 5547   3.819   2.064  15.406 -0.1864  0.1788 -0.0881
  367TMC3     O 5548   3.707   2.018  15.413  0.1033 -0.2942 -0.3635
  367TMC3     H 5549   4.027   2.179  15.558  0.7589  0.9867 -0.4616
  367TMC3    H1 5550   3.679   2.259  15.314 -1.2571  1.1603  0.9798
  367TMC3    H2 5551   4.020   2.517  15.303 -0.4009  0.8006 -0.6894
  367TMC3    C7 5552   3.800   2.464  15.185  0.9380  0.4858  0.2002
  367TMC3    C8 5553   4.170   2.356  15.461 -0.0235 -0.3429 -0.7460
  367TMC3    O1 5554   3.855   2.572  15.168 -0.0934 -0.2755  0.3127
  367TMC3    O2 5555   4.189   2.361  15.584  0.2554  0.3735 -0.4630
  368MPD2     C 5556   0.394   3.582  13.547 -0.9336  0.0362 -0.6568
  368MPD2    C1 5557   0.389   3.678  13.447 -0.9591 -0.3769 -0.1115
  368MPD2    C2 5558   0.451   3.654  13.321  0.0839  0.8720 -0.0211
  368MPD2    C3 5559   0.519   3.529  13.310 -0.1933  0.2038 -0.1378
  368MPD2    C4 5560   0.528   3.439  13.417 -0.2543 -0.3334 -0.0782
  368MPD2    C5 5561   0.464   3.468  13.534  0.7671  0.1877  0.2013
  368MPD2     H 5562   0.426   3.714  13.234 -1.6258  2.1545  1.3750
  368MPD2    H1 5563   0.561   3.337  13.400 -1.0808 -0.6646  0.2765
  368MPD2    H2 5564   0.350   3.598  13.645 -2.5711 -0.0675 -1.3698
  368MPD2    H3 5565   0.470   3.405  13.622 -1.8637 -1.1898 -0.6036
  368MPD2     N 5566   0.569   3.478  13.187 -0.1148 -0.3961 -0.3551
  368MPD2    H5 5567   0.610   3.385  13.188 -0.9571 -0.7553  0.1475
  368MPD2    N1 5568   0.333   3.804  13.486  0.3109  0.1394 -0.2123
  368MPD2    H7 5569   0.314   3.814  13.585 -0.4021 -0.0572 -0.3298
  369TMC3    C1 5570   0.213   3.995  13.465  0.3315 -0.3022  0.2728
  369TMC3    C2 5571   0.202   4.111  13.393 -0.0481  0.7976  0.3342
  369TMC3    C3 5572   0.080   4.169  13.376 -0.3883 -0.1855 -0.3744
  369TMC3    C4 5573   0.097   3.924  13.507 -0.8355  0.0581 -0.2886
  369TMC3    C5 5574   4.721   3.997  13.497 -0.3845  0.3863 -0.3207
  369TMC3    C6 5575   4.704   4.115  13.430 -0.2327  0.3265 -0.3363
  369TMC3     C 5576   0.309   3.909  13.404  0.4141 -0.2963 -1.0155
  369TMC3     O 5577   0.354   3.930  13.290 -0.4209 -0.4333  0.5146
  369TMC3     H 5578   0.295   4.160  13.368  0.3309  0.3028  0.7758
  369TMC3    H1 5579   0.089   3.828  13.557 -1.3282  1.1966  1.7885
  369TMC3    H2 5580   4.611   4.169  13.419 -0.1157  0.6595  0.3035
  369TMC3    C7 5581   4.596   3.917  13.512 -0.4616 -0.3450 -0.4518
  369TMC3    C8 5582   0.071   4.269  13.268  0.2346  0.9349 -0.9642
  369TMC3    O1 5583   4.596   3.852  13.612 -0.0301  0.2520 -0.5597
  369TMC3    O2 5584   4.706   4.301  13.218 -0.2484  0.3740 -0.2664
  370TMC3    C1 5585   4.656   4.351  16.017  0.2676  0.5876  0.1082
  370TMC3    C2 5586   4.556   4.292  16.091 -0.0290  0.2452  0.3785
  370TMC3    C3 5587   4.542   4.156  16.079  0.4940 -0.1679  0.4177
  370TMC3    C4 5588   4.716   4.293  15.915 -0.3175  0.0862  0.3464
  370TMC3    C5 5589   4.681   4.162  15.886  0.3221 -0.2518 -0.1295
  370TMC3    C6 5590   4.606   4.092  15.977  0.2004 -0.2139 -0.3425
  370TMC3     C 5591   4.729   4.448  16.097 -0.3907  0.2702  0.3862
  370TMC3     O 5592   4.703   4.452  16.217 -0.6205  0.3756  0.4752
  370TMC3     H 5593   4.515   4.354  16.169  2.0103 -0.3364  1.9188
  370TMC3    H1 5594   0.062   4.342  15.872 -0.3127  1.3892  1.8159
  370TMC3    H2 5595   4.588   3.985  15.968  0.4437 -0.2022 -0.9832
  370TMC3    C7 5596   0.022   4.105  15.778 -0.1918  0.0755 -0.4509
  370TMC3    C8 5597   4.506   4.073  16.197  0.8153  0.3618 -0.6105
  370TMC3    O1 5598   0.083   4.179  15.698  0.3678 -0.1029  0.4893
  370TMC3    O2 5599   4.525   3.953  16.185  0.0135 -0.0336  0.1451
  371TMC3    C1 5600   1.457   2.754  15.533 -0.0345  0.5929  0.5331
  371TMC3    C2 5601   1.333   2.750  15.589 -0.5474 -0.1963 -0.2685
  371TMC3    C3 5602   1.260   2.867  15.618  0.1629  0.2603  0.0110
  371TMC3    C4 5603   1.510   2.870  15.493  0.2203 -0.4480  0.0039
  371TMC3    C5 5604   1.436   2.982  15.499 -0.4110 -0.0211 -0.7349
  371TMC3    C6 5605   1.312   2.989  15.559  0.0320 -0.0077  0.0870
  371TMC3     C 5606   1.550   2.641  15.549  0.5051  0.1627 -0.2220
  371TMC3     O 5607   1.667   2.659  15.527 -0.5336 -0.1586 -0.2266
  371TMC3     H 5608   1.280   2.663  15.626  0.8554  0.1129  2.4941
  371TMC3    H1 5609   1.608   2.869  15.448  0.5502  0.6746  0.7145
  371TMC3    H2 5610   1.255   3.082  15.558 -0.3039 -0.2202 -0.7618
  371TMC3    C7 5611   1.493   3.111  15.462 -0.2656  0.4319  0.0640
  371TMC3    C8 5612   1.201   2.863  15.751  0.0284 -0.6174 -0.2694
  371TMC3    O1 5613   1.445   3.216  15.512  0.1924  0.2238 -0.2255
  371TMC3    O2 5614   1.229   2.767  15.822 -0.4205 -0.2350  0.4118
  372MPD2     C 5615   0.815   3.892  13.340 -0.4085  0.0036  0.1544
  372MPD2    C1 5616   0.940   3.883  13.412 -0.0851 -0.3253  0.1625
  372MPD2    C2 5617   0.937   3.840  13.546 -0.4192  0.1899  0.1804
  372MPD2    C3 5618   0.826   3.804  13.610  0.4587 -0.3407  0.1939
  372MPD2    C4 5619   0.713   3.807  13.538  0.2144 -0.0406 -0.2167
  372MPD2    C5 5620   0.701   3.852  13.408 -0.0483  0.0565 -0.6859
  372MPD2     H 5621   1.029   3.830  13.603  0.2307 -1.0942 -1.1005
  372MPD2    H1 5622   0.614   3.779  13.573 -0.0805  1.3394  0.0798
  372MPD2    H2 5623   0.802   3.907  13.234 -0.7662 -1.3742  0.0014
  372MPD2    H3 5624   0.606   3.852  13.356 -0.8012  1.1646  0.6786
  372MPD2     N 5625   0.825   3.760  13.739 -0.2882 -0.1882 -0.5453
  372MPD2    H5 5626   0.917   3.747  13.780  0.2659 -0.2885 -1.8295
  372MPD2    N1 5627   1.063   3.924  13.349 -0.1917  0.4791  1.1267
  372MPD2    H7 5628   1.145   3.899  13.404  1.6214  0.7842 -1.4072
  373TMC3    C1 5629   0.752   3.665  13.937  0.3132  0.3854  0.3589
  373TMC3    C2 5630   0.713   3.714  14.062  1.2232  0.4681 -0.3233
  373TMC3    C3 5631   0.778   3.668  14.172 -0.0825 -0.0220 -0.2176
  373TMC3    C4 5632   0.836   3.557  13.926  0.2073 -0.2263 -0.1291
  373TMC3    C5 5633   0.887   3.496  14.042 -0.0640 -0.0800  0.3331
  373TMC3    C6 5634   0.856   3.556  14.166 -0.2459 -0.2260  0.2742
  373TMC3     C 5635   0.717   3.739  13.820  0.0767  0.0636 -0.4578
  373TMC3     O 5636   0.601   3.778  13.809  0.2158 -0.1310 -0.5818
  373TMC3     H 5637   0.665   3.812  14.063  2.4699  1.0749  0.4760
  373TMC3    H1 5638   0.866   3.531  13.826 -2.0277  0.7194 -1.0382
  373TMC3    H2 5639   0.899   3.512  14.256  0.3566  1.7261  0.9283
  373TMC3    C7 5640   0.962   3.378  14.018  0.4323 -0.5323  0.4737
  373TMC3    C8 5641   0.851   3.768  14.250 -0.1189  0.0766 -0.0675
  373TMC3    O1 5642   0.933   3.316  13.919  0.4286 -0.2509  0.1768
  373TMC3    O2 5643   0.955   3.722  14.302 -0.2649  0.3398 -0.0396
  374TMC3    C1 5644   0.279   0.018  10.351 -1.0700  0.6708  0.0854
  374TMC3    C2 5645   0.396   0.058  10.299 -0.2553  0.3393 -0.4310
  374TMC3    C3 5646   0.425   0.036  10.171  0.7459 -0.5915 -0.2590
  374TMC3    C4 5647   0.180   4.716  10.264 -0.4991 -0.3396 -0.0143
  374TMC3    C5 5648   0.210   4.715  10.130  0.1708 -0.4623  0.4045
  374TMC3    C6 5649   0.333   4.738  10.077 -0.4069 -0.0176  0.4904
  374TMC3     C 5650   0.240   0.054  10.486  0.5578 -0.4418 -0.3337
  374TMC3     O 5651   0.275   0.162  10.535  0.4236 -0.2434 -0.3185
  374TMC3     H 5652   0.467   0.088  10.375  0.8649 -1.0348 -0.9393
  374TMC3    H1 5653   0.077   4.723  10.294 -0.0468  0.7612  1.2698
  374TMC3    H2 5654   0.368   4.720   9.975  0.5290  0.8694  0.6454
  374TMC3    C7 5655   0.108   4.684  10.033  0.5402 -0.4105  0.4017
  374TMC3    C8 5656   0.563   0.043  10.131 -0.3427  0.3552 -0.1051
  374TMC3    O1 5657   0.151   4.669   9.925  0.1780  0.6766 -0.5958
  374TMC3    O2 5658   0.589   0.054  10.013  0.2669  0.1836  0.5717
  375MPD2     C 5659   1.424   0.258  16.834  0.9681 -0.2369 -1.0292
  375MPD2    C1 5660   1.332   0.192  16.751 -0.6464 -0.6116 -0.3413
  375MPD2    C2 5661   1.367   0.071  16.695  0.0385  0.5635 -0.8612
  375MPD2    C3 5662   1.504   0.021  16.711 -0.1523  0.4196  0.0561
  375MPD2    C4 5663   1.587   0.087  16.795 -0.3295 -0.0023 -0.9724
  375MPD2    C5 5664   1.552   0.205  16.850 -0.2540 -0.1155 -0.3210
  375MPD2     H 5665   1.295   0.020  16.632  0.5650  1.8628 -2.5375
  375MPD2    H1 5666   1.686   0.051  16.821 -0.2668 -0.5764 -1.9762
  375MPD2    H2 5667   1.401   0.357  16.871 -0.5248 -1.0964  0.3155
  375MPD2    H3 5668   1.620   0.259  16.916 -1.4578 -0.8837  1.5567
  375MPD2     N 5669   1.547   4.644  16.651 -0.8545 -0.0653  0.2061
  375MPD2    H5 5670   1.634   4.607  16.690 -0.6992 -1.2098 -1.2097
  375MPD2    N1 5671   1.194   0.228  16.764 -0.3863 -0.2863 -0.4493
  375MPD2    H7 5672   1.137   0.171  16.703 -1.7598  0.2196  0.3650
  376TMC3    C1 5673   1.545   4.458  16.505 -0.4921  0.8392  0.0281
  376TMC3    C2 5674   1.620   4.386  16.592 -0.2173 -0.0263  0.1931
  376TMC3    C3 5675   1.616   4.252  16.574  0.5817  0.4338 -0.1691
  376TMC3    C4 5676   1.496   4.406  16.391  0.4412 -0.1714  0.1217
  376TMC3    C5 5677   1.518   4.278  16.367  0.1051 -0.5331  0.6769
  376TMC3    C6 5678   1.574   4.189  16.457  0.0155  0.4698 -0.5806
  376TMC3     C 5679   1.480   4.580  16.556 -0.1081  0.2793 -0.0150
  376TMC3     O 5680   1.390   4.624  16.490  0.2169  0.1306 -0.1580
  376TMC3     H 5681   1.647   4.421  16.691 -1.1750  0.7675  0.1665
  376TMC3    H1 5682   1.429   4.454  16.321  3.1069  0.8163 -1.7582
  376TMC3    H2 5683   1.580   4.082  16.443  1.6479  0.5456 -0.4796
  376TMC3    C7 5684   1.509   4.229  16.228  0.2923  0.0310 -0.3623
  376TMC3    C8 5685   1.727   4.188  16.634  0.4283 -0.0471  0.1626
  376TMC3    O1 5686   1.490   4.111  16.206  0.0275 -0.5837  0.3296
  376TMC3    O2 5687   1.726   4.066  16.633  0.1308  0.0022  0.0782
  377MPD2     C 5688   4.035   4.187  13.530 -0.8991  0.3017 -0.4007
  377MPD2    C1 5689   3.951   4.155  13.430  0.0038 -0.0276  0.4893
  377MPD2    C2 5690   3.836   4.075  13.464  0.0154 -0.8495  0.1280
  377MPD2    C3 5691   3.814   4.067  13.605  0.2324 -0.7522  0.5352
  377MPD2    C4 5692   3.901   4.118  13.702  0.3916  0.5107 -0.2942
  377MPD2    C5 5693   4.018   4.168  13.662 -0.6034 -0.7571 -0.7334
  377MPD2     H 5694   3.762   4.038  13.395  1.7179  0.9408 -2.7121
  377MPD2    H1 5695   3.884   4.106  13.809 -0.3352  1.0230 -0.3524
  377MPD2    H2 5696   4.119   4.248  13.502  0.2803 -0.2413  1.9260
  377MPD2    H3 5697   4.095   4.201  13.730 -1.7636 -0.4672  0.4375
  377MPD2     N 5698   3.698   4.002  13.658  0.4216  0.0578  0.4517
  377MPD2    H5 5699   3.695   4.001  13.759 -0.8515 -0.7852  0.3995
  377MPD2    N1 5700   3.995   4.181  13.296  0.0826  0.6700  0.4023
  377MPD2    H7 5701   4.088   4.219  13.287 -0.6583  2.3774  0.0177
  378TMC3    C1 5702   3.950   4.215  12.829 -0.6972  0.0950 -1.3214
  378TMC3    C2 5703   3.888   4.192  12.954  0.4375  0.1379 -0.2585
  378TMC3    C3 5704   3.967   4.194  13.060  0.5703  0.1781 -0.8710
  378TMC3    C4 5705   4.085   4.237  12.816 -0.1507 -0.0889 -0.1819
  378TMC3    C5 5706   4.157   4.249  12.933  0.3823  0.3385 -0.0357
  378TMC3    C6 5707   4.099   4.228  13.055 -0.4451  0.2955  0.0308
  378TMC3     C 5708   3.861   4.230  12.720  0.6204  0.4131  0.5789
  378TMC3     O 5709   3.746   4.263  12.737  0.3839 -0.1828  0.3860
  378TMC3     H 5710   3.783   4.164  12.958  0.5749 -0.3083  0.3036
  378TMC3    H1 5711   4.132   4.274  12.726 -2.0982  0.5411 -0.9446
  378TMC3    H2 5712   4.166   4.237  13.140 -0.7402  0.6793  0.2212
  378TMC3    C7 5713   4.306   4.233  12.926  0.1262 -0.6885 -0.9835
  378TMC3    C8 5714   3.905   4.176  13.190  0.3325  0.3983 -0.0948
  378TMC3    O1 5715   4.365   4.220  13.033  0.6956  0.0832  0.0630
  378TMC3    O2 5716   3.787   4.154  13.189  0.0423 -0.1691  0.1105
  379MPD2     C 5717   0.295   2.312  16.113  0.0550 -0.8336  0.7794
  379MPD2    C1 5718   0.211   2.211  16.146  1.0357  0.5727 -0.0807
  379MPD2    C2 5719   0.222   2.129  16.256  0.4691 -0.1333 -0.2361
  379MPD2    C3 5720   0.333   2.161  16.334  0.3207 -0.0468 -0.1360
  379MPD2    C4 5721   0.429   2.254  16.299  0.1269  0.1684 -0.5229
  379MPD2    C5 5722   0.409   2.324  16.185 -0.4456  0.0175  1.1623
  379MPD2     H 5723   0.157   2.044  16.272  0.0550  0.2023 -0.1285
  379MPD2    H1 5724   0.524   2.268  16.350 -0.5599 -0.8370  1.0381
  379MPD2    H2 5725   0.268   2.366  16.023  0.1505 -1.4788  0.3634
  379MPD2    H3 5726   0.479   2.401  16.155 -1.9360 -0.3585 -3.3285
  379MPD2     N 5727   0.372   2.088  16.448 -0.3620  0.1676  0.7165
  379MPD2    H5 5728   0.463   2.119  16.477 -1.3694  0.2772  3.7570
  379MPD2    N1 5729   0.134   2.173  16.033  0.5834 -0.7078  0.3875
  379MPD2    H7 5730   0.149   2.213  15.941  0.1786 -0.7039  0.3267
  380TMC3    C1 5731   0.026   2.011  15.912 -0.6692 -0.0976  0.0088
  380TMC3    C2 5732   0.143   1.944  15.899 -0.1741 -0.6981  0.2165
  380TMC3    C3 5733   0.199   1.908  15.776 -0.7214  0.4997 -0.2249
  380TMC3    C4 5734   4.715   2.067  15.797  0.4441 -0.0679 -1.2562
  380TMC3    C5 5735   0.031   2.029  15.671  0.0036  0.3593  0.2236
  380TMC3    C6 5736   0.129   1.936  15.664 -0.9043 -0.5998 -0.2705
  380TMC3     C 5737   0.028   2.093  16.034 -0.2352  0.0257 -0.0302
  380TMC3     O 5738   4.691   2.050  16.120  0.2621  0.3200 -0.3185
  380TMC3     H 5739   0.174   1.886  15.986 -0.4922 -1.2282 -0.0198
  380TMC3    H1 5740   4.643   2.148  15.801  1.3370  0.4932  3.2063
  380TMC3    H2 5741   0.159   1.905  15.564  0.5552 -0.5256  0.1456
  380TMC3    C7 5742   0.009   2.096  15.545  0.2618 -0.6567 -0.0844
  380TMC3    C8 5743   0.339   1.898  15.766 -0.2291 -0.2823 -0.4456
  380TMC3    O1 5744   0.083   2.078  15.447  0.3244  0.2625  0.0786
  380TMC3    O2 5745   0.386   1.869  15.656  0.1549 -0.0788 -0.5139
  381TMC3    C1 5746   4.497   3.476  16.085  0.1890 -0.1535 -0.7595
  381TMC3    C2 5747   4.588   3.574  16.057 -0.0259  0.1141  0.4118
  381TMC3    C3 5748   4.618   3.659  16.158 -0.3742  0.8477 -0.1581
  381TMC3    C4 5749   4.437   3.472  16.207 -0.6230  0.6802 -0.5715
  381TMC3    C5 5750   4.449   3.575  16.293 -0.0224 -0.7956  0.2824
  381TMC3    C6 5751   4.549   3.659  16.273 -0.8685 -0.3857  0.1194
  381TMC3     C 5752   4.513   3.348  16.014 -0.5168 -0.4398 -1.0787
  381TMC3     O 5753   4.539   3.360  15.895 -0.5381  0.1786  0.0873
  381TMC3     H 5754   4.647   3.571  15.966  1.8397  0.7568  1.6033
  381TMC3    H1 5755   4.350   3.410  16.224 -0.4153  0.9978  1.6404
  381TMC3    H2 5756   4.569   3.730  16.353 -0.3033  0.2757 -0.6039
  381TMC3    C7 5757   4.408   3.533  16.426 -0.1171  0.0621 -0.1526
  381TMC3    C8 5758   0.014   3.712  16.166  0.2222 -0.2880 -0.0710
  381TMC3    O1 5759   4.406   3.413  16.446 -0.0505 -0.4182  0.3659
  381TMC3    O2 5760   0.093   3.644  16.103 -0.1931 -0.1095 -0.0307
  382MPD2     C 5761   3.700   1.145  16.858 -0.9042 -0.5639  0.2647
  382MPD2    C1 5762   3.708   1.204  16.983  0.5298 -0.2510 -0.3484
  382MPD2    C2 5763   3.650   1.140  17.091 -0.8140 -0.1326  0.4130
  382MPD2    C3 5764   3.588   1.018  17.074  0.4474 -0.6705  0.1386
  382MPD2    C4 5765   3.604   0.956  16.956  0.3801 -0.0671  0.5429
  382MPD2    C5 5766   3.657   1.019  16.846  0.5227  0.1160 -0.6285
  382MPD2     H 5767   3.651   1.187  17.189 -0.3700  1.4057 -0.3268
  382MPD2    H1 5768   3.572   0.854  16.946  0.9861 -0.3301  1.2783
  382MPD2    H2 5769   3.733   1.196  16.768 -0.5967 -2.0649 -0.4770
  382MPD2    H3 5770   3.663   0.973  16.748  0.8172 -1.7023  0.2403
  382MPD2     N 5771   3.535   0.944  17.186 -0.2245  0.2767  0.0786
  382MPD2    H5 5772   3.493   0.853  17.169 -0.1046  0.2824 -0.2502
  382MPD2    N1 5773   3.773   1.327  17.004 -0.0183 -0.3031 -0.4520
  382MPD2    H7 5774   3.786   1.355  17.101  0.8264 -1.8734 -0.1144
  383TMC3    C1 5775   3.458   0.909  17.405  0.1718  0.1935 -0.0015
  383TMC3    C2 5776   3.420   0.782  17.366 -0.0914  0.1528  0.2169
  383TMC3    C3 5777   3.313   0.737  17.432  0.4197 -0.4256  0.1026
  383TMC3    C4 5778   3.414   0.978  17.511 -0.9699  0.3431 -0.1038
  383TMC3    C5 5779   3.308   0.927  17.572  0.0559 -0.4211 -0.7498
  383TMC3    C6 5780   3.261   0.800  17.545 -0.4874 -0.1310  0.0146
  383TMC3     C 5781   3.531   0.989  17.318  0.5806  0.7231 -0.2524
  383TMC3     O 5782   3.583   1.087  17.367  0.3860  0.1797  0.3329
  383TMC3     H 5783   3.469   0.734  17.282 -0.4285 -0.0133  0.1156
  383TMC3    H1 5784   3.442   1.076  17.549  2.5102 -0.8649  0.3896
  383TMC3    H2 5785   3.178   0.756  17.601  0.2343 -0.1579  1.0609
  383TMC3    C7 5786   3.251   0.993  17.682  0.3226 -0.1582  0.2732
  383TMC3    C8 5787   3.276   0.597  17.416  0.1586 -0.0148 -0.6935
  383TMC3    O1 5788   3.183   0.918  17.751  0.7302  0.3589 -0.3698
  383TMC3    O2 5789   3.230   0.539  17.515 -0.0568 -0.3757 -0.3136
  384MPD2     C 5790   4.708   2.188  12.018  0.3371  0.4246 -0.1961
  384MPD2    C1 5791   0.077   2.193  12.097 -0.7877 -0.1105  0.0319
  384MPD2    C2 5792   0.191   2.131  12.057 -0.1914  0.7504 -0.4588
  384MPD2    C3 5793   0.208   2.062  11.938  0.0544  0.2114 -0.3762
  384MPD2    C4 5794   0.095   2.056  11.861  0.4908  0.6320 -0.4763
  384MPD2    C5 5795   4.722   2.129  11.889  0.3829  0.3382 -0.4411
  384MPD2     H 5796   0.275   2.123  12.125 -0.9107 -0.6063  0.2900
  384MPD2    H1 5797   0.086   1.993  11.774 -1.7343  2.0637 -1.3000
  384MPD2    H2 5798   4.611   2.229  12.042  0.4852 -0.0279  1.1686
  384MPD2    H3 5799   4.644   2.112  11.817  0.4979 -1.6772 -0.0747
  384MPD2     N 5800   0.323   1.994  11.910 -0.0780  0.0895  0.3723
  384MPD2    H5 5801   0.400   2.011  11.974 -0.2168 -0.8432  0.7896
  384MPD2    N1 5802   0.066   2.254  12.224 -0.6904  0.5181 -0.0760
  384MPD2    H7 5803   4.714   2.283  12.253 -0.2462 -0.1396  1.9767
  385TMC3    C1 5804   0.460   1.827  11.828  0.1339 -0.2494  0.4229
  385TMC3    C2 5805   0.515   1.750  11.722 -0.9025 -0.3212  0.3467
  385TMC3    C3 5806   0.642   1.691  11.737 -0.1883 -0.2440  0.4540
  385TMC3    C4 5807   0.526   1.825  11.951 -0.4144 -0.4425  0.0319
  385TMC3    C5 5808   0.646   1.763  11.964  0.4759  0.1957  1.1853
  385TMC3    C6 5809   0.709   1.702  11.860  0.6153 -0.2250  0.6474
  385TMC3     C 5810   0.340   1.907  11.805  0.0724 -0.2730 -0.1621
  385TMC3     O 5811   0.274   1.899  11.702  0.3580 -0.0094  0.3771
  385TMC3     H 5812   0.449   1.748  11.636  0.2533 -2.1636 -0.5255
  385TMC3    H1 5813   0.486   1.887  12.031  2.1875  0.2046  0.8381
  385TMC3    H2 5814   0.803   1.654  11.881  0.8933  0.0574  0.0636
  385TMC3    C7 5815   0.727   1.797  12.083  0.8484 -1.1507  0.6913
  385TMC3    C8 5816   0.688   1.575  11.662  0.5875  0.5971 -0.6300
  385TMC3    O1 5817   0.846   1.821  12.068 -0.2838  0.3616  0.6295
  385TMC3    O2 5818   0.789   1.523  11.695  0.1856  0.3569 -0.7049
  386TMC3    C1 5819   0.704   4.139  11.912  0.1663 -0.1857 -0.6978
  386TMC3    C2 5820   0.795   4.232  11.948 -0.0143  0.7086 -0.1915
  386TMC3    C3 5821   0.755   4.341  12.028 -0.3350 -0.5099 -0.1140
  386TMC3    C4 5822   0.575   4.150  11.954  0.2348  0.3038 -0.2110
  386TMC3    C5 5823   0.534   4.249  12.033  0.3534  0.1299  0.3336
  386TMC3    C6 5824   0.624   4.341  12.078  0.0734  0.0796  1.1155
  386TMC3     C 5825   0.739   4.041  11.816 -0.7799  0.1076 -0.0040
  386TMC3     O 5826   0.650   3.982  11.754 -0.3910 -0.8628  0.2481
  386TMC3     H 5827   0.895   4.232  11.906  0.3219  0.3814  0.6236
  386TMC3    H1 5828   0.506   4.068  11.938  0.4512  0.5707 -2.5160
  386TMC3    H2 5829   0.578   4.417  12.140  1.2515  1.5325  0.1999
  386TMC3    C7 5830   0.401   4.252  12.092 -0.1560  0.1596  0.2185
  386TMC3    C8 5831   0.758   4.463  11.950 -0.5033 -0.2384 -0.1586
  386TMC3    O1 5832   0.392   4.292  12.206 -0.2722 -0.0936 -0.0360
  386TMC3    O2 5833   0.781   4.451  11.832 -0.3868  0.5329  0.0068
  387MPD2     C 5834   2.692   4.465  10.193  0.2974  0.1045 -0.3219
  387MPD2    C1 5835   2.740   4.426  10.318 -0.2939  0.1164 -0.5372
  387MPD2    C2 5836   2.764   4.292  10.335  0.7173  0.3052  0.4723
  387MPD2    C3 5837   2.759   4.199  10.239 -0.9163  0.3149 -0.0125
  387MPD2    C4 5838   2.706   4.230  10.116 -0.1411 -0.5343 -0.5120
  387MPD2    C5 5839   2.675   4.363  10.098 -0.4955 -0.3692 -0.2186
  387MPD2     H 5840   2.793   4.271  10.438 -1.6614  1.2858  1.3505
  387MPD2    H1 5841   2.681   4.163  10.034 -3.0787  0.9621 -0.8209
  387MPD2    H2 5842   2.674   4.566  10.158 -0.4844  0.6757  1.7036
  387MPD2    H3 5843   2.631   4.395  10.004  1.1335  0.3608 -0.7207
  387MPD2     N 5844   2.802   4.074  10.282  0.2472  0.0351 -0.0568
  387MPD2    H5 5845   2.837   4.072  10.378  0.3545 -0.7285 -0.1081
  387MPD2    N1 5846   2.769   4.519  10.420  0.3964  0.0531  0.3844
  387MPD2    H7 5847   2.795   4.477  10.508  1.2404 -0.5798 -0.1664
  388TMC3    C1 5848   2.868   4.706  10.518 -0.0431 -0.3332  0.5859
  388TMC3    C2 5849   2.892   0.097  10.536 -0.0398 -0.0229  0.3233
  388TMC3    C3 5850   2.985   0.151  10.622  0.3507 -0.1806 -0.8248
  388TMC3    C4 5851   2.950   4.616  10.583 -0.3226  0.3010  0.3183
  388TMC3    C5 5852   3.052   4.669  10.661 -0.6912 -0.0643  0.1042
  388TMC3    C6 5853   3.071   0.064  10.681 -0.0732  0.5048 -0.4747
  388TMC3     C 5854   2.790   4.653  10.406 -0.1498 -0.8258  0.1624
  388TMC3     O 5855   2.767   4.729  10.313  0.6294 -0.3907 -0.2880
  388TMC3     H 5856   2.822   0.162  10.484  1.1284  1.5888  0.7471
  388TMC3    H1 5857   2.952   4.510  10.561 -0.2187  0.3920 -0.1008
  388TMC3    H2 5858   3.153   0.101  10.742  0.5583  2.5956 -2.5762
  388TMC3    C7 5859   3.163   4.587  10.707 -0.2174 -0.5131 -0.1990
  388TMC3    C8 5860   3.029   0.288  10.593 -0.5090 -0.6794 -0.2383
  388TMC3    O1 5861   3.272   4.634  10.733  0.4907  0.3151  0.2856
  388TMC3    O2 5862   2.975   0.352  10.502 -0.0412 -0.1051  0.2926
  389MPD2     C 5863   2.539   2.847  11.619 -0.4668  1.2042  0.0241
  389MPD2    C1 5864   2.473   2.727  11.583  0.8022  0.7482 -0.1718
  389MPD2    C2 5865   2.411   2.663  11.689 -0.4537 -0.2026 -0.3174
  389MPD2    C3 5866   2.411   2.708  11.822  0.0358 -0.2462 -0.3050
  389MPD2    C4 5867   2.487   2.814  11.852  0.4322 -0.2551  0.2396
  389MPD2    C5 5868   2.554   2.879  11.755 -0.0736 -0.6877  0.3567
  389MPD2     H 5869   2.361   2.570  11.664  1.3027 -0.8738 -1.2977
  389MPD2    H1 5870   2.490   2.847  11.956 -2.2454  2.1619 -0.4497
  389MPD2    H2 5871   2.596   2.902  11.546  0.7868 -0.1369 -0.0225
  389MPD2    H3 5872   2.619   2.959  11.788  0.5129  0.1547 -2.8531
  389MPD2     N 5873   2.340   2.642  11.930  0.1855 -0.5597  0.2358
  389MPD2    H5 5874   2.337   2.699  12.014 -2.1540  0.1340 -0.3385
  389MPD2    N1 5875   2.453   2.695  11.446  0.2021  0.4917 -0.4600
  389MPD2    H7 5876   2.492   2.758  11.377  0.9139  0.7852  0.2116
  390TMC3    C1 5877   2.208   2.483  12.050  0.7108 -0.0521  0.7423
  390TMC3    C2 5878   2.153   2.354  12.042  1.1060 -0.0118  0.5246
  390TMC3    C3 5879   2.045   2.324  12.117  0.0928  0.8018 -0.2282
  390TMC3    C4 5880   2.147   2.580  12.124 -0.6519 -0.0182  0.3447
  390TMC3    C5 5881   2.038   2.546  12.202  0.0082 -0.1092 -0.4238
  390TMC3    C6 5882   1.989   2.414  12.205  0.4448  0.2774  0.7049
  390TMC3     C 5883   2.286   2.517  11.930  0.2020 -0.2512  0.3433
  390TMC3     O 5884   2.287   2.430  11.841  0.8491 -0.3184  0.5281
  390TMC3     H 5885   2.197   2.281  11.975  0.7055 -0.2654  0.5406
  390TMC3    H1 5886   2.169   2.686  12.125 -1.2918  0.0957  2.1228
  390TMC3    H2 5887   1.902   2.391  12.267 -1.0040  0.6060 -1.2201
  390TMC3    C7 5888   1.959   2.656  12.257  0.1583 -0.0900  0.1222
  390TMC3    C8 5889   1.959   2.231  12.066 -0.0353 -0.2230  0.0696
  390TMC3    O1 5890   1.982   2.765  12.206 -0.3603 -0.4373 -0.1881
  390TMC3    O2 5891   1.960   2.205  11.945 -0.1585  0.6411 -0.2421
  391MPD2     C 5892   0.983   4.394  11.384  0.3514  0.0043 -0.2045
  391MPD2    C1 5893   1.110   4.444  11.362 -0.4368  0.0865 -0.5700
  391MPD2    C2 5894   1.166   4.426  11.234 -0.2422  0.1053 -0.3056
  391MPD2    C3 5895   1.099   4.369  11.132 -0.1112  0.2123 -0.0800
  391MPD2    C4 5896   0.970   4.316  11.155 -0.1750  0.0778  0.0971
  391MPD2    C5 5897   0.919   4.330  11.276 -0.4691  0.5062  0.6911
  391MPD2     H 5898   1.271   4.448  11.220  0.5171 -3.3144  0.0285
  391MPD2    H1 5899   0.909   4.275  11.076  0.6265 -0.9265  0.0059
  391MPD2    H2 5900   0.929   4.402  11.478 -2.3823 -2.5627 -1.5319
  391MPD2    H3 5901   0.832   4.274  11.308 -1.8998  2.1361 -0.3767
  391MPD2     N 5902   1.160   4.349  11.009  0.3203  0.2855 -0.5549
  391MPD2    H5 5903   1.248   4.401  11.007  1.1119 -1.0858 -1.0254
  391MPD2    N1 5904   1.173   4.515  11.460 -0.5650 -0.2196  0.3953
  391MPD2    H7 5905   1.125   4.513  11.550  0.1751  2.8314  0.8568
  392TMC3    C1 5906   1.188   4.320  10.786 -0.1014  0.0201  0.5497
  392TMC3    C2 5907   1.094   4.360  10.701  0.4392 -0.7968  0.8127
  392TMC3    C3 5908   1.127   4.467  10.622 -0.3501  0.7724  0.0543
  392TMC3    C4 5909   1.311   4.373  10.794  0.0706 -1.0045 -0.2962
  392TMC3    C5 5910   1.338   4.476  10.711 -0.1314 -0.4539 -0.1893
  392TMC3    C6 5911   1.252   4.529  10.617 -0.0067  0.2850  0.8077
  392TMC3     C 5912   1.119   4.274  10.901 -0.3450  0.1696  0.3740
  392TMC3     O 5913   1.017   4.206  10.893 -0.0371 -0.4907 -0.3443
  392TMC3     H 5914   0.997   4.312  10.694 -0.0138  0.1663  0.5895
  392TMC3    H1 5915   1.388   4.329  10.857  0.0856 -0.5984 -0.0243
  392TMC3    H2 5916   1.269   4.629  10.580 -0.0092 -0.3610 -0.9599
  392TMC3    C7 5917   1.473   4.531  10.721 -0.1803  0.1757 -0.3818
  392TMC3    C8 5918   1.021   4.504  10.529  0.6515  0.0976 -0.8298
  392TMC3    O1 5919   1.536   4.509  10.823  0.3312  0.3897 -0.0741
  392TMC3    O2 5920   0.909   4.475  10.558 -0.2266  0.5407  0.0066
  393TMC3    C1 5921   1.306   2.236  10.739 -0.0981 -0.2564  0.1242
  393TMC3    C2 5922   1.190   2.176  10.777 -0.2222 -0.0600 -0.2842
  393TMC3    C3 5923   1.180   2.042  10.751 -0.6427 -0.5834 -0.0234
  393TMC3    C4 5924   1.401   2.166  10.660  0.4228  0.2418  0.9698
  393TMC3    C5 5925   1.388   2.034  10.644 -0.7961  0.6332 -1.0760
  393TMC3    C6 5926   1.279   1.967  10.693  0.1159  0.5961  0.8231
  393TMC3     C 5927   1.305   2.383  10.737 -0.1224  0.3860 -0.3335
  393TMC3     O 5928   1.194   2.428  10.764  0.5296 -0.3506 -0.8707
  393TMC3     H 5929   1.111   2.238  10.818  0.3453  0.6313 -0.2365
  393TMC3    H1 5930   1.479   2.229  10.618 -0.9277  0.1130 -1.7357
  393TMC3    H2 5931   1.284   1.859  10.690  0.2022  0.4948  4.8216
  393TMC3    C7 5932   1.507   1.965  10.588  0.1041 -0.0433  0.0833
  393TMC3    C8 5933   1.061   1.978  10.811  0.1060 -0.3954  0.2250
  393TMC3    O1 5934   1.522   1.848  10.621  0.0410  0.0354  0.2340
  393TMC3    O2 5935   0.984   2.054  10.873  0.9448  0.4856 -0.3780
  394TMC3    C1 5936   2.370   2.589  11.251 -0.9229  0.0234  0.2965
  394TMC3    C2 5937   2.280   2.499  11.201 -0.7188 -0.4587 -0.1328
  394TMC3    C3 5938   2.281   2.487  11.067 -0.1164 -0.0873 -0.1044
  394TMC3    C4 5939   2.472   2.645  11.172  0.7154 -0.4939 -0.7021
  394TMC3    C5 5940   2.478   2.619  11.038 -0.0911 -0.3369  0.1331
  394TMC3    C6 5941   2.382   2.540  10.986  0.4686 -0.6365  0.2512
  394TMC3     C 5942   2.394   2.582  11.393 -0.2614 -0.5445 -0.1238
  394TMC3     O 5943   2.358   2.478  11.444  0.4028 -0.0263  0.6467
  394TMC3     H 5944   2.197   2.461  11.260 -0.0188  0.4438  1.4092
  394TMC3    H1 5945   2.539   2.720  11.212  0.1005 -0.8390  0.9795
  394TMC3    H2 5946   2.401   2.524  10.881  0.6122  4.4446 -0.5011
  394TMC3    C7 5947   2.558   2.701  10.951  0.4883 -0.6276  0.5803
  394TMC3    C8 5948   2.200   2.382  11.014 -0.2305 -0.2835 -0.2759
  394TMC3    O1 5949   2.561   2.819  10.975 -0.2210 -0.2160 -0.3284
  394TMC3    O2 5950   2.093   2.372  11.067 -0.0013  0.1169 -0.5330
  395TMC3    C1 5951   1.908   4.625  15.141  0.0221  0.3419  0.4730
  395TMC3    C2 5952   1.812   4.695  15.071  0.1386  0.1246 -0.0113
  395TMC3    C3 5953   1.828   0.090  15.068 -0.5471 -0.0450 -0.2939
  395TMC3    C4 5954   2.022   4.679  15.195  0.8078  0.8621  0.4114
  395TMC3    C5 5955   2.030   0.075  15.198  0.1835  0.0509 -0.0161
  395TMC3    C6 5956   1.933   0.149  15.128  0.1191  0.4943 -0.2799
  395TMC3     C 5957   1.881   4.490  15.173 -1.1491  0.3574  0.5315
  395TMC3     O 5958   1.824   4.418  15.089 -0.2240 -0.3068  0.1838
  395TMC3     H 5959   1.718   4.644  15.054  1.0844 -1.7709  0.4315
  395TMC3    H1 5960   2.089   4.617  15.253  1.6343  1.7283  0.3843
  395TMC3    H2 5961   1.944   0.256  15.116  1.5111  0.3661 -0.2216
  395TMC3    C7 5962   2.160   0.137  15.210 -0.1160  0.4879  0.0888
  395TMC3    C8 5963   1.715   0.174  15.073 -0.7522  0.2142  0.1572
  395TMC3    O1 5964   2.163   0.258  15.226 -0.2534  0.1192  0.2133
  395TMC3    O2 5965   1.714   0.270  15.154 -0.1980  0.6384  0.8727
  396MPD2     C 5966   1.986   0.374  17.497  0.7434 -0.4463 -0.0884
  396MPD2    C1 5967   2.101   0.368  17.418  0.4239 -0.1225 -0.1965
  396MPD2    C2 5968   2.116   0.460  17.314  0.0660  0.2454  0.0792
  396MPD2    C3 5969   2.020   0.559  17.299  0.4306 -0.3592  0.0478
  396MPD2    C4 5970   1.916   0.567  17.386 -0.6793 -0.5016 -0.7284
  396MPD2    C5 5971   1.891   0.474  17.485  0.6554 -0.2903  0.6722
  396MPD2     H 5972   2.196   0.455  17.242 -1.2398 -0.1600 -1.3496
  396MPD2    H1 5973   1.847   0.650  17.384  1.1916  1.0755  1.2224
  396MPD2    H2 5974   1.960   0.295  17.567 -0.2922  0.3154  0.3974
  396MPD2    H3 5975   1.813   0.480  17.559 -1.0999  1.0129 -1.2843
  396MPD2     N 5976   2.038   0.639  17.186  0.8310 -1.0866  0.1720
  396MPD2    H5 5977   2.128   0.631  17.140  0.7214 -3.1245  0.3008
  396MPD2    N1 5978   2.190   0.262  17.437  0.7212  0.2950 -0.7878
  396MPD2    H7 5979   2.157   0.194  17.506  1.9381 -2.1828 -2.6412
  397TMC3    C1 5980   2.365   0.100  17.388  0.6579  0.4272 -0.9040
  397TMC3    C2 5981   2.481   0.090  17.314 -0.3190 -0.6113 -0.1909
  397TMC3    C3 5982   2.503   4.734  17.215 -0.2047 -1.0547  0.1251
  397TMC3    C4 5983   2.273   4.739  17.370  0.3677 -0.1883  0.2675
  397TMC3    C5 5984   2.307   4.636  17.286  0.8693  0.0670 -0.5514
  397TMC3    C6 5985   2.412   4.627  17.206 -0.0038 -0.4466  0.3063
  397TMC3     C 5986   2.306   0.233  17.357  0.0144 -0.1441  0.4497
  397TMC3     O 5987   2.354   0.298  17.264  0.1186 -0.6085  0.3911
  397TMC3     H 5988   2.553   0.170  17.326  1.2780 -2.0574 -0.1857
  397TMC3    H1 5989   2.184   0.004  17.431  0.0770  1.8140 -0.3365
  397TMC3    H2 5990   2.421   4.546  17.135 -0.3482  0.0217 -0.2642
  397TMC3    C7 5991   2.211   4.526  17.273  1.1425  0.0507 -0.0681
  397TMC3    C8 5992   2.496   0.067  17.089 -0.7629  0.1421  0.0187
  397TMC3    O1 5993   2.229   4.444  17.185  0.0231 -0.1177 -0.4946
  397TMC3    O2 5994   2.410   0.039  17.006  0.7633 -0.2693 -0.0010
  398MPD2     C 5995   4.481   2.218   0.657  0.2467 -0.0724 -0.0794
  398MPD2    C1 5996   4.515   2.107   0.741  0.0670 -0.1318 -0.7047
  398MPD2    C2 5997   4.610   2.122   0.840  0.4541  0.7844 -0.5012
  398MPD2    C3 5998   4.684   2.237   0.849  0.0183  0.4048 -0.2992
  398MPD2    C4 5999   4.662   2.343   0.768 -0.6992  0.2340  0.4544
  398MPD2    C5 6000   4.569   2.320   0.671 -0.1859 -0.1077 -0.0997
  398MPD2     H 6001   4.635   2.033   0.897  0.0113  0.1724 -1.2740
  398MPD2    H1 6002   4.720   2.434   0.774  0.9471 -0.8430  0.8316
  398MPD2    H2 6003   4.407   2.223   0.578 -1.2212  2.0270  1.4308
  398MPD2    H3 6004   4.548   2.408   0.611 -0.1143  0.7588  1.1255
  398MPD2     N 6005   0.046   2.232   0.947  0.2511  0.0246 -0.2362
  398MPD2    H5 6006   0.041   2.162   1.020 -0.8230  0.9918  0.6183
  398MPD2    N1 6007   4.460   1.980   0.733 -0.1481  0.0595  0.1530
  398MPD2    H7 6008   4.498   1.906   0.791  1.2636  0.7814  0.1450
  399TMC3    C1 6009   4.370   1.791   0.622 -0.3712 -1.0398 -0.0528
  399TMC3    C2 6010   4.417   1.729   0.729 -0.3211  0.1171 -0.3922
  399TMC3    C3 6011   4.493   1.618   0.720  0.0531  0.5851 -0.1072
  399TMC3    C4 6012   4.390   1.738   0.500  0.5492  0.6618 -0.7703
  399TMC3    C5 6013   4.468   1.631   0.492 -0.7356  0.0577 -0.0280
  399TMC3    C6 6014   4.515   1.567   0.597 -0.0383 -0.2559  0.7463
  399TMC3     C 6015   4.390   1.935   0.620 -0.3203  1.1492  0.1011
  399TMC3     O 6016   4.364   1.995   0.516  0.1852  0.0930 -0.2191
  399TMC3     H 6017   4.405   1.766   0.830 -2.3747 -2.6053  0.3631
  399TMC3    H1 6018   4.337   1.777   0.414  0.5490  0.4511 -0.8657
  399TMC3    H2 6019   4.579   1.480   0.582  2.4123  1.9982 -2.1296
  399TMC3    C7 6020   4.494   1.571   0.366  0.6402 -0.1082 -0.8174
  399TMC3    C8 6021   4.623   1.652   0.772  0.2033 -0.5800 -0.2740
  399TMC3    O1 6022   4.484   1.450   0.372 -0.3608 -0.3299 -0.1740
  399TMC3    O2 6023   4.643   1.769   0.798  0.0626  0.1349 -0.2607
  400TMC3    C1 6024   3.914   0.559  16.632 -0.9323 -0.3674 -0.4471
  400TMC3    C2 6025   3.853   0.437  16.605  0.0014  0.5393  0.5970
  400TMC3    C3 6026   3.722   0.442  16.565 -0.1408  0.1731  0.6182
  400TMC3    C4 6027   3.851   0.674  16.591  0.2029 -0.1670  0.1203
  400TMC3    C5 6028   3.720   0.673  16.561 -0.3332 -0.4433 -0.9921
  400TMC3    C6 6029   3.651   0.552  16.546 -0.0488 -0.0622  0.0699
  400TMC3     C 6030   3.952   0.563  16.772  0.8685 -0.5042  0.2918
  400TMC3     O 6031   3.927   0.462  16.834 -0.3587  0.1319 -0.1923
  400TMC3     H 6032   3.897   0.343  16.635  0.3103  0.2368 -0.7809
  400TMC3    H1 6033   3.904   0.768  16.593 -0.1125  0.0291 -0.4768
  400TMC3    H2 6034   3.546   0.563  16.519  0.2780  1.1563 -0.7296
  400TMC3    C7 6035   3.659   0.790  16.518  1.1481  0.4197  0.2369
  400TMC3    C8 6036   3.653   0.314  16.592  0.0934  0.2249  0.0743
  400TMC3    O1 6037   3.739   0.882  16.494  0.4190  0.0393 -0.3104
  400TMC3    O2 6038   3.683   0.245  16.691  0.1774 -0.7323  0.6235
  401MPD2     C 6039   1.470   3.287   0.524 -0.3455 -0.2743 -0.2800
  401MPD2    C1 6040   1.456   3.304   0.658  0.7332 -0.4242  0.0685
  401MPD2    C2 6041   1.393   3.207   0.729  0.5950  0.1196 -0.0520
  401MPD2    C3 6042   1.342   3.089   0.667  0.8005  0.3749  0.1267
  401MPD2    C4 6043   1.358   3.076   0.534 -1.0050  0.4695 -0.4269
  401MPD2    C5 6044   1.427   3.172   0.464  0.0385 -0.4252  0.8346
  401MPD2     H 6045   1.392   3.214   0.837  0.2350  0.6584 -0.0883
  401MPD2    H1 6046   1.314   2.991   0.482  1.5612 -0.9979 -0.1650
  401MPD2    H2 6047   1.528   3.357   0.465  2.3046 -1.4951  0.8680
  401MPD2    H3 6048   1.437   3.157   0.357 -0.1052 -0.8786  0.8853
  401MPD2     N 6049   1.301   2.990   0.757 -0.8435 -0.4091 -0.4476
  401MPD2    H5 6050   1.325   3.004   0.855  0.1676  1.3533 -0.9387
  401MPD2    N1 6051   1.511   3.412   0.731  0.2336  0.2077  0.6185
  401MPD2    H7 6052   1.485   3.400   0.828 -1.2603 -1.1038  0.0673
  402TMC3    C1 6053   1.252   2.788   0.849  0.3173 -0.3924 -0.2303
  402TMC3    C2 6054   1.315   2.845   0.968  0.1789  0.7789 -0.5716
  402TMC3    C3 6055   1.398   2.761   1.042 -0.1095 -0.1163  0.0246
  402TMC3    C4 6056   1.281   2.660   0.813  0.3682 -0.2658  1.1314
  402TMC3    C5 6057   1.359   2.580   0.892 -0.6507  0.2342  0.1782
  402TMC3    C6 6058   1.416   2.632   1.008  0.3673 -0.1467 -0.1718
  402TMC3     C 6059   1.234   2.872   0.734  0.0175 -1.1104 -0.0320
  402TMC3     O 6060   1.183   2.818   0.635  0.6672 -0.0177  1.3585
  402TMC3     H 6061   1.315   2.946   1.009 -3.1629  1.4330 -2.1882
  402TMC3    H1 6062   1.247   2.618   0.720  1.6302  1.5853 -0.1576
  402TMC3    H2 6063   1.490   2.579   1.068  0.5983 -0.4332 -0.7108
  402TMC3    C7 6064   1.436   2.490   0.820 -0.7890 -0.9560 -0.1440
  402TMC3    C8 6065   1.514   2.816   1.111  0.1414 -0.2450  1.4183
  402TMC3    O1 6066   1.395   2.420   0.727  0.2164 -0.7737  0.1988
  402TMC3    O2 6067   1.612   2.747   1.109 -0.4525 -0.2387 -0.5211
  403MPD2     C 6068   0.219   2.058  13.425  0.4687 -0.1253  0.1857
  403MPD2    C1 6069   0.165   2.014  13.543 -0.1353  0.7013  0.2526
  403MPD2    C2 6070   0.206   2.057  13.663 -0.0750 -0.4801  0.0711
  403MPD2    C3 6071   0.300   2.161  13.670 -0.1761  0.5245  0.0846
  403MPD2    C4 6072   0.357   2.207  13.554 -0.5619 -0.5502 -0.2936
  403MPD2    C5 6073   0.310   2.157  13.434  0.7061 -0.2826 -0.2612
  403MPD2     H 6074   0.164   2.027  13.759  2.0541 -2.2763  0.4380
  403MPD2    H1 6075   0.432   2.285  13.551 -0.8369 -0.2216  1.6041
  403MPD2    H2 6076   0.184   2.015  13.332 -0.9064 -2.6535  1.8997
  403MPD2    H3 6077   0.358   2.180  13.340  2.4771 -0.8022  0.5207
  403MPD2     N 6078   0.341   2.218  13.790  0.0241 -0.0172 -0.2902
  403MPD2    H5 6079   0.327   2.161  13.872 -0.9049  1.5481  0.6510
  403MPD2    N1 6080   0.063   1.913  13.529  0.8529 -0.2651  0.0712
  403MPD2    H7 6081   0.036   1.890  13.434  1.2348 -3.2441  0.6903
  404TMC3    C1 6082   4.686   1.716  13.583 -0.6728 -0.2403  0.1906
  404TMC3    C2 6083   4.701   1.596  13.645  0.1496  0.2465 -0.0451
  404TMC3    C3 6084   4.667   1.482  13.578 -0.0111 -0.7486 -0.7061
  404TMC3    C4 6085   4.629   1.726  13.460 -0.0997  0.2039 -0.0228
  404TMC3    C5 6086   4.580   1.609  13.402  0.3032 -0.0517  0.2763
  404TMC3    C6 6087   4.598   1.482  13.460  0.6720  0.2546 -0.5140
  404TMC3     C 6088   0.032   1.829  13.629 -0.4622 -0.2400  0.3626
  404TMC3     O 6089   0.088   1.813  13.738 -0.0309 -0.2873 -0.4719
  404TMC3     H 6090   0.022   1.597  13.735  1.8286  1.6964 -1.2136
  404TMC3    H1 6091   4.597   1.822  13.423  0.9793  1.0101  1.1204
  404TMC3    H2 6092   4.558   1.394  13.411  2.7612 -1.2116  0.4292
  404TMC3    C7 6093   4.533   1.614  13.260 -0.1426 -0.9998 -0.8842
  404TMC3    C8 6094   4.697   1.359  13.641  0.4973 -0.6502  0.5324
  404TMC3    O1 6095   4.593   1.699  13.193 -0.2432 -0.0451 -0.3731
  404TMC3    O2 6096   4.719   1.257  13.574  0.1178 -0.0843 -0.0309
  405MPD2     C 6097   0.817   2.796  14.996  0.3626 -0.7173  0.5642
  405MPD2    C1 6098   0.803   2.712  14.883 -0.7141  0.5827  0.0177
  405MPD2    C2 6099   0.707   2.750  14.799 -0.0897  0.0722 -0.3562
  405MPD2    C3 6100   0.627   2.858  14.814 -1.0487  0.7281 -0.2600
  405MPD2    C4 6101   0.639   2.935  14.926 -0.0641 -0.0241 -0.5498
  405MPD2    C5 6102   0.739   2.910  15.012 -0.4013  0.7383  0.0245
  405MPD2     H 6103   0.689   2.698  14.706  0.2504  0.5690 -0.6987
  405MPD2    H1 6104   0.577   3.020  14.954  1.0895  1.3935 -2.2836
  405MPD2    H2 6105   0.896   2.775  15.067  0.2148 -1.7650  0.4117
  405MPD2    H3 6106   0.737   2.977  15.097  0.8096  1.4736 -0.5345
  405MPD2     N 6107   0.527   2.877  14.714  0.3942  0.0627 -0.0243
  405MPD2    H5 6108   0.531   2.811  14.637  1.9254  1.6499 -1.2852
  405MPD2    N1 6109   0.868   2.590  14.870 -0.5278 -0.6285 -0.7376
  405MPD2    H7 6110   0.929   2.573  14.950 -0.2983 -0.1924 -0.8246
  406TMC3    C1 6111   0.242   3.039  14.391  0.3088  0.2351 -0.3261
  406TMC3    C2 6112   0.238   2.908  14.337 -0.1592  0.4344 -0.4347
  406TMC3    C3 6113   0.271   2.812  14.427 -0.7272 -0.2172  0.3220
  406TMC3    C4 6114   0.307   3.066  14.509 -0.5601  0.3442  0.6256
  406TMC3    C5 6115   0.356   2.959  14.582  0.1724 -0.1189  0.0934
  406TMC3    C6 6116   0.323   2.834  14.556 -0.9545  0.8112  0.1867
  406TMC3     C 6117   0.183   3.156  14.324 -0.0960 -0.3265  0.1971
  406TMC3     O 6118   0.192   3.259  14.385  0.5384  0.7120  0.0978
  406TMC3     H 6119   0.189   2.882  14.244  0.3930 -1.1146 -0.2916
  406TMC3    H1 6120   0.328   3.166  14.545 -2.7609  0.4086  1.7874
  406TMC3    H2 6121   0.336   2.751  14.624 -4.8590  0.2825  0.3263
  406TMC3    C7 6122   0.441   2.986  14.704  0.1277  0.1790  0.1497
  406TMC3    C8 6123   0.277   2.680  14.372  0.3573  0.3375 -0.1276
  406TMC3    O1 6124   0.422   3.085  14.771  0.0697 -0.1638 -0.4495
  406TMC3    O2 6125   0.195   2.646  14.291 -0.0705  0.6980 -0.9893
  407MPD2     C 6126   2.327   3.957   9.829  0.0895 -0.3765 -0.4914
  407MPD2    C1 6127   2.423   3.954   9.929 -0.8732 -0.2997  0.2126
  407MPD2    C2 6128   2.416   4.036  10.036 -0.4000 -0.3350  0.2504
  407MPD2    C3 6129   2.313   4.126  10.047  0.5605  1.1387 -0.2032
  407MPD2    C4 6130   2.216   4.130   9.957 -0.2529  0.1246 -0.4789
  407MPD2    C5 6131   2.223   4.048   9.848 -0.2098 -0.0760 -0.4849
  407MPD2     H 6132   2.487   4.037  10.118 -0.5669  1.7546  0.3865
  407MPD2    H1 6133   2.134   4.201   9.964  0.1490  0.5231  0.2340
  407MPD2    H2 6134   2.332   3.897   9.739  0.2145  0.2818 -0.9313
  407MPD2    H3 6135   2.158   4.055   9.762 -0.0595  2.8345 -0.3740
  407MPD2     N 6136   2.304   4.220  10.151  0.3967 -0.2226 -0.0027
  407MPD2    H5 6137   2.235   4.294  10.146  1.1648  0.4582 -0.3939
  407MPD2    N1 6138   2.533   3.864   9.934 -0.6638  0.0230  0.1283
  407MPD2    H7 6139   2.614   3.862   9.995  0.3398  1.1823 -1.1817
  408TMC3    C1 6140   2.651   3.680   9.854  0.0684 -0.0474  0.5636
  408TMC3    C2 6141   2.773   3.746   9.861 -0.5400 -0.4717 -0.7989
  408TMC3    C3 6142   2.888   3.669   9.859  0.2556 -0.1305 -0.3814
  408TMC3    C4 6143   2.644   3.548   9.845  0.0352  0.0885 -0.0897
  408TMC3    C5 6144   2.755   3.471   9.852 -0.5428  0.0976 -0.5734
  408TMC3    C6 6145   2.887   3.526   9.848  0.1870 -0.4790  0.3444
  408TMC3     C 6146   2.528   3.752   9.852  0.0152 -0.7699 -0.3559
  408TMC3     O 6147   2.438   3.699   9.789 -0.0918  0.3803  0.2802
  408TMC3     H 6148   2.761   3.852   9.877 -1.1507 -0.6292 -0.2042
  408TMC3    H1 6149   2.546   3.504   9.833  0.1921 -0.4453  0.5911
  408TMC3    H2 6150   2.982   3.473   9.842  0.4019 -0.1496  0.8328
  408TMC3    C7 6151   2.736   3.328   9.856 -0.1725  0.8962  0.5856
  408TMC3    C8 6152   3.011   3.730   9.914 -0.5040  0.4052 -0.0324
  408TMC3    O1 6153   2.622   3.287   9.847  0.5997  0.0739  0.2389
  408TMC3    O2 6154   3.106   3.652   9.925  0.3812  0.3338  0.0759
  409MPD2     C 6155   2.510   4.524  16.725 -0.7185 -0.2913  0.1945
  409MPD2    C1 6156   2.637   4.480  16.739 -0.1980 -0.3931  0.1052
  409MPD2    C2 6157   2.738   4.545  16.665  0.2393 -0.0530 -0.2135
  409MPD2    C3 6158   2.713   4.668  16.602  0.9760  0.6581 -0.6849
  409MPD2    C4 6159   2.580   4.713  16.601 -0.4952  0.1444 -0.1864
  409MPD2    C5 6160   2.478   4.637  16.651  0.3414 -0.2349 -0.4416
  409MPD2     H 6161   2.840   4.510  16.676 -0.1844 -0.8479  1.1134
  409MPD2    H1 6162   2.558   0.067  16.552  1.3805  0.9306  0.4787
  409MPD2    H2 6163   2.426   4.478  16.775 -0.7064 -2.3738 -1.7059
  409MPD2    H3 6164   2.381   4.687  16.651 -0.9980 -2.8843  0.9635
  409MPD2     N 6165   2.815   0.023  16.566  0.4610 -0.3887  0.0657
  409MPD2    H5 6166   2.776   0.113  16.542 -1.0485 -1.3029 -0.9495
  409MPD2    N1 6167   2.676   4.373  16.821 -0.1437  0.1586  0.3070
  409MPD2    H7 6168   2.774   4.359  16.840  0.1378 -0.6784 -1.6798
  410TMC3    C1 6169   3.018   0.132  16.550  0.1444  0.2278  0.4111
  410TMC3    C2 6170   3.094   0.170  16.656  0.2323 -0.4102 -0.5589
  410TMC3    C3 6171   3.123   0.301  16.674  1.2107 -0.2047  0.1465
  410TMC3    C4 6172   2.950   0.222  16.479 -1.0284 -0.2115  0.0925
  410TMC3    C5 6173   2.975   0.354  16.502  0.0444 -0.4680  0.3588
  410TMC3    C6 6174   3.052   0.393  16.604  0.4021 -0.3715  0.4041
  410TMC3     C 6175   2.951   0.007  16.569  0.1358 -0.7737  0.1959
  410TMC3     O 6176   3.016   4.653  16.615 -0.8283  0.4490  0.0357
  410TMC3     H 6177   3.136   0.097  16.724 -1.1691  0.3243  1.0984
  410TMC3    H1 6178   2.888   0.184  16.398 -1.1118 -2.1793  1.0931
  410TMC3    H2 6179   3.068   0.498  16.625  0.0083 -0.3802  0.7281
  410TMC3    C7 6180   2.877   0.448  16.455  0.5746  0.2052  0.2385
  410TMC3    C8 6181   3.178   0.358  16.802  0.3365  0.0977  0.0462
  410TMC3    O1 6182   2.768   0.400  16.434  0.0384  0.3270 -0.0751
  410TMC3    O2 6183   3.225   0.472  16.804  0.4218  0.0758 -0.1937
  411MPD2     C 6184   2.833   0.825  14.815  0.4201  0.0961  0.1846
  411MPD2    C1 6185   2.726   0.855  14.892 -0.7847 -0.2304  0.7939
  411MPD2    C2 6186   2.630   0.762  14.925  0.4536  0.2899 -0.0606
  411MPD2    C3 6187   2.633   0.635  14.876 -0.4075  0.7508 -0.0850
  411MPD2    C4 6188   2.742   0.608  14.794  0.7834  0.0776  0.4964
  411MPD2    C5 6189   2.842   0.694  14.769 -0.0834 -1.3982 -0.3606
  411MPD2     H 6190   2.541   0.787  14.981 -0.4394 -0.9453 -0.9170
  411MPD2    H1 6191   2.765   0.503  14.778  2.4471  0.7087 -1.3126
  411MPD2    H2 6192   2.917   0.890  14.796  0.0325 -0.1422 -2.2975
  411MPD2    H3 6193   2.933   0.670  14.715  0.4264 -1.2780  0.4405
  411MPD2     N 6194   2.529   0.542  14.891 -0.1163 -0.2078  0.6153
  411MPD2    H5 6195   2.538   0.469  14.821 -0.8264  0.8128 -0.5522
  411MPD2    N1 6196   2.716   0.992  14.923 -0.0935  0.2251  0.3394
  411MPD2    H7 6197   2.773   1.064  14.880  2.3515 -2.2419 -0.5329
  412TMC3    C1 6198   2.319   0.448  14.933 -0.4795  0.3800 -0.1543
  412TMC3    C2 6199   2.191   0.487  14.969  0.3548  0.2329  0.1785
  412TMC3    C3 6200   2.085   0.425  14.916 -0.4643  0.6074 -0.0777
  412TMC3    C4 6201   2.339   0.352  14.843  0.0528 -0.3433  0.4105
  412TMC3    C5 6202   2.228   0.274  14.806 -0.2068  0.4031 -0.8328
  412TMC3    C6 6203   2.101   0.315  14.833 -0.1083 -0.0561  0.3258
  412TMC3     C 6204   2.418   0.544  14.971 -0.8588  0.3415 -0.9598
  412TMC3     O 6205   2.381   0.632  15.048 -0.3148 -0.1185  0.2831
  412TMC3     H 6206   2.177   0.569  15.038  0.8574 -1.7047  2.5792
  412TMC3    H1 6207   2.440   0.326  14.812 -0.7927  0.1419 -2.7309
  412TMC3    H2 6208   2.021   0.256  14.790  0.1582  0.7257 -1.2339
  412TMC3    C7 6209   2.243   0.190  14.696  0.4636 -0.2132  0.1641
  412TMC3    C8 6210   1.954   0.492  14.906  0.2137 -0.1750  0.9528
  412TMC3    O1 6211   2.231   0.069  14.712  0.4472  0.3158  0.4008
  412TMC3    O2 6212   1.916   0.576  14.989  0.0519  0.3440  0.0240
  413MPD2     C 6213   4.558   3.364  14.694  0.5065 -0.9464  0.0561
  413MPD2    C1 6214   4.555   3.371  14.835  0.2334  0.4711 -0.1450
  413MPD2    C2 6215   4.680   3.365  14.897 -0.3421 -0.1514  0.6126
  413MPD2    C3 6216   0.053   3.345  14.822 -0.0025  0.5150  0.1680
  413MPD2    C4 6217   0.044   3.316  14.688 -1.3450  0.2854  0.6070
  413MPD2    C5 6218   4.665   3.326  14.624 -0.7320  0.5112 -0.0081
  413MPD2     H 6219   4.692   3.381  15.003  0.7411 -0.3660  0.5174
  413MPD2    H1 6220   0.133   3.300  14.628 -1.5855 -0.1210  0.3629
  413MPD2    H2 6221   4.467   3.378  14.637  0.6614 -0.0207  0.0379
  413MPD2    H3 6222   4.667   3.302  14.518  0.6752  1.2494 -0.1471
  413MPD2     N 6223   0.173   3.339  14.892 -0.6563 -0.2754  0.6467
  413MPD2    H5 6224   0.174   3.347  14.993 -0.6319  0.5608  0.5847
  413MPD2    N1 6225   4.430   3.399  14.894 -1.0112  0.3104  0.4668
  413MPD2    H7 6226   4.349   3.375  14.837 -0.2536 -0.2654 -0.3787
  414TMC3    C1 6227   0.393   3.340  14.932 -0.1279  0.1978  0.5272
  414TMC3    C2 6228   0.375   3.258  15.041  0.2799 -0.3536  0.2832
  414TMC3    C3 6229   0.448   3.281  15.153  0.1669  0.1244  0.1575
  414TMC3    C4 6230   0.491   3.429  14.928 -0.3854  0.2950  0.3481
  414TMC3    C5 6231   0.568   3.449  15.036 -0.2793  0.0497 -0.0546
  414TMC3    C6 6232   0.532   3.386  15.155 -0.2710 -0.0213 -0.1525
  414TMC3     C 6233   0.296   3.354  14.830  0.2490  0.3076 -0.7985
  414TMC3     O 6234   0.322   3.395  14.718  0.0813 -0.0942 -0.5559
  414TMC3     H 6235   0.318   3.168  15.020 -1.2248  0.4505  0.9141
  414TMC3    H1 6236   0.512   3.488  14.839  0.0910 -0.5152 -0.0678
  414TMC3    H2 6237   0.601   3.409  15.236  0.1266 -0.5848 -0.3259
  414TMC3    C7 6238   0.707   3.451  15.014 -0.4355  0.2844 -0.1134
  414TMC3    C8 6239   0.483   3.170  15.235  0.1927  0.6988  0.0294
  414TMC3    O1 6240   0.781   3.492  15.103 -0.1168  0.4892  0.2775
  414TMC3    O2 6241   0.456   3.061  15.188 -0.0487  0.7191 -0.2293
  415TMC3    C1 6242   0.241   1.747  10.311  0.9346  0.5475 -0.3191
  415TMC3    C2 6243   0.286   1.860  10.240 -0.0834  0.8092 -0.2285
  415TMC3    C3 6244   0.350   1.836  10.125  0.1657  0.4063 -0.0370
  415TMC3    C4 6245   0.279   1.623  10.269 -0.5804  0.6451 -0.4113
  415TMC3    C5 6246   0.354   1.604  10.162 -0.1498  0.0734  0.2904
  415TMC3    C6 6247   0.390   1.712  10.082 -0.0225 -0.6296  0.2155
  415TMC3     C 6248   0.158   1.758  10.435  0.2809 -0.0727  0.4526
  415TMC3     O 6249   0.087   1.661  10.454  0.8437 -0.1609 -0.0191
  415TMC3     H 6250   0.251   1.960  10.264  0.3904  0.9915 -0.2829
  415TMC3    H1 6251   0.275   1.542  10.341  2.8818 -1.2716 -2.3551
  415TMC3    H2 6252   0.429   1.692   9.983  0.4051  0.3923  0.1815
  415TMC3    C7 6253   0.411   1.471  10.137 -0.4347 -0.6944  0.1537
  415TMC3    C8 6254   0.366   1.948  10.038 -0.1050 -0.5880  0.2602
  415TMC3    O1 6255   0.518   1.452  10.082  0.2944  0.2464  1.1648
  415TMC3    O2 6256   0.364   1.927   9.918 -0.7469 -0.0230 -0.3504
  416MPD2     C 6257   2.084   0.639  11.868  0.9712  0.0864 -0.5157
  416MPD2    C1 6258   1.973   0.655  11.790  0.4529 -0.8827 -0.6481
  416MPD2    C2 6259   1.980   0.610  11.657 -0.3782 -0.2905  1.0863
  416MPD2    C3 6260   2.093   0.547  11.610  0.7494 -0.2118 -0.2671
  416MPD2    C4 6261   2.203   0.533  11.689 -0.8987  0.2102 -0.0178
  416MPD2    C5 6262   2.200   0.571  11.820 -0.1557 -0.3262  0.2445
  416MPD2     H 6263   1.898   0.613  11.586  1.1026  2.2728 -0.4924
  416MPD2    H1 6264   2.291   0.486  11.648 -1.1209 -0.5544  0.3761
  416MPD2    H2 6265   2.078   0.667  11.973  0.8188 -0.0688 -0.4837
  416MPD2    H3 6266   2.288   0.568  11.884 -0.2606  3.7037  0.5731
  416MPD2     N 6267   2.106   0.509  11.476  0.0322  0.7751  0.0688
  416MPD2    H5 6268   2.202   0.495  11.445  0.2667  1.1478  0.6285
  416MPD2    N1 6269   1.849   0.709  11.845 -0.1193 -0.3085  0.0846
  416MPD2    H7 6270   1.862   0.756  11.934  0.0649  0.3885 -0.3154
  417TMC3    C1 6271   1.615   0.784  11.859 -0.5832 -0.3399  0.1512
  417TMC3    C2 6272   1.621   0.757  11.997 -0.7881  0.2969 -0.5933
  417TMC3    C3 6273   1.514   0.783  12.074 -0.1121 -0.7870  0.5944
  417TMC3    C4 6274   1.507   0.833  11.799 -0.2273 -0.4554 -0.0241
  417TMC3    C5 6275   1.407   0.867  11.879  0.0638 -0.1662  0.1177
  417TMC3    C6 6276   1.406   0.845  12.012 -0.0238  1.0981  0.1267
  417TMC3     C 6277   1.726   0.728  11.780  0.3865  0.1443 -0.0330
  417TMC3     O 6278   1.702   0.699  11.664  0.0890  0.3275 -0.6419
  417TMC3     H 6279   1.704   0.701  12.037 -1.1894  0.3386  0.2848
  417TMC3    H1 6280   1.506   0.858  11.693  3.9622  1.4412  0.3980
  417TMC3    H2 6281   1.312   0.874  12.059  0.5395 -0.5965  2.3300
  417TMC3    C7 6282   1.292   0.928  11.819  0.1909  0.3212  0.4172
  417TMC3    C8 6283   1.506   0.791  12.219 -0.4078 -0.3608 -0.1961
  417TMC3    O1 6284   1.189   0.891  11.875 -0.2333  0.0919 -0.1371
  417TMC3    O2 6285   1.401   0.833  12.268  0.1480 -0.0048 -0.3058
  418TMC3    C1 6286   0.510   2.235   1.023 -0.2970 -0.3293 -0.3432
  418TMC3    C2 6287   0.404   2.309   0.984  0.0765  0.6454 -0.3221
  418TMC3    C3 6288   0.279   2.256   1.005 -0.5112 -0.2648 -0.3032
  418TMC3    C4 6289   0.497   2.109   1.082  0.3144  0.2336  0.1092
  418TMC3    C5 6290   0.367   2.067   1.116  0.2417 -0.0453 -0.5432
  418TMC3    C6 6291   0.258   2.141   1.079 -0.5199  0.0811  0.6951
  418TMC3     C 6292   0.643   2.290   0.991 -0.2382 -0.4391  0.5099
  418TMC3     O 6293   0.670   2.408   0.985  0.5397  0.2073  0.1407
  418TMC3     H 6294   0.425   2.395   0.921 -0.4067  0.1508 -1.1681
  418TMC3    H1 6295   0.573   2.033   1.099  0.3802  0.8895  2.7535
  418TMC3    H2 6296   0.159   2.108   1.111 -0.5688 -1.0788 -0.6731
  418TMC3    C7 6297   0.342   1.920   1.135  0.9615 -0.0175 -0.3821
  418TMC3    C8 6298   0.161   2.310   0.937  0.2812 -0.2788 -0.0185
  418TMC3    O1 6299   0.405   1.848   1.061 -0.0908 -0.1674 -0.3470
  418TMC3    O2 6300   0.188   2.401   0.863  0.0341 -0.2523  0.0304
  419MPD2     C 6301   3.854   0.331  12.883  0.1407 -0.4962 -0.0861
  419MPD2    C1 6302   3.832   0.425  12.782  0.1636 -0.5817  0.5363
  419MPD2    C2 6303   3.793   0.549  12.817  0.4138  0.5453  0.2912
  419MPD2    C3 6304   3.770   0.584  12.950  0.0080  0.6545  0.0234
  419MPD2    C4 6305   3.782   0.491  13.055 -0.1707  0.0308 -0.0540
  419MPD2    C5 6306   3.827   0.365  13.012  0.7571  0.3707 -0.2597
  419MPD2     H 6307   3.795   0.626  12.742  0.1954 -0.8646 -1.1731
  419MPD2    H1 6308   3.763   0.504  13.161 -1.4455 -0.4666 -0.2210
  419MPD2    H2 6309   3.881   0.227  12.865 -1.5405 -1.0159  0.3726
  419MPD2    H3 6310   3.855   0.293  13.088 -1.3806 -0.6472 -0.4404
  419MPD2     N 6311   3.723   0.716  12.968 -0.1487 -0.3765  0.2050
  419MPD2    H5 6312   3.708   0.782  12.893 -3.1703 -2.0389 -0.6306
  419MPD2    N1 6313   3.847   0.407  12.643  0.3947 -0.1449 -0.4567
  419MPD2    H7 6314   3.830   0.481  12.576 -1.2930  1.0298  1.2895
  420TMC3    C1 6315   3.659   0.905  13.091  0.4019  0.0063 -0.4048
  420TMC3    C2 6316   3.553   0.941  13.013 -0.3507 -0.2688 -0.0014
  420TMC3    C3 6317   3.487   1.065  13.037 -0.3423  0.0522  0.9567
  420TMC3    C4 6318   3.704   0.988  13.190  0.1557 -0.5354 -0.8091
  420TMC3    C5 6319   3.647   1.113  13.195 -0.1491 -0.6106  0.1625
  420TMC3    C6 6320   3.542   1.155  13.120 -0.7183 -0.3512 -0.0171
  420TMC3     C 6321   3.702   0.768  13.096  0.5856  0.5947  0.2158
  420TMC3     O 6322   3.726   0.720  13.207 -0.3411  0.0765 -0.6373
  420TMC3     H 6323   3.502   0.866  12.953  2.2761 -1.6346 -0.5004
  420TMC3    H1 6324   3.783   0.944  13.250  0.9974 -0.2825 -1.7314
  420TMC3    H2 6325   3.503   1.256  13.126 -0.2272 -0.0720 -1.6326
  420TMC3    C7 6326   3.689   1.197  13.306  0.4535 -0.0440  0.5290
  420TMC3    C8 6327   3.384   1.115  12.941 -0.3426 -0.1761 -0.0060
  420TMC3    O1 6328   3.650   1.312  13.311  0.1048  0.4644  0.3455
  420TMC3    O2 6329   3.414   1.211  12.874 -0.8112 -0.5112 -0.0350
  421TMC3    C1 6330   0.445   2.354  13.947  0.9939  0.3773 -0.1972
  421TMC3    C2 6331   0.456   2.480  13.992 -0.5443 -0.7509  0.4962
  421TMC3    C3 6332   0.553   2.507  14.083 -0.1715 -0.3979 -0.2765
  421TMC3    C4 6333   0.526   2.249  13.986 -0.1817 -0.1807  0.7249
  421TMC3    C5 6334   0.615   2.280  14.082  0.1434 -0.3586  1.0064
  421TMC3    C6 6335   0.625   2.403  14.137  0.0608  0.2614  0.0744
  421TMC3     C 6336   0.408   2.341  13.803 -0.3901 -0.8060 -0.0407
  421TMC3     O 6337   0.438   2.431  13.728 -0.6364 -0.6666  0.2010
  421TMC3     H 6338   0.390   2.556  13.950  1.3287  0.4398 -0.3203
  421TMC3    H1 6339   0.535   2.156  13.931 -3.5514  0.2040 -0.5197
  421TMC3    H2 6340   0.699   2.430  14.211 -1.7012 -0.8775  2.2494
  421TMC3    C7 6341   0.706   2.180  14.134 -0.2788  0.2268 -0.1938
  421TMC3    C8 6342   0.572   2.632  14.145 -0.1812 -0.2159  0.0825
  421TMC3    O1 6343   0.802   2.217  14.199  0.4672  0.4118 -0.4213
  421TMC3    O2 6344   0.647   2.648  14.244  0.2387  0.3221  0.1680
  422TMC3    C1 6345   2.549   3.612  12.705 -0.4621 -0.2391 -0.7895
  422TMC3    C2 6346   2.545   3.701  12.805 -0.3670 -0.5737 -0.4283
  422TMC3    C3 6347   2.428   3.720  12.869 -0.4460  0.2354 -0.0601
  422TMC3    C4 6348   2.443   3.532  12.675  0.0478  0.9458 -0.4749
  422TMC3    C5 6349   2.323   3.558  12.741  0.1564 -0.0720 -0.7234
  422TMC3    C6 6350   2.307   3.659  12.830 -0.0618  0.1746  0.3938
  422TMC3     C 6351   2.682   3.588  12.647  0.5285  0.0977  0.3287
  422TMC3     O 6352   2.753   3.688  12.628  0.4811 -0.0722  0.3496
  422TMC3     H 6353   2.632   3.761  12.829 -1.3586  1.5223 -2.0828
  422TMC3    H1 6354   2.446   3.462  12.592  1.1153  0.9490 -0.4393
  422TMC3    H2 6355   2.207   3.693  12.853 -0.0549  1.1655 -1.0787
  422TMC3    C7 6356   2.210   3.467  12.710  0.2333  0.2128 -0.3961
  422TMC3    C8 6357   2.420   3.837  12.946  0.2478 -0.4750 -0.5431
  422TMC3    O1 6358   2.245   3.382  12.624 -0.1207 -0.2416 -0.0918
  422TMC3    O2 6359   2.496   3.929  12.907  0.1446  0.6489  0.1708
  423MPD2     C 6360   3.792   4.616   0.337  0.9266  1.1676  0.7824
  423MPD2    C1 6361   3.846   4.497   0.380 -0.1942 -0.3742  0.1632
  423MPD2    C2 6362   3.883   4.402   0.291 -0.0823  0.0927 -0.3123
  423MPD2    C3 6363   3.844   4.407   0.159  0.4138 -0.0892 -0.0025
  423MPD2    C4 6364   3.778   4.522   0.118  0.4575 -0.1779 -0.0353
  423MPD2    C5 6365   3.761   4.628   0.200  0.8565 -0.2652  0.0621
  423MPD2     H 6366   3.947   4.323   0.328  0.9639  1.1107  0.0626
  423MPD2    H1 6367   3.750   4.535   0.014 -1.1036 -0.3801  0.3537
  423MPD2    H2 6368   3.777   4.703   0.400  0.7749  1.6454  0.0873
  423MPD2    H3 6369   3.718   4.724   0.173 -0.6236 -1.7753 -3.0063
  423MPD2     N 6370   3.877   4.304   0.066 -0.2539 -0.0317 -0.6776
  423MPD2    H5 6371   3.855   4.309  17.727  2.4649  0.8148 -1.2261
  423MPD2    N1 6372   3.884   4.466   0.513  0.0238 -0.1081  0.0051
  423MPD2    H7 6373   3.931   4.376   0.519 -3.8904 -2.3595 -3.4247
  424TMC3    C1 6374   3.899   4.487   0.749  0.3580 -0.8909  0.5810
  424TMC3    C2 6375   4.018   4.423   0.746 -0.0467 -0.3955 -0.8680
  424TMC3    C3 6376   4.072   4.393   0.875 -0.4599  0.0661 -0.2352
  424TMC3    C4 6377   3.823   4.494   0.860 -0.1674 -0.3886  0.6229
  424TMC3    C5 6378   3.873   4.455   0.975 -0.4126 -0.5009  0.1594
  424TMC3    C6 6379   4.000   4.406   0.990  0.1039 -0.0708 -0.3483
  424TMC3     C 6380   3.842   4.541   0.625  1.0084  0.1594 -1.2738
  424TMC3     O 6381   3.767   4.633   0.636 -0.3426 -0.8132  0.8096
  424TMC3     H 6382   4.079   4.415   0.657  1.5827  0.2797  0.2003
  424TMC3    H1 6383   3.722   4.534   0.860 -0.1297 -0.2942  0.8518
  424TMC3    H2 6384   4.028   4.350   1.078  1.8015 -0.9539 -1.4526
  424TMC3    C7 6385   3.783   4.441   1.094  0.6596  0.4733  0.2296
  424TMC3    C8 6386   4.192   4.313   0.861  0.4456 -0.3327 -0.0225
  424TMC3    O1 6387   3.841   4.465   1.201  0.2791  0.9807  0.2570
  424TMC3    O2 6388   4.218   4.257   0.753  0.3284  0.1598 -0.0460
  425MPD2     C 6389   3.062   3.402  17.137 -0.2232  0.0770 -0.5308
  425MPD2    C1 6390   3.022   3.270  17.117  0.2325 -0.5512  0.2964
  425MPD2    C2 6391   2.887   3.242  17.133 -0.1154 -0.0157 -0.1322
  425MPD2    C3 6392   2.798   3.333  17.183 -0.2440 -0.2523  0.0319
  425MPD2    C4 6393   2.841   3.467  17.205  0.2755  0.0063 -0.4040
  425MPD2    C5 6394   2.973   3.498  17.175  0.1288  0.2343  0.0632
  425MPD2     H 6395   2.850   3.143  17.109  0.5395 -0.1862 -0.4567
  425MPD2    H1 6396   2.766   3.538  17.238 -1.0497 -2.1672  1.2255
  425MPD2    H2 6397   3.159   3.432  17.100 -0.6812 -0.0427 -1.8255
  425MPD2    H3 6398   3.006   3.600  17.189  0.9203 -0.0329  0.1320
  425MPD2     N 6399   2.664   3.284  17.197  1.0021 -0.0582  0.0728
  425MPD2    H5 6400   2.652   3.184  17.181  0.9282 -0.6792  4.1494
  425MPD2    N1 6401   3.107   3.164  17.080  0.2466  0.3235 -0.2680
  425MPD2    H7 6402   3.202   3.189  17.053  0.4517  0.1457  0.2830
  426TMC3    C1 6403   3.176   2.937  17.058 -0.1324  0.6537  1.1199
  426TMC3    C2 6404   3.252   2.969  16.951  0.1795  0.6144  0.0940
  426TMC3    C3 6405   3.334   2.871  16.908  0.8422  0.0204  0.1537
  426TMC3    C4 6406   3.176   2.822  17.129  0.9214  0.1411 -0.3296
  426TMC3    C5 6407   3.258   2.729  17.075 -0.1593  0.1326  0.1986
  426TMC3    C6 6408   3.347   2.749  16.976  0.4705  0.5251  0.7940
  426TMC3     C 6409   3.073   3.032  17.098  0.2753 -0.7631 -0.5739
  426TMC3     O 6410   2.979   2.981  17.149 -0.4632  0.1125  0.5766
  426TMC3     H 6411   3.215   3.044  16.882  1.9469  1.6078  0.2425
  426TMC3    H1 6412   3.118   2.812  17.221 -0.3503  0.2077 -1.1345
  426TMC3    H2 6413   3.401   2.668  16.928  2.2412  1.9444  0.4232
  426TMC3    C7 6414   3.222   2.591  17.101 -0.4693 -0.0484  0.1081
  426TMC3    C8 6415   3.401   2.885  16.781  0.6496  0.1121 -0.1937
  426TMC3    O1 6416   3.306   2.502  17.076 -0.2163  0.2559 -0.6790
  426TMC3    O2 6417   3.436   2.779  16.735 -0.0382 -0.2724  0.5847
  427MPD2     C 6418   1.788   0.564  15.391 -0.4814 -0.6247  0.4390
  427MPD2    C1 6419   1.820   0.660  15.492 -0.9058 -0.3327  0.1934
  427MPD2    C2 6420   1.757   0.778  15.491 -0.5727  0.9698 -0.5808
  427MPD2    C3 6421   1.660   0.810  15.395 -0.0329  0.2770 -0.1863
  427MPD2    C4 6422   1.646   0.724  15.292  1.1019  0.3825  0.2097
  427MPD2    C5 6423   1.694   0.599  15.295  1.0592 -0.1855 -0.5116
  427MPD2     H 6424   1.783   0.849  15.568 -0.5040 -1.5623  1.7201
  427MPD2    H1 6425   1.579   0.743  15.208 -0.1458  1.5281  1.4671
  427MPD2    H2 6426   1.828   0.464  15.382 -0.0983 -0.3092 -1.3322
  427MPD2    H3 6427   1.669   0.523  15.222  1.2076 -0.0529 -0.6994
  427MPD2     N 6428   1.581   0.928  15.394  0.3721  0.1470 -0.1456
  427MPD2    H5 6429   1.520   0.934  15.313  0.2935 -0.2633 -0.1178
  427MPD2    N1 6430   1.912   0.643  15.592 -0.0971 -0.1168 -0.5477
  427MPD2    H7 6431   1.941   0.726  15.642  0.6404 -0.0203 -1.1250
  428TMC3    C1 6432   2.057   0.509  15.720 -0.0385  0.3142  0.0698
  428TMC3    C2 6433   2.078   0.396  15.791 -0.1592 -0.2550  0.2078
  428TMC3    C3 6434   2.196   0.374  15.859 -0.8761  0.4548  0.0404
  428TMC3    C4 6435   2.160   0.599  15.709  0.6918 -0.3134 -0.3123
  428TMC3    C5 6436   2.277   0.567  15.765 -0.2537  0.0079 -0.5908
  428TMC3    C6 6437   2.297   0.462  15.846 -0.7738  0.0041  0.4268
  428TMC3     C 6438   1.943   0.519  15.632  0.0295  0.2173 -0.6558
  428TMC3     O 6439   1.883   0.414  15.606 -0.1623 -0.1152 -0.3444
  428TMC3     H 6440   2.000   0.322  15.791  0.1993 -0.6354 -3.2009
  428TMC3    H1 6441   2.153   0.684  15.642 -1.7618  0.0242  0.3815
  428TMC3    H2 6442   2.385   0.439  15.905 -1.1408 -1.4846  0.4139
  428TMC3    C7 6443   2.389   0.660  15.766  0.4463  0.5505 -0.4577
  428TMC3    C8 6444   2.221   0.235  15.860  0.2265 -0.8600 -0.0832
  428TMC3    O1 6445   2.467   0.660  15.860  0.1592 -0.1732 -0.5027
  428TMC3    O2 6446   2.122   0.159  15.872 -0.0082 -0.1513  0.1055
  429MPD2     C 6447   2.611   0.799  17.643  0.9999  0.6915  0.8513
  429MPD2    C1 6448   2.716   0.715  17.615 -0.1131 -0.9228 -0.0620
  429MPD2    C2 6449   2.804   0.764  17.514  0.0278 -0.0041 -0.3928
  429MPD2    C3 6450   2.796   0.893  17.461 -0.7568 -0.1754  0.3079
  429MPD2    C4 6451   2.696   0.978  17.496 -0.0895 -1.1678  0.0683
  429MPD2    C5 6452   2.602   0.923  17.584 -0.4309 -0.2273 -0.5051
  429MPD2     H 6453   2.889   0.706  17.479  0.8614  0.2906  1.1556
  429MPD2    H1 6454   2.687   1.084  17.473  1.0227 -0.6333  2.1648
  429MPD2    H2 6455   2.530   0.768  17.708  1.8803 -2.3732  0.4736
  429MPD2    H3 6456   2.517   0.982  17.614  0.1891  0.0146  0.7942
  429MPD2     N 6457   2.902   0.933  17.380  0.1326  0.0408  0.7651
  429MPD2    H5 6458   2.963   0.862  17.341  0.8615  0.7120  0.6863
  429MPD2    N1 6459   2.734   0.584  17.668  0.1766 -0.1276 -0.3613
  429MPD2    H7 6460   2.813   0.528  17.636  1.6790  1.9253 -0.2696
  430TMC3    C1 6461   3.050   1.087  17.287  0.0328  0.0586 -0.3220
  430TMC3    C2 6462   3.123   1.202  17.313  0.0919  0.5080  0.0336
  430TMC3    C3 6463   3.223   1.238  17.230 -0.3673  1.1621 -0.7925
  430TMC3    C4 6464   3.075   1.020  17.167  0.3795 -0.1192 -0.5694
  430TMC3    C5 6465   3.190   1.053  17.097  0.2088 -0.1871 -0.5181
  430TMC3    C6 6466   3.268   1.158  17.133 -0.3785  0.3426  0.0741
  430TMC3     C 6467   2.947   1.060  17.384 -0.0791  0.3863 -0.0453
  430TMC3     O 6468   2.915   1.155  17.450 -0.0880  0.3164  0.7860
  430TMC3     H 6469   3.102   1.269  17.395  2.4267 -0.0529  1.0629
  430TMC3    H1 6470   3.010   0.936  17.143  0.5089 -0.5463  0.5691
  430TMC3    H2 6471   3.363   1.179  17.085  0.7209 -0.1877  2.0502
  430TMC3    C7 6472   3.199   1.003  16.965 -0.4060 -0.5204 -0.2968
  430TMC3    C8 6473   3.328   1.315  17.298  0.3676 -0.7674 -0.4389
  430TMC3    O1 6474   3.163   0.890  16.933 -0.0796 -0.2401  0.8560
  430TMC3    O2 6475   3.346   1.274  17.411  0.6585 -0.1857  0.0207
  431MPD2     C 6476   3.411   0.933  12.624  0.4162  0.6590  0.3730
  431MPD2    C1 6477   3.547   0.947  12.623 -0.5644 -0.0394 -0.7622
  431MPD2    C2 6478   3.621   0.841  12.573  0.4928 -0.1808  0.0640
  431MPD2    C3 6479   3.559   0.723  12.527  0.1568 -0.0424  0.3205
  431MPD2    C4 6480   3.421   0.708  12.535 -0.7436  0.6781  0.1345
  431MPD2    C5 6481   3.354   0.819  12.586  0.2533  0.1037 -0.8609
  431MPD2     H 6482   3.727   0.859  12.572  0.5384 -0.3146  1.7568
  431MPD2    H1 6483   3.361   0.621  12.512 -0.5726  0.5977 -0.0093
  431MPD2    H2 6484   3.345   1.009  12.667  1.4081  1.5164  0.3720
  431MPD2    H3 6485   3.248   0.803  12.602  0.4732 -1.4333 -0.9230
  431MPD2     N 6486   3.626   0.619  12.461 -0.6788  0.5591  0.0491
  431MPD2    H5 6487   3.568   0.537  12.447 -0.4265  0.2405  0.8850
  431MPD2    N1 6488   3.603   1.061  12.687  0.6368  0.4276 -0.1913
  431MPD2    H7 6489   3.538   1.132  12.719  1.1554  0.2288  1.2858
  432TMC3    C1 6490   3.789   0.502  12.335 -0.2506 -0.9763 -0.5360
  432TMC3    C2 6491   3.903   0.531  12.281 -0.0744 -0.2038 -0.3193
  432TMC3    C3 6492   4.005   0.450  12.309  0.2428  0.1026 -0.1651
  432TMC3    C4 6493   3.767   0.397  12.423  0.6152  0.0664  0.2947
  432TMC3    C5 6494   3.875   0.311  12.448  0.6744 -0.5252  1.2900
  432TMC3    C6 6495   3.989   0.337  12.388 -0.5797  0.1326 -0.1059
  432TMC3     C 6496   3.749   0.627  12.401  0.1531  1.0867 -0.3011
  432TMC3     O 6497   3.820   0.721  12.396 -0.2450 -0.1340 -0.9978
  432TMC3     H 6498   3.918   0.620  12.222 -0.4340 -0.9309 -1.5073
  432TMC3    H1 6499   3.670   0.378  12.467  0.0601 -0.4734 -1.1293
  432TMC3    H2 6500   4.076   0.277  12.411 -2.1459 -1.1821  2.3055
  432TMC3    C7 6501   3.883   0.289  12.588  0.2480 -0.1280  0.1326
  432TMC3    C8 6502   4.134   0.469  12.244  0.8463 -0.3744 -0.3180
  432TMC3    O1 6503   3.917   0.185  12.642  0.8001  0.3970  0.2537
  432TMC3    O2 6504   4.172   0.368  12.187  0.2549  0.1965  0.0152
  433MPD2     C 6505   2.211   4.403  11.365 -0.2657  0.0714 -0.1957
  433MPD2    C1 6506   2.289   4.291  11.383  0.3930  0.6102  0.2592
  433MPD2    C2 6507   2.373   4.286  11.494  0.2319  0.8428  0.0475
  433MPD2    C3 6508   2.373   4.383  11.594  0.7288 -0.0470  0.3258
  433MPD2    C4 6509   2.295   4.494  11.583 -0.0733  0.2331  0.3778
  433MPD2    C5 6510   2.222   4.504  11.464  0.1820 -0.1742  0.1649
  433MPD2     H 6511   2.443   4.205  11.510 -2.4638 -1.2642  1.2455
  433MPD2    H1 6512   2.289   4.576  11.653  1.4187  0.0836  0.6734
  433MPD2    H2 6513   2.144   4.410  11.280 -1.7577 -1.8230  0.8063
  433MPD2    H3 6514   2.148   4.581  11.445  0.9695  0.4199 -0.4481
  433MPD2     N 6515   2.470   4.378  11.700 -0.8621 -0.6373  0.7529
  433MPD2    H5 6516   2.524   4.292  11.704 -0.0874 -0.0824  2.2279
  433MPD2    N1 6517   2.275   4.192  11.287  0.0636  0.1712  0.3753
  433MPD2    H7 6518   2.210   4.202  11.209  0.6791  0.5224 -0.0875
  434TMC3    C1 6519   2.294   3.976  11.187  0.6391  0.0728 -1.0146
  434TMC3    C2 6520   2.327   3.851  11.207 -0.3791  0.1981 -0.7134
  434TMC3    C3 6521   2.368   3.760  11.113 -0.2721  0.0158  0.8693
  434TMC3    C4 6522   2.296   4.018  11.058  0.0338  0.0819 -0.1582
  434TMC3    C5 6523   2.317   3.918  10.963  0.3055 -0.2688  0.5092
  434TMC3    C6 6524   2.358   3.794  10.980 -0.0282  0.0974 -0.5297
  434TMC3     C 6525   2.341   4.071  11.289 -0.1875 -0.0337 -0.8043
  434TMC3     O 6526   2.419   4.030  11.374 -0.6926  0.1792  0.2405
  434TMC3     H 6527   2.322   3.824  11.312 -1.3390  1.4788 -0.4241
  434TMC3    H1 6528   2.281   4.121  11.028 -2.2388 -0.1200  0.2833
  434TMC3    H2 6529   2.405   3.747  10.895 -0.0588  0.9394 -1.0187
  434TMC3    C7 6530   2.294   3.958  10.828  0.2436  0.5223  0.1607
  434TMC3    C8 6531   2.473   3.677  11.164 -1.0028  0.0345 -0.4154
  434TMC3    O1 6532   2.319   4.074  10.798  0.5210 -0.3656  0.2749
  434TMC3    O2 6533   2.482   3.666  11.287 -0.6483  0.6846 -0.0386
  435MPD2     C 6534   0.380   4.298  15.320 -0.1583  0.1409 -0.1837
  435MPD2    C1 6535   0.314   4.278  15.436 -0.0207  0.4562  0.2257
  435MPD2    C2 6536   0.388   4.233  15.542 -0.6965 -0.0663 -0.1829
  435MPD2    C3 6537   0.523   4.197  15.526 -0.3101  0.7039  0.5134
  435MPD2    C4 6538   0.586   4.224  15.412  0.0645  0.1388  1.1129
  435MPD2    C5 6539   0.516   4.266  15.306 -0.1912 -0.7275  0.0828
  435MPD2     H 6540   0.344   4.220  15.640 -0.3962 -1.1082 -0.1907
  435MPD2    H1 6541   0.692   4.205  15.401 -0.3504 -1.9056  0.5850
  435MPD2    H2 6542   0.328   4.348  15.239 -0.7864 -0.4548 -0.1538
  435MPD2    H3 6543   0.576   4.270  15.216 -0.7757  0.6115 -0.2548
  435MPD2     N 6544   0.581   4.134  15.639 -0.5649  0.1030 -0.9214
  435MPD2    H5 6545   0.532   4.130  15.729  1.0629 -0.6584 -0.0771
  435MPD2    N1 6546   0.183   4.307  15.453 -0.0471 -0.6410 -0.1840
  435MPD2    H7 6547   0.130   4.269  15.530 -1.1345 -0.5736 -0.9027
  436TMC3    C1 6548   4.592   4.501  15.591  0.1075  0.2205 -0.0344
  436TMC3    C2 6549   4.705   4.433  15.550 -0.2198 -0.1046  0.9046
  436TMC3    C3 6550   4.713   4.397  15.415 -0.3495 -0.1797 -0.8846
  436TMC3    C4 6551   4.490   4.542  15.509  0.6009 -0.0035  0.1006
  436TMC3    C5 6552   4.517   4.528  15.378  0.4209 -0.5172 -0.1233
  436TMC3    C6 6553   4.614   4.446  15.329  0.6965 -0.0130 -0.0327
  436TMC3     C 6554   4.607   4.581  15.710 -0.1113  0.4359  0.0776
  436TMC3     O 6555   4.716   4.589  15.757  0.3628 -0.3875 -0.0256
  436TMC3     H 6556   0.034   4.402  15.627 -0.2735 -0.1328  0.9427
  436TMC3    H1 6557   4.422   4.623  15.533  0.9494  0.6797 -1.2035
  436TMC3    H2 6558   4.631   4.444  15.222  0.8740 -0.0260 -0.0044
  436TMC3    C7 6559   4.422   4.587  15.289 -0.5953 -0.0629 -0.2171
  436TMC3    C8 6560   0.103   4.377  15.363 -0.0142  0.0812  0.2836
  436TMC3    O1 6561   4.311   4.608  15.340 -0.2026 -0.0134 -0.7528
  436TMC3    O2 6562   0.134   4.439  15.263 -0.6631  0.3205 -0.5688
  437TMC3    C1 6563   2.925   1.610  12.751 -0.0821 -0.8591 -0.1112
  437TMC3    C2 6564   2.945   1.490  12.811 -0.5378  0.0140  0.5074
  437TMC3    C3 6565   3.033   1.497  12.916  0.3034  0.3294 -0.0167
  437TMC3    C4 6566   2.972   1.731  12.791  0.5569  0.0841  0.4925
  437TMC3    C5 6567   3.066   1.725  12.893  0.2371  0.1700  0.0478
  437TMC3    C6 6568   3.095   1.608  12.960  0.5907 -0.4643  0.4635
  437TMC3     C 6569   2.872   1.616  12.613 -0.0665 -0.4429 -0.0604
  437TMC3     O 6570   2.896   1.717  12.549  0.4121  0.3401  0.0690
  437TMC3     H 6571   2.900   1.395  12.786  1.4155 -0.9002  0.4410
  437TMC3    H1 6572   2.955   1.823  12.736 -0.3620  0.6740  1.7632
  437TMC3    H2 6573   3.174   1.613  13.033  0.9821  0.3843 -0.0072
  437TMC3    C7 6574   3.161   1.835  12.891  0.3774  0.4709  0.1791
  437TMC3    C8 6575   3.040   1.381  13.004  0.5432  0.4285  0.1069
  437TMC3    O1 6576   3.106   1.935  12.843 -0.2607  0.2916  0.1386
  437TMC3    O2 6577   2.952   1.299  12.984 -0.2636  0.0403  0.7970
  438MPD2     C 6578   0.807   2.475  16.988  0.3723  1.0772  0.3858
  438MPD2    C1 6579   0.862   2.372  17.069 -0.5140  0.3265 -0.2788
  438MPD2    C2 6580   0.801   2.352  17.190  0.5377 -0.5205  0.2605
  438MPD2    C3 6581   0.690   2.423  17.231 -0.4607 -0.7196 -0.2545
  438MPD2    C4 6582   0.637   2.520  17.148  0.1230 -0.1708  0.1298
  438MPD2    C5 6583   0.695   2.546  17.025  0.7742  0.3059  0.2916
  438MPD2     H 6584   0.850   2.280  17.254 -0.0844  0.1890  1.5195
  438MPD2    H1 6585   0.548   2.572  17.183 -0.6217 -0.8376 -0.7877
  438MPD2    H2 6586   0.848   2.494  16.890 -1.0008 -1.0296 -0.5934
  438MPD2    H3 6587   0.662   2.614  16.947  1.2305 -1.7152 -1.6431
  438MPD2     N 6588   0.617   2.406  17.347  0.2052  0.5472  1.0764
  438MPD2    H5 6589   0.532   2.460  17.356  0.0520  0.4908  0.0049
  438MPD2    N1 6590   0.972   2.290  17.037  0.3937 -0.0458 -0.6744
  438MPD2    H7 6591   1.002   2.227  17.110  0.8170 -0.7456 -1.4413
  439TMC3    C1 6592   1.148   2.186  16.923  0.1072  0.3904  0.1034
  439TMC3    C2 6593   1.249   2.207  16.834  0.5760  0.0144 -0.3025
  439TMC3    C3 6594   1.361   2.133  16.850 -0.4485  0.5343  0.0993
  439TMC3    C4 6595   1.151   2.081  17.016  0.6895 -0.1407 -0.2372
  439TMC3    C5 6596   1.254   1.993  17.004  0.7894 -0.1531 -0.2395
  439TMC3    C6 6597   1.374   2.025  16.940 -0.9228  0.0633 -0.0178
  439TMC3     C 6598   1.042   2.285  16.921 -0.4433  0.1527 -0.6053
  439TMC3     O 6599   1.033   2.346  16.812 -0.3569 -0.1390  0.0224
  439TMC3     H 6600   1.245   2.296  16.773 -3.3779  0.0727  0.0444
  439TMC3    H1 6601   1.063   2.050  17.071  1.9356  1.1492  2.4929
  439TMC3    H2 6602   1.461   1.963  16.954 -0.6711  0.6396  1.0333
  439TMC3    C7 6603   1.287   1.923  17.118  0.4977  0.5214  0.2562
  439TMC3    C8 6604   1.479   2.159  16.774 -0.5105 -0.4251  0.3439
  439TMC3    O1 6605   1.395   1.959  17.168  0.0348 -0.4402 -0.2946
  439TMC3    O2 6606   1.584   2.119  16.828 -0.5100  0.1160 -0.2458
  440MPD2     C 6607   0.255   2.635  14.847 -0.0637 -0.3423  0.6454
  440MPD2    C1 6608   0.299   2.712  14.949 -0.3416 -1.0723  0.3935
  440MPD2    C2 6609   0.402   2.680  15.031 -0.6519  0.1745  0.9414
  440MPD2    C3 6610   0.456   2.557  15.014 -0.6113 -0.1938  0.3913
  440MPD2    C4 6611   0.408   2.470  14.913  0.3936  0.0828 -0.0594
  440MPD2    C5 6612   0.314   2.513  14.826 -0.6608  0.0099 -0.1408
  440MPD2     H 6613   0.434   2.756  15.101  0.9233 -0.7902  1.2621
  440MPD2    H1 6614   0.457   2.377  14.891  0.5693  0.4501 -1.1984
  440MPD2    H2 6615   0.175   2.658  14.779 -0.4298  0.5288  1.3671
  440MPD2    H3 6616   0.289   2.444  14.746 -1.8685  0.5006 -0.1881
  440MPD2     N 6617   0.560   2.508  15.095 -0.1418 -0.2789  0.2465
  440MPD2    H5 6618   0.589   2.411  15.084 -0.3374 -0.2679 -0.3338
  440MPD2    N1 6619   0.228   2.826  14.983 -0.1175  0.0568 -0.0527
  440MPD2    H7 6620   0.238   2.847  15.081 -0.0188 -0.9533  0.1475
  441TMC3    C1 6621   0.724   2.501  15.269 -0.4770 -0.4071  0.7521
  441TMC3    C2 6622   0.824   2.584  15.312  0.6693 -0.0014 -0.0148
  441TMC3    C3 6623   0.856   2.575  15.448  0.2484 -0.0644 -0.4079
  441TMC3    C4 6624   0.684   2.386  15.337  0.2020  0.4991  0.1286
  441TMC3    C5 6625   0.738   2.366  15.465  0.7478 -0.2029 -0.4128
  441TMC3    C6 6626   0.807   2.467  15.520 -0.0446 -0.3618 -0.2730
  441TMC3     C 6627   0.618   2.572  15.207  0.3816  0.0216 -0.3174
  441TMC3     O 6628   0.610   2.693  15.225  0.2567 -0.1803  0.0993
  441TMC3     H 6629   0.846   2.670  15.250 -0.1344  0.2870  0.0946
  441TMC3    H1 6630   0.592   2.338  15.304 -1.0067  0.8449  3.0011
  441TMC3    H2 6631   0.832   2.468  15.625 -0.4745 -0.8790 -0.1626
  441TMC3    C7 6632   0.672   2.270  15.557 -0.2815  0.0766  0.2368
  441TMC3    C8 6633   0.858   2.705  15.520 -0.0551  0.3314  0.1956
  441TMC3    O1 6634   0.575   2.219  15.508 -0.0658  0.3781 -0.0428
  441TMC3    O2 6635   0.896   2.707  15.637 -0.3339 -0.1570  0.3688
  442MPD2     C 6636   3.220   3.297  16.451  0.3774 -0.7418 -0.5785
  442MPD2    C1 6637   3.150   3.209  16.529 -0.3514  0.2417 -0.0386
  442MPD2    C2 6638   3.111   3.085  16.478  0.7039  0.1099  0.4182
  442MPD2    C3 6639   3.138   3.050  16.349 -0.4177 -0.8207 -0.0716
  442MPD2    C4 6640   3.202   3.141  16.272 -0.3324 -0.1165 -0.4531
  442MPD2    C5 6641   3.243   3.260  16.325 -0.0890  0.4082 -0.8825
  442MPD2     H 6642   3.040   3.020  16.527  0.6674 -1.4738 -1.7437
  442MPD2    H1 6643   3.232   3.119  16.171  0.2600  2.7321 -0.8989
  442MPD2    H2 6644   3.257   3.395  16.482  2.0865 -1.2535 -1.0001
  442MPD2    H3 6645   3.299   3.325  16.258 -0.0981  0.3964 -0.9014
  442MPD2     N 6646   3.102   2.927  16.296  0.1279  0.1694 -0.5497
  442MPD2    H5 6647   3.135   2.900  16.204 -1.8504 -0.1025 -1.1806
  442MPD2    N1 6648   3.100   3.244  16.660 -0.1586  0.5040 -0.0568
  442MPD2    H7 6649   3.034   3.187  16.713  1.6537 -1.0596  0.4888
  443TMC3    C1 6650   3.013   3.416  16.792 -0.4706  0.0380  0.1616
  443TMC3    C2 6651   3.025   3.553  16.820 -0.5534  1.0406 -0.3118
  443TMC3    C3 6652   2.903   3.621  16.850  0.1252  0.1828  0.3369
  443TMC3    C4 6653   2.889   3.351  16.785 -0.8129  0.9375 -0.4138
  443TMC3    C5 6654   2.772   3.429  16.816 -0.1007 -0.4519 -0.0877
  443TMC3    C6 6655   2.781   3.559  16.864 -0.1029  0.1296  0.3125
  443TMC3     C 6656   3.127   3.371  16.718  0.2361 -0.3176  0.1041
  443TMC3     O 6657   3.229   3.438  16.712 -1.0533 -0.0784  0.1497
  443TMC3     H 6658   3.121   3.603  16.818 -0.2320  0.4426  0.1062
  443TMC3    H1 6659   2.879   3.249  16.752  2.3040  0.6142 -0.3581
  443TMC3    H2 6660   2.692   3.620  16.876 -1.1760 -1.0371 -1.7869
  443TMC3    C7 6661   2.647   3.342  16.816 -0.0797 -0.5171  0.6661
  443TMC3    C8 6662   2.896   3.764  16.874 -0.3987 -0.1492 -0.0755
  443TMC3    O1 6663   2.646   3.228  16.769  0.4387 -0.3980  0.5082
  443TMC3    O2 6664   2.823   3.790  16.971 -0.3355  0.0644 -0.7408
  444MPD2     C 6665   3.091   2.409  16.782 -1.1045 -0.2006  1.3152
  444MPD2    C1 6666   3.045   2.284  16.785  0.0392 -0.2324  0.3563
  444MPD2    C2 6667   3.121   2.181  16.727 -0.0487 -0.1830  0.7485
  444MPD2    C3 6668   3.258   2.197  16.694 -0.0021  0.1076  0.0667
  444MPD2    C4 6669   3.308   2.325  16.698 -0.1008  0.5003  0.0036
  444MPD2    C5 6670   3.226   2.424  16.751 -0.0361  0.4476 -0.1559
  444MPD2     H 6671   3.067   2.087  16.725 -0.2082 -0.1184  2.0053
  444MPD2    H1 6672   3.403   2.363  16.661 -0.4452  0.1401 -1.2342
  444MPD2    H2 6673   3.044   2.502  16.812 -4.2643 -0.4330 -2.9737
  444MPD2    H3 6674   3.274   2.521  16.762 -0.1739  0.3144  1.5901
  444MPD2     N 6675   3.328   2.083  16.643 -0.2989  0.7316 -0.1526
  444MPD2    H5 6676   3.285   1.991  16.647  1.2816 -0.1205 -2.3664
  444MPD2    N1 6677   2.915   2.254  16.830  0.3119  0.6946 -0.0008
  444MPD2    H7 6678   2.880   2.159  16.827  0.2328  0.6465  2.2174
  445TMC3    C1 6679   3.496   1.957  16.541  0.1769 -0.7222  0.2979
  445TMC3    C2 6680   3.400   1.895  16.467 -0.5402 -0.0842  0.6398
  445TMC3    C3 6681   3.448   1.798  16.386  0.8250 -0.4914 -1.0774
  445TMC3    C4 6682   3.627   1.920  16.556 -0.0564 -0.3583 -0.3133
  445TMC3    C5 6683   3.664   1.807  16.489  0.2306 -0.4188  0.7431
  445TMC3    C6 6684   3.576   1.747  16.399  0.3434 -0.0450 -0.3474
  445TMC3     C 6685   3.459   2.085  16.595 -0.0078  0.1125 -0.2798
  445TMC3     O 6686   3.542   2.174  16.598 -0.4149  0.2816  0.8956
  445TMC3     H 6687   3.303   1.939  16.451 -1.2463 -1.5975  0.7513
  445TMC3    H1 6688   3.688   1.988  16.615  0.8664 -1.4831  0.0371
  445TMC3    H2 6689   3.609   1.669  16.332 -0.4192 -0.5515 -0.1255
  445TMC3    C7 6690   3.802   1.780  16.465 -0.0923  0.0696  0.4524
  445TMC3    C8 6691   3.354   1.735  16.299  0.6325  0.1662  0.0228
  445TMC3    O1 6692   3.830   1.717  16.367 -0.0161  0.3492 -0.2182
  445TMC3    O2 6693   3.242   1.713  16.345 -0.5541  0.1390 -1.0625
  446MPD2     C 6694   2.312   3.631  11.766  0.0444  0.0281  0.1535
  446MPD2    C1 6695   2.262   3.703  11.659  0.2676 -0.1378 -0.2652
  446MPD2    C2 6696   2.346   3.775  11.585  0.3352  0.0691 -0.0989
  446MPD2    C3 6697   2.483   3.767  11.594  0.7734 -0.3947  0.0571
  446MPD2    C4 6698   2.531   3.682  11.694 -0.2117  0.6121  0.9835
  446MPD2    C5 6699   2.448   3.624  11.781  1.0191  0.2929 -0.6777
  446MPD2     H 6700   2.299   3.833  11.507 -1.2765 -0.6498  0.3440
  446MPD2    H1 6701   2.635   3.675  11.724 -0.2445  2.0182  1.4122
  446MPD2    H2 6702   2.254   3.575  11.838 -0.9723  0.9251  0.0265
  446MPD2    H3 6703   2.482   3.561  11.862 -0.9580 -1.5621 -1.3113
  446MPD2     N 6704   2.567   3.843  11.509 -0.1283  0.6151  0.0785
  446MPD2    H5 6705   2.526   3.893  11.431 -0.8713  0.4511  0.3619
  446MPD2    N1 6706   2.125   3.700  11.623 -0.0241 -0.4660  0.1226
  446MPD2    H7 6707   2.091   3.743  11.537  0.3797 -0.4806 -0.0438
  447TMC3    C1 6708   2.763   3.908  11.400  0.2350  0.6002  0.0975
  447TMC3    C2 6709   2.689   3.958  11.294  0.3290  0.0562 -0.3745
  447TMC3    C3 6710   2.755   4.042  11.210  0.2307 -0.0258 -0.4982
  447TMC3    C4 6711   2.894   3.943  11.421  0.2265  0.0902  0.1036
  447TMC3    C5 6712   2.944   4.047  11.346  0.0671 -0.4131  0.5007
  447TMC3    C6 6713   2.874   4.095  11.244 -0.3501 -0.3933 -0.8418
  447TMC3     C 6714   2.705   3.828  11.507  0.4414 -0.2320  0.9131
  447TMC3     O 6715   2.783   3.774  11.586 -0.2725 -0.1343 -0.0319
  447TMC3     H 6716   2.595   3.915  11.263  0.6170  0.3757 -1.6829
  447TMC3    H1 6717   2.956   3.912  11.505 -0.2102  0.1037  0.4309
  447TMC3    H2 6718   2.918   4.164  11.172  0.6772 -1.7013 -1.4686
  447TMC3    C7 6719   3.084   4.089  11.343  0.5214 -0.0331 -0.3742
  447TMC3    C8 6720   2.683   4.118  11.114 -0.5489 -0.3257  0.0485
  447TMC3    O1 6721   3.114   4.194  11.284 -0.1832 -0.4957  0.2610
  447TMC3    O2 6722   2.611   4.053  11.042 -0.0684 -0.0006  0.4723
  448TMC3    C1 6723   1.801   3.532  17.639  0.1511 -0.5320  0.2861
  448TMC3    C2 6724   1.811   3.395  17.640 -0.0025  0.0162  0.1350
  448TMC3    C3 6725   1.720   3.325  17.718 -0.4047 -0.5661  0.1276
  448TMC3    C4 6726   1.707   3.596  17.714 -0.2334 -0.1139 -0.7548
  448TMC3    C5 6727   1.609   3.520   0.016 -0.2949  0.0718  0.0585
  448TMC3    C6 6728   1.623   3.385   0.025 -0.2444 -0.5349  0.4099
  448TMC3     C 6729   1.913   3.606  17.597  0.1113 -0.0255  0.3564
  448TMC3     O 6730   1.940   3.712  17.661  0.1111  0.7435 -0.6410
  448TMC3     H 6731   1.883   3.344  17.576 -0.8724  1.4675 -1.9649
  448TMC3    H1 6732   1.683   3.701  17.704  0.3268  0.3365  2.4732
  448TMC3    H2 6733   1.562   3.318   0.086  0.8071 -0.3232  1.7037
  448TMC3    C7 6734   1.533   3.583   0.124  0.1563  0.5114 -0.1645
  448TMC3    C8 6735   1.710   3.183  17.705 -0.0954 -0.7190 -0.0614
  448TMC3    O1 6736   1.567   3.691   0.178 -0.1142  0.1851  0.1054
  448TMC3    O2 6737   1.600   3.136  17.728  0.6248 -0.4803  0.4639
  449MPD2     C 6738   2.713   2.151  14.171 -0.3237  0.2391  0.1442
  449MPD2    C1 6739   2.608   2.204  14.105  0.4521 -0.0148 -0.3879
  449MPD2    C2 6740   2.481   2.165  14.143  0.6613 -0.3030 -0.2560
  449MPD2    C3 6741   2.468   2.063  14.234 -0.1527  0.3164 -0.8127
  449MPD2    C4 6742   2.582   2.000  14.294 -0.7340  0.0748  0.1586
  449MPD2    C5 6743   2.705   2.044  14.252  0.3592  0.2713 -0.0180
  449MPD2     H 6744   2.392   2.193  14.088  1.4048  0.7973 -0.9037
  449MPD2    H1 6745   2.571   1.916  14.362  0.0247  1.0892  1.5253
  449MPD2    H2 6746   2.817   2.178  14.152 -0.3763 -0.6079 -1.3982
  449MPD2    H3 6747   2.796   2.006  14.297  0.2115 -1.9872 -1.6008
  449MPD2     N 6748   2.346   2.017  14.262  0.2109  0.0563  0.0711
  449MPD2    H5 6749   2.270   2.055  14.206  1.1244  0.3283 -1.0010
  449MPD2    N1 6750   2.611   2.316  14.020  0.4286 -0.0522 -0.5488
  449MPD2    H7 6751   2.521   2.353  13.989 -0.1267 -0.3793  0.6433
  450TMC3    C1 6752   2.672   2.527  13.936 -0.6089  0.3285 -0.0300
  450TMC3    C2 6753   2.693   2.539  13.802 -0.3097  0.7730  0.1330
  450TMC3    C3 6754   2.586   2.559  13.723 -0.3692 -0.6106 -0.2614
  450TMC3    C4 6755   2.546   2.568  13.988  0.0441 -0.4124  0.4270
  450TMC3    C5 6756   2.444   2.595  13.900  0.2444  0.1432  0.4391
  450TMC3    C6 6757   2.459   2.587  13.765  0.8271  0.2288 -0.0236
  450TMC3     C 6758   2.721   2.398  13.985  0.6465 -0.1472  0.1152
  450TMC3     O 6759   2.840   2.377  14.002  0.5472  0.6072 -0.5457
  450TMC3     H 6760   2.792   2.507  13.771 -0.7110 -0.6086  0.3056
  450TMC3    H1 6761   2.523   2.550  14.092  0.0488 -1.8377  0.1879
  450TMC3    H2 6762   2.370   2.604  13.705  2.4943  0.4113 -2.4263
  450TMC3    C7 6763   2.322   2.525  13.947 -0.3124 -0.1411 -0.4798
  450TMC3    C8 6764   2.613   2.604  13.589  0.0413  0.2021  0.2886
  450TMC3    O1 6765   2.352   2.426  14.016  0.1597 -0.6701  0.5912
  450TMC3    O2 6766   2.536   2.686  13.544 -0.2642 -0.6322  0.3529
  451MPD2     C 6767   3.346   0.716   1.052 -0.1509 -0.7262 -0.2053
  451MPD2    C1 6768   3.334   0.795   0.940 -0.0205 -0.4034  0.1756
  451MPD2    C2 6769   3.388   0.741   0.822 -0.4105  0.3545  0.3181
  451MPD2    C3 6770   3.470   0.635   0.831 -0.3947  0.2170 -0.3592
  451MPD2    C4 6771   3.488   0.565   0.946 -0.3632  0.0138 -0.1536
  451MPD2    C5 6772   3.426   0.607   1.054  0.7585  0.0987 -0.2231
  451MPD2     H 6773   3.374   0.786   0.725  0.6402 -0.2281 -0.1020
  451MPD2    H1 6774   3.547   0.475   0.954 -1.0814 -0.2105  2.8889
  451MPD2    H2 6775   3.304   0.739   1.150  1.1496  1.1332 -0.0688
  451MPD2    H3 6776   3.444   0.549   1.145  0.8704  0.5623  0.0494
  451MPD2     N 6777   3.522   0.573   0.716 -0.0755 -0.1359 -0.5920
  451MPD2    H5 6778   3.556   0.477   0.724 -1.3019 -0.4241  1.1357
  451MPD2    N1 6779   3.263   0.921   0.943 -0.8545  0.0610 -0.3000
  451MPD2    H7 6780   3.227   0.939   1.037 -0.4863  0.7943 -0.3035
  452TMC3    C1 6781   3.602   0.544   0.506  0.6154 -0.2051  0.1690
  452TMC3    C2 6782   3.553   0.419   0.515 -0.4906 -0.0193  0.5938
  452TMC3    C3 6783   3.608   0.338   0.416 -0.0571  0.4036  0.6103
  452TMC3    C4 6784   3.684   0.598   0.416  0.3186  0.0894  0.1096
  452TMC3    C5 6785   3.729   0.507   0.320 -0.4018 -0.2365 -0.0753
  452TMC3    C6 6786   3.690   0.376   0.322  0.1638 -0.2656  0.0508
  452TMC3     C 6787   3.559   0.636   0.601  0.4458  0.6667  0.2748
  452TMC3     O 6788   3.542   0.755   0.572 -0.8324  0.0605  0.2578
  452TMC3     H 6789   3.462   0.395   0.569 -0.1920 -1.9074  0.2455
  452TMC3    H1 6790   3.697   0.704   0.400 -0.8604  0.1149 -0.6356
  452TMC3    H2 6791   3.735   0.297   0.262 -0.7539 -0.0174 -0.9615
  452TMC3    C7 6792   3.804   0.567   0.214 -0.0454  0.3849  0.1163
  452TMC3    C8 6793   3.548   0.208   0.394  0.1332  0.2918 -0.0946
  452TMC3    O1 6794   3.836   0.685   0.229 -0.2266  0.2933  0.1894
  452TMC3    O2 6795   3.532   0.179   0.274 -0.1786  0.4101  0.2161
  453TMC3    C1 6796   4.492   2.654  12.418 -0.2918 -0.2064 -0.1561
  453TMC3    C2 6797   4.386   2.590  12.465  0.0709  0.2375 -0.2198
  453TMC3    C3 6798   4.270   2.592  12.396 -0.1847 -1.0654 -0.6894
  453TMC3    C4 6799   4.482   2.733  12.310  0.6142  0.4378  0.3909
  453TMC3    C5 6800   4.356   2.751  12.251 -0.3075  0.4512  0.0509
  453TMC3    C6 6801   4.253   2.667  12.285 -0.1520 -0.6027 -0.0516
  453TMC3     C 6802   4.618   2.610  12.476 -0.0217  0.0703 -0.3842
  453TMC3     O 6803   4.620   2.513  12.552  0.4007  0.6786 -0.3805
  453TMC3     H 6804   4.395   2.526  12.552 -1.4562  0.4062  0.0566
  453TMC3    H1 6805   4.570   2.780  12.267  0.4678 -0.7476 -1.1866
  453TMC3    H2 6806   4.152   2.665  12.246  1.1050 -2.4769 -3.1652
  453TMC3    C7 6807   4.350   2.806  12.117  0.7753  0.0528  0.7824
  453TMC3    C8 6808   4.201   2.468  12.405  0.2833 -0.2967 -0.3306
  453TMC3    O1 6809   4.448   2.778  12.048 -0.9437  0.2208  0.0921
  453TMC3    O2 6810   4.091   2.474  12.448  0.0483 -0.2809  0.3322
  454MPD2     C 6811   4.124   2.116  16.266 -1.1843  0.1935  0.4642
  454MPD2    C1 6812   4.102   2.220  16.174  0.3082  0.0519 -0.8069
  454MPD2    C2 6813   4.111   2.353  16.208  0.8774  0.2557  0.0325
  454MPD2    C3 6814   4.156   2.383  16.336  0.2725  0.8690 -0.1141
  454MPD2    C4 6815   4.176   2.283  16.429 -0.2721 -0.0330 -0.1410
  454MPD2    C5 6816   4.172   2.156  16.389 -0.4431  0.5535 -0.2319
  454MPD2     H 6817   4.106   2.434  16.136  0.5316  0.3666  0.1819
  454MPD2    H1 6818   4.201   2.310  16.531 -0.8298  0.2132 -0.0707
  454MPD2    H2 6819   4.109   2.010  16.245  2.1856 -0.6630  2.3803
  454MPD2    H3 6820   4.199   2.081  16.462 -1.9299  0.5445  0.3250
  454MPD2     N 6821   4.191   2.512  16.383  0.4369 -0.0210  0.4285
  454MPD2    H5 6822   4.250   2.522  16.465  0.6232  0.0584  0.2870
  454MPD2    N1 6823   4.051   2.201  16.044 -0.4480 -0.4999  0.0238
  454MPD2    H7 6824   4.027   2.287  15.995 -0.1238 -0.4533 -0.0560
  455TMC3    C1 6825   4.006   2.638  16.280 -0.3562 -0.4812  0.5666
  455TMC3    C2 6826   3.966   2.758  16.231 -0.3817  0.2594  0.3749
  455TMC3    C3 6827   3.830   2.787  16.223  0.1110 -1.2960  0.1896
  455TMC3    C4 6828   3.907   2.543  16.305  0.2402 -1.5130 -0.6544
  455TMC3    C5 6829   3.778   2.568  16.272  0.1671 -0.3622  0.1775
  455TMC3    C6 6830   3.736   2.693  16.250  0.1432  0.3644  1.2059
  455TMC3     C 6831   4.137   2.634  16.344 -0.3137 -1.1036  0.2374
  455TMC3     O 6832   4.183   2.741  16.382 -0.6913  0.2170  0.6702
  455TMC3     H 6833   4.033   2.842  16.218 -0.9317  0.6652  0.1287
  455TMC3    H1 6834   3.919   2.440  16.334  2.5978 -1.1210 -0.2935
  455TMC3    H2 6835   3.630   2.710  16.237 -0.0206 -1.4640  0.0662
  455TMC3    C7 6836   3.690   2.462  16.233  0.1516  0.8661 -1.2143
  455TMC3    C8 6837   3.785   2.921  16.258  0.2906  0.5291 -1.0344
  455TMC3    O1 6838   3.752   2.364  16.182 -0.4059 -0.1506 -0.5371
  455TMC3    O2 6839   3.818   3.014  16.190  0.1842 -0.0040  0.0986
  456MPD2     C 6840   1.455   2.530  16.682 -0.5376 -0.6451  0.0449
  456MPD2    C1 6841   1.557   2.491  16.765 -0.1051  0.2543  0.0244
  456MPD2    C2 6842   1.539   2.497  16.907 -0.2764  0.7275  0.9340
  456MPD2    C3 6843   1.413   2.523  16.955 -0.3889 -0.7699  0.2441
  456MPD2    C4 6844   1.313   2.556  16.868  0.8639  0.6638  0.1439
  456MPD2    C5 6845   1.336   2.562  16.734  0.6653  0.1734  0.1033
  456MPD2     H 6846   1.608   2.475  16.987  0.4859 -1.9075 -0.4731
  456MPD2    H1 6847   1.215   2.588  16.901  1.7874  2.1862  1.3718
  456MPD2    H2 6848   1.455   2.536  16.573 -0.1902 -1.6153 -0.0017
  456MPD2    H3 6849   1.265   2.589  16.657  1.9924  2.1098 -0.4409
  456MPD2     N 6850   1.408   2.523  17.096  0.6088  0.3322  0.3558
  456MPD2    H5 6851   1.492   2.515  17.152  0.5225  0.4952  0.5096
  456MPD2    N1 6852   1.676   2.450  16.708  0.1051  0.5506 -0.2080
  456MPD2    H7 6853   1.686   2.460  16.607 -0.8403  0.8107 -0.2750
  457TMC3    C1 6854   1.300   2.537  17.308 -0.1601  0.4920 -0.3458
  457TMC3    C2 6855   1.400   2.610  17.363  0.0816  0.1220 -0.1293
  457TMC3    C3 6856   1.395   2.625  17.500  0.5683 -0.5554  0.2892
  457TMC3    C4 6857   1.191   2.495  17.376  0.1168 -0.8042  0.4146
  457TMC3    C5 6858   1.181   2.526  17.509  0.6602  0.3020 -1.3867
  457TMC3    C6 6859   1.283   2.596  17.573 -0.1804  0.0609  0.6672
  457TMC3     C 6860   1.287   2.534  17.161 -0.7108 -0.3389  0.2501
  457TMC3     O 6861   1.173   2.544  17.120 -0.1704  0.3390 -0.4159
  457TMC3     H 6862   1.475   2.651  17.296 -0.4481 -1.4064 -1.6570
  457TMC3    H1 6863   1.110   2.445  17.323 -1.5380  0.1891  2.0378
  457TMC3    H2 6864   1.293   2.601  17.681  2.2971 -0.1380  0.4454
  457TMC3    C7 6865   1.096   2.443  17.591  0.6932  0.2671  0.9748
  457TMC3    C8 6866   1.483   2.717  17.566 -1.3996 -0.4993  0.2217
  457TMC3    O1 6867   1.051   2.351  17.517  0.2617 -0.2606  0.5520
  457TMC3    O2 6868   1.440   2.793  17.651 -0.1213  0.0457  0.2358
  458MPD2     C 6869   3.627   2.047  12.853 -0.4178 -0.2170  0.2985
  458MPD2    C1 6870   3.638   1.932  12.937  0.3436  0.1021  0.1612
  458MPD2    C2 6871   3.529   1.853  12.967 -0.2625 -0.7596  0.2752
  458MPD2    C3 6872   3.408   1.896  12.923  0.0167 -0.3267 -1.4696
  458MPD2    C4 6873   3.395   2.007  12.839  0.1036 -0.3289 -1.2172
  458MPD2    C5 6874   3.504   2.079  12.804 -0.4983 -0.0783 -0.6687
  458MPD2     H 6875   3.541   1.758  13.018  3.4361 -0.6791 -0.4498
  458MPD2    H1 6876   3.303   2.016  12.782  0.4825  0.3493 -1.7386
  458MPD2    H2 6877   3.706   2.116  12.826 -1.5263  0.3932 -1.4037
  458MPD2    H3 6878   3.485   2.165  12.741  0.1727  0.4041 -0.2068
  458MPD2     N 6879   3.293   1.808  12.934 -0.2003  0.0620  0.2765
  458MPD2    H5 6880   3.298   1.716  12.975  1.8004 -0.3831 -0.9771
  458MPD2    N1 6881   3.771   1.910  12.989 -0.0452  0.0822 -0.4123
  458MPD2    H7 6882   3.827   1.984  12.949  0.3093 -0.2032 -0.4420
  459TMC3    C1 6883   3.954   1.794  13.089  0.5001  0.4966 -0.1711
  459TMC3    C2 6884   4.042   1.869  13.017 -0.5328 -0.5540 -0.1882
  459TMC3    C3 6885   4.170   1.883  13.069  0.2103 -0.3318 -0.1014
  459TMC3    C4 6886   3.991   1.736  13.209 -0.0012 -0.4544  0.0536
  459TMC3    C5 6887   4.116   1.754  13.254 -0.7373  0.1216  0.6412
  459TMC3    C6 6888   4.207   1.822  13.186 -0.0125 -0.2487  0.0486
  459TMC3     C 6889   3.815   1.792  13.056  0.3977 -0.5420 -0.6675
  459TMC3     O 6890   3.761   1.692  13.098  0.4481  0.0309  0.5292
  459TMC3     H 6891   4.009   1.920  12.927  3.5903 -0.5340 -1.6625
  459TMC3    H1 6892   3.920   1.685  13.272  1.5759  0.3810  2.5180
  459TMC3    H2 6893   4.313   1.817  13.210  0.4231 -0.6448 -1.9511
  459TMC3    C7 6894   4.144   1.689  13.382 -0.4414  0.0981  0.2404
  459TMC3    C8 6895   4.266   1.965  12.994 -0.6909  0.0974  0.0934
  459TMC3    O1 6896   4.074   1.591  13.412  0.0217  0.0646 -0.3459
  459TMC3    O2 6897   4.389   1.961  13.010  0.0528 -0.0434  0.0335
  460MPD2     C 6898   2.517   4.436  11.159  0.3607  0.8948  0.3447
  460MPD2    C1 6899   2.565   4.326  11.087 -0.8964  0.0531  0.7274
  460MPD2    C2 6900   2.535   4.311  10.950  0.4929 -0.0154 -0.5850
  460MPD2    C3 6901   2.448   4.398  10.896  0.4557  0.6634  0.5847
  460MPD2    C4 6902   2.410   4.505  10.973 -0.5613  0.0130  0.1316
  460MPD2    C5 6903   2.453   4.534  11.099  0.2285 -0.5842  0.6069
  460MPD2     H 6904   2.581   4.228  10.897  1.1326  0.3857 -0.6596
  460MPD2    H1 6905   2.342   4.580  10.936 -0.0967  0.1410 -0.4569
  460MPD2    H2 6906   2.553   4.442  11.261 -2.1052  1.2906  1.1832
  460MPD2    H3 6907   2.429   4.624  11.154 -0.0097  0.9499 -2.0404
  460MPD2     N 6908   2.405   4.383  10.758  0.5806 -0.7654  0.2821
  460MPD2    H5 6909   2.448   4.305  10.709 -0.0400  0.0578 -1.5526
  460MPD2    N1 6910   2.670   4.249  11.154 -0.5564 -0.3582  0.2154
  460MPD2    H7 6911   2.713   4.284  11.239  2.8166  0.5828 -1.8920
  461TMC3    C1 6912   2.360   4.459  10.540 -0.0745 -0.0211  0.3600
  461TMC3    C2 6913   2.370   4.347  10.472 -0.0106 -0.8528  0.4210
  461TMC3    C3 6914   2.363   4.354  10.335 -0.0732 -0.0672  0.1964
  461TMC3    C4 6915   2.332   4.575  10.473 -0.2182  0.2364  0.6771
  461TMC3    C5 6916   2.303   4.575  10.342 -0.5545  0.2635  0.2465
  461TMC3    C6 6917   2.329   4.465  10.270 -0.2368 -0.4105 -0.2392
  461TMC3     C 6918   2.337   4.473  10.683  0.5178 -0.5083 -0.1116
  461TMC3     O 6919   2.259   4.561  10.721 -0.3862 -0.1185  0.4637
  461TMC3     H 6920   2.387   4.252  10.522 -1.1135 -0.2486  1.9259
  461TMC3    H1 6921   2.313   4.663  10.533 -0.9488  0.8465 -0.4491
  461TMC3    H2 6922   2.319   4.464  10.162 -0.4873 -4.0755 -0.1950
  461TMC3    C7 6923   2.210   4.677  10.296 -0.2893 -0.1124 -0.3299
  461TMC3    C8 6924   2.382   4.231  10.261  1.0757 -0.1354 -0.2601
  461TMC3    O1 6925   2.199   0.044  10.355 -0.2317  0.0952  0.4518
  461TMC3    O2 6926   2.471   4.163  10.307  0.3524 -0.5440 -0.1600
  462TMC3    C1 6927   3.096   0.122   0.750 -0.3003  0.3403  0.0026
  462TMC3    C2 6928   3.135   0.241   0.689 -0.1443 -0.0211  0.7043
  462TMC3    C3 6929   3.126   0.249   0.555 -0.5718 -0.5571 -1.0562
  462TMC3    C4 6930   3.038   0.023   0.677  0.1310 -0.1465 -0.1403
  462TMC3    C5 6931   3.035   0.040   0.542 -1.2510  0.0320  0.8810
  462TMC3    C6 6932   3.083   0.146   0.477 -0.6758  0.1018 -0.2170
  462TMC3     C 6933   3.150   0.086   0.881  0.5437  1.2265 -0.2273
  462TMC3     O 6934   3.138   4.710   0.905  0.1241  0.4027  0.3544
  462TMC3     H 6935   3.186   0.321   0.740  2.6473 -0.8389 -0.8103
  462TMC3    H1 6936   3.002   4.675   0.727 -2.2548  0.0709 -1.5291
  462TMC3    H2 6937   3.052   0.184   0.381 -1.1029 -0.8882 -0.4725
  462TMC3    C7 6938   2.994   4.666   0.465 -0.2263  0.0991 -0.6450
  462TMC3    C8 6939   3.160   0.379   0.500  0.0987  0.4419  0.1091
  462TMC3    O1 6940   2.939   4.576   0.527  0.7057  0.3541  0.3203
  462TMC3    O2 6941   3.154   0.479   0.571  0.3867  0.0880 -0.3376
  463MPD2     C 6942   4.433   2.936   0.606  0.2426  0.3915  0.0986
  463MPD2    C1 6943   4.484   2.989   0.723  0.5648 -0.6219  0.0630
  463MPD2    C2 6944   4.617   3.024   0.736 -0.8106 -0.3208  0.1432
  463MPD2    C3 6945   4.703   2.997   0.636  0.0486  0.4309  0.1581
  463MPD2    C4 6946   4.659   2.938   0.516  0.0076 -1.7860  0.2678
  463MPD2    C5 6947   4.527   2.918   0.502  0.0610 -0.2365  0.1835
  463MPD2     H 6948   4.648   3.077   0.825 -2.3052  0.5793  0.1373
  463MPD2    H1 6949   4.726   2.916   0.433  1.1925  0.9464  0.5027
  463MPD2    H2 6950   4.328   2.909   0.600  0.2702  1.2832 -4.0442
  463MPD2    H3 6951   4.482   2.888   0.408 -2.3885 -0.6703  1.4904
  463MPD2     N 6952   0.099   3.036   0.644 -0.0538  0.0321 -0.3250
  463MPD2    H5 6953   0.152   3.018   0.559  0.4045 -0.1550 -0.0022
  463MPD2    N1 6954   4.397   3.020   0.834  0.1484  0.0161  0.0728
  463MPD2    H7 6955   4.441   3.054   0.918  0.1805 -0.1697  0.1306
  464TMC3    C1 6956   4.196   3.041   0.966 -0.1004  0.3060  0.0327
  464TMC3    C2 6957   4.218   3.171   1.015  0.6398  0.0201 -0.1268
  464TMC3    C3 6958   4.122   3.230   1.087  0.2119 -0.0815 -0.3153
  464TMC3    C4 6959   4.072   2.982   0.984 -0.1612 -0.2605  0.3963
  464TMC3    C5 6960   3.974   3.055   1.038 -0.0852 -0.0746  1.1245
  464TMC3    C6 6961   3.992   3.178   1.093 -0.3018 -0.0575 -0.7641
  464TMC3     C 6962   4.260   2.992   0.845  0.5737  0.2519 -0.0985
  464TMC3     O 6963   4.187   2.941   0.758 -0.1071 -0.4736 -0.4200
  464TMC3     H 6964   4.321   3.193   0.988 -0.5483  2.7309 -2.4786
  464TMC3    H1 6965   4.053   2.888   0.934 -0.7571  0.3627 -0.5645
  464TMC3    H2 6966   3.917   3.240   1.142  0.4678  0.1612  0.1371
  464TMC3    C7 6967   3.843   2.998   1.040 -0.1443  0.5076  0.8458
  464TMC3    C8 6968   4.136   3.372   1.100  0.4822  0.2356  0.3970
  464TMC3    O1 6969   3.832   2.877   1.028  0.0579  0.1476 -0.4448
  464TMC3    O2 6970   4.038   3.439   1.067 -0.1780 -0.1132  0.9230
  465MPD2     C 6971   0.545   2.187  16.937 -0.6109  0.7249 -0.5451
  465MPD2    C1 6972   0.408   2.195  16.937 -0.8462 -0.3027 -0.5970
  465MPD2    C2 6973   0.359   2.265  16.831 -0.2097 -0.4955  1.1331
  465MPD2    C3 6974   0.432   2.316  16.726  0.2022 -0.0740  0.4872
  465MPD2    C4 6975   0.572   2.307  16.735 -0.3167  0.0309  0.2419
  465MPD2    C5 6976   0.625   2.236  16.836 -0.6477  0.5974 -0.6583
  465MPD2     H 6977   0.264   2.315  16.845 -0.2044  0.3760 -2.1580
  465MPD2    H1 6978   0.639   2.341  16.657  0.4427  1.9709  1.7117
  465MPD2    H2 6979   0.603   2.145  17.018 -0.2477  1.3461 -0.4780
  465MPD2    H3 6980   0.732   2.229  16.844 -1.0221 -2.7744  1.3093
  465MPD2     N 6981   0.360   2.386  16.628  0.3045  0.1037  0.1777
  465MPD2    H5 6982   0.260   2.368  16.618  0.5628 -1.4329  0.3809
  465MPD2    N1 6983   0.321   2.165  17.040 -0.0932 -0.4094  0.0540
  465MPD2    H7 6984   0.226   2.199  17.024  1.3454  3.3920 -0.2791
  466TMC3    C1 6985   0.127   2.530  16.339 -0.3848  0.8855  0.6281
  466TMC3    C2 6986   0.156   2.651  16.286 -0.1174  0.7912  0.5635
  466TMC3    C3 6987   0.280   2.699  16.306 -0.4445  0.0843  0.5601
  466TMC3    C4 6988   0.212   2.466  16.435 -0.2668  0.1588  0.2334
  466TMC3    C5 6989   0.332   2.527  16.455  0.2762 -0.3310 -0.0375
  466TMC3    C6 6990   0.369   2.647  16.393 -0.1228 -0.0856  0.1581
  466TMC3     C 6991   4.730   2.500  16.359  0.3927 -0.0700  0.3281
  466TMC3     O 6992   4.651   2.589  16.371 -0.1303 -0.2751 -0.0602
  466TMC3     H 6993   0.082   2.696  16.221  0.4961 -0.1924 -0.8123
  466TMC3    H1 6994   0.187   2.373  16.483 -1.6478  0.6419  0.4489
  466TMC3    H2 6995   0.467   2.693  16.398 -0.6438  1.0590 -0.1901
  466TMC3    C7 6996   0.419   2.485  16.564  0.0968 -0.1169  0.0095
  466TMC3    C8 6997   0.273   2.842  16.322  0.1270  0.3516 -0.7152
  466TMC3    O1 6998   0.531   2.534  16.583  0.6311 -0.0050 -0.2589
  466TMC3    O2 6999   0.315   2.889  16.424  0.2286  0.4315 -0.3224
  467TMC3    C1 7000   1.222   0.923  13.782  0.1262  0.0012  0.7598
  467TMC3    C2 7001   1.296   1.025  13.723  0.6034 -0.1412  0.1297
  467TMC3    C3 7002   1.267   1.156  13.753 -0.1514 -0.0263 -0.9011
  467TMC3    C4 7003   1.123   0.945  13.869 -0.5299 -0.2228  0.5603
  467TMC3    C5 7004   1.089   1.075  13.870  0.4171  0.0336  0.0914
  467TMC3    C6 7005   1.153   1.185  13.820  0.5747  0.6183 -0.4555
  467TMC3     C 7006   1.317   0.826  13.827  0.1111  0.4425 -0.4164
  467TMC3     O 7007   1.295   0.712  13.798 -0.1496  0.1637  0.1814
  467TMC3     H 7008   1.366   0.993  13.647  1.4521  0.3658  0.7094
  467TMC3    H1 7009   1.069   0.864  13.917  1.1713 -0.9909  1.1861
  467TMC3    H2 7010   1.136   1.289  13.845 -0.8651 -0.0352  1.2623
  467TMC3    C7 7011   0.985   1.117  13.963 -0.5452  0.1170 -0.0395
  467TMC3    C8 7012   1.382   1.245  13.781 -0.2296  0.4114  0.0746
  467TMC3    O1 7013   0.986   1.055  14.066  0.3120  0.1391 -0.0268
  467TMC3    O2 7014   1.358   1.355  13.831 -0.6910 -0.4490  0.2928
  468MPD2     C 7015   4.455   4.300  11.566 -0.4583 -0.2168  0.4021
  468MPD2    C1 7016   4.580   4.262  11.522 -0.0899 -0.4988  0.2244
  468MPD2    C2 7017   4.603   4.129  11.499 -0.8953  0.0998  0.1555
  468MPD2    C3 7018   4.496   4.041  11.511 -0.1543 -0.6490 -0.3823
  468MPD2    C4 7019   4.372   4.080  11.555  0.0804  0.2246 -0.3173
  468MPD2    C5 7020   4.357   4.212  11.588  0.1897  0.8301  0.2757
  468MPD2     H 7021   4.700   4.100  11.462 -1.9063 -0.3110 -2.1621
  468MPD2    H1 7022   4.287   4.014  11.570  0.4267  0.1968  1.5191
  468MPD2    H2 7023   4.434   4.406  11.582 -0.5729 -0.4854  2.0166
  468MPD2    H3 7024   4.261   4.248  11.623 -0.2717  0.0081 -0.1501
  468MPD2     N 7025   4.512   3.907  11.475  0.1328 -0.1565 -0.2233
  468MPD2    H5 7026   4.427   3.851  11.472  1.8194 -2.6441 -1.4206
  468MPD2    N1 7027   4.679   4.357  11.503  0.1040  0.3780  0.7737
  468MPD2    H7 7028   0.030   4.316  11.483  0.8533  2.5203 -0.1326
  469TMC3    C1 7029   0.038   4.569  11.443  0.1572 -0.3748 -0.2697
  469TMC3    C2 7030   0.143   4.549  11.530  0.3684  0.6345  1.0330
  469TMC3    C3 7031   0.227   4.655  11.558 -0.1747  0.0290 -0.4093
  469TMC3    C4 7032   0.010   4.696  11.388  0.5151 -0.4318  0.4196
  469TMC3    C5 7033   0.089   0.059  11.421  0.5128  0.5402 -0.1009
  469TMC3    C6 7034   0.200   0.036  11.496 -0.8236 -0.0865  0.0750
  469TMC3     C 7035   4.658   4.492  11.479 -0.6172 -0.1534  0.2471
  469TMC3     O 7036   4.556   4.554  11.455 -0.3338 -0.0446 -0.0228
  469TMC3     H 7037   0.160   4.456  11.583  0.1151  0.6948  1.2222
  469TMC3    H1 7038   4.666   4.702  11.321  1.2290  0.8396 -0.3648
  469TMC3    H2 7039   0.274   0.114  11.507 -0.9051  0.2116 -1.4550
  469TMC3    C7 7040   0.079   0.176  11.333 -0.0372 -0.0906  0.2103
  469TMC3    C8 7041   0.343   4.628  11.640 -0.5715  0.2722 -0.2633
  469TMC3    O1 7042   4.740   0.166  11.242  0.0634 -0.1029 -0.4410
  469TMC3    O2 7043   0.382   4.515  11.646  0.0260  0.0886  0.0020
  470TMC3    C1 7044   2.252   0.528   0.033  0.0964  0.5746  0.4513
  470TMC3    C2 7045   2.184   0.598   0.133 -0.3114  0.4009 -0.2741
  470TMC3    C3 7046   2.181   0.540   0.254  0.1302  0.6168  0.0190
  470TMC3    C4 7047   2.294   0.399   0.043  0.3387  0.0856  0.2627
  470TMC3    C5 7048   2.292   0.348   0.172  0.7900 -0.5983  0.4422
  470TMC3    C6 7049   2.233   0.418   0.277 -0.2638 -0.1896 -0.7784
  470TMC3     C 7050   2.279   0.601  17.671  0.3345 -0.0747 -0.4917
  470TMC3     O 7051   2.360   0.551  17.592 -0.3583  0.0721 -0.3012
  470TMC3     H 7052   2.154   0.702   0.133  0.4179  0.6066  0.7522
  470TMC3    H1 7053   2.352   0.363  17.720  1.5607  0.2340  1.0575
  470TMC3    H2 7054   2.225   0.374   0.376 -0.5731  2.4953  0.3690
  470TMC3    C7 7055   2.334   0.204   0.174  0.1141  0.0330  0.0781
  470TMC3    C8 7056   2.107   0.604   0.359  0.0497 -0.0935  0.6678
  470TMC3    O1 7057   2.378   0.147   0.075  0.0920 -0.4936 -0.5064
  470TMC3    O2 7058   2.158   0.589   0.467 -0.1746  0.1354 -0.0878
  471MPD2     C 7059   3.360   1.581  16.846  0.9142  0.0022 -0.7697
  471MPD2    C1 7060   3.253   1.507  16.898  0.4673 -1.0695 -0.0470
  471MPD2    C2 7061   3.260   1.458  17.023 -0.2965 -0.2712  0.6441
  471MPD2    C3 7062   3.374   1.475  17.102  0.4056 -0.5270 -0.2629
  471MPD2    C4 7063   3.463   1.571  17.063 -0.6331 -0.4119 -0.2691
  471MPD2    C5 7064   3.452   1.627  16.938  0.4681 -0.6639 -0.1341
  471MPD2     H 7065   3.173   1.414  17.070 -1.9152  1.3132 -0.8609
  471MPD2    H1 7066   3.550   1.582  17.126 -0.6957 -1.2387 -0.0366
  471MPD2    H2 7067   3.368   1.611  16.742  1.4017 -2.3060 -1.3967
  471MPD2    H3 7068   3.525   1.693  16.893 -0.3968  0.3375 -0.0818
  471MPD2     N 7069   3.397   1.416  17.232  0.0037 -0.5213  0.2014
  471MPD2    H5 7070   3.480   1.456  17.276 -0.2600  0.2221  0.0188
  471MPD2    N1 7071   3.153   1.469  16.810 -1.0646 -0.2318  0.6540
  471MPD2    H7 7072   3.167   1.514  16.720  1.1957 -1.5709  0.3442
  472TMC3    C1 7073   2.980   1.362  16.710  0.2423  0.3371 -0.6625
  472TMC3    C2 7074   2.844   1.389  16.716 -0.1804  0.2334 -0.8709
  472TMC3    C3 7075   2.774   1.348  16.613 -0.0590  0.3377  0.7095
  472TMC3    C4 7076   3.031   1.278  16.618  0.3833 -0.5161 -0.3214
  472TMC3    C5 7077   2.946   1.236  16.517 -0.5003  0.6743  0.1700
  472TMC3    C6 7078   2.816   1.275  16.510 -0.3569 -0.5931  0.7533
  472TMC3     C 7079   3.050   1.376  16.831  0.1308  0.4589  0.0808
  472TMC3     O 7080   3.006   1.320  16.931  0.3756  0.2642  0.5336
  472TMC3     H 7081   2.804   1.444  16.801  0.4831  0.4032 -0.6665
  472TMC3    H1 7082   3.137   1.266  16.601  0.8226 -0.1345  2.2038
  472TMC3    H2 7083   2.751   1.279  16.423  0.8028 -2.7996 -0.1979
  472TMC3    C7 7084   2.958   1.102  16.471  0.2300 -0.3482 -0.1096
  472TMC3    C8 7085   2.628   1.346  16.633 -0.3436 -0.4568  0.5071
  472TMC3    O1 7086   3.037   1.038  16.535  0.1040  0.1723  0.3437
  472TMC3    O2 7087   2.571   1.448  16.671 -0.6848  0.7403  0.2365
  473MPD2     C 7088   2.338   3.698  13.900  0.5189  0.4449  0.4299
  473MPD2    C1 7089   2.460   3.751  13.852  0.5867  0.3463 -0.3141
  473MPD2    C2 7090   2.540   3.830  13.929  0.7451  0.3396  0.7859
  473MPD2    C3 7091   2.509   3.861  14.061  0.0338 -0.4079  0.5755
  473MPD2    C4 7092   2.388   3.813  14.112 -0.4949 -0.5947  0.1441
  473MPD2    C5 7093   2.308   3.736  14.033 -0.1950  0.4039  0.0567
  473MPD2     H 7094   2.628   3.874  13.885  0.0598  2.9385  2.0380
  473MPD2    H1 7095   2.352   3.842  14.211  1.3220 -1.9375  1.2012
  473MPD2    H2 7096   2.274   3.623  13.856 -0.5773  2.1650 -0.8903
  473MPD2    H3 7097   2.217   3.692  14.072 -1.2246  1.9170 -0.6802
  473MPD2     N 7098   2.590   3.942  14.141 -0.5361 -0.4985  0.2842
  473MPD2    H5 7099   2.546   3.963  14.230  0.6583 -1.1715  1.0324
  473MPD2    N1 7100   2.504   3.725  13.722  0.4006 -0.0716  0.3022
  473MPD2    H7 7101   2.598   3.756  13.697  0.8841 -2.0995 -0.4566
  474TMC3    C1 7102   2.761   4.073  14.236 -0.2065 -0.0129 -0.3638
  474TMC3    C2 7103   2.679   4.148  14.316 -0.1801 -0.0502  0.1965
  474TMC3    C3 7104   2.745   4.220  14.415 -0.0304 -0.1887  0.2949
  474TMC3    C4 7105   2.898   4.064  14.250 -0.0574 -0.1998 -0.0912
  474TMC3    C5 7106   2.958   4.137  14.354  0.0589 -0.3662  0.0779
  474TMC3    C6 7107   2.878   4.211  14.439  0.0217  0.1809 -0.1562
  474TMC3     C 7108   2.717   3.995  14.115  0.0757 -0.6621  0.1147
  474TMC3     O 7109   2.796   3.970  14.026  0.5218  0.1793  0.1217
  474TMC3     H 7110   2.574   4.158  14.293 -0.6057 -1.8103  1.4125
  474TMC3    H1 7111   2.957   4.003  14.182  1.0834  0.5624  0.2160
  474TMC3    H2 7112   2.918   4.278  14.515 -0.3281 -2.4564  2.3502
  474TMC3    C7 7113   3.096   4.111  14.388  0.2183 -0.4271 -0.0284
  474TMC3    C8 7114   2.671   4.312  14.501  0.6079  0.1769  0.2917
  474TMC3    O1 7115   3.155   4.031  14.320 -0.7087  0.3874  0.0018
  474TMC3    O2 7116   2.552   4.289  14.532 -0.0182  0.3236  0.1467
  475MPD2     C 7117   2.005   2.018  10.481  0.5125  0.0001 -0.5229
  475MPD2    C1 7118   1.940   2.126  10.437  0.8144 -0.5680  0.2046
  475MPD2    C2 7119   1.801   2.130  10.436 -0.9088  0.1848 -0.1898
  475MPD2    C3 7120   1.724   2.022  10.484  0.0064 -0.0390 -0.1531
  475MPD2    C4 7121   1.794   1.908  10.532 -0.5166  0.7640  0.0509
  475MPD2    C5 7122   1.937   1.900  10.518 -0.1937 -0.7125 -0.7057
  475MPD2     H 7123   1.746   2.218  10.405 -0.9138 -0.1417 -1.1167
  475MPD2    H1 7124   1.739   1.822  10.567  3.4611 -0.3631  3.5957
  475MPD2    H2 7125   2.113   2.032  10.477  0.5604 -0.2831 -0.2560
  475MPD2    H3 7126   2.003   1.817  10.540 -0.6024 -1.1743 -1.2324
  475MPD2     N 7127   1.584   2.046  10.504  0.2082 -0.2602  0.3593
  475MPD2    H5 7128   1.547   2.137  10.478  0.2113 -0.5488 -0.6609
  475MPD2    N1 7129   2.014   2.237  10.403  0.4431  0.2929  0.2378
  475MPD2    H7 7130   2.113   2.229  10.424  0.3357 -1.2367  0.1400
  476TMC3    C1 7131   2.068   2.456  10.426 -0.2646  0.1551 -0.5197
  476TMC3    C2 7132   2.021   2.577  10.388  0.8163  0.1093 -0.9492
  476TMC3    C3 7133   2.031   2.682  10.478 -0.1406 -0.1267  0.2910
  476TMC3    C4 7134   2.094   2.432  10.561  0.0453 -1.0760  0.2613
  476TMC3    C5 7135   2.084   2.531  10.650  0.2372  0.0660  0.3624
  476TMC3    C6 7136   2.056   2.660  10.605  0.6320 -0.1524 -0.3717
  476TMC3     C 7137   1.965   2.361  10.377  0.1970 -0.5377  0.3469
  476TMC3     O 7138   1.858   2.405  10.344  0.1433  0.3853 -0.0441
  476TMC3     H 7139   2.021   2.587  10.280  2.1627  0.4779 -0.9099
  476TMC3    H1 7140   2.136   2.340  10.600 -1.0950 -0.6657  2.4795
  476TMC3    H2 7141   2.049   2.741  10.677 -1.0110  0.5688 -1.3541
  476TMC3    C7 7142   1.987   2.497  10.761  0.6580 -0.1237  0.6982
  476TMC3    C8 7143   1.915   2.769  10.471  0.1309 -0.2845 -0.4721
  476TMC3    O1 7144   1.925   2.594  10.809  0.9135  0.4167 -0.0016
  476TMC3    O2 7145   1.926   2.886  10.511  0.5581  0.2593  0.0351
  477MPD2     C 7146   3.341   3.717  12.044 -0.1038 -0.0917 -0.7122
  477MPD2    C1 7147   3.336   3.584  12.004 -0.1315  0.6889 -0.3792
  477MPD2    C2 7148   3.401   3.496  12.092 -0.0680  0.2723  0.9658
  477MPD2    C3 7149   3.447   3.532  12.218 -0.4244 -0.1132  0.0131
  477MPD2    C4 7150   3.442   3.667  12.256 -0.0650 -0.1988 -0.3197
  477MPD2    C5 7151   3.388   3.756  12.170  0.4675 -0.0820 -0.7212
  477MPD2     H 7152   3.407   3.391  12.069  0.7762  0.4808  0.2437
  477MPD2    H1 7153   3.476   3.698  12.354  0.4803 -1.2837 -0.1660
  477MPD2    H2 7154   3.296   3.796  11.986 -3.3612 -0.1723  1.7228
  477MPD2    H3 7155   3.374   3.859  12.203  2.1532  0.1514 -0.7433
  477MPD2     N 7156   3.499   3.431  12.303 -0.0904  0.1989  0.6712
  477MPD2    H5 7157   3.511   3.337  12.268  2.4739  1.4611 -1.8465
  477MPD2    N1 7158   3.276   3.543  11.889 -0.6728  0.2267 -0.3582
  477MPD2    H7 7159   3.223   3.619  11.847 -1.2772  0.4050  0.7255
  478TMC3    C1 7160   3.139   3.419  11.772 -0.6048 -0.1563 -0.4079
  478TMC3    C2 7161   3.041   3.477  11.850 -0.4721 -0.1075  0.3641
  478TMC3    C3 7162   2.918   3.474  11.785  0.8554 -0.1889  0.2975
  478TMC3    C4 7163   3.126   3.377  11.640  0.0709  0.1910 -0.0346
  478TMC3    C5 7164   3.001   3.385  11.582  0.3656  0.3729  0.8478
  478TMC3    C6 7165   2.895   3.431  11.660 -0.3556 -0.0222  0.1390
  478TMC3     C 7166   3.270   3.418  11.833  0.3469  0.0244 -1.1658
  478TMC3     O 7167   3.336   3.318  11.857 -0.0529  0.2865  0.0800
  478TMC3     H 7168   3.049   3.520  11.950  3.1157  1.5694 -0.6598
  478TMC3    H1 7169   3.207   3.353  11.573 -0.8519  0.9107 -1.4223
  478TMC3    H2 7170   2.803   3.465  11.613  0.3740 -0.0218 -1.2945
  478TMC3    C7 7171   2.994   3.375  11.439 -0.7637  0.4275 -0.0022
  478TMC3    C8 7172   2.800   3.505  11.864  0.0278  0.4172  0.3601
  478TMC3    O1 7173   3.098   3.367  11.376  0.1183 -0.0672  0.7581
  478TMC3    O2 7174   2.699   3.439  11.850  0.5995  0.2636  0.8631
  479MPD2     C 7175   2.508   0.913  15.531  0.2819  0.2133 -0.3323
  479MPD2    C1 7176   2.465   0.865  15.650  0.2796 -0.4272  0.3145
  479MPD2    C2 7177   2.495   0.935  15.767  0.2955 -0.2635 -0.5155
  479MPD2    C3 7178   2.546   1.063  15.766  0.1564 -0.1782 -0.6214
  479MPD2    C4 7179   2.585   1.118  15.644  0.6331 -0.0688  0.2882
  479MPD2    C5 7180   2.566   1.041  15.531  0.4234  0.5046  0.3958
  479MPD2     H 7181   2.456   0.887  15.856 -1.2317 -0.1513 -1.1233
  479MPD2    H1 7182   2.650   1.205  15.636  0.0816  0.3512  0.4160
  479MPD2    H2 7183   2.494   0.854  15.441 -3.9641  0.9801 -0.1788
  479MPD2    H3 7184   2.590   1.088  15.436  2.2898 -0.4583  0.4030
  479MPD2     N 7185   2.556   1.135  15.890 -0.7068 -0.4490 -0.3833
  479MPD2    H5 7186   2.621   1.213  15.885 -0.4564 -0.5647  1.0839
  479MPD2    N1 7187   2.400   0.738  15.653 -0.1551 -0.2123 -0.0189
  479MPD2    H7 7188   2.345   0.708  15.573  0.9554  3.1187 -2.0161
  480TMC3    C1 7189   2.218   0.869  16.059 -0.4790  0.0657 -0.2288
  480TMC3    C2 7190   2.147   0.881  15.946  0.3088  0.1233 -0.0483
  480TMC3    C3 7191   2.173   0.986  15.870  0.7084 -0.5471 -0.1384
  480TMC3    C4 7192   2.320   0.956  16.092  0.1781 -0.2716 -0.3574
  480TMC3    C5 7193   2.358   1.052  16.005  0.0137 -0.3528  0.1395
  480TMC3    C6 7194   2.274   1.079  15.900  0.3409  0.3841 -0.1139
  480TMC3     C 7195   2.221   0.746  16.139  0.4155 -0.0316  0.6539
  480TMC3     O 7196   2.324   0.698  16.188  0.1710  0.0058  0.3137
  480TMC3     H 7197   2.077   0.803  15.916  0.0814  0.7768 -1.2173
  480TMC3    H1 7198   2.388   0.923  16.170  0.0847 -2.4248 -1.1912
  480TMC3    H2 7199   2.311   1.153  15.829  0.0678  1.1011  0.4856
  480TMC3    C7 7200   2.487   1.121  16.007  0.4178  0.1133  0.2924
  480TMC3    C8 7201   2.111   0.978  15.735 -0.2167 -0.8536  0.4514
  480TMC3    O1 7202   2.521   1.161  16.118  0.2094 -0.4246 -0.2576
  480TMC3    O2 7203   2.020   0.898  15.719 -0.0118  0.2407  0.1533
  481MPD2     C 7204   4.385   0.601  14.228 -0.0928 -0.5860 -0.4378
  481MPD2    C1 7205   4.262   0.613  14.294 -0.4348 -0.6539 -0.3825
  481MPD2    C2 7206   4.254   0.568  14.428 -1.0347 -0.1968 -0.0954
  481MPD2    C3 7207   4.363   0.515  14.494  0.7612 -0.0494  0.3431
  481MPD2    C4 7208   4.483   0.498  14.431 -0.1378  0.3042 -0.3147
  481MPD2    C5 7209   4.491   0.543  14.301  0.0075 -0.1515  0.0118
  481MPD2     H 7210   4.168   0.593  14.489 -0.7793 -1.2719  0.7094
  481MPD2    H1 7211   4.567   0.455  14.484 -1.9468 -1.4739  1.0926
  481MPD2    H2 7212   4.405   0.628  14.125  0.0876 -1.3596 -0.6017
  481MPD2    H3 7213   4.578   0.536  14.237  0.3808  1.4867  0.3445
  481MPD2     N 7214   4.360   0.485  14.633 -0.1126  0.1388  0.2477
  481MPD2    H5 7215   4.445   0.454  14.677  1.1046  0.5983 -1.7782
  481MPD2    N1 7216   4.158   0.670  14.224  0.3732  0.4079 -0.2618
  481MPD2    H7 7217   4.171   0.723  14.138 -1.7825 -0.5459 -1.1600
  482TMC3    C1 7218   3.928   0.719  14.186  0.1731  0.3107 -0.2828
  482TMC3    C2 7219   3.826   0.637  14.148  0.0506 -0.2786  0.3548
  482TMC3    C3 7220   3.745   0.675  14.044  0.0333  0.0448 -1.0471
  482TMC3    C4 7221   3.962   0.836  14.119  0.4494 -0.2054  0.2357
  482TMC3    C5 7222   3.880   0.858  14.009 -0.4959 -0.8509 -0.4666
  482TMC3    C6 7223   3.763   0.792  13.979  0.2007 -0.1001 -0.3308
  482TMC3     C 7224   4.024   0.657  14.268 -0.2793 -0.1640  0.8344
  482TMC3     O 7225   3.978   0.586  14.357 -0.4541  0.5699 -0.0481
  482TMC3     H 7226   3.832   0.535  14.183  0.5086 -0.6881 -0.9332
  482TMC3    H1 7227   4.045   0.900  14.144 -0.3267  0.5239  0.9650
  482TMC3    H2 7228   3.696   0.814  13.897 -0.4409 -0.0408  0.2082
  482TMC3    C7 7229   3.891   0.989  13.956  0.4354  0.3607 -0.4468
  482TMC3    C8 7230   3.649   0.574  13.998  0.2281 -0.1534 -0.3455
  482TMC3    O1 7231   3.963   1.073  14.017 -0.3120 -0.4590 -0.4237
  482TMC3    O2 7232   3.662   0.466  14.051  0.3068  0.2725 -0.3007
  483TMC3    C1 7233   1.638   3.596   0.813  0.2695 -0.4481  0.7044
  483TMC3    C2 7234   1.763   3.642   0.819  0.1950 -0.2526 -0.1567
  483TMC3    C3 7235   1.814   3.662   0.941  0.1899  0.6381  0.5368
  483TMC3    C4 7236   1.573   3.552   0.929 -0.0164 -0.4854  0.3047
  483TMC3    C5 7237   1.636   3.562   1.046 -0.6297  0.3341 -0.6738
  483TMC3    C6 7238   1.763   3.613   1.062  0.4505  0.1757  0.2444
  483TMC3     C 7239   1.594   3.518   0.693  0.5138 -0.0278  1.0048
  483TMC3     O 7240   1.665   3.521   0.591 -0.5846 -0.4879  0.0454
  483TMC3     H 7241   1.811   3.646   0.723  1.1050 -0.0320  0.3063
  483TMC3    H1 7242   1.466   3.541   0.922 -0.3304  2.0816  1.1047
  483TMC3    H2 7243   1.808   3.639   1.157  2.2008  0.6699 -0.7241
  483TMC3    C7 7244   1.628   3.427   1.107 -0.4658  0.1083  0.4660
  483TMC3    C8 7245   1.930   3.746   0.964 -0.3984  0.1764  0.3746
  483TMC3    O1 7246   1.569   3.359   1.026  0.1744  0.2815 -0.1050
  483TMC3    O2 7247   1.997   3.731   1.067  0.2749 -0.0466  0.6760
  484MPD2     C 7248   4.209   2.295  12.865 -0.2012 -0.2944 -0.0240
  484MPD2    C1 7249   4.280   2.176  12.862 -0.0799 -0.5989  0.2543
  484MPD2    C2 7250   4.408   2.167  12.817 -0.7680 -0.4140  0.4674
  484MPD2    C3 7251   4.473   2.275  12.761 -0.3796  0.1100 -0.3797
  484MPD2    C4 7252   4.399   2.392  12.758 -0.1232  0.0986  0.3919
  484MPD2    C5 7253   4.271   2.400  12.812  0.3142 -0.0007  0.0290
  484MPD2     H 7254   4.448   2.067  12.810 -1.1023 -0.6472  1.9212
  484MPD2    H1 7255   4.451   2.480  12.725  1.4054 -1.4733 -1.3705
  484MPD2    H2 7256   4.102   2.309  12.880 -0.0706 -1.6328  2.2526
  484MPD2    H3 7257   4.219   2.495  12.818  0.8822  0.3615 -0.7433
  484MPD2     N 7258   4.593   2.269  12.693  0.0334 -0.3773 -0.2514
  484MPD2    H5 7259   4.612   2.352  12.637  1.8026 -2.4785 -2.7985
  484MPD2    N1 7260   4.209   2.068  12.927 -0.6613 -0.0123 -0.5802
  484MPD2    H7 7261   4.112   2.088  12.950 -0.6949  0.9496 -1.5827
  485TMC3    C1 7262   0.059   2.179  12.609  0.1663 -0.0978  0.5542
  485TMC3    C2 7263   0.172   2.120  12.651  1.3105 -0.3585  0.2468
  485TMC3    C3 7264   0.289   2.171  12.600 -0.3518  0.6053 -0.2693
  485TMC3    C4 7265   0.050   2.264  12.501 -0.6938 -0.3012 -0.1473
  485TMC3    C5 7266   0.169   2.294  12.437  0.4799 -0.0064  1.1208
  485TMC3    C6 7267   0.291   2.258  12.499 -0.4114 -0.2033 -0.0130
  485TMC3     C 7268   4.685   2.163  12.701  0.2822  0.6016  0.3438
  485TMC3     O 7269   4.681   2.061  12.772 -0.4557  0.3306  0.3219
  485TMC3     H 7270   0.176   2.054  12.737  0.4675 -0.4992  0.1865
  485TMC3    H1 7271   4.692   2.286  12.461  0.5185  2.1050 -1.8006
  485TMC3    H2 7272   0.385   2.277  12.448  1.2529  1.3993  3.6342
  485TMC3    C7 7273   0.178   2.295  12.298  0.2707  0.2407  0.0609
  485TMC3    C8 7274   0.379   2.072  12.564 -0.0034  0.6500 -0.2417
  485TMC3    O1 7275   0.291   2.316  12.248 -0.0773 -0.1761 -0.2056
  485TMC3    O2 7276   0.331   1.958  12.550  0.3356  0.2706  0.4182
  486MPD2     C 7277   1.860   0.958  13.339  0.2172  0.0602  0.2549
  486MPD2    C1 7278   1.784   0.947  13.220  0.4060  0.3912  0.4914
  486MPD2    C2 7279   1.735   1.062  13.158 -0.2285  0.4614 -0.0050
  486MPD2    C3 7280   1.746   1.187  13.217  0.4187 -0.3788 -0.6193
  486MPD2    C4 7281   1.809   1.192  13.341 -0.3026 -0.3190 -0.0232
  486MPD2    C5 7282   1.870   1.083  13.393 -0.8019 -0.6504 -1.1899
  486MPD2     H 7283   1.700   1.065  13.056  0.0728 -2.7056 -0.2031
  486MPD2    H1 7284   1.830   1.282  13.399 -1.8839 -0.8032  1.2916
  486MPD2    H2 7285   1.913   0.874  13.382 -0.1010 -1.1343 -1.6717
  486MPD2    H3 7286   1.916   1.080  13.491 -0.6666  0.7270 -1.2047
  486MPD2     N 7287   1.697   1.305  13.148 -0.0637  0.1396 -0.8703
  486MPD2    H5 7288   1.651   1.293  13.058 -2.5848  2.2052  0.1429
  486MPD2    N1 7289   1.762   0.812  13.180 -0.2270  0.2896 -0.5279
  486MPD2    H7 7290   1.818   0.742  13.228 -1.2406  0.7986  1.4070
  487TMC3    C1 7291   1.669   0.628  13.058 -0.1706  0.3946  0.9792
  487TMC3    C2 7292   1.595   0.583  12.959  0.2756  0.8963  0.4146
  487TMC3    C3 7293   1.527   0.464  12.965 -0.6449 -0.4414  0.0238
  487TMC3    C4 7294   1.678   0.559  13.175  0.1333 -0.4284  0.3496
  487TMC3    C5 7295   1.603   0.444  13.183  0.4523  0.4890  0.2914
  487TMC3    C6 7296   1.522   0.400  13.085 -1.1658 -0.3500 -0.6581
  487TMC3     C 7297   1.678   0.776  13.075  0.5742 -0.5343 -0.7763
  487TMC3     O 7298   1.619   0.846  12.995  0.1289 -0.4463  0.6234
  487TMC3     H 7299   1.595   0.647  12.872 -1.6996 -0.9003 -0.9204
  487TMC3    H1 7300   1.732   0.601  13.260 -0.0758  1.4985 -0.4654
  487TMC3    H2 7301   1.509   0.293  13.073  1.8856 -0.7499 -0.5591
  487TMC3    C7 7302   1.603   0.379  13.312  0.1497  0.0139  0.4000
  487TMC3    C8 7303   1.414   0.459  12.872  0.3438 -0.4175 -0.2683
  487TMC3    O1 7304   1.695   0.412  13.385  0.3301  0.1969 -0.3608
  487TMC3    O2 7305   1.403   0.528  12.772  0.1886  0.2099 -0.3764
  488MPD2     C 7306   2.691   2.780  16.138  0.2948  0.2659  0.3704
  488MPD2    C1 7307   2.686   2.870  16.233  0.1262  0.2122 -0.0104
  488MPD2    C2 7308   2.598   2.854  16.341 -0.2989  0.6282 -0.3593
  488MPD2    C3 7309   2.508   2.750  16.352  0.6026  0.4221  0.6612
  488MPD2    C4 7310   2.521   2.647  16.265 -0.1387 -0.1627  0.0758
  488MPD2    C5 7311   2.607   2.667  16.152  0.4234  0.4251  0.3974
  488MPD2     H 7312   2.591   2.933  16.415 -1.2977  1.3302 -1.2103
  488MPD2    H1 7313   2.456   2.560  16.270  0.2020 -0.4109  0.1700
  488MPD2    H2 7314   2.751   2.786  16.048 -3.0166  2.6331 -1.6876
  488MPD2    H3 7315   2.606   2.584  16.082  0.1981 -0.4832  1.4714
  488MPD2     N 7316   2.424   2.747  16.462  0.0867  0.0219  0.4353
  488MPD2    H5 7317   2.417   2.833  16.514  0.1373  0.8411 -0.9198
  488MPD2    N1 7318   2.768   2.988  16.211 -0.3756  0.6482  0.7059
  488MPD2    H7 7319   2.814   2.991  16.121 -3.4158  0.6190 -0.8405
  489TMC3    C1 7320   2.261   2.703  16.600  0.2762  0.0465  0.3415
  489TMC3    C2 7321   2.323   2.751  16.712  0.0109 -1.1703  0.8694
  489TMC3    C3 7322   2.251   2.805  16.812 -0.4203  0.4034  0.0536
  489TMC3    C4 7323   2.126   2.681  16.597 -0.3394 -0.1508 -1.0398
  489TMC3    C5 7324   2.057   2.728  16.702  0.2634  0.0278  0.0337
  489TMC3    C6 7325   2.119   2.791  16.812  0.2725  0.1390 -0.7976
  489TMC3     C 7326   2.330   2.650  16.486 -0.1074  0.0696  0.3805
  489TMC3     O 7327   2.278   2.562  16.416 -0.0419 -0.9134  0.1636
  489TMC3     H 7328   2.431   2.763  16.714  0.0592 -1.5764  0.6661
  489TMC3    H1 7329   2.085   2.616  16.520  2.4662 -2.4448 -0.6086
  489TMC3    H2 7330   2.050   2.833  16.885 -0.6691 -1.3741 -0.8173
  489TMC3    C7 7331   1.916   2.740  16.699 -0.1711  0.6458 -0.3042
  489TMC3    C8 7332   2.310   2.927  16.862 -0.0768 -0.1425 -0.3048
  489TMC3    O1 7333   1.851   2.757  16.804 -0.7040 -0.3438  0.3031
  489TMC3    O2 7334   2.432   2.931  16.875  0.3491  0.8097  0.0761
  490MPD2     C 7335   3.154   1.843  17.016 -0.3356 -0.3409 -0.4773
  490MPD2    C1 7336   3.116   1.837  17.146  0.1537 -0.3442  0.1161
  490MPD2    C2 7337   3.143   1.937  17.229 -0.9095 -0.4157  0.2398
  490MPD2    C3 7338   3.221   2.043  17.200 -0.6659 -0.2366 -0.2196
  490MPD2    C4 7339   3.263   2.048  17.067  0.4395  0.2436  0.9407
  490MPD2    C5 7340   3.228   1.954  16.976  0.0572  0.3103 -0.2451
  490MPD2     H 7341   3.097   1.934  17.327 -0.2901 -0.0017  0.5447
  490MPD2    H1 7342   3.322   2.132  17.031  0.8692 -0.7037 -0.5801
  490MPD2    H2 7343   3.137   1.762  16.946  1.5447 -0.6063 -0.6411
  490MPD2    H3 7344   3.266   1.953  16.875 -0.5332 -1.4427 -0.4485
  490MPD2     N 7345   3.270   2.132  17.289  0.6161 -0.1895  0.2958
  490MPD2    H5 7346   3.352   2.186  17.263  1.3202 -0.4285  2.0412
  490MPD2    N1 7347   3.024   1.744  17.199 -0.2074 -0.3563 -0.4556
  490MPD2    H7 7348   3.022   1.735  17.300 -1.3285  3.1928 -0.1658
  491TMC3    C1 7349   2.859   1.577  17.187  0.4663  0.3496  0.5947
  491TMC3    C2 7350   2.850   1.597  17.322  0.7666 -0.6619 -0.2482
  491TMC3    C3 7351   2.798   1.494  17.393 -0.1142 -0.8240 -0.1518
  491TMC3    C4 7352   2.828   1.462  17.125  0.1998  0.1629  0.4920
  491TMC3    C5 7353   2.784   1.358  17.208 -0.2835  0.2701 -0.0823
  491TMC3    C6 7354   2.749   1.376  17.339 -0.9301  0.5711 -0.0226
  491TMC3     C 7355   2.951   1.660  17.118 -0.3987  0.2871 -0.9856
  491TMC3     O 7356   2.968   1.644  16.996  0.2719 -0.7971  0.2391
  491TMC3     H 7357   2.872   1.691  17.372 -1.0170  0.1683 -1.0196
  491TMC3    H1 7358   2.826   1.450  17.017 -0.1715 -0.7365  0.5969
  491TMC3    H2 7359   2.703   1.293  17.392  0.9652  0.2376  1.0832
  491TMC3    C7 7360   2.709   1.254  17.141 -0.2548  0.0747  0.9935
  491TMC3    C8 7361   2.746   1.517  17.527  0.5252 -0.1999 -1.0921
  491TMC3    O1 7362   2.609   1.212  17.196  0.5077  0.6207  0.3855
  491TMC3    O2 7363   2.715   1.629  17.558 -0.0778 -0.2661 -0.0862
  492MPD2     C 7364   3.026   2.342  12.033 -0.2621 -0.0729 -0.1834
  492MPD2    C1 7365   2.966   2.275  11.932 -0.2932 -0.3239  0.5336
  492MPD2    C2 7366   2.864   2.191  11.959  0.6716  0.0569 -0.2984
  492MPD2    C3 7367   2.823   2.174  12.084  0.0435  0.1242 -0.5977
  492MPD2    C4 7368   2.870   2.258  12.184  0.4999 -0.6650 -0.1940
  492MPD2    C5 7369   2.971   2.346  12.158  0.2638  0.1359  0.1626
  492MPD2     H 7370   2.819   2.134  11.879 -1.4030 -0.0201  0.9234
  492MPD2    H1 7371   2.823   2.245  12.281  0.2320  0.9604 -0.1116
  492MPD2    H2 7372   3.097   2.421  12.013  0.5807 -1.0655 -1.1266
  492MPD2    H3 7373   3.018   2.408  12.233 -2.3825  3.6147 -1.0982
  492MPD2     N 7374   2.720   2.079  12.126 -0.2461  0.3093  0.1682
  492MPD2    H5 7375   2.684   2.095  12.219  2.7012  0.5989  1.2604
  492MPD2    N1 7376   3.021   2.301  11.801 -0.6871 -0.4659 -0.1499
  492MPD2    H7 7377   3.097   2.368  11.801 -0.7288 -0.4172  0.9643
  493TMC3    C1 7378   3.057   2.301  11.568  0.0886  0.3431 -0.6092
  493TMC3    C2 7379   3.079   2.433  11.549  0.1926  0.4881  0.0783
  493TMC3    C3 7380   3.110   2.486  11.425 -0.6064 -0.0268 -0.1014
  493TMC3    C4 7381   3.071   2.210  11.465 -0.1634  0.7899  0.1221
  493TMC3    C5 7382   3.104   2.265  11.344  0.3883  0.3760  0.4439
  493TMC3    C6 7383   3.125   2.398  11.322  0.5758  0.1060  0.0660
  493TMC3     C 7384   2.976   2.255  11.679 -0.1052  0.0140 -0.7654
  493TMC3     O 7385   2.885   2.180  11.661 -0.0684  0.1803 -0.0328
  493TMC3     H 7386   3.068   2.504  11.631 -0.3550  0.6561 -0.1395
  493TMC3    H1 7387   3.041   2.108  11.484  0.7909  0.4592 -0.1308
  493TMC3    H2 7388   3.143   2.434  11.221 -2.5012 -1.0262 -0.8885
  493TMC3    C7 7389   3.112   2.167  11.239 -0.2023 -0.1692 -0.1592
  493TMC3    C8 7390   3.108   2.630  11.406  0.1490 -0.0115  0.3209
  493TMC3    O1 7391   3.096   2.200  11.122 -0.0213 -0.4735  0.1619
  493TMC3    O2 7392   3.057   2.696  11.497 -0.6703 -0.0264  0.3026
  494TMC3    C1 7393   3.630   3.857   0.342 -0.3945 -0.4797  0.7104
  494TMC3    C2 7394   3.532   3.757   0.337  0.4531 -0.2601 -0.4484
  494TMC3    C3 7395   3.457   3.750   0.218 -0.2571  0.5597 -0.3626
  494TMC3    C4 7396   3.662   3.935   0.238  0.0880  0.0995 -0.3375
  494TMC3    C5 7397   3.584   3.927   0.129  0.2514 -0.9092  0.0567
  494TMC3    C6 7398   3.478   3.836   0.116 -0.1245 -0.0655 -0.3044
  494TMC3     C 7399   3.631   3.927   0.472 -0.9245 -0.2733 -0.7106
  494TMC3     O 7400   3.721   4.007   0.489  0.4067 -0.4385  0.0636
  494TMC3     H 7401   3.518   3.687   0.419  1.2722  0.6205  0.4487
  494TMC3    H1 7402   3.739   4.012   0.242  0.4811 -0.2233 -1.5553
  494TMC3    H2 7403   3.448   3.830   0.012  1.1895  1.7144 -0.7797
  494TMC3    C7 7404   3.617   4.003   0.007 -0.5551 -0.1956  0.6706
  494TMC3    C8 7405   3.352   3.648   0.197 -0.1287  0.3478  0.2007
  494TMC3    O1 7406   3.644   3.936  17.669 -0.5275  0.3657  0.1029
  494TMC3    O2 7407   3.257   3.671   0.123  0.2565  0.4781  0.0575
  495TMC3    C1 7408   2.613   1.185  15.016 -0.7593 -0.3774  0.4345
  495TMC3    C2 7409   2.546   1.226  14.910 -0.2753  0.0248 -0.1492
  495TMC3    C3 7410   2.452   1.321  14.939  0.3000  0.0204  0.6084
  495TMC3    C4 7411   2.590   1.231  15.142 -0.0123 -0.5550 -0.1534
  495TMC3    C5 7412   2.503   1.334  15.158 -0.0654  1.1754  0.5248
  495TMC3    C6 7413   2.429   1.378  15.055 -0.4232  1.1627  0.3317
  495TMC3     C 7414   2.631   1.039  15.018 -0.0436 -0.1210 -0.6625
  495TMC3     O 7415   2.583   0.977  15.114 -0.4014 -0.7095 -0.4734
  495TMC3     H 7416   2.564   1.179  14.814 -0.2747  0.2617 -0.2666
  495TMC3    H1 7417   2.646   1.177  15.217 -1.6653 -0.5781  1.0558
  495TMC3    H2 7418   2.342   1.441  15.071 -0.3807  0.8709  1.7432
  495TMC3    C7 7419   2.420   1.316  15.269 -0.4520  0.0876  0.4618
  495TMC3    C8 7420   2.330   1.293  14.866 -0.4108 -0.8891 -0.0226
  495TMC3    O1 7421   2.474   1.331  15.378  0.1795  0.3834  0.4959
  495TMC3    O2 7422   2.221   1.299  14.922 -0.5372  0.1623 -0.3081
  496MPD2     C 7423   4.390   1.460  15.562  0.5529 -0.5127  0.4566
  496MPD2    C1 7424   4.468   1.387  15.653  0.0368 -0.1043  0.0072
  496MPD2    C2 7425   4.442   1.412  15.787  0.8133  0.3906  0.2079
  496MPD2    C3 7426   4.336   1.498  15.830  0.6626  0.1632 -0.2181
  496MPD2    C4 7427   4.267   1.575  15.735  0.3198 -0.1852  0.2958
  496MPD2    C5 7428   4.294   1.549  15.605  0.4751 -0.8747 -0.6310
  496MPD2     H 7429   4.505   1.362  15.859  2.5480  1.5790 -0.4865
  496MPD2    H1 7430   4.188   1.646  15.758  0.0783  0.3172 -2.0753
  496MPD2    H2 7431   4.399   1.445  15.455 -0.5867 -0.1859  0.3120
  496MPD2    H3 7432   4.246   1.600  15.522  0.3205  1.5603  0.9748
  496MPD2     N 7433   4.293   1.508  15.968  0.3072 -0.8277 -0.1236
  496MPD2    H5 7434   4.237   1.590  15.990  0.7190 -0.4225 -0.5827
  496MPD2    N1 7435   4.564   1.303  15.596 -0.4523  0.1801 -0.8327
  496MPD2    H7 7436   4.563   1.285  15.496 -0.3972  1.5603 -1.0752
  497TMC3    C1 7437   4.346   1.268  16.037 -0.1717  0.6391 -0.0351
  497TMC3    C2 7438   4.255   1.212  15.949 -0.1261 -0.5467 -0.1160
  497TMC3    C3 7439   4.241   1.076  15.945  0.3237  0.1911  0.4548
  497TMC3    C4 7440   4.403   1.190  16.139 -0.0494 -0.4357 -0.6587
  497TMC3    C5 7441   4.373   1.050  16.137  0.2256 -0.2883 -0.0747
  497TMC3    C6 7442   4.293   0.993  16.040 -0.0582  0.2935 -0.2864
  497TMC3     C 7443   4.333   1.416  16.068  0.5650 -0.0003 -0.3426
  497TMC3     O 7444   4.313   1.422  16.187 -0.4467 -0.1819 -0.4190
  497TMC3     H 7445   4.206   1.283  15.883  0.7543 -0.3933 -0.6111
  497TMC3    H1 7446   4.452   1.225  16.229  2.1346  1.2719 -2.5392
  497TMC3    H2 7447   4.277   0.886  16.043  0.3440  0.1951 -1.6595
  497TMC3    C7 7448   4.409   0.968  16.255 -0.3182  0.0729  0.0142
  497TMC3    C8 7449   4.146   1.025  15.840  0.2191 -0.4382  0.5001
  497TMC3    O1 7450   4.344   0.866  16.279  0.2038  0.5086 -0.5323
  497TMC3    O2 7451   4.082   0.922  15.860 -0.1807 -0.8315  0.4152
  498MPD2     C 7452   0.310   2.439   9.928  0.3712  0.3354 -0.4324
  498MPD2    C1 7453   0.337   2.430  10.065  0.4141 -0.4433  0.0737
  498MPD2    C2 7454   0.363   2.301  10.120 -0.5772 -0.1164 -0.2519
  498MPD2    C3 7455   0.355   2.189  10.037  0.1616 -0.4227 -1.2483
  498MPD2    C4 7456   0.327   2.204   9.903 -0.4243  0.5689  0.2059
  498MPD2    C5 7457   0.300   2.328   9.851 -0.1124  0.5179 -0.1782
  498MPD2     H 7458   0.390   2.287  10.224  0.0727  0.6337 -0.3139
  498MPD2    H1 7459   0.304   2.121   9.838  0.1731  1.2249 -0.8459
  498MPD2    H2 7460   0.300   2.541   9.893 -0.2577  1.5165  3.1850
  498MPD2    H3 7461   0.271   2.341   9.748  1.8549 -0.6761 -0.8886
  498MPD2     N 7462   0.357   2.066  10.106 -0.3303 -0.1935  0.4461
  498MPD2    H5 7463   0.359   2.059  10.208 -1.4501  0.7150  0.5375
  498MPD2    N1 7464   0.344   2.536  10.150 -0.3512 -0.8523  0.1935
  498MPD2    H7 7465   0.396   2.536  10.238 -1.2300  0.9305  0.6987
  499TMC3    C1 7466   0.351   2.753  10.225 -0.1539 -0.6684 -0.2398
  499TMC3    C2 7467   0.483   2.763  10.195 -0.9317 -0.4322  0.3752
  499TMC3    C3 7468   0.538   2.886  10.207 -0.1080 -0.4259 -0.2297
  499TMC3    C4 7469   0.275   2.859  10.270  0.1245  0.0805  0.1587
  499TMC3    C5 7470   0.329   2.982  10.283 -0.5375 -0.1958 -0.3865
  499TMC3    C6 7471   0.465   2.996  10.247  0.2668 -0.0615  0.5460
  499TMC3     C 7472   0.291   2.664  10.131  0.1426 -0.0531 -0.3206
  499TMC3     O 7473   0.197   2.705  10.062  0.3473  0.2720  0.0984
  499TMC3     H 7474   0.537   2.684  10.145  0.9870  1.0177  0.1436
  499TMC3    H1 7475   0.167   2.846  10.269  0.0994  0.2997 -0.1402
  499TMC3    H2 7476   0.518   3.088  10.270 -0.4602  0.7058 -0.8733
  499TMC3    C7 7477   0.254   3.106  10.308 -0.3158  0.8933  0.1708
  499TMC3    C8 7478   0.676   2.902  10.177 -0.4718  0.3692  0.0113
  499TMC3    O1 7479   0.319   3.207  10.276  0.3649 -0.6395 -0.0859
  499TMC3    O2 7480   0.763   2.826  10.214  0.2249  1.1167  0.1580
  500MPD2     C 7481   1.772   3.504  10.833 -0.5082 -0.2105 -0.2328
  500MPD2    C1 7482   1.732   3.489  10.699  0.4159  0.5784 -0.2980
  500MPD2    C2 7483   1.605   3.529  10.663  0.1043 -0.5500 -0.2411
  500MPD2    C3 7484   1.518   3.567  10.766  0.1529 -1.3218 -0.3483
  500MPD2    C4 7485   1.560   3.591  10.894 -0.3701  0.0844  0.3271
  500MPD2    C5 7486   1.689   3.550  10.927  0.0059 -0.7724  0.0472
  500MPD2     H 7487   1.583   3.519  10.557  0.1748  2.1116 -0.5087
  500MPD2    H1 7488   1.502   3.641  10.971 -1.7206  0.3253 -0.8534
  500MPD2    H2 7489   1.873   3.480  10.863  1.1254  4.1139 -2.2474
  500MPD2    H3 7490   1.724   3.557  11.029 -1.0080  0.4133  0.3183
  500MPD2     N 7491   1.377   3.589  10.740 -0.0930 -0.4887  0.6542
  500MPD2    H5 7492   1.322   3.598  10.825  1.4338 -1.9480  1.7996
  500MPD2    N1 7493   1.823   3.450  10.595  0.0312 -0.0727  0.5386
  500MPD2    H7 7494   1.784   3.441  10.502  2.6567 -1.3964 -0.4324
  501TMC3    C1 7495   2.000   3.328  10.486  0.2354  0.0482 -0.0466
  501TMC3    C2 7496   2.050   3.420  10.397 -1.0153 -0.6800 -0.8309
  501TMC3    C3 7497   2.178   3.418  10.348 -0.4419  0.3594 -0.3799
  501TMC3    C4 7498   2.074   3.217  10.517 -0.6455  0.1099 -0.6851
  501TMC3    C5 7499   2.203   3.214  10.470 -0.2167  0.3072  0.6695
  501TMC3    C6 7500   2.253   3.315  10.389 -0.2290 -0.2981  0.4942
  501TMC3     C 7501   1.948   3.384  10.608  0.1948 -0.4529 -0.6016
  501TMC3     O 7502   2.007   3.345  10.704 -0.0640  0.1300  0.0276
  501TMC3     H 7503   1.998   3.513  10.414 -1.1600 -1.2055  1.6186
  501TMC3    H1 7504   2.031   3.135  10.572 -0.2903  0.0388 -0.5131
  501TMC3    H2 7505   2.358   3.315  10.360 -0.8812 -2.4851 -1.9193
  501TMC3    C7 7506   2.303   3.178  10.571  0.0371  0.6175 -0.4335
  501TMC3    C8 7507   2.244   3.545  10.350 -0.0527  0.0847 -0.3942
  501TMC3    O1 7508   2.421   3.173  10.532 -0.1981  0.4151  0.0935
  501TMC3    O2 7509   2.355   3.546  10.405  0.5370  0.1789  0.0758
  502TMC3    C1 7510   2.226   2.019  15.469 -0.5529  0.4012 -0.5663
  502TMC3    C2 7511   2.189   2.143  15.429 -1.0820  0.5481  0.8248
  502TMC3    C3 7512   2.085   2.158  15.347  0.1331  0.0605 -0.1202
  502TMC3    C4 7513   2.147   1.914  15.432 -0.2226  0.7019  0.0721
  502TMC3    C5 7514   2.033   1.935  15.356  0.5329  0.2399 -0.1319
  502TMC3    C6 7515   2.003   2.057  15.311 -0.3746 -0.3628 -0.3504
  502TMC3     C 7516   2.322   2.009  15.577 -0.6508  0.1603  0.4024
  502TMC3     O 7517   2.415   2.086  15.587  0.4473 -0.0416  0.4231
  502TMC3     H 7518   2.241   2.230  15.469  0.0760  0.1471  0.1875
  502TMC3    H1 7519   2.172   1.815  15.469 -0.8474  0.5393  0.0601
  502TMC3    H2 7520   1.922   2.069  15.240  1.2738  4.3116 -1.4542
  502TMC3    C7 7521   1.919   1.854  15.408  0.0139 -0.3573  0.0451
  502TMC3    C8 7522   2.034   2.298  15.349  0.3781  0.4435  0.0538
  502TMC3    O1 7523   1.942   1.743  15.457 -0.6945 -0.4315  0.4345
  502TMC3    O2 7524   1.984   2.341  15.245 -0.3564  0.3848  0.2127
  503MPD2     C 7525   3.912   2.663  16.722  0.0747  0.6558  0.2582
  503MPD2    C1 7526   3.890   2.660  16.859  0.1043  0.8756 -0.3748
  503MPD2    C2 7527   3.881   2.535  16.918 -0.0872  0.0455 -0.1879
  503MPD2    C3 7528   3.926   2.418  16.858 -0.6660  0.1815  0.3218
  503MPD2    C4 7529   3.966   2.431  16.726  0.0948 -0.1529  0.1368
  503MPD2    C5 7530   3.945   2.549  16.659  0.4373  0.6226 -0.0883
  503MPD2     H 7531   3.868   2.529  17.026 -0.3849 -0.9957 -0.2772
  503MPD2    H1 7532   4.003   2.349  16.666 -0.9043  0.3802 -1.1939
  503MPD2    H2 7533   3.922   2.752  16.661 -1.1963 -0.0326 -0.9777
  503MPD2    H3 7534   3.980   2.567  16.558 -0.4986 -1.1729 -0.7406
  503MPD2     N 7535   3.946   2.301  16.944 -0.3708 -0.2506  0.2835
  503MPD2    H5 7536   3.931   2.314  17.043  0.4321  0.6593  0.2784
  503MPD2    N1 7537   3.848   2.774  16.933  0.5711 -0.1270  0.1036
  503MPD2    H7 7538   3.806   2.747  17.022 -0.8052 -1.6479 -1.0025
  504TMC3    C1 7539   4.051   2.111  17.013  0.2651 -0.6402 -0.2258
  504TMC3    C2 7540   3.980   2.101  17.130 -0.0434  0.4253 -0.0769
  504TMC3    C3 7541   4.041   2.037  17.237 -0.1979  0.7056 -0.6609
  504TMC3    C4 7542   4.172   2.056  16.997 -0.6015  0.1200  0.2979
  504TMC3    C5 7543   4.231   1.990  17.104  0.2646 -0.1360  0.2256
  504TMC3    C6 7544   4.165   1.978  17.220  0.2392 -0.2712  0.0321
  504TMC3     C 7545   3.999   2.183  16.904  0.8532 -0.0577  0.3884
  504TMC3     O 7546   4.034   2.151  16.794 -0.0990  0.0929  0.0784
  504TMC3     H 7547   3.875   2.125  17.128  0.1577  1.2480 -1.2594
  504TMC3    H1 7548   4.236   2.087  16.915 -0.9001  1.2560  0.4980
  504TMC3    H2 7549   4.197   1.923  17.307 -0.3767  0.5534  0.7789
  504TMC3    C7 7550   4.369   1.945  17.084  0.4489  0.3283  0.1403
  504TMC3    C8 7551   3.948   1.991  17.349  0.8172 -0.0710 -0.4815
  504TMC3    O1 7552   4.407   1.957  16.970  0.5923 -0.3300 -0.1083
  504TMC3    O2 7553   3.831   2.025  17.331 -0.5650  0.1252 -0.2695
  505MPD2     C 7554   4.272   1.225  10.250 -0.7534  0.3017  0.3089
  505MPD2    C1 7555   4.301   1.166  10.370 -0.1227 -0.8671  0.5988
  505MPD2    C2 7556   4.280   1.239  10.487 -0.2678 -0.2829  0.0919
  505MPD2    C3 7557   4.240   1.367  10.480  0.1525  0.3866  0.0223
  505MPD2    C4 7558   4.205   1.422  10.354  0.1415  0.2763 -0.0153
  505MPD2    C5 7559   4.210   1.351  10.244 -0.5991 -0.0484  0.3635
  505MPD2     H 7560   4.314   1.197  10.580  0.9855  0.4183 -0.0470
  505MPD2    H1 7561   4.152   1.515  10.342 -0.9617 -0.2149  1.0326
  505MPD2    H2 7562   4.278   1.178  10.152  1.1148 -0.5750  0.8543
  505MPD2    H3 7563   4.197   1.409  10.153 -2.1112 -0.0852  0.5469
  505MPD2     N 7564   4.224   1.447  10.591 -0.6564 -0.5376 -0.0082
  505MPD2    H5 7565   4.196   1.544  10.578 -0.2537 -0.7093 -2.0550
  505MPD2    N1 7566   4.367   1.041  10.369  0.5503  0.0727  0.3969
  505MPD2    H7 7567   4.386   1.002  10.277 -2.7940  0.1829 -0.3614
  506TMC3    C1 7568   4.488   0.850  10.455 -0.2269  0.7834 -0.1144
  506TMC3    C2 7569   4.613   0.898  10.414 -0.5293 -0.8172 -0.6272
  506TMC3    C3 7570   4.725   0.838  10.462 -0.4991 -0.1712 -0.9327
  506TMC3    C4 7571   4.488   0.764  10.562  0.1194  0.0364  0.3300
  506TMC3    C5 7572   4.600   0.710  10.620  0.5481 -0.0860 -0.2709
  506TMC3    C6 7573   4.721   0.745  10.565 -0.4596  0.6674  0.2326
  506TMC3     C 7574   4.387   0.959  10.477  0.2770  0.1847  0.1560
  506TMC3     O 7575   4.341   0.972  10.593 -0.3320 -0.1701  0.1817
  506TMC3     H 7576   4.611   0.977  10.340 -0.9734 -0.0410  0.2012
  506TMC3    H1 7577   4.394   0.743  10.612  0.5015 -1.4396  0.4255
  506TMC3    H2 7578   0.066   0.690  10.602 -2.0961 -2.6301 -0.8411
  506TMC3    C7 7579   4.603   0.749  10.764 -0.2847 -0.4811 -0.3711
  506TMC3    C8 7580   0.114   0.869  10.402  0.3508  0.1377  0.0968
  506TMC3    O1 7581   4.692   0.701  10.833  0.5225 -0.6473 -0.1579
  506TMC3    O2 7582   0.207   0.794  10.417 -0.3805  0.0647  0.5067
  507TMC3    C1 7583   0.788   2.174  14.912  0.5795 -0.1501 -0.3022
  507TMC3    C2 7584   0.800   2.093  14.800 -0.2232  0.0031  0.8199
  507TMC3    C3 7585   0.828   2.154  14.685  0.1234  0.1150  0.6912
  507TMC3    C4 7586   0.823   2.305  14.915 -0.1759  0.0415  0.8650
  507TMC3    C5 7587   0.881   2.363  14.802  0.1496  0.5948 -0.0226
  507TMC3    C6 7588   0.871   2.284  14.685  0.3850  0.3223  0.3339
  507TMC3     C 7589   0.675   2.149  14.997 -0.4730  0.2028 -0.2671
  507TMC3     O 7590   0.657   2.237  15.081 -0.4095 -0.2404  0.0445
  507TMC3     H 7591   0.770   1.989  14.796 -1.0123  0.3061 -1.1548
  507TMC3    H1 7592   0.840   2.359  15.008 -0.7982  0.9887  0.4302
  507TMC3    H2 7593   0.923   2.321  14.598 -2.6133  1.4577 -0.9750
  507TMC3    C7 7594   0.832   2.496  14.778 -0.8381  0.0359  0.3482
  507TMC3    C8 7595   0.713   2.141  14.600 -0.2720  0.2710 -0.0102
  507TMC3    O1 7596   0.769   2.498  14.671 -0.7529  0.4721 -0.1622
  507TMC3    O2 7597   0.657   2.035  14.591  0.3023  0.3219 -0.6205
  508MPD2     C 7598   1.569   4.200  15.938  0.0702  0.5526 -0.3709
  508MPD2    C1 7599   1.556   4.318  15.998  0.2971  0.0528  0.6215
  508MPD2    C2 7600   1.588   4.425  15.918 -0.1145  1.2464 -0.2166
  508MPD2    C3 7601   1.615   4.416  15.782 -1.0964  0.1717 -0.0947
  508MPD2    C4 7602   1.619   4.294  15.730  0.2672  0.4256 -0.0803
  508MPD2    C5 7603   1.601   4.185  15.805 -0.1969 -0.2068 -0.2081
  508MPD2     H 7604   1.570   4.522  15.963  0.7880 -0.0519  2.9662
  508MPD2    H1 7605   1.657   4.279  15.630  2.2658  1.5707  0.5172
  508MPD2    H2 7606   1.532   4.117  15.997 -3.0250  1.1239 -1.5459
  508MPD2    H3 7607   1.627   4.087  15.765  0.6728 -1.1226  2.5525
  508MPD2     N 7608   1.637   4.529  15.703  0.6038 -0.2437  0.0989
  508MPD2    H5 7609   1.640   4.620  15.748 -2.9759 -0.1076  0.1047
  508MPD2    N1 7610   1.524   4.336  16.142  0.1373 -0.0065 -0.6399
  508MPD2    H7 7611   1.537   4.428  16.184  0.1176 -0.3559  0.1309
  509TMC3    C1 7612   1.665   0.130  15.420  0.1656 -0.1680 -0.8472
  509TMC3    C2 7613   1.719   0.199  15.524 -0.1371 -0.0606 -0.8474
  509TMC3    C3 7614   1.760   0.127  15.632 -0.9652  0.2967 -0.0475
  509TMC3    C4 7615   1.667   4.731  15.419 -0.2381 -0.3991  0.5414
  509TMC3    C5 7616   1.723   4.662  15.526  0.0010 -0.3295  0.2283
  509TMC3    C6 7617   1.778   4.731  15.627  0.1426 -0.0046  0.5824
  509TMC3     C 7618   1.541   0.183  15.370  0.1989 -0.1581 -0.4102
  509TMC3     O 7619   1.475   0.094  15.317 -0.5794 -0.6412  0.3624
  509TMC3     H 7620   1.716   0.308  15.523 -2.7111 -0.1373 -1.0513
  509TMC3    H1 7621   1.617   4.674  15.342  0.4152 -0.3080  0.0435
  509TMC3    H2 7622   1.817   4.689  15.719 -0.3847 -0.4214  0.6161
  509TMC3    C7 7623   1.657   4.531  15.566  0.1041 -0.0128 -0.1792
  509TMC3    C8 7624   1.701   0.171  15.761  0.6817  0.5546  0.9828
  509TMC3    O1 7625   1.620   4.453  15.475  0.0857 -0.7348  0.4510
  509TMC3    O2 7626   1.645   0.080  15.819 -0.2099  0.0575  0.4990
  510MPD2     C 7627   4.111   1.745  14.706 -0.4591 -0.6312  0.3064
  510MPD2    C1 7628   4.124   1.612  14.753  0.4319  0.2567 -0.2977
  510MPD2    C2 7629   4.242   1.541  14.737  0.2757 -0.1964  0.3339
  510MPD2    C3 7630   4.347   1.595  14.666  0.5727  0.1484 -0.1236
  510MPD2    C4 7631   4.326   1.723  14.612  0.0924 -0.4004 -0.3333
  510MPD2    C5 7632   4.212   1.799  14.631  0.1580  0.5475 -0.1129
  510MPD2     H 7633   4.262   1.447  14.788  3.2601 -0.0640 -0.6194
  510MPD2    H1 7634   4.401   1.770  14.549 -0.7484 -0.2410 -1.2013
  510MPD2    H2 7635   4.018   1.797  14.726 -0.1786 -0.5150  1.3406
  510MPD2    H3 7636   4.201   1.900  14.592 -4.1245  0.8915  2.0646
  510MPD2     N 7637   4.469   1.526  14.654 -0.1509 -0.1522 -0.3116
  510MPD2    H5 7638   4.491   1.440  14.704  0.8860  0.1377 -0.2690
  510MPD2    N1 7639   4.011   1.552  14.813  0.2505  0.1015  0.1308
  510MPD2    H7 7640   3.931   1.614  14.816  1.6582  1.8213  1.6221
  511TMC3    C1 7641   3.869   1.381  14.890  0.1482  0.4230 -0.3757
  511TMC3    C2 7642   3.810   1.432  15.000 -0.3956 -0.6695 -0.2737
  511TMC3    C3 7643   3.699   1.369  15.040 -0.2216  0.1881  0.0122
  511TMC3    C4 7644   3.827   1.269  14.825  0.8361 -0.1662  0.2797
  511TMC3    C5 7645   3.723   1.202  14.881  0.9057 -0.0639  1.0395
  511TMC3    C6 7646   3.659   1.252  14.991 -0.4126 -0.7777  0.1338
  511TMC3     C 7647   4.001   1.421  14.854 -0.5658 -0.4199  0.7429
  511TMC3     O 7648   4.084   1.335  14.854 -0.6600  0.0393 -0.3492
  511TMC3     H 7649   3.863   1.504  15.061 -0.1792 -1.2101  0.1814
  511TMC3    H1 7650   3.872   1.232  14.734 -0.2246 -0.9195  0.0723
  511TMC3    H2 7651   3.564   1.215  15.029 -1.6710  0.7278 -1.5331
  511TMC3    C7 7652   3.663   1.085  14.811  0.2413 -0.8416  0.2083
  511TMC3    C8 7653   3.629   1.434  15.148 -0.3858 -0.2770  0.5831
  511TMC3    O1 7654   3.695   1.068  14.693 -0.4003 -0.2946  0.0717
  511TMC3    O2 7655   3.623   1.554  15.151  0.0761 -0.1607  0.6928
  512TMC3    C1 7656   2.160   0.983  13.137 -0.1815 -0.0895 -0.0389
  512TMC3    C2 7657   2.277   1.010  13.209  0.5750 -0.0831 -0.1925
  512TMC3    C3 7658   2.335   0.923  13.301 -0.0020  0.2803 -0.0750
  512TMC3    C4 7659   2.110   0.858  13.143 -0.0459 -0.0795 -0.0846
  512TMC3    C5 7660   2.164   0.773  13.235 -0.5733  0.1960 -0.7508
  512TMC3    C6 7661   2.267   0.803  13.319  0.0313  0.0407 -0.7050
  512TMC3     C 7662   2.111   1.095  13.048 -0.4178  0.5052 -0.0356
  512TMC3     O 7663   2.175   1.203  13.056 -0.0306  0.3120  0.1466
  512TMC3     H 7664   2.316   1.110  13.195  0.7804 -0.1477 -0.0803
  512TMC3    H1 7665   2.030   0.827  13.077 -0.8192  0.0393  0.7954
  512TMC3    H2 7666   2.287   0.744  13.409  2.4452  1.5447 -0.2561
  512TMC3    C7 7667   2.096   0.649  13.255 -0.6391  0.3085  0.0008
  512TMC3    C8 7668   2.459   0.953  13.364  0.1689  0.7104  0.7176
  512TMC3    O1 7669   1.972   0.641  13.235  0.0913 -0.1168 -0.3457
  512TMC3    O2 7670   2.480   1.074  13.388  0.3954  0.1505  0.4158
  513MPD2     C 7671   0.190   1.128  13.003 -0.1075  0.0715  0.0637
  513MPD2    C1 7672   0.098   1.046  12.953  0.6138 -0.7094 -0.1055
  513MPD2    C2 7673   0.123   0.987  12.828  0.1592 -0.2035 -0.9799
  513MPD2    C3 7674   0.235   1.006  12.763 -0.1840  0.3290 -0.6809
  513MPD2    C4 7675   0.332   1.082  12.821  0.2560 -0.0259 -0.1758
  513MPD2    C5 7676   0.315   1.141  12.937  0.0913 -1.0600  0.5393
  513MPD2     H 7677   0.048   0.926  12.778 -0.0418 -1.6273  1.0565
  513MPD2    H1 7678   0.427   1.111  12.775  0.7061 -0.6763  0.3491
  513MPD2    H2 7679   0.170   1.178  13.097 -3.6617 -2.0561  0.4651
  513MPD2    H3 7680   0.397   1.194  12.984  1.1281 -0.4230 -1.9609
  513MPD2     N 7681   0.243   0.954  12.629 -0.4060 -0.0132 -0.1225
  513MPD2    H5 7682   0.163   0.903  12.595  0.6951 -2.3246  0.7663
  513MPD2    N1 7683   4.712   1.014  13.021 -0.3088 -0.0400  0.5356
  513MPD2    H7 7684   4.654   0.940  12.982  1.1093  0.3299 -2.3152
  514TMC3    C1 7685   4.518   1.022  13.135  0.0557  0.0222 -0.8900
  514TMC3    C2 7686   4.419   1.094  13.085  0.2427  0.1651  0.0603
  514TMC3    C3 7687   4.328   1.024  13.015 -0.5842  0.4786 -0.6409
  514TMC3    C4 7688   4.532   0.883  13.123  0.1034  0.1274 -0.1613
  514TMC3    C5 7689   4.434   0.814  13.055  0.7328  0.6121  0.3927
  514TMC3    C6 7690   4.328   0.889  13.006 -0.3399 -0.0628  0.1566
  514TMC3     C 7691   4.655   1.083  13.118 -0.4225 -0.1452  0.4400
  514TMC3     O 7692   4.686   1.190  13.169 -0.0888 -0.0529 -0.0298
  514TMC3     H 7693   4.431   1.201  13.075 -0.8664  0.0760 -2.0949
  514TMC3    H1 7694   4.627   0.839  13.151 -0.1485 -1.9226 -2.4847
  514TMC3    H2 7695   4.258   0.844  12.936 -1.0225  1.3651 -0.0897
  514TMC3    C7 7696   4.488   0.727  12.954  0.8863 -0.8537 -0.4676
  514TMC3    C8 7697   4.229   1.090  12.935 -0.3811  0.1590  0.8811
  514TMC3    O1 7698   4.607   0.752  12.943 -0.2662 -0.4350 -0.5594
  514TMC3    O2 7699   4.125   1.029  12.916  0.0968 -0.2282 -0.4526
  515MPD2     C 7700   2.972   2.422  14.979  0.1652 -0.7421  0.2237
  515MPD2    C1 7701   3.040   2.434  14.856  0.6588 -0.1044 -0.7889
  515MPD2    C2 7702   3.091   2.562  14.826  0.3271  0.9230  0.4902
  515MPD2    C3 7703   3.073   2.673  14.917  0.5170  0.2152  0.4620
  515MPD2    C4 7704   3.005   2.652  15.033  0.5172 -0.3121  0.0608
  515MPD2    C5 7705   2.957   2.527  15.067  0.5394 -0.0527  0.2311
  515MPD2     H 7706   3.152   2.563  14.736 -0.6501 -0.8569 -0.1897
  515MPD2    H1 7707   2.988   2.727  15.110 -0.9710 -1.2939  0.6910
  515MPD2    H2 7708   2.915   2.332  15.002 -0.3961 -0.3354  0.4474
  515MPD2    H3 7709   2.906   2.521  15.162  1.6404 -1.5518  0.7239
  515MPD2     N 7710   3.121   2.799  14.889 -0.1946  0.3068 -0.4512
  515MPD2    H5 7711   3.115   2.874  14.957 -0.5855  0.1753 -0.3449
  515MPD2    N1 7712   3.036   2.334  14.757 -0.2905  0.1387  0.1033
  515MPD2    H7 7713   3.067   2.366  14.666 -1.0297  1.2642  0.2393
  516TMC3    C1 7714   2.907   2.153  14.662  0.1698  0.3229 -0.3939
  516TMC3    C2 7715   2.844   2.232  14.575  0.3704 -0.8493 -0.1582
  516TMC3    C3 7716   2.714   2.207  14.536  0.3593 -0.7470 -0.4165
  516TMC3    C4 7717   2.864   2.023  14.682  0.6360  0.1017  0.2958
  516TMC3    C5 7718   2.743   1.995  14.639 -0.5977 -0.5408 -0.1892
  516TMC3    C6 7719   2.661   2.085  14.572  0.0198 -0.3095  0.5607
  516TMC3     C 7720   2.978   2.206  14.776  0.1566  0.3106 -0.1124
  516TMC3     O 7721   2.965   2.148  14.884 -0.5096  0.0634 -0.6340
  516TMC3     H 7722   2.873   2.335  14.557  2.0935 -1.0229  1.6655
  516TMC3    H1 7723   2.920   1.958  14.748 -1.1121 -0.6127  1.0423
  516TMC3    H2 7724   2.556   2.063  14.562 -0.0112 -0.3762  1.0388
  516TMC3    C7 7725   2.687   1.885  14.721  0.1386 -0.2469 -0.0750
  516TMC3    C8 7726   2.628   2.308  14.482 -0.5876  0.2237  0.0547
  516TMC3    O1 7727   2.767   1.832  14.796  0.1231  0.2362  0.1257
  516TMC3    O2 7728   2.512   2.301  14.519  0.5738 -0.0170 -0.2946
  517MPD2     C 7729   2.108   3.402   0.047 -1.2528  0.2234  0.1207
  517MPD2    C1 7730   2.221   3.440  17.734 -0.0486  0.1194 -0.5574
  517MPD2    C2 7731   2.301   3.547   0.023  0.3510 -0.1435 -0.3020
  517MPD2    C3 7732   2.255   3.621   0.126  0.6403 -0.0931  0.6788
  517MPD2    C4 7733   2.141   3.588   0.196 -0.4437 -0.3955  0.1219
  517MPD2    C5 7734   2.076   3.467   0.162  0.0796 -0.2287  0.2906
  517MPD2     H 7735   2.379   3.576  17.714 -1.0904 -0.2183 -1.9851
  517MPD2    H1 7736   2.102   3.659   0.269 -1.2908 -1.3625  0.6100
  517MPD2    H2 7737   2.053   3.311   0.023  1.0957 -0.7094 -1.6637
  517MPD2    H3 7738   1.987   3.443   0.219  1.5246 -0.2400  2.5124
  517MPD2     N 7739   2.319   3.737   0.176  0.2231 -0.7609 -0.0574
  517MPD2    H5 7740   2.277   3.792   0.251  1.9903  3.4087 -2.1068
  517MPD2    N1 7741   2.260   3.378  17.611 -0.4958  0.0688  0.3775
  517MPD2    H7 7742   2.346   3.410  17.566  0.3942 -1.9691  0.6355
  518TMC3    C1 7743   2.258   3.241  17.420 -0.0579 -0.1754  0.8699
  518TMC3    C2 7744   2.247   3.113  17.369  0.1675 -0.4151 -0.0863
  518TMC3    C3 7745   2.332   3.073  17.271 -0.9508  0.1820  0.2469
  518TMC3    C4 7746   2.346   3.333  17.361 -0.6254 -0.1620 -0.4036
  518TMC3    C5 7747   2.438   3.281  17.270  0.0785  0.6191  0.0094
  518TMC3    C6 7748   2.434   3.151  17.227  0.4982 -0.0530 -0.1851
  518TMC3     C 7749   2.196   3.283  17.539  0.0765  0.6987 -0.3083
  518TMC3     O 7750   2.089   3.224  17.561  0.6312 -0.3083 -0.0680
  518TMC3     H 7751   2.168   3.046  17.401 -0.9535  0.7062 -0.5289
  518TMC3    H1 7752   2.364   3.435  17.394 -0.0990 -0.0588 -1.0003
  518TMC3    H2 7753   2.509   3.115  17.158 -0.5504 -0.2322 -1.2418
  518TMC3    C7 7754   2.558   3.366  17.230  0.3288  0.8102  0.3319
  518TMC3    C8 7755   2.337   2.931  17.231  0.7010  0.3409  0.6438
  518TMC3    O1 7756   2.555   3.486  17.265 -0.4603  0.3143  0.5460
  518TMC3    O2 7757   2.447   2.887  17.195  0.2956 -0.0075  0.3634
  519MPD2     C 7758   4.127   2.615  14.452 -0.2691 -0.5389 -0.2468
  519MPD2    C1 7759   4.046   2.513  14.397  0.0264 -0.1720 -0.4885
  519MPD2    C2 7760   4.096   2.383  14.396 -0.3693  0.2281 -0.1778
  519MPD2    C3 7761   4.219   2.354  14.453  0.4721  0.4621  0.6040
  519MPD2    C4 7762   4.301   2.451  14.506 -0.2183 -0.5574 -0.2523
  519MPD2    C5 7763   4.248   2.582  14.512 -0.4701 -0.6352 -0.4388
  519MPD2     H 7764   4.044   2.308  14.337  3.6852 -1.4379 -1.6291
  519MPD2    H1 7765   4.394   2.422  14.554 -1.3288 -3.7590 -0.0361
  519MPD2    H2 7766   4.097   2.719  14.450  2.5864  0.2856 -0.9585
  519MPD2    H3 7767   4.303   2.659  14.565  1.8575 -2.6894  0.1579
  519MPD2     N 7768   4.258   2.216  14.446  0.2062  0.1523  0.2162
  519MPD2    H5 7769   4.189   2.153  14.406  0.7815 -0.1731 -0.2511
  519MPD2    N1 7770   3.931   2.557  14.321  0.3138  0.6043 -0.4249
  519MPD2    H7 7771   3.919   2.658  14.321 -1.4763  0.3834  1.4264
  520TMC3    C1 7772   4.409   2.034  14.401  0.1762 -0.1765  0.2701
  520TMC3    C2 7773   4.333   1.997  14.293 -0.7107 -0.2690 -0.0493
  520TMC3    C3 7774   4.389   1.913  14.200  1.2008 -1.1518 -0.4587
  520TMC3    C4 7775   4.541   2.000  14.415  0.8837 -0.3792 -0.0223
  520TMC3    C5 7776   4.598   1.923  14.318  0.3447  0.1511 -0.1795
  520TMC3    C6 7777   4.524   1.876  14.214  0.0997  0.3043  0.2017
  520TMC3     C 7778   4.383   2.163  14.468 -0.2844  0.6381 -1.1759
  520TMC3     O 7779   4.485   2.220  14.512 -0.3798 -0.6292  0.6702
  520TMC3     H 7780   4.230   2.031  14.282  0.6388  3.4216 -1.1548
  520TMC3    H1 7781   4.608   2.035  14.492  0.8247  0.1668 -0.2219
  520TMC3    H2 7782   4.563   1.806  14.142 -1.3422  1.1405 -1.3917
  520TMC3    C7 7783   4.728   1.870  14.341 -0.5561 -0.1096 -0.4163
  520TMC3    C8 7784   4.303   1.811  14.143  0.2659 -0.1899 -0.2046
  520TMC3    O1 7785   0.032   1.862  14.455  0.4265  0.4641 -0.5530
  520TMC3    O2 7786   4.344   1.700  14.180  0.0065  0.3172  0.2279
  521MPD2     C 7787   0.303   0.515  17.311 -0.1871  0.0513 -0.5813
  521MPD2    C1 7788   0.271   0.428  17.207 -0.3739 -0.0019 -0.2681
  521MPD2    C2 7789   0.363   0.399  17.107  0.0911  0.5251  0.3828
  521MPD2    C3 7790   0.492   0.442  17.130  1.2295 -0.2071 -0.0885
  521MPD2    C4 7791   0.529   0.521  17.242 -0.8947  0.0403  0.0263
  521MPD2    C5 7792   0.430   0.559  17.327 -0.0695 -0.5757 -0.3052
  521MPD2     H 7793   0.345   0.338  17.019 -0.4259  2.2944 -0.7290
  521MPD2    H1 7794   0.630   0.557  17.259 -0.2416 -1.1533 -1.3076
  521MPD2    H2 7795   0.234   0.536  17.392 -0.1260  2.1782 -1.0863
  521MPD2    H3 7796   0.451   0.616  17.417 -0.6268 -0.7484 -0.0643
  521MPD2     N 7797   0.583   0.407  17.026 -0.2846  0.6199  0.0323
  521MPD2    H5 7798   0.545   0.360  16.944  0.5258 -0.0793  0.0611
  521MPD2    N1 7799   0.139   0.387  17.202 -0.1025 -0.5629 -0.6047
  521MPD2    H7 7800   0.080   0.404  17.282 -0.6127  0.4728 -1.2023
  522TMC3    C1 7801   0.795   0.390  16.908 -0.1584 -0.9040  0.2641
  522TMC3    C2 7802   0.922   0.341  16.923 -0.0411  0.1688  0.8414
  522TMC3    C3 7803   1.005   0.334  16.815 -0.8567  0.1840  0.0175
  522TMC3    C4 7804   0.750   0.429  16.780 -0.0010 -0.2254 -0.1486
  522TMC3    C5 7805   0.836   0.430  16.675  0.0436  0.2585  0.2402
  522TMC3    C6 7806   0.968   0.383  16.692 -0.3130 -0.4299  0.2073
  522TMC3     C 7807   0.721   0.423  17.029  0.0390 -0.2905 -0.3810
  522TMC3     O 7808   0.789   0.438  17.128 -0.2352  0.4416  0.1769
  522TMC3     H 7809   0.943   0.296  17.019 -0.8984 -0.7668  0.5918
  522TMC3    H1 7810   0.649   0.464  16.761  0.1653  0.4785  0.2157
  522TMC3    H2 7811   1.048   0.392  16.619 -0.3488 -2.2344 -0.0573
  522TMC3    C7 7812   0.809   0.503  16.551 -0.4002  0.0309 -0.2346
  522TMC3    C8 7813   1.142   0.327  16.841 -0.1128 -1.0838 -0.4670
  522TMC3    O1 7814   0.897   0.506  16.471  0.0054 -0.1286  0.1533
  522TMC3    O2 7815   1.184   0.407  16.929  0.1550 -0.1717 -0.2133
  523MPD2     C 7816   1.984   4.655  10.021  0.8540 -0.2770  0.4451
  523MPD2    C1 7817   2.051   4.719  10.115 -0.6480  0.6387 -0.2731
  523MPD2    C2 7818   2.021   0.113  10.138  0.2219 -0.1591  0.3402
  523MPD2    C3 7819   1.921   0.173  10.063 -0.0132 -0.0776  0.1311
  523MPD2    C4 7820   1.860   0.104   9.966 -0.1504  0.3796 -0.2167
  523MPD2    C5 7821   1.887   4.711   9.947 -0.3605 -0.1319  0.4000
  523MPD2     H 7822   2.051   0.163  10.230 -4.0809 -0.5127  1.9370
  523MPD2    H1 7823   1.784   0.142   9.899  1.2506  0.5566 -1.7016
  523MPD2    H2 7824   2.020   4.556   9.998 -1.3901 -1.1747  0.8644
  523MPD2    H3 7825   1.848   4.658   9.861 -0.7890 -0.3864  0.7485
  523MPD2     N 7826   1.871   0.311  10.079  0.0844  0.0807 -0.4318
  523MPD2    H5 7827   1.803   0.338  10.008 -1.1129 -0.7450  0.3999
  523MPD2    N1 7828   2.149   4.641  10.179 -0.1386 -0.6576  0.0313
  523MPD2    H7 7829   2.156   4.544  10.151 -0.1363 -1.5296  3.0298
  524TMC3    C1 7830   1.849   0.526  10.148 -0.4378  0.2357  0.1437
  524TMC3    C2 7831   1.765   0.562  10.037  0.0859 -0.1935 -0.5944
  524TMC3    C3 7832   1.705   0.687  10.032  0.4036 -0.0061 -0.3744
  524TMC3    C4 7833   1.874   0.627  10.236 -0.2592  0.0630 -0.2260
  524TMC3    C5 7834   1.825   0.755  10.217  0.2341  0.0489  0.6595
  524TMC3    C6 7835   1.732   0.781  10.125 -0.0099 -0.0521  0.1214
  524TMC3     C 7836   1.907   0.404  10.171  0.2480  0.2271 -0.3289
  524TMC3     O 7837   1.983   0.398  10.266  0.5921  0.2903 -0.1684
  524TMC3     H 7838   1.715   0.491   9.973  0.9291 -1.6737  0.3915
  524TMC3    H1 7839   1.945   0.611  10.316 -0.7974  2.3497  0.7143
  524TMC3    H2 7840   1.684   0.878  10.118  4.0735  2.0482  1.2338
  524TMC3    C7 7841   1.846   0.856  10.318 -0.7678 -0.9548  0.4952
  524TMC3    C8 7842   1.595   0.697   9.943  0.2705  0.2800 -0.7903
  524TMC3    O1 7843   1.888   0.812  10.426  0.4427  0.0753 -0.2611
  524TMC3    O2 7844   1.544   0.594   9.893 -0.5889 -0.2534  0.2063
  525MPD2     C 7845   1.001   1.822  14.657  0.1263  0.3594  0.1563
  525MPD2    C1 7846   1.098   1.883  14.738 -0.9673 -0.7680  0.2656
  525MPD2    C2 7847   1.163   1.994  14.693 -0.8071 -0.4969 -0.6616
  525MPD2    C3 7848   1.138   2.054  14.572  0.5177 -0.1489  0.7767
  525MPD2    C4 7849   1.036   2.002  14.494  0.3972 -0.4929  0.5108
  525MPD2    C5 7850   0.973   1.884  14.527 -0.1249 -0.8119  0.8678
  525MPD2     H 7851   1.244   2.039  14.750  0.2507 -2.3173 -0.7441
  525MPD2    H1 7852   0.998   2.043  14.400  1.2513 -2.5844 -0.7443
  525MPD2    H2 7853   0.933   1.745  14.693 -1.9851  2.2554  0.2605
  525MPD2    H3 7854   0.898   1.841  14.461 -0.7880  2.1410 -0.2785
  525MPD2     N 7855   1.198   2.173  14.528 -0.3467 -0.2204  0.1940
  525MPD2    H5 7856   1.150   2.227  14.457 -0.3376 -0.3603  0.0798
  525MPD2    N1 7857   1.135   1.844  14.871 -0.0444 -0.0654 -0.6025
  525MPD2    H7 7858   1.204   1.906  14.914 -0.9207 -0.3136  1.1765
  526TMC3    C1 7859   1.135   1.704  15.059 -0.5555 -0.2730  0.2795
  526TMC3    C2 7860   1.067   1.662  15.173  0.5363 -0.0443 -0.0249
  526TMC3    C3 7861   1.145   1.605  15.271  0.4773 -0.2974  0.4595
  526TMC3    C4 7862   1.268   1.684  15.042  0.4959  0.3883  0.7515
  526TMC3    C5 7863   1.339   1.630  15.149 -0.1662  0.2337  0.0855
  526TMC3    C6 7864   1.277   1.589  15.267  0.6853 -0.3788 -0.2418
  526TMC3     C 7865   1.059   1.758  14.948 -0.2301 -0.0398  0.2959
  526TMC3     O 7866   0.943   1.723  14.926 -0.6481  0.6807 -0.1639
  526TMC3     H 7867   0.961   1.680  15.189  0.0971 -2.8017  0.2598
  526TMC3    H1 7868   1.321   1.689  14.948 -2.1494  1.7175 -0.6736
  526TMC3    H2 7869   1.334   1.568  15.357  0.9891 -0.6069 -0.4866
  526TMC3    C7 7870   1.484   1.636  15.141  0.1749  0.1104  0.0814
  526TMC3    C8 7871   1.099   1.622  15.407 -0.5976  0.1785  0.1704
  526TMC3    O1 7872   1.538   1.705  15.057 -0.3650 -0.4400 -0.3153
  526TMC3    O2 7873   1.187   1.637  15.490  0.5210  0.0710 -0.6162
  527MPD2     C 7874   3.354   4.288   1.332 -0.4398  0.7608  0.2865
  527MPD2    C1 7875   3.334   4.276   1.196 -0.0954 -0.2019  0.0826
  527MPD2    C2 7876   3.433   4.314   1.108 -0.2292  0.1135  0.0525
  527MPD2    C3 7877   3.555   4.355   1.157 -0.7928 -0.2449 -0.2505
  527MPD2    C4 7878   3.580   4.362   1.293 -0.7215  0.1608  0.4332
  527MPD2    C5 7879   3.477   4.324   1.375 -0.4853 -0.2497  0.4748
  527MPD2     H 7880   3.412   4.306   1.002 -1.4927  2.4154  0.1147
  527MPD2    H1 7881   3.680   4.378   1.334  0.1929 -0.2563 -1.6451
  527MPD2    H2 7882   3.280   4.258   1.406 -0.2639  1.7014  0.8461
  527MPD2    H3 7883   3.498   4.311   1.480 -2.3696 -0.8570  0.7889
  527MPD2     N 7884   3.662   4.395   1.062 -0.1483  0.1287  0.5918
  527MPD2    H5 7885   3.649   4.382   0.963  0.1589 -0.7976  0.6792
  527MPD2    N1 7886   3.211   4.239   1.144 -0.2469 -0.0331  0.0359
  527MPD2    H7 7887   3.204   4.251   1.043  0.8719 -1.6708 -0.2343
  528TMC3    C1 7888   2.992   4.153   1.126 -0.5767 -0.0838 -0.7180
  528TMC3    C2 7889   3.027   4.123   0.998 -0.1738  0.0995  0.3850
  528TMC3    C3 7890   2.925   4.090   0.913 -0.9088 -0.3386 -0.6711
  528TMC3    C4 7891   2.861   4.168   1.173 -0.0754  0.3659  0.0045
  528TMC3    C5 7892   2.772   4.148   1.078 -0.4802 -0.9443  0.2067
  528TMC3    C6 7893   2.799   4.112   0.946  0.2626 -0.3548  0.0932
  528TMC3     C 7894   3.097   4.200   1.216 -0.3258 -0.0140 -0.4807
  528TMC3     O 7895   3.076   4.217   1.338  0.3116  0.6466  0.2753
  528TMC3     H 7896   3.127   4.100   0.962 -0.4764 -0.5602 -0.0248
  528TMC3    H1 7897   2.840   4.198   1.275  1.4414  0.3627  0.3312
  528TMC3    H2 7898   2.721   4.119   0.870 -0.3082  0.6761  0.7761
  528TMC3    C7 7899   2.636   4.156   1.104  0.0970 -0.7488  0.5824
  528TMC3    C8 7900   2.966   4.062   0.776 -0.0263 -0.5862 -0.4555
  528TMC3    O1 7901   2.563   4.090   1.025  0.1156 -0.4029 -0.1759
  528TMC3    O2 7902   3.074   4.100   0.737  0.2169 -0.0187  0.4008
  529MPD2     C 7903   1.144   2.831   1.313 -0.2572  0.9389 -0.1558
  529MPD2    C1 7904   1.080   2.742   1.225  0.8713  0.4404 -0.5326
  529MPD2    C2 7905   1.003   2.801   1.123 -0.0863  0.8471  0.3407
  529MPD2    C3 7906   1.008   2.936   1.093  0.3158  1.1336 -0.3888
  529MPD2    C4 7907   1.080   3.018   1.177 -0.4496  0.7226 -0.0583
  529MPD2    C5 7908   1.137   2.964   1.291 -0.0894  0.5154  0.4492
  529MPD2     H 7909   0.947   2.727   1.067 -0.4336  1.6340 -0.3484
  529MPD2    H1 7910   1.088   3.125   1.160  3.5590  0.8874  2.8046
  529MPD2    H2 7911   1.182   2.792   1.407  0.6637  0.5734 -0.6813
  529MPD2    H3 7912   1.187   3.031   1.361  1.6549  1.7537 -1.9327
  529MPD2     N 7913   0.965   2.999   0.975 -0.1227 -0.4204  0.4514
  529MPD2    H5 7914   0.976   3.099   0.974 -0.7470 -0.3855 -1.4837
  529MPD2    N1 7915   1.079   2.601   1.241  0.1692  0.1364 -0.2275
  529MPD2    H7 7916   1.002   2.546   1.205 -0.0042  0.6628 -0.6440
  530TMC3    C1 7917   1.150   2.408   1.348 -0.5372 -0.0914 -0.0214
  530TMC3    C2 7918   1.257   2.322   1.373 -0.7382  0.0206 -0.6192
  530TMC3    C3 7919   1.224   2.190   1.391 -0.2776 -0.5396 -0.2550
  530TMC3    C4 7920   1.020   2.370   1.360  0.2150  0.6378  0.3881
  530TMC3    C5 7921   0.995   2.237   1.376 -0.1238 -0.0579  0.2665
  530TMC3    C6 7922   1.094   2.144   1.388  0.2987 -0.2160  0.0161
  530TMC3     C 7923   1.178   2.540   1.312  0.2443 -0.0614 -0.3603
  530TMC3     O 7924   1.289   2.584   1.337 -0.1544  0.0765  0.5479
  530TMC3     H 7925   1.358   2.352   1.349 -0.5764  0.3659  0.4792
  530TMC3    H1 7926   0.943   2.447   1.354 -1.5882 -1.1423  0.6255
  530TMC3    H2 7927   1.072   2.037   1.384  2.0618 -0.6425  1.4847
  530TMC3    C7 7928   0.874   2.190   1.422 -1.3947  0.1057  0.8597
  530TMC3    C8 7929   1.329   2.093   1.388  0.0545  0.0581  0.1741
  530TMC3    O1 7930   0.877   2.089   1.492 -0.6378 -0.3553 -0.8381
  530TMC3    O2 7931   1.293   1.973   1.367 -0.1314  0.1612 -0.0368
  531MPD2     C 7932   4.494   0.488  12.506 -0.0318  0.2928  0.2444
  531MPD2    C1 7933   4.569   0.593  12.546 -0.0867 -0.0155 -0.3284
  531MPD2    C2 7934   4.546   0.647  12.675  0.4034  0.6136  0.7840
  531MPD2    C3 7935   4.431   0.611  12.742 -0.1483 -0.1038 -0.4658
  531MPD2    C4 7936   4.343   0.511  12.695 -0.4659  0.4934  0.4912
  531MPD2    C5 7937   4.385   0.449  12.577  0.0870  0.5050 -0.0615
  531MPD2     H 7938   4.614   0.723  12.711  0.7651  0.7196 -0.1224
  531MPD2    H1 7939   4.258   0.467  12.746 -0.2636 -0.1881  0.2498
  531MPD2    H2 7940   4.517   0.432  12.415 -2.0180 -0.9873  0.5456
  531MPD2    H3 7941   4.339   0.358  12.541  1.1261 -0.7074  1.6664
  531MPD2     N 7942   4.402   0.660  12.875 -0.2346  0.3792 -0.0896
  531MPD2    H5 7943   4.307   0.639  12.905  0.4314 -0.6881  1.2539
  531MPD2    N1 7944   4.677   0.634  12.461 -0.3025  0.7573  0.9016
  531MPD2    H7 7945   4.696   0.573  12.382  1.4206  1.8447  0.4744
  532TMC3    C1 7946   0.122   0.762  12.380 -0.1782 -0.2160 -0.3194
  532TMC3    C2 7947   0.182   0.885  12.393  0.2894  0.0570  0.1368
  532TMC3    C3 7948   0.317   0.896  12.413 -1.2506  0.3498 -0.2284
  532TMC3    C4 7949   0.204   0.649  12.369 -0.4766  0.5844  0.1414
  532TMC3    C5 7950   0.334   0.672  12.359  0.3209 -0.0801  0.0784
  532TMC3    C6 7951   0.395   0.792  12.390 -0.5414  0.0644  0.2253
  532TMC3     C 7952   0.006   0.756  12.469 -0.2787 -0.3762 -0.2469
  532TMC3     O 7953   4.739   0.849  12.549  0.0892 -0.0821  0.3229
  532TMC3     H 7954   0.127   0.978  12.400 -0.8205 -0.5249 -0.9533
  532TMC3    H1 7955   0.159   0.555  12.342 -1.2495  0.3627  2.1955
  532TMC3    H2 7956   0.502   0.805  12.404 -0.4396  0.4674 -0.9738
  532TMC3    C7 7957   0.412   0.560  12.392 -0.2706  0.2705  0.2429
  532TMC3    C8 7958   0.353   0.958  12.547 -0.5279  0.1903  0.3500
  532TMC3    O1 7959   0.535   0.570  12.383  0.5010  0.5519  0.2475
  532TMC3    O2 7960   0.468   0.986  12.572 -0.0775  0.2181  0.3905
  533TMC3    C1 7961   1.342   2.361  14.531  0.3192 -0.4068  0.0037
  533TMC3    C2 7962   1.465   2.412  14.564 -0.0682 -0.3200  0.3686
  533TMC3    C3 7963   1.478   2.543  14.586  0.6249  0.2030  0.2764
  533TMC3    C4 7964   1.232   2.441  14.542 -0.6087 -0.3673 -0.8135
  533TMC3    C5 7965   1.241   2.565  14.602  0.2688  0.6589 -0.0964
  533TMC3    C6 7966   1.365   2.616  14.615  0.0377  1.0572 -0.1362
  533TMC3     C 7967   1.322   2.221  14.575  0.3094  0.3722 -0.5880
  533TMC3     O 7968   1.408   2.166  14.644  0.4471  0.3838  0.2270
  533TMC3     H 7969   1.546   2.341  14.558  0.6259  0.4271  0.7705
  533TMC3    H1 7970   1.133   2.399  14.532 -0.2236 -0.9740 -1.9522
  533TMC3    H2 7971   1.376   2.719  14.648 -3.8269  2.5388 -3.4406
  533TMC3    C7 7972   1.188   2.553  14.735 -0.3685 -0.3440  0.0129
  533TMC3    C8 7973   1.597   2.592  14.654  0.8406  0.2222  0.3329
  533TMC3    O1 7974   1.153   2.440  14.761 -0.5291  0.3509 -0.0118
  533TMC3    O2 7975   1.579   2.682  14.729 -0.4350  0.3759 -0.2309
  534MPD2     C 7976   3.548   2.964   0.999 -0.1753  0.1947  0.0119
  534MPD2    C1 7977   3.614   3.086   0.997  0.1232  0.1874  0.0358
  534MPD2    C2 7978   3.535   3.200   0.966  1.2222 -0.3397  0.1853
  534MPD2    C3 7979   3.403   3.189   0.930  0.3407  0.7853  0.2355
  534MPD2    C4 7980   3.336   3.069   0.939  0.6976  0.1100  0.4806
  534MPD2    C5 7981   3.409   2.959   0.975  0.0510  0.2089 -0.2586
  534MPD2     H 7982   3.576   3.300   0.973  0.9247 -0.3278  1.8426
  534MPD2    H1 7983   3.228   3.069   0.932  0.6139  1.1601  1.9235
  534MPD2    H2 7984   3.588   2.868   1.029 -0.4078 -0.4999 -1.9236
  534MPD2    H3 7985   3.354   2.866   0.985 -1.1931  0.9911  0.1039
  534MPD2     N 7986   3.323   3.306   0.900 -0.5508 -0.3230  0.2155
  534MPD2    H5 7987   3.226   3.289   0.878  0.0073 -0.0466 -2.5052
  534MPD2    N1 7988   3.750   3.095   1.024 -0.8660 -0.2084 -1.4135
  534MPD2    H7 7989   3.790   3.188   1.029 -0.6512 -0.2975 -1.4614
  535TMC3    C1 7990   3.238   3.504   0.863 -0.0846 -1.2621 -0.0443
  535TMC3    C2 7991   3.131   3.471   0.945  0.7184 -0.3233 -0.2218
  535TMC3    C3 7992   3.010   3.451   0.888  0.4014  0.0224  0.0016
  535TMC3    C4 7993   3.217   3.532   0.730  0.3163  0.2600  0.0398
  535TMC3    C5 7994   3.085   3.546   0.687 -1.0548 -0.1659  0.2243
  535TMC3    C6 7995   2.981   3.491   0.766  0.3614  0.6776 -0.2426
  535TMC3     C 7996   3.359   3.435   0.889 -0.0120  0.9116 -0.5376
  535TMC3     O 7997   3.468   3.495   0.884  0.4355  0.1889  0.2353
  535TMC3     H 7998   3.147   3.444   1.049 -0.4428 -0.0500  0.0299
  535TMC3    H1 7999   3.306   3.556   0.673  0.0504  1.1008 -0.0236
  535TMC3    H2 8000   2.877   3.471   0.741  0.9046 -0.8261 -1.3189
  535TMC3    C7 8001   3.068   3.597   0.544 -0.2093  0.6545  0.0749
  535TMC3    C8 8002   2.896   3.408   0.972  0.0173  0.8724 -0.5195
  535TMC3    O1 8003   3.160   3.607   0.463  0.3188 -0.0172  0.2120
  535TMC3    O2 8004   2.801   3.339   0.934  0.7687  0.7654  0.1109
  536MPD2     C 8005   1.581   1.173  16.769 -0.4077  0.6060 -0.1644
  536MPD2    C1 8006   1.709   1.139  16.725 -0.1496  0.8145  0.3187
  536MPD2    C2 8007   1.775   1.234  16.645 -0.1604  0.0460 -0.5887
  536MPD2    C3 8008   1.711   1.351  16.607  0.1213  0.3378 -0.7868
  536MPD2    C4 8009   1.581   1.375  16.651  0.1661 -0.0552 -0.6366
  536MPD2    C5 8010   1.517   1.287  16.731 -0.4464  0.0622  0.5635
  536MPD2     H 8011   1.878   1.221  16.615  0.1184  3.0808 -1.0069
  536MPD2    H1 8012   1.532   1.470  16.629 -0.4178 -0.6467 -1.8545
  536MPD2    H2 8013   1.525   1.111  16.838  2.3901 -0.9516  0.6718
  536MPD2    H3 8014   1.414   1.309  16.756 -0.1545  2.2619 -0.1359
  536MPD2     N 8015   1.773   1.450  16.535  0.0616  0.6574  0.2003
  536MPD2    H5 8016   1.724   1.539  16.527  1.9534  1.7993  1.3146
  536MPD2    N1 8017   1.772   1.019  16.775 -0.2705  0.3209 -0.0751
  536MPD2    H7 8018   1.724   0.978  16.855  0.3959 -0.6124 -0.1537
  537TMC3    C1 8019   1.978   0.910  16.822  0.3174 -0.3218 -0.0263
  537TMC3    C2 8020   2.111   0.935  16.810  0.0109 -0.0882  0.2386
  537TMC3    C3 8021   2.192   0.894  16.912 -0.5461 -0.3474  0.6671
  537TMC3    C4 8022   1.920   0.857  16.934 -0.4746 -0.0157 -0.1307
  537TMC3    C5 8023   2.006   0.809  17.029  0.0500  0.0365 -0.5527
  537TMC3    C6 8024   2.140   0.834  17.026  0.0427 -0.3934 -0.0638
  537TMC3     C 8025   1.890   0.967  16.726  0.1144  0.1084  0.0796
  537TMC3     O 8026   1.940   0.990  16.615  0.4683 -0.4531 -0.0884
  537TMC3     H 8027   2.156   0.967  16.716 -0.5927 -1.2618 -0.4545
  537TMC3    H1 8028   1.814   0.847  16.952 -0.5353  0.1653 -0.3873
  537TMC3    H2 8029   2.213   0.805  17.101  0.4009 -1.7015 -0.9236
  537TMC3    C7 8030   1.950   0.739  17.138  0.4952 -0.2682 -0.3076
  537TMC3    C8 8031   2.317   0.962  16.928 -0.1098 -0.3466 -0.0525
  537TMC3    O1 8032   1.833   0.755  17.172 -0.5898  0.5678 -0.2798
  537TMC3    O2 8033   2.323   1.030  17.029 -0.5657  0.3820 -0.0234
  538TMC3    C1 8034   2.973   4.500  11.318 -0.0419 -0.1516  0.0010
  538TMC3    C2 8035   3.099   4.541  11.349 -0.5706 -0.0360  0.2145
  538TMC3    C3 8036   3.168   4.636  11.280 -1.4195  0.2142 -0.5297
  538TMC3    C4 8037   2.910   4.562  11.209 -0.2410  0.1175 -0.3390
  538TMC3    C5 8038   2.978   4.659  11.138  0.2325  0.0081  0.4049
  538TMC3    C6 8039   3.105   4.700  11.174 -0.0436 -0.6411 -0.1462
  538TMC3     C 8040   2.902   4.418  11.410 -0.1166 -0.4393  0.0842
  538TMC3     O 8041   2.798   4.358  11.374 -0.1477 -0.4100  0.4768
  538TMC3     H 8042   3.147   4.484  11.428  0.2191  0.9564  0.4500
  538TMC3    H1 8043   2.811   4.536  11.172  0.6040 -2.2716 -0.9094
  538TMC3    H2 8044   3.155   0.042  11.125 -1.4494 -0.6585 -1.6398
  538TMC3    C7 8045   2.906   4.733  11.028 -0.4599  0.3194 -0.2851
  538TMC3    C8 8046   3.282   4.698  11.348 -0.6321  0.0255 -0.4243
  538TMC3    O1 8047   2.817   4.665  10.982 -0.1118  0.5048 -0.7721
  538TMC3    O2 8048   3.305   4.673  11.464 -0.3696 -0.1165 -0.5134
  539MPD2     C 8049   2.627   3.621  12.069  0.5252  0.1495 -0.2097
  539MPD2    C1 8050   2.709   3.698  11.983 -0.4516 -0.0656  0.2125
  539MPD2    C2 8051   2.712   3.837  11.983 -0.5863 -0.0765  0.1763
  539MPD2    C3 8052   2.628   3.899  12.069  0.0985  0.1039  0.1910
  539MPD2    C4 8053   2.556   3.830  12.162 -0.1541 -0.1306 -0.6441
  539MPD2    C5 8054   2.552   3.697  12.161 -0.1687 -0.5502  0.2680
  539MPD2     H 8055   2.771   3.892  11.910  0.1055  0.0458  0.8301
  539MPD2    H1 8056   2.491   3.883  12.231  0.4180 -1.1696  0.6902
  539MPD2    H2 8057   2.621   3.513  12.064 -1.5778  0.3809 -2.7112
  539MPD2    H3 8058   2.472   3.646  12.213  0.5062 -1.0110  0.8635
  539MPD2     N 8059   2.616   4.039  12.055  0.2511 -0.4378  0.0424
  539MPD2    H5 8060   2.658   4.079  11.972 -1.1344  1.6750  0.3310
  539MPD2    N1 8061   2.807   3.631  11.912  0.1739 -0.3121 -0.5681
  539MPD2    H7 8062   2.891   3.679  11.880  0.2012  0.6281  0.9164
  540TMC3    C1 8063   2.566   4.263  12.090 -0.1335 -0.2898  0.0091
  540TMC3    C2 8064   2.566   4.294  11.953  0.2049 -1.2803 -0.0895
  540TMC3    C3 8065   2.575   4.427  11.912 -0.2891  0.2966 -0.7258
  540TMC3    C4 8066   2.584   4.358  12.181  0.3611  0.3440  0.2912
  540TMC3    C5 8067   2.592   4.488  12.135  0.7081 -0.0881 -0.0411
  540TMC3    C6 8068   2.606   4.526  12.003  0.4579  0.1056  0.6538
  540TMC3     C 8069   2.543   4.128  12.139 -0.4000  0.4183 -0.1492
  540TMC3     O 8070   2.482   4.110  12.242  0.5063  0.0325  0.1634
  540TMC3     H 8071   2.501   4.231  11.894 -2.9669  1.2537  0.6589
  540TMC3    H1 8072   2.562   4.337  12.285  3.4274  0.9962  1.0859
  540TMC3    H2 8073   2.603   4.631  11.976  3.7392  0.4356  1.6420
  540TMC3    C7 8074   2.513   4.585  12.212 -0.0065  0.5117  0.0456
  540TMC3    C8 8075   2.494   4.471  11.801 -0.5404 -0.1302  0.5552
  540TMC3    O1 8076   2.417   4.538  12.277  0.3543  0.0800  0.1878
  540TMC3    O2 8077   2.443   4.581  11.819  0.2534  0.4411  0.2913
  541MPD2     C 8078   1.282   0.639  13.466 -0.2119  0.1729  0.4212
  541MPD2    C1 8079   1.179   0.703  13.403  0.1660 -0.1024 -0.6295
  541MPD2    C2 8080   1.207   0.793  13.298 -0.1637  0.2095  0.3085
  541MPD2    C3 8081   1.335   0.818  13.263 -0.1331  0.0177  0.7660
  541MPD2    C4 8082   1.434   0.750  13.322 -0.1284  0.2749  0.5383
  541MPD2    C5 8083   1.409   0.657  13.420 -0.7506  0.0359 -0.0161
  541MPD2     H 8084   1.129   0.845  13.244 -1.0903 -1.6086 -0.1015
  541MPD2    H1 8085   1.540   0.767  13.305 -0.2448  1.5752  1.0652
  541MPD2    H2 8086   1.262   0.565  13.543  0.0201 -0.8396 -0.4978
  541MPD2    H3 8087   1.485   0.606  13.477 -0.8885 -1.2282 -0.9618
  541MPD2     N 8088   1.370   0.914  13.169 -0.3003  0.3000  0.1872
  541MPD2    H5 8089   1.463   0.916  13.128 -1.6539 -0.7523 -2.9674
  541MPD2    N1 8090   1.050   0.654  13.428  0.2434  0.1267  0.5354
  541MPD2    H7 8091   1.042   0.582  13.500 -2.8016 -1.6907 -1.6006
  542TMC3    C1 8092   1.343   1.094  13.038 -0.1395  0.5865  0.2095
  542TMC3    C2 8093   1.375   1.018  12.927 -0.1451  0.1125  0.5251
  542TMC3    C3 8094   1.363   1.087  12.804  0.0847  0.1593 -0.7621
  542TMC3    C4 8095   1.299   1.225  13.027 -0.7385 -0.6943 -0.0449
  542TMC3    C5 8096   1.266   1.270  12.903  0.1606  0.8874 -0.2742
  542TMC3    C6 8097   1.286   1.201  12.787  0.3283 -0.5354  0.3489
  542TMC3     C 8098   1.288   1.023  13.146  0.2323  0.7902  0.0825
  542TMC3     O 8099   1.181   1.065  13.182 -0.6104 -0.2656  0.3125
  542TMC3     H 8100   1.388   0.911  12.937  1.6858  0.0939 -2.0845
  542TMC3    H1 8101   1.273   1.277  13.119  2.1454  1.5089 -0.4966
  542TMC3    H2 8102   1.274   1.236  12.685  2.4085 -0.0976  0.2475
  542TMC3    C7 8103   1.193   1.396  12.895  0.4856 -0.4631  0.2392
  542TMC3    C8 8104   1.433   1.031  12.688  0.2486 -0.9974 -0.2336
  542TMC3    O1 8105   1.180   1.453  13.000 -0.1575 -0.2821  0.2870
  542TMC3    O2 8106   1.427   1.086  12.582  0.3902 -0.5461 -0.2220
  543TMC3    C1 8107   0.560   2.320  17.563 -0.0648  0.1070 -0.2477
  543TMC3    C2 8108   0.598   2.237  17.665 -0.0544  0.8360  0.0645
  543TMC3    C3 8109   0.517   2.217   0.013  0.1115  0.0397 -0.5136
  543TMC3    C4 8110   0.435   2.376  17.559  0.9105 -0.3104  0.1761
  543TMC3    C5 8111   0.355   2.357  17.670 -0.6694  0.6416 -0.1139
  543TMC3    C6 8112   0.389   2.276   0.017 -0.6737 -0.1049 -0.3439
  543TMC3     C 8113   0.653   2.319  17.452  0.0071 -0.0834  0.0837
  543TMC3     O 8114   0.761   2.259  17.460  0.2194  0.6714  0.3857
  543TMC3     H 8115   0.702   2.209  17.673  0.1097  0.9329 -1.6922
  543TMC3    H1 8116   0.395   2.424  17.471 -0.4448 -1.5304  0.1315
  543TMC3    H2 8117   0.313   2.258   0.092  0.5121 -1.2088  0.5901
  543TMC3    C7 8118   0.224   2.410  17.659 -0.1032  0.3014  0.2567
  543TMC3    C8 8119   0.531   2.086   0.065  0.2087  0.0293  0.4047
  543TMC3    O1 8120   0.133   2.341  17.701  0.0998  0.3095  0.0452
  543TMC3    O2 8121   0.610   2.015   0.001 -0.0842 -0.2828 -0.1621
  544MPD2     C 8122   0.410   1.690   0.370  0.9425  0.0128  0.2199
  544MPD2    C1 8123   0.468   1.694   0.243 -0.3340 -0.2488  0.1260
  544MPD2    C2 8124   0.490   1.821   0.183 -0.2556 -0.3798 -0.2901
  544MPD2    C3 8125   0.457   1.936   0.249  0.1687 -0.5998  0.2773
  544MPD2    C4 8126   0.387   1.929   0.369  0.4515  0.0258  0.0002
  544MPD2    C5 8127   0.367   1.806   0.424 -0.0354 -0.0697  0.0905
  544MPD2     H 8128   0.549   1.821   0.092  0.5389  0.8488  0.2242
  544MPD2    H1 8129   0.353   2.020   0.418 -2.1314 -0.5359 -0.7301
  544MPD2    H2 8130   0.389   1.595   0.420  1.7697 -0.0722  0.4146
  544MPD2    H3 8131   0.308   1.803   0.515  1.3657  1.5383  1.0655
  544MPD2     N 8132   0.477   2.066   0.192  0.3117 -0.4405 -0.2226
  544MPD2    H5 8133   0.442   2.151   0.235 -0.0644 -1.1297  0.8252
  544MPD2    N1 8134   0.498   1.568   0.185 -0.3277  0.0715  0.6856
  544MPD2    H7 8135   0.479   1.482   0.235 -0.6803 -0.3711 -0.2286
  545TMC3    C1 8136   0.594   1.400   0.062  0.3526  0.0935 -0.5130
  545TMC3    C2 8137   0.724   1.357   0.051  0.3473 -0.1278 -0.3317
  545TMC3    C3 8138   0.755   1.229   0.067 -0.2088 -0.2611  0.3071
  545TMC3    C4 8139   0.497   1.308   0.093 -0.0538  0.4508  0.5298
  545TMC3    C5 8140   0.530   1.177   0.108 -0.2126  0.4510  0.1353
  545TMC3    C6 8141   0.660   1.136   0.110 -0.4287 -0.0893  1.1757
  545TMC3     C 8142   0.582   1.546   0.080 -0.0332  0.5835  0.9798
  545TMC3     O 8143   0.642   1.623   0.005  0.1800 -0.2596 -0.1072
  545TMC3     H 8144   0.797   1.435   0.034 -0.6113  0.9624  0.5638
  545TMC3    H1 8145   0.392   1.337   0.089 -0.7661 -2.0780  0.8068
  545TMC3    H2 8146   0.688   1.033   0.127 -0.8407 -0.1481  1.4931
  545TMC3    C7 8147   0.418   1.087   0.088 -0.1055  0.2138 -0.0489
  545TMC3    C8 8148   0.901   1.190   0.077  0.3739 -0.6657  0.3361
  545TMC3    O1 8149   0.306   1.132   0.108 -0.6143  0.1500  0.3974
  545TMC3    O2 8150   0.923   1.102   0.155 -0.1094 -0.4217 -0.7964
  546MPD2     C 8151   2.403   1.459  17.041 -0.1038 -0.0867  0.3154
  546MPD2    C1 8152   2.330   1.554  17.106  0.8509 -0.3557  0.0730
  546MPD2    C2 8153   2.369   1.690  17.107 -0.1663 -0.4483  0.1621
  546MPD2    C3 8154   2.474   1.729  17.036 -0.5015 -0.5940  0.0095
  546MPD2    C4 8155   2.554   1.631  16.978  0.3097  0.3471  0.3047
  546MPD2    C5 8156   2.516   1.498  16.986  0.1071  0.6474  0.4728
  546MPD2     H 8157   2.314   1.771  17.154 -0.2608 -0.1995 -0.3833
  546MPD2    H1 8158   2.642   1.644  16.917 -0.8538  1.3662 -1.1546
  546MPD2    H2 8159   2.364   1.359  17.051  1.9997 -0.6985  2.3263
  546MPD2    H3 8160   2.560   1.416  16.931  0.1814 -0.2990  1.9279
  546MPD2     N 8161   2.499   1.868  17.020 -0.0295  0.3000  0.3437
  546MPD2    H5 8162   2.443   1.928  17.081 -1.2367 -2.8803  2.3881
  546MPD2    N1 8163   2.202   1.514  17.154  1.0866 -0.1911  0.1496
  546MPD2    H7 8164   2.177   1.417  17.136  0.9066 -0.2094  0.5021
  547TMC3    C1 8165   2.000   1.513  17.275  0.2032 -0.3597  0.5488
  547TMC3    C2 8166   1.887   1.588  17.266 -0.0505 -0.0801  0.3110
  547TMC3    C3 8167   1.779   1.541  17.337 -0.0761  0.4232  0.0167
  547TMC3    C4 8168   2.016   1.409  17.364 -0.8619 -0.7936  0.0945
  547TMC3    C5 8169   1.901   1.371  17.438  0.6377  0.7318  0.5101
  547TMC3    C6 8170   1.782   1.440  17.427 -1.5515 -0.3632 -0.6456
  547TMC3     C 8171   2.114   1.595  17.226 -0.5802  0.1762 -0.1215
  547TMC3     O 8172   2.127   1.710  17.261  0.5688 -0.0709  0.0415
  547TMC3     H 8173   1.878   1.681  17.211 -0.0993 -0.3978 -0.2162
  547TMC3    H1 8174   2.107   1.349  17.361 -1.4450 -1.7073  0.8902
  547TMC3    H2 8175   1.708   1.418  17.504 -0.6808  0.3803  0.4086
  547TMC3    C7 8176   1.924   1.303  17.560 -0.4076  0.3238 -0.4688
  547TMC3    C8 8177   1.651   1.598  17.307 -0.2901 -0.1789  0.7522
  547TMC3    O1 8178   1.828   1.281  17.631  0.6534  0.2467 -0.1811
  547TMC3    O2 8179   1.660   1.697  17.237 -0.2714  0.4270  0.4520
  548MPD2     C 8180   1.896   2.911  12.675 -0.0826 -0.1953 -0.9286
  548MPD2    C1 8181   1.855   2.783  12.709 -0.5188 -0.3726  0.2928
  548MPD2    C2 8182   1.939   2.670  12.682 -0.0904  0.0802 -0.5769
  548MPD2    C3 8183   2.049   2.696  12.600  0.5833  1.2189  0.3231
  548MPD2    C4 8184   2.080   2.822  12.560  0.9185  1.0704  1.4964
  548MPD2    C5 8185   2.005   2.933  12.591  0.5818 -1.0389  0.4038
  548MPD2     H 8186   1.914   2.569  12.713  0.5662  0.3783  0.8975
  548MPD2    H1 8187   2.169   2.844  12.503  0.4488  1.3893  0.8896
  548MPD2    H2 8188   1.827   2.994  12.688 -0.0055 -0.3564  0.5167
  548MPD2    H3 8189   2.038   3.034  12.566 -0.5684 -1.0296 -1.0518
  548MPD2     N 8190   2.133   2.589  12.580  0.1953  0.8550 -0.1602
  548MPD2    H5 8191   2.106   2.499  12.619 -0.9066  0.9501 -0.7072
  548MPD2    N1 8192   1.735   2.778  12.779  0.0750  0.0562 -0.0282
  548MPD2    H7 8193   1.714   2.864  12.828  0.4244 -0.4483  0.9997
  549TMC3    C1 8194   1.545   2.677  12.875 -0.0886  0.2831 -0.8724
  549TMC3    C2 8195   1.483   2.792  12.842  0.2357 -0.3547  0.0509
  549TMC3    C3 8196   1.346   2.803  12.864  0.3245 -0.9528  0.1896
  549TMC3    C4 8197   1.480   2.562  12.906 -0.1264 -0.3563  0.6783
  549TMC3    C5 8198   1.344   2.573  12.930 -0.4087 -0.0186  0.0627
  549TMC3    C6 8199   1.276   2.693  12.914  0.5668  0.8648 -0.1949
  549TMC3     C 8200   1.680   2.661  12.823  0.1918 -0.9695 -0.2029
  549TMC3     O 8201   1.717   2.549  12.801  0.2898 -0.5414  0.1839
  549TMC3     H 8202   1.524   2.871  12.778  1.6574 -1.8618 -0.9062
  549TMC3    H1 8203   1.535   2.469  12.914 -0.6189 -0.6278  0.9851
  549TMC3    H2 8204   1.171   2.701  12.940  0.7272  1.3518  0.2903
  549TMC3    C7 8205   1.263   2.465  12.987 -0.3543  0.2579  0.2421
  549TMC3    C8 8206   1.266   2.897  12.778  0.2031  1.0015  0.2104
  549TMC3    O1 8207   1.142   2.472  12.959 -0.0729  0.0221 -0.2482
  549TMC3    O2 8208   1.158   2.848  12.740  0.0678  0.4801  0.7156
  550TMC3    C1 8209   0.990   0.775  12.164 -0.1782 -0.4456  0.4389
  550TMC3    C2 8210   1.086   0.816  12.248 -0.3569 -0.4627 -0.0079
  550TMC3    C3 8211   1.098   0.946  12.273  0.3030  0.6230 -0.7996
  550TMC3    C4 8212   0.901   0.867  12.113 -0.4621  0.4703  0.0368
  550TMC3    C5 8213   0.908   0.999  12.149 -0.2142  0.2768  0.5094
  550TMC3    C6 8214   1.018   1.042  12.220 -0.3995  0.1322  0.4594
  550TMC3     C 8215   0.972   0.633  12.146 -0.2904 -0.4766 -0.4757
  550TMC3     O 8216   1.024   0.561  12.233 -0.1781 -0.3015  0.1297
  550TMC3     H 8217   1.161   0.744  12.279  0.7813  0.4412 -0.6693
  550TMC3    H1 8218   0.823   0.834  12.046 -0.6201  1.6622 -0.3689
  550TMC3    H2 8219   1.043   1.145  12.240 -0.9914  0.4818 -0.5579
  550TMC3    C7 8220   0.783   1.074  12.172  0.1024 -0.2086 -0.5146
  550TMC3    C8 8221   1.111   0.982  12.418  0.0993  0.6919 -0.0493
  550TMC3    O1 8222   0.684   1.043  12.106  0.2679  0.3185  0.3906
  550TMC3    O2 8223   1.061   1.089  12.445 -0.2632 -0.5164  0.0851
  551TMC3    C1 8224   2.847   3.012  13.548 -0.3606  0.7485 -0.5905
  551TMC3    C2 8225   2.960   2.936  13.515  0.0506 -0.8610 -0.2108
  551TMC3    C3 8226   3.051   2.918  13.612 -0.6636 -0.3015 -0.4898
  551TMC3    C4 8227   2.840   3.083  13.662  0.1280 -0.5410 -0.7588
  551TMC3    C5 8228   2.937   3.067  13.762  0.3433 -0.4123  0.6403
  551TMC3    C6 8229   3.038   2.978  13.738  0.0135 -0.2622 -0.9781
  551TMC3     C 8230   2.765   3.064  13.439 -0.4247 -0.2198  0.1809
  551TMC3     O 8231   2.651   3.022  13.426 -0.0151  0.0119 -0.3634
  551TMC3     H 8232   2.976   2.891  13.418  0.5483 -1.4338  0.1370
  551TMC3    H1 8233   2.750   3.139  13.681 -0.2432 -0.9724 -1.2554
  551TMC3    H2 8234   3.106   2.947  13.817 -2.3468  0.8150  1.4881
  551TMC3    C7 8235   2.991   3.186  13.827 -0.6174 -0.5909  0.4842
  551TMC3    C8 8236   3.191   2.916  13.567  0.2947 -0.6373 -0.1533
  551TMC3    O1 8237   3.108   3.171  13.870  0.3060  0.6985 -0.4644
  551TMC3    O2 8238   3.212   2.870  13.457 -0.4842 -0.3859  0.0469
  552MPD2     C 8239   0.482   0.326  13.975  0.4155 -0.3438  0.6951
  552MPD2    C1 8240   0.413   0.264  14.079  0.1471  0.0163  0.3812
  552MPD2    C2 8241   0.465   0.270  14.201 -0.3151 -0.7263  0.1300
  552MPD2    C3 8242   0.581   0.343  14.230 -0.4004 -0.4526  0.7533
  552MPD2    C4 8243   0.648   0.405  14.122  0.5051  0.1115 -0.6568
  552MPD2    C5 8244   0.599   0.397  13.995 -0.4130  0.3379  0.2004
  552MPD2     H 8245   0.407   0.226  14.280  0.2356 -3.0190 -0.7498
  552MPD2    H1 8246   0.738   0.463  14.135  0.1407  0.3028  1.0089
  552MPD2    H2 8247   0.435   0.317  13.878  0.9761  1.7025  0.2455
  552MPD2    H3 8248   0.640   0.449  13.909  1.5879  1.0604  1.6034
  552MPD2     N 8249   0.631   0.362  14.365  0.1776  0.4781 -0.5549
  552MPD2    H5 8250   0.710   0.424  14.380  0.4985  0.1650 -0.9426
  552MPD2    N1 8251   0.301   0.184  14.050  0.5793  0.2257 -0.8169
  552MPD2    H7 8252   0.262   0.195  13.957 -0.1685 -1.3319 -0.6728
  553TMC3    C1 8253   0.107   0.049  14.078 -0.6493 -0.0499 -0.1282
  553TMC3    C2 8254   0.058   0.104  13.965 -0.0895 -0.6201  0.1122
  553TMC3    C3 8255   4.691   0.037  13.912  0.6841  0.6183 -1.0312
  553TMC3    C4 8256   0.067   4.666  14.127  1.0192  0.4866 -0.2693
  553TMC3    C5 8257   4.709   4.598  14.061 -0.5834  0.2667  0.2197
  553TMC3    C6 8258   4.641   4.660  13.961  0.1498  0.4190  0.3144
  553TMC3     C 8259   0.233   0.098  14.131 -0.4668  0.0913  0.2847
  553TMC3     O 8260   0.278   0.033  14.225 -0.3379  0.1805 -0.1291
  553TMC3     H 8261   0.088   0.196  13.916 -1.8461 -0.3114 -0.4061
  553TMC3    H1 8262   0.117   4.623  14.213  1.8270  2.4363  0.2445
  553TMC3    H2 8263   4.558   4.611  13.912  0.9208 -1.2186  0.6471
  553TMC3    C7 8264   4.720   4.455  14.042 -0.4831 -0.3997 -0.3935
  553TMC3    C8 8265   4.647   0.088  13.783 -0.2996  0.5658 -0.1646
  553TMC3    O1 8266   4.635   4.399  13.970  0.0608  0.0879 -0.1060
  553TMC3    O2 8267   4.729   0.129  13.702 -0.0519  0.1421  0.9946
  554TMC3    C1 8268   1.460   4.529  11.765  0.0149 -0.3058  1.0991
  554TMC3    C2 8269   1.361   4.525  11.669 -0.1895  0.5096 -0.4616
  554TMC3    C3 8270   1.353   4.616  11.575  0.5511 -0.2373  0.2916
  554TMC3    C4 8271   1.560   4.623  11.760 -0.2486  0.0709 -0.1585
  554TMC3    C5 8272   1.551   4.718  11.660 -0.5674 -0.2313  0.1896
  554TMC3    C6 8273   1.454   4.711  11.566 -0.2148 -0.2502  0.4083
  554TMC3     C 8274   1.465   4.430  11.877 -0.0493 -0.3102  0.5385
  554TMC3     O 8275   1.359   4.373  11.897  0.1175  0.5962 -0.3212
  554TMC3     H 8276   1.276   4.461  11.690  1.1008 -0.6695  1.1903
  554TMC3    H1 8277   1.634   4.631  11.838 -0.4471 -0.2936  0.0708
  554TMC3    H2 8278   1.448   0.043  11.486  1.0464 -0.8295 -0.2074
  554TMC3    C7 8279   1.673   4.737  11.588  1.0036 -0.4546 -0.1710
  554TMC3    C8 8280   1.292   4.584  11.446 -0.1664 -0.0300 -0.6268
  554TMC3    O1 8281   1.667   4.729  11.465  0.4737  0.7201  0.1088
  554TMC3    O2 8282   1.349   4.633  11.348  0.0869 -0.3878 -0.9909
  555TMC3    C1 8283   1.571   3.963  15.243  0.2130 -0.0104 -0.1514
  555TMC3    C2 8284   1.502   4.018  15.350 -0.5833  0.4439 -0.9423
  555TMC3    C3 8285   1.504   3.957  15.469 -0.5994  0.2766  0.1098
  555TMC3    C4 8286   1.636   3.843  15.252  0.0056 -0.1792 -0.1120
  555TMC3    C5 8287   1.640   3.781  15.378  0.3872 -0.3654 -0.2773
  555TMC3    C6 8288   1.564   3.834  15.487 -0.1378 -0.1800 -0.3005
  555TMC3     C 8289   1.578   4.024  15.117  0.1169  0.4500 -0.5523
  555TMC3     O 8290   1.675   3.993  15.048  0.6070  0.0660  0.5698
  555TMC3     H 8291   1.479   4.123  15.338  2.5252  0.9435 -2.7239
  555TMC3    H1 8292   1.673   3.798  15.160  1.0791 -1.1098  0.7831
  555TMC3    H2 8293   1.552   3.768  15.572 -0.5941 -0.0965 -0.3006
  555TMC3    C7 8294   1.674   3.638  15.391  0.2055  1.1621 -0.4048
  555TMC3    C8 8295   1.392   4.001  15.559  0.2459 -0.7358  0.3422
  555TMC3    O1 8296   1.637   3.584  15.496  0.5008 -0.1169 -0.2364
  555TMC3    O2 8297   1.306   4.073  15.509  0.1984  0.0744 -0.4664
  556MPD2     C 8298   4.449   0.626  11.234 -0.4599 -0.5025 -0.5258
  556MPD2    C1 8299   4.329   0.636  11.287  0.1918  0.4414  0.1993
  556MPD2    C2 8300   4.214   0.622  11.215 -0.7322 -0.2508 -0.3042
  556MPD2    C3 8301   4.220   0.580  11.078 -0.1729  0.4020  0.6107
  556MPD2    C4 8302   4.344   0.573  11.019 -0.0232 -0.8946  0.3406
  556MPD2    C5 8303   4.455   0.587  11.101 -0.8539 -0.5557 -0.4223
  556MPD2     H 8304   4.116   0.611  11.260 -0.3106 -1.0835  0.4086
  556MPD2    H1 8305   4.360   0.556  10.913  0.5472  0.3594  0.2304
  556MPD2    H2 8306   4.542   0.654  11.282 -1.0763 -0.7737  0.8189
  556MPD2    H3 8307   4.553   0.588  11.056 -1.9461  1.4613 -2.7604
  556MPD2     N 8308   4.100   0.563  11.005  0.2050  0.2086 -0.2036
  556MPD2    H5 8309   4.018   0.564  11.066 -3.1299 -1.4679 -4.6745
  556MPD2    N1 8310   4.303   0.669  11.422 -0.2447 -0.2612  0.1211
  556MPD2    H7 8311   4.210   0.678  11.461  0.3451 -2.2982  1.9846
  557TMC3    C1 8312   3.944   0.506  10.840 -0.0909  0.2958  0.0054
  557TMC3    C2 8313   3.905   0.513  10.711  0.1508 -0.4665 -0.3133
  557TMC3    C3 8314   3.778   0.473  10.682 -0.1158  0.1386  0.0861
  557TMC3    C4 8315   3.866   0.446  10.938  0.4129  0.6411  0.1038
  557TMC3    C5 8316   3.733   0.430  10.911  0.0843 -0.1567  0.5804
  557TMC3    C6 8317   3.688   0.454  10.784 -1.1534  0.3460  0.6332
  557TMC3     C 8318   4.079   0.548  10.866 -0.6204 -0.5133 -0.0269
  557TMC3     O 8319   4.157   0.565  10.772 -0.4924 -0.1800  0.8702
  557TMC3     H 8320   3.971   0.562  10.639  0.0640  0.8240  0.4988
  557TMC3    H1 8321   3.898   0.408  11.034 -0.4184  0.5059  0.3240
  557TMC3    H2 8322   3.584   0.422  10.775 -0.6960 -0.5317 -1.5406
  557TMC3    C7 8323   3.635   0.371  11.004 -0.3849 -0.1224 -0.2144
  557TMC3    C8 8324   3.721   0.503  10.553  0.3296  0.1980 -0.6650
  557TMC3    O1 8325   3.535   0.318  10.951 -0.2120  0.1220 -0.5559
  557TMC3    O2 8326   3.781   0.584  10.485 -0.1766  0.3366  0.0978
  558TMC3    C1 8327   1.170   3.613  10.615  0.0268  0.3105 -0.4914
  558TMC3    C2 8328   1.094   3.526  10.683 -0.0616  1.1068  0.7632
  558TMC3    C3 8329   0.968   3.509  10.643  0.2252 -0.1380 -0.1857
  558TMC3    C4 8330   1.128   3.683  10.498  0.2137 -0.8702  0.0277
  558TMC3    C5 8331   1.000   3.656  10.466 -0.7249 -0.0046  0.4681
  558TMC3    C6 8332   0.918   3.565  10.526 -0.3431  0.0297  0.0388
  558TMC3     C 8333   1.314   3.596  10.617  0.4800 -0.0489  0.1664
  558TMC3     O 8334   1.358   3.596  10.504 -0.0554  0.0434 -0.1460
  558TMC3     H 8335   1.130   3.480  10.774  0.4074 -0.5475 -0.2490
  558TMC3    H1 8336   1.193   3.747  10.440 -0.2964  1.1346  1.6853
  558TMC3    H2 8337   0.821   3.531  10.493 -0.1375  0.8453 -1.4011
  558TMC3    C7 8338   0.941   3.735  10.359 -0.0261  0.0802 -0.5953
  558TMC3    C8 8339   0.905   3.394  10.702  0.2155  0.1967  0.1723
  558TMC3    O1 8340   1.017   3.804  10.296 -0.1319 -0.4188 -0.5101
  558TMC3    O2 8341   0.785   3.396  10.694  0.1484 -0.0047 -0.0501
  559MPD2     C 8342   1.313   4.089  11.172 -0.3006  0.3062  0.1034
  559MPD2    C1 8343   1.275   3.958  11.176 -0.0021 -0.1378 -0.0555
  559MPD2    C2 8344   1.356   3.857  11.233 -0.0919 -0.0522 -0.0740
  559MPD2    C3 8345   1.480   3.890  11.285  0.4697 -0.3461 -0.8614
  559MPD2    C4 8346   1.520   4.027  11.276  0.0772 -0.0357 -0.5606
  559MPD2    C5 8347   1.444   4.122  11.216  0.6278 -0.3942 -0.4502
  559MPD2     H 8348   1.319   3.755  11.230  1.5790 -0.6322 -0.8402
  559MPD2    H1 8349   1.615   4.069  11.307 -0.7974  1.5661 -0.0234
  559MPD2    H2 8350   1.253   4.169  11.129 -0.1202 -0.7336 -2.1145
  559MPD2    H3 8351   1.481   4.222  11.203  1.2388 -0.8920 -2.4847
  559MPD2     N 8352   1.550   3.785  11.356  0.0623 -0.5680  0.1751
  559MPD2    H5 8353   1.523   3.688  11.338 -2.8555  0.0977  0.9321
  559MPD2    N1 8354   1.143   3.933  11.127 -0.1019  0.1953  0.1967
  559MPD2    H7 8355   1.090   4.013  11.093 -0.0282  0.0462 -0.2619
  560TMC3    C1 8356   1.731   3.702  11.486 -0.1400  0.1160 -0.4814
  560TMC3    C2 8357   1.673   3.579  11.469  0.4146 -0.6810 -0.5760
  560TMC3    C3 8358   1.732   3.471  11.533 -0.3574  1.1360  0.1420
  560TMC3    C4 8359   1.852   3.725  11.554  0.2026  0.4574  0.0286
  560TMC3    C5 8360   1.909   3.614  11.605 -0.4580 -0.2272 -0.3249
  560TMC3    C6 8361   1.850   3.488  11.600  0.1096  0.3373  0.4204
  560TMC3     C 8362   1.666   3.814  11.426 -0.4904 -0.7129  0.2244
  560TMC3     O 8363   1.741   3.910  11.412 -0.9859  0.2397 -0.2803
  560TMC3     H 8364   1.571   3.556  11.440 -0.2339  1.8695 -0.3207
  560TMC3    H1 8365   1.890   3.825  11.571 -1.2032  0.9484  0.2515
  560TMC3    H2 8366   1.893   3.404  11.652 -1.2816 -0.2359  0.6652
  560TMC3    C7 8367   2.028   3.635  11.688  0.0617  0.7783 -0.0238
  560TMC3    C8 8368   1.697   3.344  11.480 -0.1021 -0.6259  0.3190
  560TMC3    O1 8369   2.037   3.554  11.781  0.0922 -0.1943  0.1222
  560TMC3    O2 8370   1.592   3.321  11.424  0.3538  0.5015  0.5394
  561TMC3    C1 8371   4.030   2.807  11.469  0.3214 -0.0889  0.3024
  561TMC3    C2 8372   4.014   2.737  11.590 -0.1503 -0.0877 -0.1570
  561TMC3    C3 8373   3.908   2.780  11.671  0.0382  1.0155 -0.5941
  561TMC3    C4 8374   3.946   2.918  11.450  0.1975 -0.6694 -0.2675
  561TMC3    C5 8375   3.844   2.953  11.531 -0.3181  0.2815 -0.4217
  561TMC3    C6 8376   3.820   2.879  11.638 -0.0671  0.7430 -0.4074
  561TMC3     C 8377   4.146   2.800  11.384  0.2229 -0.4349  0.0121
  561TMC3     O 8378   4.137   2.869  11.284 -0.0371 -0.2420  0.3229
  561TMC3     H 8379   4.098   2.678  11.625 -1.3544 -2.5732 -1.5019
  561TMC3    H1 8380   3.957   2.979  11.361 -3.2490  0.5374  0.1028
  561TMC3    H2 8381   3.747   2.916  11.709 -0.0946 -2.3946  1.1798
  561TMC3    C7 8382   3.824   3.091  11.539 -0.2223  0.0933  0.7896
  561TMC3    C8 8383   3.939   2.749  11.814  0.2013 -0.4113 -0.0130
  561TMC3    O1 8384   3.727   3.136  11.600  0.0842 -0.5282  0.3239
  561TMC3    O2 8385   4.012   2.651  11.835 -0.2700  0.2367  0.3290
  562TMC3    C1 8386   0.921   4.143  16.652 -0.4294  0.1441 -0.0518
  562TMC3    C2 8387   1.007   4.198  16.559 -0.6961 -0.3740  0.8260
  562TMC3    C3 8388   0.973   4.197  16.426 -0.2361  0.7111 -0.0482
  562TMC3    C4 8389   0.824   4.051  16.619 -0.4858  0.1060 -0.0015
  562TMC3    C5 8390   0.815   4.033  16.484 -0.2747 -0.1129  0.5345
  562TMC3    C6 8391   0.876   4.108  16.391 -0.0870  0.7348 -0.2925
  562TMC3     C 8392   0.906   4.220  16.778 -0.0979  0.1219 -0.5722
  562TMC3     O 8393   0.980   4.316  16.802 -0.0516  0.5822 -0.2199
  562TMC3     H 8394   1.083   4.267  16.592  1.0114 -1.5620 -0.5708
  562TMC3    H1 8395   0.768   3.998  16.695  1.5000 -0.7102  0.8905
  562TMC3    H2 8396   0.855   4.081  16.288 -0.3671 -1.1811  0.2798
  562TMC3    C7 8397   0.772   3.911  16.433  0.0021  0.6077  0.5337
  562TMC3    C8 8398   1.062   4.261  16.332  0.9914 -0.2813  0.4132
  562TMC3    O1 8399   0.707   3.906  16.330 -0.3423  0.4193  0.2591
  562TMC3    O2 8400   1.166   4.317  16.373 -0.1788 -0.2270  0.4697
  563MPD2     C 8401   3.442   0.921  15.603 -0.5617 -0.1781 -0.7281
  563MPD2    C1 8402   3.525   0.926  15.715  0.1104  0.1535 -0.1699
  563MPD2    C2 8403   3.640   0.844  15.719 -0.5639 -0.0013 -0.0506
  563MPD2    C3 8404   3.665   0.754  15.623  0.2931  0.6891 -0.8045
  563MPD2    C4 8405   3.581   0.752  15.515  0.4999 -0.6039 -0.5645
  563MPD2    C5 8406   3.471   0.831  15.501  0.1856  0.2856  0.5189
  563MPD2     H 8407   3.707   0.846  15.804 -0.5166  1.5103 -0.1232
  563MPD2    H1 8408   3.580   0.679  15.436  1.4035 -1.6010  0.3498
  563MPD2    H2 8409   3.352   0.981  15.587 -1.2420 -0.4025  2.2990
  563MPD2    H3 8410   3.424   0.828  15.404  0.0489  1.3756  0.5528
  563MPD2     N 8411   3.767   0.658  15.635  0.3162 -0.0274 -0.3214
  563MPD2    H5 8412   3.832   0.655  15.713 -1.3850  0.6167  1.1266
  563MPD2    N1 8413   3.474   0.986  15.834 -0.1725 -0.3836  0.2133
  563MPD2    H7 8414   3.378   1.018  15.842 -0.0260 -0.0426  0.6355
  564TMC3    C1 8415   3.477   0.981  16.071 -0.4911 -0.2156  0.0351
  564TMC3    C2 8416   3.344   0.969  16.070  0.6311  0.4810 -0.1801
  564TMC3    C3 8417   3.272   0.885  16.149 -0.0454 -0.1323  0.3198
  564TMC3    C4 8418   3.548   0.910  16.149 -0.1958 -0.0446  1.0537
  564TMC3    C5 8419   3.485   0.814  16.228 -0.1092  0.1553  0.4569
  564TMC3    C6 8420   3.350   0.821  16.240 -0.4168 -0.3658  0.1038
  564TMC3     C 8421   3.545   1.007  15.946 -0.0261  0.4240 -0.2397
  564TMC3     O 8422   3.665   1.008  15.958 -0.2281  0.3500  0.0349
  564TMC3     H 8423   3.297   1.046  16.010  2.1042  1.7828  0.3630
  564TMC3    H1 8424   3.656   0.907  16.137 -0.1490 -0.6942  1.6392
  564TMC3    H2 8425   3.299   0.746  16.299 -0.4412 -0.7939 -0.4632
  564TMC3    C7 8426   3.521   0.673  16.211  0.2970  0.5116  0.1440
  564TMC3    C8 8427   3.184   0.793  16.080  0.3475 -0.1292 -0.1559
  564TMC3    O1 8428   3.494   0.587  16.296 -0.0868  0.4814 -0.3088
  564TMC3    O2 8429   3.137   0.705  16.151 -0.3643 -0.0133 -0.3777
  565TMC3    C1 8430   3.852   1.495  10.609 -0.4024  0.0556 -0.6815
  565TMC3    C2 8431   3.897   1.440  10.731 -0.0142 -0.2186 -0.5346
  565TMC3    C3 8432   3.913   1.303  10.740  0.4393 -0.9440  0.0201
  565TMC3    C4 8433   3.831   1.412  10.504 -0.1893 -0.4836  0.3867
  565TMC3    C5 8434   3.837   1.273  10.519 -0.2646  0.1060  0.2076
  565TMC3    C6 8435   3.882   1.219  10.636 -0.1515 -1.1859  0.1054
  565TMC3     C 8436   3.923   1.620  10.559  0.0014 -0.0035 -0.1887
  565TMC3     O 8437   3.936   1.647  10.441  0.1353  0.1065 -0.2633
  565TMC3     H 8438   3.912   1.501  10.819  0.1317 -1.6061  0.3875
  565TMC3    H1 8439   3.769   1.443  10.421  0.9241 -2.5070 -1.1975
  565TMC3    H2 8440   3.866   1.114  10.657  1.1419 -1.4432 -0.1910
  565TMC3    C7 8441   3.771   1.192  10.422  0.0314 -1.2257  0.0255
  565TMC3    C8 8442   3.925   1.255  10.875 -0.4065 -0.0138 -0.2049
  565TMC3    O1 8443   3.680   1.256  10.362 -0.4159 -0.1046  0.1763
  565TMC3    O2 8444   3.897   1.334  10.965 -0.5789  0.2481 -0.6372
  566MPD2     C 8445   1.014   4.248  14.288 -0.7719  0.4193 -0.9936
  566MPD2    C1 8446   1.086   4.134  14.296  0.1650  0.5635  0.1332
  566MPD2    C2 8447   1.015   4.016  14.290  0.6049  0.2322  0.3276
  566MPD2    C3 8448   0.881   4.012  14.270 -0.4929  0.4674  0.4293
  566MPD2    C4 8449   0.811   4.128  14.267 -0.5362 -0.0752  0.0724
  566MPD2    C5 8450   0.877   4.249  14.277 -0.2048 -0.1210 -0.9313
  566MPD2     H 8451   1.063   3.919  14.303  1.6603  0.8495  1.0399
  566MPD2    H1 8452   0.704   4.127  14.249  0.0049  0.1721 -3.2064
  566MPD2    H2 8453   1.072   4.339  14.289  0.1458 -0.1752 -0.4394
  566MPD2    H3 8454   0.828   4.346  14.269 -1.0178 -0.4913 -0.4694
  566MPD2     N 8455   0.805   3.895  14.246  0.5060 -0.3133  0.3925
  566MPD2    H5 8456   0.708   3.912  14.223  0.5844 -0.0978  0.2102
  566MPD2    N1 8457   1.226   4.134  14.306  0.4205 -0.3568 -0.1819
  566MPD2    H7 8458   1.272   4.206  14.251  0.2828 -0.1040  0.0317
  567TMC3    C1 8459   1.420   4.009  14.286  0.6188  0.0826  0.7369
  567TMC3    C2 8460   1.417   4.022  14.147 -0.5814  0.3716 -0.6639
  567TMC3    C3 8461   1.534   3.979  14.081  0.2673  0.1159 -0.0222
  567TMC3    C4 8462   1.516   3.934  14.338 -0.3960  0.1570 -0.4789
  567TMC3    C5 8463   1.610   3.872  14.264  0.0407 -1.1889  0.5207
  567TMC3    C6 8464   1.629   3.902  14.134 -0.1861 -0.5569 -0.8416
  567TMC3     C 8465   1.294   4.020  14.350  0.1280 -0.1567 -0.0759
  567TMC3     O 8466   1.264   3.948  14.447  0.2061 -0.1652 -0.1261
  567TMC3     H 8467   1.342   4.079  14.093 -1.9325  0.8505  1.7363
  567TMC3    H1 8468   1.515   3.931  14.447  0.4640  1.1011 -0.4440
  567TMC3    H2 8469   1.701   3.845  14.076  1.4366 -0.4712  1.0885
  567TMC3    C7 8470   1.677   3.757  14.315 -0.0036  0.1705 -0.0371
  567TMC3    C8 8471   1.530   3.994  13.941  0.0207  0.5251  0.6016
  567TMC3    O1 8472   1.771   3.716  14.249 -0.0195  0.2598  0.5100
  567TMC3    O2 8473   1.430   4.027  13.881 -0.2506 -0.3879 -0.3562
  568MPD2     C 8474   3.622   4.099  15.961 -0.3846 -0.4051 -1.1778
  568MPD2    C1 8475   3.584   4.161  16.076 -0.3483 -0.0028 -0.0798
  568MPD2    C2 8476   3.500   4.271  16.065  0.1925 -0.2075  0.3364
  568MPD2    C3 8477   3.468   4.323  15.945 -0.8217 -0.6806  0.2754
  568MPD2    C4 8478   3.512   4.261  15.833 -0.3410  0.1678  1.0129
  568MPD2    C5 8479   3.597   4.157  15.841 -0.3147  0.5145  0.3398
  568MPD2     H 8480   3.450   4.318  16.149  0.6864  0.6583  0.1459
  568MPD2    H1 8481   3.476   4.291  15.735 -1.7208 -1.4673  1.0055
  568MPD2    H2 8482   3.695   4.018  15.960 -1.1372 -1.1034  0.7987
  568MPD2    H3 8483   3.627   4.109  15.748  1.1042 -1.4393  1.8208
  568MPD2     N 8484   3.367   4.421  15.944 -0.8592  0.2609 -0.3760
  568MPD2    H5 8485   3.325   4.439  16.035  0.9098 -0.9100  0.6733
  568MPD2    N1 8486   3.627   4.103  16.199 -0.2646  0.1318  0.2131
  568MPD2    H7 8487   3.682   4.017  16.199 -1.6456 -0.7487 -1.4280
  569TMC3    C1 8488   3.229   4.607  15.875 -0.1470 -0.3261  0.6192
  569TMC3    C2 8489   3.165   4.609  15.993  0.1775  0.2858  0.6598
  569TMC3    C3 8490   3.133   4.730  16.047 -0.5488 -0.0091  0.3205
  569TMC3    C4 8491   3.244   4.718  15.796  0.7728 -0.5730  0.0785
  569TMC3    C5 8492   3.205   0.100  15.851 -0.3373  0.4336  0.1214
  569TMC3    C6 8493   3.151   0.112  15.978  0.4612 -0.6837 -0.2243
  569TMC3     C 8494   3.324   4.495  15.836  0.4634 -0.2419  0.4208
  569TMC3     O 8495   3.372   4.509  15.726 -0.3503  0.3215 -0.1893
  569TMC3     H 8496   3.146   4.521  16.053 -2.7013  0.4876  0.0041
  569TMC3    H1 8497   3.289   4.715  15.697  1.1881 -0.8543  0.2750
  569TMC3    H2 8498   3.098   0.197  16.021 -0.8676 -1.6457  0.0683
  569TMC3    C7 8499   3.213   0.221  15.765 -0.0492 -0.2717  0.1070
  569TMC3    C8 8500   3.124   4.734  16.192 -0.7486  0.5173 -0.5629
  569TMC3    O1 8501   3.225   0.215  15.641  0.0152  0.4763 -0.1650
  569TMC3    O2 8502   3.085   4.633  16.254  0.6074 -0.1840 -0.2739
  570TMC3    C1 8503   2.854   3.208  16.253 -0.4094  0.1195 -0.3636
  570TMC3    C2 8504   2.900   3.219  16.121  0.2810  0.1342  0.6078
  570TMC3    C3 8505   2.981   3.325  16.092 -0.0420  0.3229 -0.0208
  570TMC3    C4 8506   2.874   3.301  16.346 -0.5328 -0.9148  0.5564
  570TMC3    C5 8507   2.943   3.415  16.312  0.1302 -0.2184  0.0087
  570TMC3    C6 8508   3.004   3.426  16.191 -0.7486 -0.7072 -0.7375
  570TMC3     C 8509   2.779   3.093  16.298 -0.2462  0.5415  0.0843
  570TMC3     O 8510   2.730   3.098  16.411  0.4861  0.0235  0.1295
  570TMC3     H 8511   2.862   3.148  16.049 -0.8289  1.2915  0.0599
  570TMC3    H1 8512   2.808   3.304  16.433  1.3156 -0.5030  1.9447
  570TMC3    H2 8513   3.077   3.503  16.167  0.3183 -0.8283  2.1377
  570TMC3    C7 8514   2.944   3.517  16.402  0.4893  0.1633  0.5069
  570TMC3    C8 8515   3.075   3.323  15.982 -0.4817 -0.0538  0.4036
  570TMC3    O1 8516   2.847   3.525  16.477  0.1356  0.2631  0.0154
  570TMC3    O2 8517   3.154   3.418  15.974 -0.3775  0.2168 -0.4814
  571MPD2     C 8518   0.427   4.400  17.538 -0.6939  0.2082 -0.1777
  571MPD2    C1 8519   0.351   4.519  17.555 -0.5625 -0.2737  0.5457
  571MPD2    C2 8520   0.377   4.609  17.660 -0.1179 -0.6152  0.3498
  571MPD2    C3 8521   0.485   4.586  17.744  0.3463  0.4192 -0.1097
  571MPD2    C4 8522   0.553   4.469  17.728 -0.0305 -0.5434  0.3782
  571MPD2    C5 8523   0.527   4.376  17.627 -0.1701  0.3073  0.1500
  571MPD2     H 8524   0.311   4.693  17.674 -0.0060 -0.4735  0.0397
  571MPD2    H1 8525   0.646   4.459   0.023  0.1763 -2.0555 -0.2517
  571MPD2    H2 8526   0.408   4.322  17.465  0.7804  0.5489 -0.9302
  571MPD2    H3 8527   0.596   4.292  17.620 -0.8376 -0.0417 -2.1623
  571MPD2     N 8528   0.545   4.669   0.088  0.0491 -0.3479 -0.5182
  571MPD2    H5 8529   0.611   4.633   0.156  2.9577  2.1971 -2.0040
  571MPD2    N1 8530   0.232   4.537  17.477  0.0756 -0.6120 -0.2939
  571MPD2    H7 8531   0.209   4.456  17.421  0.4117 -0.4620 -0.6525
  572TMC3    C1 8532   0.560   0.134   0.219 -0.6229  0.8884  0.1373
  572TMC3    C2 8533   0.680   0.092   0.271  0.3856  0.0166 -0.5216
  572TMC3    C3 8534   0.743   0.182   0.362 -0.3864  0.2900  0.5549
  572TMC3    C4 8535   0.498   0.249   0.261 -0.2528 -0.5382  0.2182
  572TMC3    C5 8536   0.564   0.329   0.341  0.4275 -0.1036 -0.2738
  572TMC3    C6 8537   0.687   0.299   0.394 -0.2517  0.2004 -0.3778
  572TMC3     C 8538   0.499   0.057   0.108  0.2526  0.1382 -0.4078
  572TMC3     O 8539   0.411   0.113   0.049 -0.0030 -0.0726 -0.5679
  572TMC3     H 8540   0.740   0.018   0.219 -0.5271 -1.3906  0.4014
  572TMC3    H1 8541   0.409   0.283   0.210  1.5487  3.0107 -0.5365
  572TMC3    H2 8542   0.731   0.369   0.464  0.7068 -2.3230  1.4980
  572TMC3    C7 8543   0.509   0.461   0.374  0.2034 -0.3291  0.1384
  572TMC3    C8 8544   0.863   0.147   0.436  0.1473  0.0232 -0.6019
  572TMC3    O1 8545   0.389   0.474   0.364 -0.2497  0.3399  0.1340
  572TMC3    O2 8546   0.913   0.233   0.510  0.6133 -0.2603 -0.1611
  573MPD2     C 8547   1.191   4.666   0.221  0.5970  0.5104  0.3005
  573MPD2    C1 8548   1.160   0.059   0.219 -0.4162  0.4774  0.4197
  573MPD2    C2 8549   1.061   0.110   0.136 -0.1130 -0.0996 -0.4064
  573MPD2    C3 8550   0.996   0.020   0.049  0.0751  0.7492  0.2692
  573MPD2    C4 8551   1.031   4.630   0.057  0.2006 -0.7205 -0.2575
  573MPD2    C5 8552   1.130   4.579   0.140 -0.1340  0.1986  0.4580
  573MPD2     H 8553   1.042   0.216   0.122 -1.1800 -0.0428  1.4529
  573MPD2    H1 8554   0.977   4.552   0.004 -0.6714  0.1148 -0.5868
  573MPD2    H2 8555   1.259   4.623   0.293  0.0623  1.1015  1.1677
  573MPD2    H3 8556   1.140   4.474   0.164  1.0311 -0.4479 -2.9332
  573MPD2     N 8557   0.900   0.062  17.718 -0.1158  0.5735  0.3256
  573MPD2    H5 8558   0.867   4.736  17.650 -1.2281  1.4093  0.0518
  573MPD2    N1 8559   1.237   0.148   0.293 -0.3638 -0.5802  0.0946
  573MPD2    H7 8560   1.301   0.105   0.359 -0.5532 -0.3440  0.4316
  574TMC3    C1 8561   0.710   0.193  17.643 -0.3422  0.3455  0.1685
  574TMC3    C2 8562   0.613   0.287  17.677 -0.2470  0.3098  0.4848
  574TMC3    C3 8563   0.495   0.292  17.599 -0.0819 -0.2884 -0.5130
  574TMC3    C4 8564   0.681   0.096  17.553  0.4803 -0.2700  0.0908
  574TMC3    C5 8565   0.559   0.091  17.491 -0.2947  0.1925 -0.2822
  574TMC3    C6 8566   0.466   0.192  17.510 -0.6647 -0.5616  0.5698
  574TMC3     C 8567   0.825   0.182  17.734  0.2450  0.1406  0.3189
  574TMC3     O 8568   0.836   0.267   0.066 -0.0725  0.7536 -0.0978
  574TMC3     H 8569   0.635   0.352   0.001 -0.4099  1.2072 -0.1737
  574TMC3    H1 8570   0.757   0.026  17.521  0.2456 -0.1096 -0.8086
  574TMC3    H2 8571   0.369   0.198  17.460 -0.2948 -1.2888 -0.2278
  574TMC3    C7 8572   0.529   4.721  17.399 -0.5617 -0.5837  0.4633
  574TMC3    C8 8573   0.385   0.371  17.640 -0.6835 -0.2832 -0.1882
  574TMC3    O1 8574   0.608   4.628  17.387 -0.4241  0.4183  0.4085
  574TMC3    O2 8575   0.265   0.341  17.630  0.3021 -0.4876 -0.1354
  575TMC3    C1 8576   4.109   1.386  11.693  0.1697 -0.8369  0.3007
  575TMC3    C2 8577   4.113   1.280  11.782  0.0085  0.4174 -0.0621
  575TMC3    C3 8578   4.069   1.161  11.734  0.2962 -0.3599  0.1417
  575TMC3    C4 8579   4.066   1.375  11.565 -0.2910  0.2955  0.1568
  575TMC3    C5 8580   4.047   1.247  11.523 -0.3559 -0.0627  0.3931
  575TMC3    C6 8581   4.039   1.137  11.603  0.4289  0.8219 -0.4437
  575TMC3     C 8582   4.183   1.506  11.739 -0.0835 -0.2066  0.1598
  575TMC3     O 8583   4.279   1.494  11.813  0.1035 -0.0937  0.5757
  575TMC3     H 8584   4.153   1.297  11.881  1.7862  0.7827 -0.8411
  575TMC3    H1 8585   4.088   1.461  11.502  0.7937 -0.6725 -0.7867
  575TMC3    H2 8586   3.998   1.046  11.562 -0.1214  1.1619 -0.6523
  575TMC3    C7 8587   4.040   1.231  11.383 -0.9161  0.0834 -0.7101
  575TMC3    C8 8588   4.001   1.080  11.830  0.4197 -0.0758 -0.3614
  575TMC3    O1 8589   4.000   1.323  11.311  0.5991 -0.5145  0.2585
  575TMC3    O2 8590   3.970   0.965  11.800  0.2164 -0.6597  0.0067
  576MPD2     C 8591   3.197   3.115  13.010 -0.5144  0.3289  0.2156
  576MPD2    C1 8592   3.280   3.225  13.005  0.2023  0.7122  0.1536
  576MPD2    C2 8593   3.284   3.312  13.107  0.1561 -0.1104  1.0763
  576MPD2    C3 8594   3.206   3.295  13.221 -0.7217 -0.2987 -0.6237
  576MPD2    C4 8595   3.128   3.181  13.224 -0.3169 -0.0137  0.2100
  576MPD2    C5 8596   3.120   3.091  13.123 -0.2238 -0.7909  0.0036
  576MPD2     H 8597   3.353   3.395  13.095  1.5489 -1.8063 -2.5089
  576MPD2    H1 8598   3.068   3.152  13.309 -0.3776  3.9132  1.5147
  576MPD2    H2 8599   3.186   3.052  12.923  0.0491  0.6682 -0.1015
  576MPD2    H3 8600   3.046   3.012  13.132 -2.0672  1.1495  1.9352
  576MPD2     N 8601   3.214   3.379  13.333 -0.0409  0.1712  0.3958
  576MPD2    H5 8602   3.289   3.448  13.329 -2.1453  2.3838 -0.7097
  576MPD2    N1 8603   3.363   3.250  12.888 -0.2575  0.2536  0.2427
  576MPD2    H7 8604   3.426   3.330  12.892  2.0607 -1.4489 -1.6744
  577TMC3    C1 8605   3.489   3.191  12.694  0.3473 -0.1084 -0.1886
  577TMC3    C2 8606   3.549   3.085  12.642 -0.9986  0.0019 -0.2616
  577TMC3    C3 8607   3.621   3.099  12.525 -0.2659  0.4500  0.3153
  577TMC3    C4 8608   3.477   3.314  12.635  0.1923 -0.0387 -0.4618
  577TMC3    C5 8609   3.541   3.328  12.513 -0.4922 -0.2971 -0.0199
  577TMC3    C6 8610   3.617   3.224  12.463  0.1228 -0.6376 -0.4051
  577TMC3     C 8611   3.388   3.152  12.789 -0.4048 -0.1096 -0.4305
  577TMC3     O 8612   3.333   3.041  12.764 -0.0732 -0.0266  0.4612
  577TMC3     H 8613   3.559   3.000  12.708 -1.4526  0.6216  0.6060
  577TMC3    H1 8614   3.404   3.383  12.676 -1.7820 -1.3893 -1.7192
  577TMC3    H2 8615   3.649   3.233  12.360 -0.2841 -0.7641 -0.5401
  577TMC3    C7 8616   3.521   3.450  12.436 -0.4619 -0.0434 -0.2182
  577TMC3    C8 8617   3.709   2.990  12.473 -0.2109 -0.1433  0.0608
  577TMC3    O1 8618   3.470   3.533  12.511 -0.4181  0.7978 -0.2711
  577TMC3    O2 8619   3.759   2.917  12.558 -0.0555 -0.3016  0.5769
  578MPD2     C 8620   1.497   3.096   1.352  0.3733  1.4411 -0.7251
  578MPD2    C1 8621   1.566   3.003   1.269 -0.1128 -0.3733 -0.8946
  578MPD2    C2 8622   1.704   2.979   1.273 -0.0027  0.4360 -0.1417
  578MPD2    C3 8623   1.773   3.039   1.377  0.0980  0.0293 -0.4877
  578MPD2    C4 8624   1.707   3.136   1.456  0.3485  0.4138  0.4372
  578MPD2    C5 8625   1.575   3.160   1.447  0.5892 -0.3085  0.8366
  578MPD2     H 8626   1.757   2.908   1.210  0.3329 -0.8244  1.5445
  578MPD2    H1 8627   1.761   3.194   1.530  2.8255  1.4700 -2.1978
  578MPD2    H2 8628   1.390   3.113   1.351  0.0715 -0.3360  0.4338
  578MPD2    H3 8629   1.535   3.229   1.520 -2.1366  0.3593 -1.2659
  578MPD2     N 8630   1.911   3.019   1.384  0.4848  0.2222 -0.4194
  578MPD2    H5 8631   1.953   2.961   1.312  1.7708  2.2309 -1.2964
  578MPD2    N1 8632   1.481   2.932   1.184  0.4199 -0.3214 -0.2542
  578MPD2    H7 8633   1.381   2.951   1.191  0.7441  0.4670  2.1315
  579TMC3    C1 8634   2.141   3.058   1.449  0.2712  0.2602  0.0859
  579TMC3    C2 8635   2.219   3.167   1.444 -0.0985 -0.0342 -0.3697
  579TMC3    C3 8636   2.347   3.159   1.394  0.0325  0.5905  0.4392
  579TMC3    C4 8637   2.183   2.938   1.412  0.1842 -0.8152 -0.3210
  579TMC3    C5 8638   2.314   2.930   1.372  0.5896 -1.1973  0.3018
  579TMC3    C6 8639   2.397   3.038   1.351 -0.2386  0.5070  0.0518
  579TMC3     C 8640   1.997   3.080   1.466  0.5938 -0.3116  0.1971
  579TMC3     O 8641   1.975   3.175   1.543 -0.2625 -0.7242 -0.1000
  579TMC3     H 8642   2.179   3.262   1.477  0.2154  0.3669 -1.1452
  579TMC3    H1 8643   2.126   2.852   1.444 -0.8757  0.9351  2.4470
  579TMC3    H2 8644   2.504   3.023   1.342 -0.3243  0.3304 -0.6286
  579TMC3    C7 8645   2.376   2.799   1.356  0.4459 -0.3923  0.4175
  579TMC3    C8 8646   2.441   3.263   1.427 -0.0644  0.1823  0.2421
  579TMC3    O1 8647   2.494   2.792   1.356 -1.5892  0.2413  0.4483
  579TMC3    O2 8648   2.433   3.306   1.540  0.7576  0.3118  0.3686
  580TMC3    C1 8649   1.073   2.395  12.387 -0.0333  0.0857  0.1202
  580TMC3    C2 8650   1.102   2.515  12.440  0.2335  0.2061  0.1676
  580TMC3    C3 8651   1.213   2.524  12.523 -0.6252 -0.0736  0.1067
  580TMC3    C4 8652   1.156   2.284  12.409 -0.2958  0.0023  0.3307
  580TMC3    C5 8653   1.258   2.297  12.495  0.2625  0.3318  0.4926
  580TMC3    C6 8654   1.277   2.412  12.561  0.2685 -0.1682  0.4304
  580TMC3     C 8655   0.985   2.401  12.274  0.5686 -0.2303  0.0530
  580TMC3     O 8656   0.880   2.340  12.271 -0.1192  0.2212  0.4862
  580TMC3     H 8657   1.043   2.604  12.421 -1.0976  0.1566  4.1367
  580TMC3    H1 8658   1.133   2.191  12.359  2.1762 -0.4796  0.0512
  580TMC3    H2 8659   1.348   2.409  12.644 -0.7830 -1.0615  1.2926
  580TMC3    C7 8660   1.310   2.175  12.546  0.1476 -0.1284 -0.2766
  580TMC3    C8 8661   1.291   2.647  12.508 -0.5764  0.3893  0.2091
  580TMC3    O1 8662   1.350   2.174  12.661  0.3276  0.1339  0.3288
  580TMC3    O2 8663   1.240   2.749  12.463  0.0729  0.1545 -0.1852
  581MPD2     C 8664   4.521   2.180  14.894  0.5150  0.3316  0.5239
  581MPD2    C1 8665   4.431   2.083  14.848  0.0966  0.1772  0.2689
  581MPD2    C2 8666   4.306   2.121  14.803 -0.3628  0.0677  0.2126
  581MPD2    C3 8667   4.260   2.250  14.815 -0.1873  0.3193 -0.5495
  581MPD2    C4 8668   4.346   2.340  14.873 -0.5246  0.4044 -1.0030
  581MPD2    C5 8669   4.472   2.309  14.897  0.1062  0.4952  0.3728
  581MPD2     H 8670   4.246   2.048  14.750 -3.5078  0.8438  2.7057
  581MPD2    H1 8671   4.327   2.447  14.879  0.7384  0.4050  3.2238
  581MPD2    H2 8672   4.616   2.153  14.939 -0.4529 -1.9619  1.1881
  581MPD2    H3 8673   4.525   2.392  14.942  2.0979 -1.2401  1.2665
  581MPD2     N 8674   4.131   2.302  14.778 -0.4608  0.3585  0.1853
  581MPD2    H5 8675   4.118   2.399  14.805  3.5693  0.3155  2.2712
  581MPD2    N1 8676   4.444   1.946  14.876 -0.1083 -0.1487 -0.5054
  581MPD2    H7 8677   4.367   1.883  14.856 -0.7141  0.4863 -0.1579
  582TMC3    C1 8678   4.528   1.747  14.980 -0.6839 -0.3258  0.4769
  582TMC3    C2 8679   4.628   1.688  15.054  0.0284  0.0234 -0.3470
  582TMC3    C3 8680   4.606   1.568  15.112 -0.0081  0.0800 -0.2061
  582TMC3    C4 8681   4.402   1.695  14.973  0.4578 -0.0839 -0.2338
  582TMC3    C5 8682   4.382   1.571  15.029  0.0090 -0.3430  0.5763
  582TMC3    C6 8683   4.486   1.510  15.096  0.0124  0.4580 -0.0973
  582TMC3     C 8684   4.539   1.885  14.949  0.0682  0.5923 -0.0772
  582TMC3     O 8685   4.646   1.940  14.971 -0.4629 -0.2515  0.4770
  582TMC3     H 8686   4.726   1.730  15.070 -0.6435  0.5208  2.4556
  582TMC3    H1 8687   4.323   1.752  14.924 -0.5726 -1.1438  0.2080
  582TMC3    H2 8688   4.459   1.434  15.169 -0.1789  2.1539  1.6044
  582TMC3    C7 8689   4.255   1.548  15.100  0.3690 -0.4661  0.4181
  582TMC3    C8 8690   4.630   1.594  15.247  0.0082 -0.4851  0.1286
  582TMC3    O1 8691   4.229   1.432  15.136  0.0308 -0.3901  0.3830
  582TMC3    O2 8692   4.537   1.633  15.312  0.0182  0.5872  0.1282
  583MPD2     C 8693   4.290   3.520  16.711  0.3709  0.6755  0.2085
  583MPD2    C1 8694   4.304   3.640  16.633 -0.3247 -0.8639  0.2913
  583MPD2    C2 8695   4.241   3.756  16.681 -0.0745  0.1566 -0.9058
  583MPD2    C3 8696   4.167   3.762  16.796 -0.1495  0.2882  0.3039
  583MPD2    C4 8697   4.144   3.637  16.853 -0.4443 -0.6600  0.0071
  583MPD2    C5 8698   4.204   3.525  16.817 -0.0398  0.2306 -0.0072
  583MPD2     H 8699   4.242   3.841  16.613 -2.5895  1.5031  0.7275
  583MPD2    H1 8700   4.082   3.631  16.942  1.2884 -1.6957  1.1496
  583MPD2    H2 8701   4.336   3.430  16.673  1.3452  1.4715 -0.5080
  583MPD2    H3 8702   4.188   3.434  16.875  0.1492  0.8305  0.9834
  583MPD2     N 8703   4.098   3.882  16.844 -0.2349  0.6630  0.1894
  583MPD2    H5 8704   4.093   3.960  16.779  0.8849 -0.3084 -1.0644
  583MPD2    N1 8705   4.368   3.642  16.506 -0.1284  0.3303 -0.4585
  583MPD2    H7 8706   4.360   3.727  16.451 -0.5456 -0.0868 -1.0464
  584TMC3    C1 8707   3.974   4.018  16.987 -0.1279  0.2475  0.6915
  584TMC3    C2 8708   3.952   4.117  16.894 -0.6238  0.3261 -0.3819
  584TMC3    C3 8709   3.896   4.241  16.934  0.2094  0.9843 -0.0044
  584TMC3    C4 8710   3.910   4.026  17.105 -0.7268  0.4603  0.4619
  584TMC3    C5 8711   3.855   4.145  17.145 -0.6272 -0.1487  0.3254
  584TMC3    C6 8712   3.841   4.258  17.067  0.1047  0.8681 -0.2083
  584TMC3     C 8713   4.057   3.903  16.968  0.5229  0.2686  0.4150
  584TMC3     O 8714   4.063   3.831  17.065  0.1660  0.0085  0.0840
  584TMC3     H 8715   3.994   4.101  16.795 -0.5693 -0.4510 -0.2308
  584TMC3    H1 8716   3.923   3.943  17.173  5.5575 -1.9058 -3.6447
  584TMC3    H2 8717   3.803   4.351  17.108  0.9605 -0.0504  2.6578
  584TMC3    C7 8718   3.786   4.150  17.272  0.0376 -0.7232 -0.2787
  584TMC3    C8 8719   3.916   4.357  16.849  0.1812 -0.4677 -0.1658
  584TMC3    O1 8720   3.790   4.043  17.335 -0.1550  0.1181 -0.5656
  584TMC3    O2 8721   3.901   4.346  16.726  0.1415 -0.7833  0.1106
  585MPD2     C 8722   2.852   2.938  17.599  0.6609  0.0016 -0.5387
  585MPD2    C1 8723   2.968   2.969  17.534 -0.2308  0.4366  0.1539
  585MPD2    C2 8724   3.046   2.871  17.481 -0.6079 -0.1832  0.6227
  585MPD2    C3 8725   3.018   2.749  17.522 -0.0704 -0.1084  0.1586
  585MPD2    C4 8726   2.900   2.716  17.580  0.0218  0.1673  0.0353
  585MPD2    C5 8727   2.805   2.811  17.605 -0.7435  0.3505  0.0362
  585MPD2     H 8728   3.135   2.892  17.423 -0.4357 -2.1177  0.1884
  585MPD2    H1 8729   2.869   2.616  17.608 -0.3532  0.8921  2.2167
  585MPD2    H2 8730   2.793   3.019  17.642 -0.6731 -0.2232 -1.9315
  585MPD2    H3 8731   2.709   2.789  17.651 -1.4706  0.9180 -1.2123
  585MPD2     N 8732   3.103   2.639  17.499 -0.2490  0.2554 -0.1121
  585MPD2    H5 8733   3.077   2.545  17.528  0.1073  0.2786  0.2817
  585MPD2    N1 8734   3.004   3.107  17.519  0.2294  0.2164  0.3857
  585MPD2    H7 8735   2.935   3.161  17.569 -1.2394 -2.6982  1.4854
  586TMC3    C1 8736   3.287   2.510  17.449  0.0387  0.1195 -0.5336
  586TMC3    C2 8737   3.425   2.502  17.442  0.0755 -0.2541 -0.2803
  586TMC3    C3 8738   3.478   2.382  17.448  0.1249 -0.5301  0.4538
  586TMC3    C4 8739   3.207   2.395  17.451  0.2481 -0.4997  0.5018
  586TMC3    C5 8740   3.270   2.276  17.470  0.4873  0.1913  0.1092
  586TMC3    C6 8741   3.402   2.270  17.465 -0.3796  0.3300 -0.0561
  586TMC3     C 8742   3.234   2.640  17.458  0.4296  0.6056  0.7050
  586TMC3     O 8743   3.301   2.736  17.416  0.5566 -0.4623 -0.2680
  586TMC3     H 8744   3.488   2.589  17.426  0.1484 -0.2758 -0.1096
  586TMC3    H1 8745   3.099   2.383  17.458  0.1890 -0.4306 -0.2927
  586TMC3    H2 8746   3.448   2.172  17.459 -0.3238  0.3497  0.0500
  586TMC3    C7 8747   3.206   2.169  17.398 -0.8232 -0.6151 -0.3119
  586TMC3    C8 8748   3.587   2.346  17.358 -0.8299 -0.7275 -0.3141
  586TMC3    O1 8749   3.091   2.130  17.427  0.2716 -0.2091 -0.5762
  586TMC3    O2 8750   3.656   2.261  17.403  0.2615 -0.2891 -0.2648
  587TMC3    C1 8751   1.378   1.438  17.012 -0.3389  0.4873  0.7578
  587TMC3    C2 8752   1.307   1.527  16.941  0.3148 -0.7037 -0.3297
  587TMC3    C3 8753   1.388   1.623  16.879 -0.0841 -0.4108  0.5469
  587TMC3    C4 8754   1.511   1.420  17.010 -0.9874 -0.5360  0.4510
  587TMC3    C5 8755   1.584   1.516  16.951 -0.7037  1.3700  0.2691
  587TMC3    C6 8756   1.517   1.617  16.882  0.8505 -0.2432  0.6231
  587TMC3     C 8757   1.311   1.319  17.056  0.0533 -0.3725 -0.1970
  587TMC3     O 8758   1.360   1.237  17.131 -0.3143 -0.2392  0.0290
  587TMC3     H 8759   1.199   1.537  16.946  0.4075 -0.4904  1.1472
  587TMC3    H1 8760   1.549   1.336  17.068  2.1517  0.4806 -0.1473
  587TMC3    H2 8761   1.583   1.666  16.811 -0.6835 -0.3726 -0.8743
  587TMC3    C7 8762   1.719   1.475  16.924 -0.1408 -0.3517 -0.1409
  587TMC3    C8 8763   1.341   1.718  16.777 -0.5694  0.8615 -0.2618
  587TMC3    O1 8764   1.747   1.357  16.945 -0.1153 -1.0781  0.5578
  587TMC3    O2 8765   1.413   1.750  16.686 -0.0892 -0.3324 -0.0851
  588TMC3    C1 8766   2.912   3.870  10.270  0.2933  0.5835  0.2070
  588TMC3    C2 8767   2.912   3.733  10.240 -0.4877 -0.0110  0.2250
  588TMC3    C3 8768   3.012   3.660  10.291  0.3810  0.7078  0.4287
  588TMC3    C4 8769   3.010   3.936  10.344  0.0570 -0.8633 -0.3832
  588TMC3    C5 8770   3.109   3.848  10.388  0.6235 -0.7730 -0.0694
  588TMC3    C6 8771   3.115   3.711  10.364 -0.0515 -0.2680  0.7546
  588TMC3     C 8772   2.812   3.958  10.208 -0.2149 -0.0978 -0.0682
  588TMC3     O 8773   2.763   3.937  10.100  1.0396 -0.0300 -0.6394
  588TMC3     H 8774   2.857   3.699  10.153  0.5568 -3.0632  0.7623
  588TMC3    H1 8775   3.034   4.041  10.347 -0.5600 -0.7623  0.8669
  588TMC3    H2 8776   3.205   3.661  10.399  0.1191  0.5584  1.4917
  588TMC3    C7 8777   3.195   3.903  10.487 -0.2902 -0.5451  0.5910
  588TMC3    C8 8778   3.024   3.519  10.248 -0.1246 -0.5191  0.3540
  588TMC3    O1 8779   3.304   3.851  10.501 -0.0882  0.3763  0.1166
  588TMC3    O2 8780   2.951   3.482  10.158  0.1819 -0.3903  0.2273
  589TMC3    C1 8781   1.946   0.827   1.174 -0.3764  0.7862 -0.0450
  589TMC3    C2 8782   2.029   0.906   1.244  0.5708  0.7375 -0.1749
  589TMC3    C3 8783   2.125   0.965   1.165 -0.0539  0.1217 -0.0824
  589TMC3    C4 8784   1.941   0.820   1.036  0.5531  0.0832  0.5275
  589TMC3    C5 8785   2.038   0.873   0.967 -0.2570  0.1911 -0.0040
  589TMC3    C6 8786   2.139   0.944   1.032  0.8551 -0.7041  0.3412
  589TMC3     C 8787   1.837   0.765   1.254 -0.1358 -0.1649  0.1207
  589TMC3     O 8788   1.806   0.649   1.235  0.1195 -0.0948 -0.3987
  589TMC3     H 8789   2.029   0.917   1.351 -1.5135 -0.4702 -0.0536
  589TMC3    H1 8790   1.873   0.744   0.998 -0.4595  1.7337 -0.9659
  589TMC3    H2 8791   2.219   0.987   0.973  0.5296  0.4859  0.7585
  589TMC3    C7 8792   2.041   0.860   0.821  0.2810 -1.1767  0.2733
  589TMC3    C8 8793   2.225   1.023   1.253  0.4758 -0.5533 -0.2830
  589TMC3    O1 8794   2.147   0.855   0.758 -0.0658  0.3527 -0.6810
  589TMC3    O2 8795   2.197   1.055   1.370 -0.0698  0.0674  0.4486
  590MPD2     C 8796   2.008   4.097  16.607  0.8170  0.2040 -0.5930
  590MPD2    C1 8797   1.963   4.226  16.615 -0.4288 -0.3541 -0.1820
  590MPD2    C2 8798   2.052   4.330  16.588  0.0615 -0.2321  0.3263
  590MPD2    C3 8799   2.180   4.307  16.534  0.2958  0.3418 -0.2972
  590MPD2    C4 8800   2.223   4.180  16.516 -0.1198 -0.5097  0.4096
  590MPD2    C5 8801   2.139   4.079  16.561 -0.0519  0.7505 -0.1435
  590MPD2     H 8802   2.016   4.432  16.594 -0.9048 -0.5342 -0.4350
  590MPD2    H1 8803   2.309   4.149  16.459 -0.1686  4.0549 -2.1191
  590MPD2    H2 8804   1.950   4.009  16.636 -0.9243  0.8471 -2.1352
  590MPD2    H3 8805   2.180   3.979  16.554  0.6024  1.1508 -2.0890
  590MPD2     N 8806   2.261   4.412  16.496  0.0240  0.0457 -0.0703
  590MPD2    H5 8807   2.233   4.504  16.527 -0.5811 -0.1647  0.0222
  590MPD2    N1 8808   1.834   4.266  16.636  0.4082 -0.1986  0.0531
  590MPD2    H7 8809   1.809   4.363  16.616  0.3832  0.1790  1.8895
  591TMC3    C1 8810   2.390   4.547  16.357 -0.4841  0.3916  0.5884
  591TMC3    C2 8811   2.503   4.568  16.283 -0.1963  0.0133 -0.2576
  591TMC3    C3 8812   2.525   4.698  16.246  0.3436 -0.6772  0.6674
  591TMC3    C4 8813   2.292   4.646  16.372 -0.1263  0.6718 -0.4571
  591TMC3    C5 8814   2.312   0.023  16.315  0.3647 -0.7175 -0.0844
  591TMC3    C6 8815   2.429   0.056  16.254  0.1961  0.5375 -0.5649
  591TMC3     C 8816   2.345   4.415  16.391  0.6906  0.2465 -0.3955
  591TMC3     O 8817   2.393   4.319  16.334  0.1622  0.4901  0.4099
  591TMC3     H 8818   2.578   4.490  16.276  0.0396  0.2790 -0.6671
  591TMC3    H1 8819   2.196   4.628  16.419  1.9833 -1.7684  2.8036
  591TMC3    H2 8820   2.434   0.145  16.192  0.9299  1.2367  0.5068
  591TMC3    C7 8821   2.191   0.099  16.280  0.4533  0.1345  0.1222
  591TMC3    C8 8822   2.653   4.732  16.179  0.1094 -0.4181  0.0509
  591TMC3    O1 8823   2.085   0.039  16.293  0.3178 -0.2014 -0.4192
  591TMC3    O2 8824   2.721   4.640  16.137  0.2955  0.4473 -0.8128
  592MPD2     C 8825   2.396   1.876  11.492 -0.4156 -0.0474  1.1748
  592MPD2    C1 8826   2.368   1.917  11.620 -0.5647  0.1639 -0.6835
  592MPD2    C2 8827   2.280   1.841  11.709  0.0094  0.1897 -0.4904
  592MPD2    C3 8828   2.236   1.718  11.668  0.1619 -0.0728  0.1371
  592MPD2    C4 8829   2.277   1.666  11.546  0.2082 -0.8001 -0.6273
  592MPD2    C5 8830   2.349   1.748  11.458 -0.2107  0.2321  0.1164
  592MPD2     H 8831   2.243   1.873  11.806 -2.3233 -1.4793 -0.8243
  592MPD2    H1 8832   2.247   1.566  11.516  1.6691 -1.6578  0.8127
  592MPD2    H2 8833   2.461   1.930  11.424 -1.2944  0.0170  0.3856
  592MPD2    H3 8834   2.384   1.711  11.363 -1.2411  0.6231 -0.4155
  592MPD2     N 8835   2.144   1.647  11.750 -0.4082  0.0480 -0.0650
  592MPD2    H5 8836   2.136   1.701  11.836 -2.0902 -0.7120  0.2571
  592MPD2    N1 8837   2.425   2.043  11.647  0.7829 -0.1659 -0.0669
  592MPD2    H7 8838   2.473   2.091  11.571 -0.0372  0.7103 -0.0374
  593TMC3    C1 8839   2.509   2.229  11.760 -0.9384  0.4183  0.9264
  593TMC3    C2 8840   2.541   2.288  11.877  0.6219 -0.7819  0.2901
  593TMC3    C3 8841   2.621   2.401  11.868  0.2192 -0.5338  0.4522
  593TMC3    C4 8842   2.557   2.278  11.635 -0.6999 -0.1735 -0.1702
  593TMC3    C5 8843   2.629   2.397  11.644  0.5992 -0.2892  0.1101
  593TMC3    C6 8844   2.677   2.450  11.754 -0.0720  0.4911 -0.6736
  593TMC3     C 8845   2.437   2.102  11.771 -0.0606 -0.2144  0.2249
  593TMC3     O 8846   2.390   2.067  11.880  0.0169  0.0889  0.0244
  593TMC3     H 8847   2.489   2.266  11.970  0.3476 -2.3576 -0.2508
  593TMC3    H1 8848   2.511   2.254  11.541  0.3448  1.2329 -1.0350
  593TMC3    H2 8849   2.723   2.548  11.756  0.9255  0.0119 -0.2855
  593TMC3    C7 8850   2.700   2.453  11.526 -0.1377 -0.5220 -0.6271
  593TMC3    C8 8851   2.624   2.482  11.989  0.1031  0.2278 -0.0891
  593TMC3    O1 8852   2.748   2.564  11.531  0.5001  0.9865 -0.1021
  593TMC3    O2 8853   2.558   2.436  12.082 -0.5803 -0.7053 -0.0248
  594MPD2     C 8854   1.077   0.744  14.409  0.2610  0.3819 -0.2378
  594MPD2    C1 8855   1.077   0.712  14.542 -0.3095 -0.3745 -0.2665
  594MPD2    C2 8856   1.168   0.764  14.628 -0.6792  0.4653  0.2671
  594MPD2    C3 8857   1.274   0.843  14.580 -0.7789 -0.7881 -0.1664
  594MPD2    C4 8858   1.279   0.865  14.443  0.2728 -0.6152  0.6271
  594MPD2    C5 8859   1.182   0.816  14.354  0.1914 -0.2522  0.2556
  594MPD2     H 8860   1.158   0.739  14.733  1.4917 -2.4264 -0.2218
  594MPD2    H1 8861   1.361   0.920  14.399 -1.0500  2.7404  2.3836
  594MPD2    H2 8862   1.006   0.703  14.338  0.5151  1.0786 -0.8963
  594MPD2    H3 8863   1.180   0.850  14.251 -1.7864 -0.0142  0.3767
  594MPD2     N 8864   1.377   0.882  14.668 -0.1759  0.2128  0.0554
  594MPD2    H5 8865   1.371   0.855  14.766  1.5456  1.0265  0.3937
  594MPD2    N1 8866   0.969   0.627  14.570  0.2651  0.1199 -0.0164
  594MPD2    H7 8867   0.920   0.599  14.486  0.1229 -1.3831  0.5597
  595TMC3    C1 8868   1.798   0.879  14.810 -0.3194  0.1087 -0.7534
  595TMC3    C2 8869   1.716   0.893  14.705  0.2205 -0.1045  0.4790
  595TMC3    C3 8870   1.592   0.947  14.733 -0.4481  0.0278  0.3344
  595TMC3    C4 8871   1.761   0.892  14.941 -0.1803 -0.4412  0.3987
  595TMC3    C5 8872   1.634   0.938  14.970  0.4158 -0.4191 -0.5552
  595TMC3    C6 8873   1.549   0.959  14.863 -0.3880 -0.2795 -0.4350
  595TMC3     C 8874   1.917   0.962  14.792 -0.5529  0.1713 -0.4440
  595TMC3     O 8875   1.938   1.044  14.884 -0.3195  0.3004 -0.5091
  595TMC3     H 8876   1.740   0.893  14.599 -0.7937 -2.6131  0.2599
  595TMC3    H1 8877   1.839   0.883  15.016  0.3386  1.9605  0.1310
  595TMC3    H2 8878   1.452   1.005  14.878  0.3402  1.4472 -1.0074
  595TMC3    C7 8879   1.638   1.046  15.073  0.6343 -0.3167  0.0514
  595TMC3    C8 8880   1.498   0.935  14.626  0.2969 -0.4672 -0.5568
  595TMC3    O1 8881   1.532   1.072  15.113  0.2429  0.2687 -0.0878
  595TMC3    O2 8882   1.532   0.978  14.517 -0.1030 -0.0245  0.4399
  596MPD2     C 8883   0.309   3.370  16.846  0.5725  0.6353 -0.4454
  596MPD2    C1 8884   0.307   3.490  16.771  0.0029 -0.4630 -0.7697
  596MPD2    C2 8885   0.334   3.491  16.639  0.0539  0.4812 -0.0030
  596MPD2    C3 8886   0.362   3.375  16.573 -0.5730  0.2267  0.4224
  596MPD2    C4 8887   0.374   3.258  16.643 -0.0685  0.3739 -0.0238
  596MPD2    C5 8888   0.339   3.254  16.780  0.0258  0.6543  0.3906
  596MPD2     H 8889   0.312   3.580  16.582 -2.3541 -1.2414 -1.7411
  596MPD2    H1 8890   0.388   3.160  16.597 -2.9142  0.0184 -0.1273
  596MPD2    H2 8891   0.291   3.374  16.953 -0.4595 -4.6428 -0.4331
  596MPD2    H3 8892   0.341   3.156  16.827  2.4239  0.1486 -0.7267
  596MPD2     N 8893   0.393   3.367  16.440 -0.1293  0.0759 -0.3234
  596MPD2    H5 8894   0.409   3.272  16.408 -0.4958  0.6510 -2.2122
  596MPD2    N1 8895   0.249   3.606  16.823  0.4155 -0.0229  0.2590
  596MPD2    H7 8896   0.264   3.684  16.759  1.3165 -0.7378 -0.3973
  597TMC3    C1 8897   0.164   3.761  16.961 -0.2654 -0.3566 -0.1147
  597TMC3    C2 8898   0.254   3.852  16.911 -0.0116 -0.1514  0.4704
  597TMC3    C3 8899   0.228   3.980  16.944  0.3874  0.2882 -0.0503
  597TMC3    C4 8900   0.066   3.793  17.048  0.1887  0.4496  0.4940
  597TMC3    C5 8901   0.047   3.924  17.081  0.0686  0.2216 -0.0631
  597TMC3    C6 8902   0.134   4.019  17.033 -0.2134  0.2078  0.4621
  597TMC3     C 8903   0.196   3.627  16.948  0.1373  0.2297  0.4307
  597TMC3     O 8904   0.164   3.556  17.043  0.2045 -0.1121  0.6104
  597TMC3     H 8905   0.340   3.823  16.852 -0.3738  2.6393 -1.4485
  597TMC3    H1 8906   0.001   3.710  17.073  1.1593 -0.2474  0.7175
  597TMC3    H2 8907   0.118   4.124  17.053  0.4467  0.3705  0.1300
  597TMC3    C7 8908   4.665   3.966  17.143  0.0398  0.0749  0.1830
  597TMC3    C8 8909   0.326   4.077  16.908  0.0144  0.1889 -0.1005
  597TMC3    O1 8910   4.606   3.873  17.195 -0.1457  0.1310 -0.8878
  597TMC3    O2 8911   0.337   4.165  16.985 -0.3706 -0.0759 -0.0385
  598TMC3    C1 8912   3.277   0.425  15.309  0.7667 -0.0645  0.0439
  598TMC3    C2 8913   3.210   0.308  15.317  0.1735  0.1525  0.3673
  598TMC3    C3 8914   3.127   0.287  15.209  0.9516  0.6671 -0.0015
  598TMC3    C4 8915   3.251   0.529  15.224 -0.0723 -0.0664  0.2285
  598TMC3    C5 8916   3.167   0.502  15.117 -0.5170 -0.4101  0.0703
  598TMC3    C6 8917   3.107   0.377  15.110 -0.0588  0.4620  0.0061
  598TMC3     C 8918   3.409   0.433  15.369  0.1301 -0.5183 -0.0550
  598TMC3     O 8919   3.488   0.508  15.319  0.0618  0.2367  0.3557
  598TMC3     H 8920   3.235   0.230  15.388  0.1272  0.8778  1.1959
  598TMC3    H1 8921   3.294   0.627  15.242  0.3679 -0.4676  1.4230
  598TMC3    H2 8922   3.023   0.360  15.043  2.3782 -1.7371 -2.4725
  598TMC3    C7 8923   3.186   0.568  14.990 -0.1439  1.0369 -0.9388
  598TMC3    C8 8924   3.068   0.156  15.205  0.5208  0.3404 -0.3975
  598TMC3    O1 8925   3.106   0.538  14.901  0.0794  0.2171 -0.5846
  598TMC3    O2 8926   3.069   0.082  15.305  0.2351  0.2168 -0.4817
  599MPD2     C 8927   3.707   2.608  15.870  0.0939  0.3033 -0.4423
  599MPD2    C1 8928   3.623   2.501  15.868 -0.7106 -0.5104 -0.3515
  599MPD2    C2 8929   3.496   2.500  15.928 -0.2577  0.4292 -0.2690
  599MPD2    C3 8930   3.453   2.614  15.996 -0.3362  0.8980  0.7656
  599MPD2    C4 8931   3.531   2.722  15.992 -0.2260 -0.5929 -0.7144
  599MPD2    C5 8932   3.656   2.718  15.937  0.2943 -0.0023 -0.7939
  599MPD2     H 8933   3.428   2.419  15.906  1.4722 -0.5713 -1.9100
  599MPD2    H1 8934   3.503   2.814  16.042 -1.1147  0.0117 -2.2959
  599MPD2    H2 8935   3.805   2.609  15.824 -0.8092 -1.5194 -2.3641
  599MPD2    H3 8936   3.720   2.803  15.958  2.0190 -1.2162 -1.2343
  599MPD2     N 8937   3.337   2.616  16.077 -0.4542  0.2561  0.8389
  599MPD2    H5 8938   3.325   2.684  16.151  0.5037  1.6406 -0.2943
  599MPD2    N1 8939   3.688   2.385  15.821 -0.5643 -0.5318 -0.1591
  599MPD2    H7 8940   3.782   2.391  15.784 -0.4376  0.5207  0.3352
  600TMC3    C1 8941   3.141   2.550  16.175 -0.6553 -0.3011 -0.4668
  600TMC3    C2 8942   3.064   2.446  16.219 -0.0453  0.6311  0.8815
  600TMC3    C3 8943   2.962   2.480  16.313  0.2291 -0.0321  0.5955
  600TMC3    C4 8944   3.122   2.680  16.212  0.4692  0.6829  0.3176
  600TMC3    C5 8945   3.024   2.704  16.300  0.3085  0.0077  0.4539
  600TMC3    C6 8946   2.950   2.606  16.360 -0.1117 -0.3753 -0.3811
  600TMC3     C 8947   3.231   2.530  16.062 -0.5062  0.6006  0.1441
  600TMC3     O 8948   3.214   2.428  15.992 -1.0136 -0.1709 -0.2612
  600TMC3     H 8949   3.080   2.346  16.181 -1.2648  1.0439 -0.6793
  600TMC3    H1 8950   3.182   2.760  16.170 -0.7152  2.0899  1.3213
  600TMC3    H2 8951   2.870   2.637  16.426  0.9915  0.2939  0.6260
  600TMC3    C7 8952   3.016   2.840  16.357 -0.7903  0.5028 -0.3523
  600TMC3    C8 8953   2.901   2.369  16.376  0.2189  0.5727 -0.0682
  600TMC3    O1 8954   2.934   2.847  16.447 -0.1774 -0.3394 -0.6386
  600TMC3    O2 8955   2.950   2.257  16.344  0.2441  0.3586  0.4841
  601MPD2     C 8956   0.552   0.969   0.430  0.1322 -0.3558  0.0068
  601MPD2    C1 8957   0.439   0.887   0.436  0.2816  0.5450  0.2167
  601MPD2    C2 8958   0.451   0.753   0.426 -0.4813  0.0492  0.1093
  601MPD2    C3 8959   0.578   0.697   0.406  0.1308 -0.5641  0.2040
  601MPD2    C4 8960   0.689   0.775   0.403 -0.0484  0.1052 -0.2352
  601MPD2    C5 8961   0.674   0.911   0.417  1.2081 -0.3332  0.0333
  601MPD2     H 8962   0.361   0.692   0.424 -0.8890  0.6232  1.3028
  601MPD2    H1 8963   0.789   0.734   0.390 -0.3704 -1.4624  2.1759
  601MPD2    H2 8964   0.553   1.077   0.432 -1.7615 -0.3063 -1.2756
  601MPD2    H3 8965   0.759   0.977   0.406  0.8899  0.2859  1.2581
  601MPD2     N 8966   0.601   0.556   0.382  0.4733 -0.1445 -0.0160
  601MPD2    H5 8967   0.696   0.522   0.369  0.6619  0.5221 -0.3584
  601MPD2    N1 8968   0.308   0.938   0.433  0.8858 -0.0782  0.1596
  601MPD2    H7 8969   0.235   0.874   0.404  1.1335 -1.0450  1.6538
  602TMC3    C1 8970   0.143   1.110   0.411 -0.9380 -0.6356  0.4174
  602TMC3    C2 8971   0.140   1.245   0.381 -0.5726  1.0475 -0.1272
  602TMC3    C3 8972   0.053   1.284   0.281 -0.5844 -0.7027  0.4102
  602TMC3    C4 8973   0.060   1.023   0.341  0.4271 -0.6328  0.5972
  602TMC3    C5 8974   4.707   1.065   0.257  0.0270  0.4561  0.1997
  602TMC3    C6 8975   4.703   1.197   0.220 -0.4690  0.5382 -0.5418
  602TMC3     C 8976   0.273   1.072   0.457  0.3456  0.2052  0.4997
  602TMC3     O 8977   0.341   1.160   0.514 -0.2085 -0.2316  0.4427
  602TMC3     H 8978   0.208   1.315   0.427  2.3422 -0.8397 -1.5886
  602TMC3    H1 8979   0.073   0.916   0.355  0.0936 -0.6007  1.1523
  602TMC3    H2 8980   4.615   1.233   0.167 -0.6478  1.4143  0.3483
  602TMC3    C7 8981   4.648   0.959   0.179  0.0617 -0.1028  0.2374
  602TMC3    C8 8982   0.110   1.379   0.194  0.1279 -0.5648 -0.1252
  602TMC3    O1 8983   4.634   0.846   0.223 -0.3166 -1.0606  0.5495
  602TMC3    O2 8984   0.199   1.451   0.226 -0.2440  0.0175  0.2642
  603TMC3    C1 8985   3.684   1.213  11.220  0.2106 -0.2019 -0.7035
  603TMC3    C2 8986   3.702   1.178  11.349  0.0519 -0.1471  0.4878
  603TMC3    C3 8987   3.710   1.276  11.447 -0.4455  0.1392  1.1234
  603TMC3    C4 8988   3.668   1.348  11.184  0.4254  0.0382  0.0693
  603TMC3    C5 8989   3.665   1.439  11.279  0.1007  0.1291 -0.6884
  603TMC3    C6 8990   3.695   1.409  11.409 -0.2900  0.5265 -0.8710
  603TMC3     C 8991   3.706   1.109  11.124 -0.4718  0.4101  0.3431
  603TMC3     O 8992   3.781   1.018  11.157  0.9269  0.1358 -0.1805
  603TMC3     H 8993   3.716   1.077  11.386  2.8472 -1.5119 -4.2300
  603TMC3    H1 8994   3.662   1.373  11.078 -1.9494  0.6276  0.3555
  603TMC3    H2 8995   3.680   1.495  11.474  0.4579 -1.0076  1.3435
  603TMC3    C7 8996   3.623   1.578  11.251 -0.3990 -0.5454 -0.5273
  603TMC3    C8 8997   3.697   1.232  11.590 -0.3790  0.3578 -0.1472
  603TMC3    O1 8998   3.634   1.666  11.336  0.0704 -0.3980 -0.5206
  603TMC3    O2 8999   3.682   1.113  11.612  0.4996 -0.0748 -0.0498
  604MPD2     C 9000   4.420   0.075  16.110 -0.6460  0.5720  0.3944
  604MPD2    C1 9001   4.321   4.734  16.062  0.2390 -0.1469 -0.0849
  604MPD2    C2 9002   4.341   4.674  15.942 -0.6792  0.5194  0.2293
  604MPD2    C3 9003   4.467   4.675  15.885 -0.2655 -0.1432  0.4831
  604MPD2    C4 9004   4.562   0.014  15.941 -0.3378  0.0571 -1.3883
  604MPD2    C5 9005   4.545   0.088  16.058  0.0852 -0.8900 -0.0163
  604MPD2     H 9006   4.275   4.605  15.892  0.2680  0.2630 -0.6628
  604MPD2    H1 9007   4.660   0.028  15.896  0.2941 -0.8863 -0.2947
  604MPD2    H2 9008   4.399   0.119  16.207  2.1174  2.7807 -0.0309
  604MPD2    H3 9009   4.617   0.163  16.088  0.5501 -1.8691  1.2970
  604MPD2     N 9010   4.487   4.608  15.769  0.0653  0.1127 -0.2756
  604MPD2    H5 9011   4.406   4.557  15.734  0.7285 -1.8229  1.0459
  604MPD2    N1 9012   4.207   4.715  16.142 -0.9275  0.6144 -0.7807
  604MPD2    H7 9013   4.213   0.013  16.235  0.8858  1.6192 -1.3129
  605TMC3    C1 9014   3.997   4.652  16.210 -0.4500 -0.0190 -0.8527
  605TMC3    C2 9015   4.054   4.658  16.330 -0.4428  0.0393  0.5733
  605TMC3    C3 9016   4.024   0.016  16.417  0.7830  0.0018 -0.0017
  605TMC3    C4 9017   3.901   0.001  16.182 -0.2079  0.0630 -0.0834
  605TMC3    C5 9018   3.867   0.095  16.273 -0.0955  0.4510  1.0442
  605TMC3    C6 9019   3.914   0.092  16.396 -0.2098 -0.2830  0.3683
  605TMC3     C 9020   4.092   4.649  16.104  0.3623  0.1234  0.5168
  605TMC3     O 9021   4.063   4.586  16.006  0.1012  0.0962 -0.3710
  605TMC3     H 9022   4.141   4.597  16.350 -0.1645  0.0070 -0.7161
  605TMC3    H1 9023   3.870   0.009  16.078  0.3333  1.0137 -0.1658
  605TMC3    H2 9024   3.890   0.172  16.466 -0.5599 -1.2503  1.3653
  605TMC3    C7 9025   3.784   0.206  16.237 -0.3643 -0.4905  0.0890
  605TMC3    C8 9026   4.136   0.095  16.457 -0.7153  0.1640  0.1120
  605TMC3    O1 9027   3.793   0.302  16.313 -0.1310  0.6299  0.3299
  605TMC3    O2 9028   4.239   0.090  16.393 -0.6730  0.2719 -0.7207
  606TMC3    C1 9029   0.775   2.837  17.294  0.3578 -0.5570 -0.8296
  606TMC3    C2 9030   0.755   2.789  17.420  0.7530 -0.4594  0.2281
  606TMC3    C3 9031   0.629   2.793  17.470 -0.4003  0.3511  0.0911
  606TMC3    C4 9032   0.671   2.874  17.213  0.0037 -0.4062  0.3164
  606TMC3    C5 9033   0.550   2.869  17.268  0.6144  0.1971  0.0161
  606TMC3    C6 9034   0.521   2.828  17.397  0.0664 -0.0288  0.1936
  606TMC3     C 9035   0.907   2.844  17.235 -0.2385  0.0001 -0.2788
  606TMC3     O 9036   0.913   2.858  17.112  0.5507 -0.0380  0.2119
  606TMC3     H 9037   0.830   2.739  17.480 -0.3538 -0.8544  1.2747
  606TMC3    H1 9038   0.685   2.911  17.112 -0.6048  0.7529  0.6446
  606TMC3    H2 9039   0.419   2.821  17.434  0.1591  0.2050  0.4925
  606TMC3    C7 9040   0.441   2.900  17.182 -0.5440  0.7328  0.1014
  606TMC3    C8 9041   0.603   2.713  17.593  0.1413  0.8471  0.5820
  606TMC3    O1 9042   0.466   2.958  17.078  0.0031  0.1465  0.4015
  606TMC3    O2 9043   0.484   2.692  17.617  0.0726  0.0148  0.0675
  607MPD2     C 9044   2.261   1.378  11.984  0.2139 -0.2458  0.3832
  607MPD2    C1 9045   2.227   1.428  12.110 -0.7276  0.3622 -0.0923
  607MPD2    C2 9046   2.181   1.345  12.207  0.4213 -0.3408  1.1211
  607MPD2    C3 9047   2.164   1.209  12.187 -0.2561  0.6253 -0.2936
  607MPD2    C4 9048   2.193   1.156  12.061  0.5660  0.0835 -0.0871
  607MPD2    C5 9049   2.239   1.247  11.965 -0.5889  0.5834 -0.6260
  607MPD2     H 9050   2.164   1.384  12.307 -3.1011 -1.0550  0.7867
  607MPD2    H1 9051   2.189   1.049  12.048  1.7830 -0.1461  1.5109
  607MPD2    H2 9052   2.309   1.434  11.905  0.4352  0.6399  1.1499
  607MPD2    H3 9053   2.255   1.213  11.864 -0.2879  0.7581 -0.6368
  607MPD2     N 9054   2.126   1.132  12.295  0.0454 -0.0268 -0.3203
  607MPD2    H5 9055   2.126   1.184  12.382 -0.4591 -0.8050  0.1331
  607MPD2    N1 9056   2.255   1.564  12.143 -0.0738  1.0660  0.5448
  607MPD2    H7 9057   2.243   1.588  12.241 -0.6321  2.5305  0.1183
  608TMC3    C1 9058   2.397   1.759  12.144  0.1708  0.0282 -0.7169
  608TMC3    C2 9059   2.411   1.735  12.275 -0.4023  0.5830 -0.2391
  608TMC3    C3 9060   2.501   1.812  12.346 -0.4398  0.6521 -0.2623
  608TMC3    C4 9061   2.485   1.830  12.073 -0.7344 -0.0391  0.3967
  608TMC3    C5 9062   2.575   1.898  12.146  0.2881  1.1371  0.0826
  608TMC3    C6 9063   2.586   1.903  12.283 -0.2367 -0.6191  0.6720
  608TMC3     C 9064   2.333   1.654  12.066 -0.1946  0.0873 -1.0721
  608TMC3     O 9065   2.361   1.646  11.949 -0.4069 -0.1038 -0.4165
  608TMC3     H 9066   2.328   1.691  12.329  1.0065  0.3352  1.7023
  608TMC3    H1 9067   2.475   1.840  11.966  0.4138 -0.0977  0.2882
  608TMC3    H2 9068   2.670   1.958  12.325  0.1618 -0.3392 -0.4896
  608TMC3    C7 9069   2.676   1.970  12.059 -0.2306  0.3451 -0.0245
  608TMC3    C8 9070   2.523   1.788  12.491  0.7671  1.1766 -0.0921
  608TMC3    O1 9071   2.710   1.936  11.948  0.2538  0.1247 -0.3807
  608TMC3    O2 9072   2.562   1.881  12.563  0.3971 -0.4767 -0.1574
  609TMC3    C1 9073   0.346   1.139   9.423 -0.1536 -0.0380 -0.0943
  609TMC3    C2 9074   0.343   1.229   9.323  0.4394 -0.3118  0.3380
  609TMC3    C3 9075   0.444   1.315   9.302  0.4798  0.4227  0.0161
  609TMC3    C4 9076   0.461   1.118   9.503 -0.3382 -0.5339  0.0415
  609TMC3    C5 9077   0.557   1.210   9.482 -0.1026 -0.5229 -0.2608
  609TMC3    C6 9078   0.552   1.307   9.386 -0.2128 -0.3764 -0.1863
  609TMC3     C 9079   0.220   1.077   9.459  0.3764 -0.1110  0.5793
  609TMC3     O 9080   0.116   1.145   9.449 -0.0597 -0.2238  0.7573
  609TMC3     H 9081   0.251   1.250   9.270 -0.4525  1.3851  2.5858
  609TMC3    H1 9082   0.456   1.055   9.591  2.5969  0.8585  1.2216
  609TMC3    H2 9083   0.641   1.361   9.357 -0.5439  0.6349  0.7340
  609TMC3    C7 9084   0.678   1.203   9.565 -0.2306 -0.8629  0.3543
  609TMC3    C8 9085   0.429   1.403   9.193 -0.1048  0.3200 -0.0146
  609TMC3    O1 9086   0.688   1.099   9.632  0.8136 -0.1237 -0.2102
  609TMC3    O2 9087   0.346   1.372   9.108  0.4984 -0.2001 -0.3123
  610TMC3    C1 9088   3.169   1.482  12.165  0.2130  0.6147  0.1056
  610TMC3    C2 9089   3.088   1.410  12.077  0.1320 -0.1610  0.7768
  610TMC3    C3 9090   3.008   1.314  12.135  0.5089  0.0156 -0.1973
  610TMC3    C4 9091   3.177   1.448  12.300 -0.4455  0.3466  0.1324
  610TMC3    C5 9092   3.104   1.333  12.341  0.1201  0.0898 -0.1882
  610TMC3    C6 9093   3.014   1.268  12.260  0.5917 -0.1781  0.2944
  610TMC3     C 9094   3.273   1.584  12.119  0.1225  0.7516 -0.1978
  610TMC3     O 9095   3.333   1.646  12.206  0.2123 -0.0053  0.2546
  610TMC3     H 9096   3.065   1.442  11.976  1.5044  2.9821  1.4505
  610TMC3    H1 9097   3.245   1.512  12.355 -0.5857  1.0464 -0.5095
  610TMC3    H2 9098   2.976   1.168  12.280 -2.5834  1.3708  1.8893
  610TMC3    C7 9099   3.126   1.296  12.479  0.9716  0.2706 -0.6059
  610TMC3    C8 9100   2.909   1.248  12.040 -0.2031  0.6462  0.6955
  610TMC3    O1 9101   3.232   1.347  12.527 -0.1609  0.1478 -0.1986
  610TMC3    O2 9102   2.943   1.245  11.922 -0.0919  0.5260 -0.4007
  611MPD2     C 9103   2.800   1.131  10.698  0.2697 -0.4487 -0.1493
  611MPD2    C1 9104   2.723   1.228  10.641  0.0201  0.4006 -0.0075
  611MPD2    C2 9105   2.789   1.335  10.588 -0.2571 -0.6806  0.0881
  611MPD2    C3 9106   2.927   1.347  10.591  0.8938 -0.3745  0.4643
  611MPD2    C4 9107   3.003   1.251  10.648  0.0780 -0.4665  0.0137
  611MPD2    C5 9108   2.936   1.136  10.694  0.2943  0.0450  0.0808
  611MPD2     H 9109   2.730   1.415  10.545 -1.3963 -1.1506  0.7554
  611MPD2    H1 9110   3.110   1.248  10.661  0.3439  0.1978 -1.9445
  611MPD2    H2 9111   2.760   1.037  10.734 -1.0819  0.7918  1.5647
  611MPD2    H3 9112   2.992   1.054  10.737 -2.4858 -1.3018  1.1157
  611MPD2     N 9113   3.004   1.463  10.548  0.1323  0.6846  0.8201
  611MPD2    H5 9114   3.098   1.467  10.585  0.2558 -1.5390  0.7590
  611MPD2    N1 9115   2.579   1.212  10.653  0.8039 -0.2128 -0.1493
  611MPD2    H7 9116   2.545   1.133  10.707 -3.5138  1.1288 -0.9383
  612TMC3    C1 9117   3.032   1.683  10.472 -0.2817 -0.1855  0.2688
  612TMC3    C2 9118   3.116   1.710  10.580 -0.1469 -0.4932  0.8116
  612TMC3    C3 9119   3.168   1.839  10.584 -0.1559  0.3380  0.0001
  612TMC3    C4 9120   3.017   1.771  10.373 -0.3491 -0.1742  0.4099
  612TMC3    C5 9121   3.085   1.895  10.382  0.1928 -0.5449 -0.2521
  612TMC3    C6 9122   3.160   1.935  10.486  0.1222 -0.2392 -0.9787
  612TMC3     C 9123   2.945   1.570  10.483  0.3957 -0.1137 -0.2836
  612TMC3     O 9124   2.848   1.582  10.409  0.3979  0.1865 -0.0556
  612TMC3     H 9125   3.143   1.630  10.648  1.1615  0.1998  1.0952
  612TMC3    H1 9126   2.967   1.748  10.280  0.7929 -3.3811  0.6018
  612TMC3    H2 9127   3.227   2.020  10.483  0.1533 -0.1989  0.8495
  612TMC3    C7 9128   3.080   1.971  10.264 -0.1986  0.0250  0.2937
  612TMC3    C8 9129   3.235   1.885  10.708  0.3525 -0.0510 -0.9601
  612TMC3    O1 9130   3.056   1.915  10.157  0.3743  0.4522  0.1674
  612TMC3    O2 9131   3.261   2.004  10.706 -0.7446  0.0776 -0.5259
  613MPD2     C 9132   1.284   3.800  17.077  0.2958 -0.0230 -0.1577
  613MPD2    C1 9133   1.241   3.761  16.958 -0.2709 -0.0576  0.3284
  613MPD2    C2 9134   1.192   3.636  16.942 -0.1872  0.0946 -0.0911
  613MPD2    C3 9135   1.188   3.542  17.046 -0.7351  0.3011 -0.6623
  613MPD2    C4 9136   1.233   3.588  17.168 -0.1009 -0.6752  0.8132
  613MPD2    C5 9137   1.275   3.718  17.187 -0.0808  0.0689  0.4260
  613MPD2     H 9138   1.171   3.598  16.843  0.5188 -2.0596  0.5735
  613MPD2    H1 9139   1.214   3.534  17.261 -3.3586 -2.8899 -1.1608
  613MPD2    H2 9140   1.329   3.897  17.096 -0.8740  0.8100 -1.5938
  613MPD2    H3 9141   1.319   3.742  17.283  0.9603 -1.3123  0.2830
  613MPD2     N 9142   1.130   3.414  17.035  0.3734  0.2587 -0.0060
  613MPD2    H5 9143   1.147   3.346  17.108  1.6355 -1.8712 -2.2666
  613MPD2    N1 9144   1.269   3.831  16.840 -0.2308  0.0064  0.2413
  613MPD2    H7 9145   1.324   3.916  16.841  1.2905 -0.9529 -0.6678
  614TMC3    C1 9146   1.285   3.872  16.618 -0.0482  0.3979 -0.5442
  614TMC3    C2 9147   1.415   3.838  16.622  0.8935  0.0202  0.3414
  614TMC3    C3 9148   1.469   3.794  16.501 -0.3871 -0.1226  0.4484
  614TMC3    C4 9149   1.214   3.887  16.502 -0.2150  0.0772 -0.5012
  614TMC3    C5 9150   1.271   3.855  16.383  0.3470 -0.1881 -0.6108
  614TMC3    C6 9151   1.404   3.815  16.382 -0.4716  0.4483 -0.0417
  614TMC3     C 9152   1.204   3.819  16.720 -0.6307  0.2075 -0.2930
  614TMC3     O 9153   1.098   3.765  16.692  0.6262  0.4065  0.0348
  614TMC3     H 9154   1.476   3.827  16.710  2.4530 -1.5072 -0.9341
  614TMC3    H1 9155   1.108   3.911  16.502 -0.3715 -0.6229  1.2738
  614TMC3    H2 9156   1.465   3.797  16.294 -1.0496 -2.8840  0.2064
  614TMC3    C7 9157   1.201   3.888  16.264  0.1936  0.0624 -0.2405
  614TMC3    C8 9158   1.540   3.663  16.525  0.5601 -0.1061  0.0096
  614TMC3    O1 9159   1.092   3.943  16.280  0.0189  0.8924 -0.5770
  614TMC3    O2 9160   1.570   3.627  16.644  0.4140  0.1338 -0.1587
  615MPD2     C 9161   1.326   0.004  15.749 -0.8836  0.0426  0.1395
  615MPD2    C1 9162   1.204   0.019  15.809 -0.7080  0.0656 -0.8531
  615MPD2    C2 9163   1.094   0.048  15.734  0.4197  0.4420  0.1884
  615MPD2    C3 9164   1.104   0.054  15.592 -0.2343  0.5924 -0.3215
  615MPD2    C4 9165   1.228   0.028  15.534 -0.0744  0.3509 -0.0218
  615MPD2    C5 9166   1.331   4.729  15.612  0.5504  0.0359  0.1157
  615MPD2     H 9167   1.002   0.067  15.788 -0.2466 -0.9381 -0.4416
  615MPD2    H1 9168   1.246   0.033  15.428 -0.1589  0.3111 -0.0381
  615MPD2    H2 9169   1.417   4.712  15.798  0.1066  1.2830 -0.8711
  615MPD2    H3 9170   1.430   4.713  15.571  1.0530  0.7232  1.0496
  615MPD2     N 9171   0.994   0.099  15.509 -0.3958  0.6959 -0.8840
  615MPD2    H5 9172   1.025   0.111  15.413 -0.0236 -1.2943 -1.0150
  615MPD2    N1 9173   1.180   0.018  15.951  0.0814 -0.4262 -0.1507
  615MPD2    H7 9174   1.087   0.047  15.981  0.7521  1.0546  0.5017
  616TMC3    C1 9175   1.226   0.019  16.180 -0.5117  0.2775  0.0034
  616TMC3    C2 9176   1.291   0.127  16.228 -0.2690  0.1213  0.1751
  616TMC3    C3 9177   1.223   0.202  16.318 -0.1928  0.3498 -0.2229
  616TMC3    C4 9178   1.100   4.721  16.204 -0.0397  0.2573 -0.3177
  616TMC3    C5 9179   1.043   0.057  16.300  0.4185  1.3070 -0.4552
  616TMC3    C6 9180   1.099   0.171  16.355 -0.2861  1.2245  0.1936
  616TMC3     C 9181   1.271   4.724  16.046  0.5770  0.6001 -0.6491
  616TMC3     O 9182   1.390   4.723  16.031 -0.7160  0.4422 -0.6686
  616TMC3     H 9183   1.395   0.141  16.199 -0.2810 -0.5659 -0.1882
  616TMC3    H1 9184   1.057   4.634  16.156  2.2518 -0.2832 -1.4042
  616TMC3    H2 9185   1.046   0.230  16.430 -1.4998  0.2161  0.1270
  616TMC3    C7 9186   0.904   0.033  16.337 -0.4678  0.2542  0.1452
  616TMC3    C8 9187   1.283   0.327  16.365  0.6397 -0.5842 -0.0515
  616TMC3    O1 9188   0.868   4.656  16.337  0.0817 -0.0196 -0.2990
  616TMC3    O2 9189   1.201   0.412  16.393  0.2382  0.1337  0.1450
  617MPD2     C 9190   4.086   3.330  13.314 -0.1153  0.3265  0.2546
  617MPD2    C1 9191   4.134   3.308  13.438 -0.6614  0.0941 -0.2158
  617MPD2    C2 9192   4.048   3.271  13.539  0.3098 -0.2756  0.0401
  617MPD2    C3 9193   3.909   3.256  13.513  0.2481  0.5210  0.4009
  617MPD2    C4 9194   3.867   3.282  13.385 -0.4952 -0.5745  0.8921
  617MPD2    C5 9195   3.956   3.317  13.283  0.1568 -0.4337 -0.0418
  617MPD2     H 9196   4.091   3.257  13.638  0.5636  1.4999  0.1705
  617MPD2    H1 9197   3.762   3.271  13.363 -0.7882 -0.0101  2.0180
  617MPD2    H2 9198   4.152   3.355  13.231  0.2765 -0.1167  0.4362
  617MPD2    H3 9199   3.928   3.341  13.180 -0.2347 -0.5907  0.0285
  617MPD2     N 9200   3.818   3.197  13.606 -0.2762 -0.3568  0.5683
  617MPD2    H5 9201   3.725   3.189  13.564  0.8756 -2.3284 -1.5868
  617MPD2    N1 9202   4.277   3.323  13.450  0.4560 -0.5179  0.1809
  617MPD2    H7 9203   4.319   3.329  13.358 -0.2972  0.2924 -0.1029
  618TMC3    C1 9204   4.489   3.322  13.538 -0.6137 -0.2671  0.0366
  618TMC3    C2 9205   4.580   3.368  13.635  0.5574  0.0336 -0.0838
  618TMC3    C3 9206   4.710   3.316  13.639  0.4786 -0.3016  0.2068
  618TMC3    C4 9207   4.533   3.217  13.455  0.5495  0.0651  0.3799
  618TMC3    C5 9208   4.655   3.158  13.472 -0.1408  1.1908  0.0383
  618TMC3    C6 9209   0.010   3.206  13.561  0.2574  0.3490  0.4411
  618TMC3     C 9210   4.350   3.325  13.563 -0.5719 -0.2033 -1.4406
  618TMC3     O 9211   4.326   3.328  13.682  0.1506  0.0389  0.2236
  618TMC3     H 9212   4.545   3.451  13.696  0.2890  0.5517 -0.9323
  618TMC3    H1 9213   4.459   3.180  13.384  1.0165 -1.1895  0.5537
  618TMC3    H2 9214   0.111   3.166  13.556  0.3144  0.5012  0.3325
  618TMC3    C7 9215   4.668   3.022  13.418 -0.0532 -0.2330 -1.2879
  618TMC3    C8 9216   0.071   3.380  13.715 -0.1533  1.0519  0.4309
  618TMC3    O1 9217   4.584   2.989  13.337  0.4791  0.1413  0.2969
  618TMC3    O2 9218   0.059   3.499  13.746 -0.0948 -0.1816 -0.5299
  619MPD2     C 9219   0.186   4.520  13.501 -0.2990 -0.0571  0.1488
  619MPD2    C1 9220   0.069   4.546  13.440  0.2678  0.4846 -0.4075
  619MPD2    C2 9221   4.698   4.507  13.505  0.1010  1.0595  0.7716
  619MPD2    C3 9222   4.690   4.440  13.626 -0.3216  0.1282 -0.7106
  619MPD2    C4 9223   0.066   4.425  13.694 -0.9236  0.3044  0.5924
  619MPD2    C5 9224   0.189   4.456  13.628 -0.2170  0.2684  0.7067
  619MPD2     H 9225   4.607   4.528  13.449 -0.2190 -0.2118  0.8191
  619MPD2    H1 9226   0.079   4.379  13.792  1.9657  2.5675  1.2647
  619MPD2    H2 9227   0.278   4.552  13.453  0.3582  0.3895  1.6965
  619MPD2    H3 9228   0.283   4.434  13.676  0.0982 -1.4540 -0.6948
  619MPD2     N 9229   4.571   4.415  13.692 -0.2491 -0.0599  0.5742
  619MPD2    H5 9230   4.583   4.382  13.787 -1.4893 -0.8027  0.4798
  619MPD2    N1 9231   0.054   4.608  13.315 -0.1864  0.4898 -0.0853
  619MPD2    H7 9232   4.701   4.614  13.276 -0.2880  0.1171  0.1094
  620TMC3    C1 9233   0.084   0.018  13.143  0.0329  0.0235 -0.2079
  620TMC3    C2 9234   4.696   0.020  13.125  0.4901 -0.4595 -0.2578
  620TMC3    C3 9235   4.636   0.134  13.081 -0.3168  0.9379 -0.1952
  620TMC3    C4 9236   0.164   0.117  13.086  0.0369  0.4124 -0.3702
  620TMC3    C5 9237   0.105   0.229  13.035 -0.5135  0.1641 -0.3346
  620TMC3    C6 9238   4.712   0.241  13.039  0.4230 -0.2075 -0.4698
  620TMC3     C 9239   0.146   4.678  13.247  0.2088  0.6306 -0.5589
  620TMC3     O 9240   0.263   4.694  13.280  0.1666  0.2658 -0.1374
  620TMC3     H 9241   4.627   4.680  13.147 -0.1991 -0.1306 -1.1947
  620TMC3    H1 9242   0.269   0.125  13.114  0.1404 -1.7047 -0.0971
  620TMC3    H2 9243   4.659   0.335  13.025  0.6972 -0.2730 -1.9361
  620TMC3    C7 9244   0.157   0.276  12.910 -0.2800 -0.3119  0.2917
  620TMC3    C8 9245   4.515   0.169  13.154 -0.1375  0.8048  0.7052
  620TMC3    O1 9246   0.102   0.371  12.861 -0.4564  0.1399  0.1262
  620TMC3    O2 9247   4.414   0.212  13.098  0.4709  0.3027  0.9484
  621MPD2     C 9248   4.345   0.487  10.335 -0.1477  0.7990  0.2179
  621MPD2    C1 9249   4.470   0.448  10.377  0.8426 -0.8155 -0.5288
  621MPD2    C2 9250   4.581   0.501  10.317 -0.2367 -0.4805  0.5329
  621MPD2    C3 9251   4.570   0.593  10.218 -0.6365 -0.2089  0.2438
  621MPD2    C4 9252   4.442   0.621  10.173  0.5695 -0.4446 -0.1318
  621MPD2    C5 9253   4.329   0.575  10.230 -0.5560  1.1683 -0.1663
  621MPD2     H 9254   4.681   0.471  10.349  0.6841  0.9949 -0.9384
  621MPD2    H1 9255   4.420   0.695  10.097 -1.6371 -0.3890  0.5736
  621MPD2    H2 9256   4.259   0.450  10.389  1.5281 -4.6117 -0.8607
  621MPD2    H3 9257   4.231   0.610  10.198 -0.3973 -0.2724 -2.2261
  621MPD2     N 9258   4.689   0.644  10.160  0.8743  0.0906 -0.0791
  621MPD2    H5 9259   0.032   0.594  10.191 -0.0016 -1.0874  0.3883
  621MPD2    N1 9260   4.496   0.368  10.492 -0.0750  1.2653  0.0997
  621MPD2    H7 9261   4.595   0.356  10.510 -0.2806 -0.7099 -0.1067
  622TMC3    C1 9262   4.447   0.255  10.700  0.2549  0.5979  0.9616
  622TMC3    C2 9263   4.378   0.289  10.814 -0.3237  0.0964 -0.4536
  622TMC3    C3 9264   4.364   0.194  10.913 -0.4199  0.6633 -0.2387
  622TMC3    C4 9265   4.498   0.128  10.687  0.3542 -0.1682  0.3212
  622TMC3    C5 9266   4.470   0.035  10.783  0.0983 -1.6480  1.2854
  622TMC3    C6 9267   4.423   0.073  10.901  0.3629 -0.3317  0.1454
  622TMC3     C 9268   4.398   0.317  10.580  0.4242  1.1311  0.0940
  622TMC3     O 9269   4.275   0.313  10.570 -0.4031  0.2354  0.4137
  622TMC3     H 9270   4.313   0.376  10.819 -0.7923 -0.2193 -1.0880
  622TMC3    H1 9271   4.522   0.098  10.586 -1.9800 -0.8744 -0.0255
  622TMC3    H2 9272   4.390   4.738  10.971 -1.2199  0.4288  0.2154
  622TMC3    C7 9273   4.443   4.640  10.738  0.2707  0.0761  0.1915
  622TMC3    C8 9274   4.226   0.172  10.943 -0.0778  0.8073  0.5714
  622TMC3    O1 9275   4.344   4.587  10.786 -0.3324 -0.0329  0.0956
  622TMC3    O2 9276   4.209   0.099  11.040 -0.3489 -0.0668 -0.1396
  623MPD2     C 9277   4.360   0.835  15.611 -0.5272  1.1164  0.6162
  623MPD2    C1 9278   4.363   0.702  15.639 -0.9876 -0.0286 -0.2041
  623MPD2    C2 9279   4.440   0.669  15.751 -0.8936  0.0249  0.7323
  623MPD2    C3 9280   4.511   0.760  15.820  0.8651 -0.2297  0.4994
  623MPD2    C4 9281   4.503   0.894  15.786 -0.3704  0.4317  0.4535
  623MPD2    C5 9282   4.423   0.923  15.687  0.0707  0.3393  0.5368
  623MPD2     H 9283   4.441   0.569  15.793  0.4934 -0.3833 -0.2533
  623MPD2    H1 9284   4.548   0.973  15.845  0.2805  0.1973  0.2642
  623MPD2    H2 9285   4.295   0.881  15.537  0.3824  0.6097 -0.5065
  623MPD2    H3 9286   4.409   1.029  15.668  0.2111  0.3337  0.3930
  623MPD2     N 9287   4.570   0.709  15.935  0.5386 -0.5677  0.6119
  623MPD2    H5 9288   4.540   0.617  15.967 -0.2161 -0.5356 -0.0084
  623MPD2    N1 9289   4.276   0.607  15.577  0.2787  0.6959 -0.3866
  623MPD2    H7 9290   4.209   0.654  15.516  0.7062  0.2874 -1.1766
  624TMC3    C1 9291   0.061   0.731  16.345  0.0614 -0.6195  0.7443
  624TMC3    C2 9292   4.706   0.659  16.414  0.0850 -0.3864  1.1634
  624TMC3    C3 9293   4.595   0.619  16.334  0.2572 -0.8313 -0.0238
  624TMC3    C4 9294   0.048   0.772  16.217 -0.2975  0.4368  0.2670
  624TMC3    C5 9295   4.678   0.723  16.145 -0.3476 -0.4360  0.5939
  624TMC3    C6 9296   4.582   0.649  16.201 -0.2443  0.6948 -0.0232
  624TMC3     C 9297   0.193   0.726  16.399 -0.6235 -0.0470  0.4457
  624TMC3     O 9298   0.202   0.691  16.515  0.3853 -0.2019  0.1057
  624TMC3     H 9299   4.720   0.641  16.520  2.3431  2.6995  1.3995
  624TMC3    H1 9300   0.107   0.854  16.178 -0.9423 -0.2623 -2.1560
  624TMC3    H2 9301   4.490   0.627  16.148  0.2487 -0.2577 -0.4948
  624TMC3    C7 9302   4.655   0.786  16.015  0.1301  0.1686 -0.0807
  624TMC3    C8 9303   4.502   0.519  16.386  0.3043 -0.5559 -0.1842
  624TMC3    O1 9304   4.693   0.901  15.999  0.3987 -0.6860 -0.3136
  624TMC3    O2 9305   4.449   0.456  16.295 -0.3497  0.1086  0.3893
  625MPD2     C 9306   4.391   0.944   0.457  0.4486  0.1726  1.3812
  625MPD2    C1 9307   4.424   1.079   0.467 -0.2206 -0.1414 -0.3605
  625MPD2    C2 9308   4.525   1.107   0.559 -0.3234 -0.3574 -0.0451
  625MPD2    C3 9309   4.595   1.002   0.617  0.5741 -0.4648  0.3174
  625MPD2    C4 9310   4.562   0.870   0.593 -0.2828  0.0816 -0.9897
  625MPD2    C5 9311   4.451   0.842   0.524 -0.0577  0.1565 -0.9668
  625MPD2     H 9312   4.561   1.209   0.567 -0.8818 -0.3781  2.8042
  625MPD2    H1 9313   4.605   0.778   0.633  0.2673  0.8099  0.1009
  625MPD2    H2 9314   4.302   0.917   0.401  0.9728 -0.8013  1.0105
  625MPD2    H3 9315   4.405   0.744   0.529  0.3343  0.1244  1.9492
  625MPD2     N 9316   4.693   1.044   0.715 -0.0619  0.5347 -0.6331
  625MPD2    H5 9317   4.679   1.142   0.737 -3.0620 -0.2644  0.9830
  625MPD2    N1 9318   4.347   1.176   0.412 -0.3882 -0.6560 -0.4309
  625MPD2    H7 9319   4.363   1.270   0.447  0.1147 -0.4483 -1.1924
  626TMC3    C1 9320   4.174   1.294   0.311 -0.4627  0.2114  0.3000
  626TMC3    C2 9321   4.146   1.355   0.192  0.7422 -0.5731 -0.2701
  626TMC3    C3 9322   4.106   1.485   0.201 -0.8927  0.3437 -0.3546
  626TMC3    C4 9323   4.168   1.358   0.428  0.4654  0.3199 -0.0031
  626TMC3    C5 9324   4.128   1.487   0.429 -0.4739 -0.2595  0.5674
  626TMC3    C6 9325   4.103   1.554   0.318  1.0243 -0.0607  0.6715
  626TMC3     C 9326   4.259   1.172   0.307  1.1731 -0.0432  0.5972
  626TMC3     O 9327   4.225   1.081   0.237 -0.1611 -0.1797  0.3564
  626TMC3     H 9328   4.134   1.297   0.101 -0.2365  0.3358 -0.7079
  626TMC3    H1 9329   4.178   1.312   0.525 -0.1657 -2.0353 -1.0622
  626TMC3    H2 9330   4.071   1.658   0.314  0.8595 -0.0367  2.6536
  626TMC3    C7 9331   4.106   1.551   0.561  0.0429 -0.2832  0.7796
  626TMC3    C8 9332   4.062   1.549   0.078 -0.5127  0.5136  0.8756
  626TMC3    O1 9333   4.155   1.496   0.660  0.4868 -0.4685 -0.1055
  626TMC3    O2 9334   4.112   1.513  17.734  0.2737  0.5728 -0.4702
  627MPD2     C 9335   3.332   2.121  14.454  0.1454  0.3475 -0.6191
  627MPD2    C1 9336   3.417   2.068  14.553  0.2083  0.2719  0.3447
  627MPD2    C2 9337   3.366   1.963  14.623  0.5220 -0.2341 -0.1903
  627MPD2    C3 9338   3.242   1.904  14.599 -0.0974  0.3599  0.2299
  627MPD2    C4 9339   3.160   1.971  14.512  0.0566  0.3095 -0.1618
  627MPD2    C5 9340   3.206   2.071  14.429 -0.0598 -0.4624  0.8331
  627MPD2     H 9341   3.424   1.905  14.693 -0.2150  1.1245  1.5444
  627MPD2    H1 9342   3.060   1.932  14.499 -1.3726  4.2637 -1.0116
  627MPD2    H2 9343   3.365   2.205  14.393 -0.3266  0.0312 -1.3198
  627MPD2    H3 9344   3.138   2.101  14.351  0.0664 -1.6161  0.2802
  627MPD2     N 9345   3.197   1.795  14.672 -0.1148 -0.0520  0.1709
  627MPD2    H5 9346   3.250   1.772  14.755  0.6268 -2.0987 -0.8805
  627MPD2    N1 9347   3.549   2.126  14.576  0.1238 -0.3084 -0.2248
  627MPD2    H7 9348   3.604   2.091  14.654  2.2450  2.6777 -0.3597
  628TMC3    C1 9349   3.716   2.297  14.580  0.4986  0.2303 -0.1862
  628TMC3    C2 9350   3.810   2.231  14.645  0.5062  0.2215  0.7564
  628TMC3    C3 9351   3.909   2.303  14.713  0.7080  0.1044 -0.3825
  628TMC3    C4 9352   3.715   2.434  14.571 -0.1394  0.6081  0.6427
  628TMC3    C5 9353   3.808   2.510  14.642 -0.7321 -0.0107  1.0647
  628TMC3    C6 9354   3.903   2.444  14.726 -0.3325 -0.2784 -0.5036
  628TMC3     C 9355   3.604   2.234  14.506  0.1837  0.4245  0.3164
  628TMC3     O 9356   3.551   2.306  14.421 -0.5424 -0.1179 -0.2343
  628TMC3     H 9357   3.815   2.123  14.648  1.1666  0.2478  0.5723
  628TMC3    H1 9358   3.635   2.484  14.517  0.8060 -0.6022 -1.8620
  628TMC3    H2 9359   3.988   2.509  14.746 -0.3104 -0.2309 -0.7501
  628TMC3    C7 9360   3.814   2.658  14.641 -0.2720  0.4945 -0.0750
  628TMC3    C8 9361   4.028   2.228  14.738 -0.2314 -1.0583 -0.0369
  628TMC3    O1 9362   3.885   2.711  14.722 -0.0817  0.2561  0.3598
  628TMC3    O2 9363   4.040   2.110  14.695 -0.3662 -0.6145  0.0917
  629MPD2     C 9364   1.650   0.688  16.383  0.3447 -0.4824  0.5320
  629MPD2    C1 9365   1.712   0.567  16.400 -0.1864  0.0549 -0.0085
  629MPD2    C2 9366   1.632   0.451  16.388  0.1411 -0.7589  0.8075
  629MPD2    C3 9367   1.489   0.462  16.374 -0.1915  1.1240 -0.1726
  629MPD2    C4 9368   1.428   0.587  16.370 -0.1791  0.3173 -0.5169
  629MPD2    C5 9369   1.514   0.696  16.376 -0.0632  0.8115 -0.0670
  629MPD2     H 9370   1.678   0.354  16.399  0.0979 -0.9797 -0.9700
  629MPD2    H1 9371   1.320   0.598  16.361 -0.5630 -2.3685  0.7857
  629MPD2    H2 9372   1.707   0.780  16.388 -0.5494 -0.0107  2.3563
  629MPD2    H3 9373   1.483   0.800  16.375 -2.0291  0.2485  1.9417
  629MPD2     N 9374   1.420   0.342  16.355 -0.0633 -0.3940 -0.3214
  629MPD2    H5 9375   1.471   0.257  16.332 -2.3463 -2.0625  0.7640
  629MPD2    N1 9376   1.846   0.568  16.437  0.8694 -0.2903  0.1123
  629MPD2    H7 9377   1.886   0.661  16.440 -2.6438  1.2120 -0.0515
  630TMC3    C1 9378   2.062   0.506  16.502  0.0262  1.9618  0.0601
  630TMC3    C2 9379   2.108   0.634  16.475 -0.5558  0.3553  0.3523
  630TMC3    C3 9380   2.245   0.655  16.480 -0.2377  0.1692  0.6392
  630TMC3    C4 9381   2.137   0.395  16.541  0.3792  0.8285  0.0515
  630TMC3    C5 9382   2.272   0.420  16.539  0.1122 -0.2573  0.1989
  630TMC3    C6 9383   2.328   0.547  16.509  0.0426  0.1344  0.1307
  630TMC3     C 9384   1.925   0.464  16.478 -0.6339  1.3896  0.8031
  630TMC3     O 9385   1.896   0.345  16.497  0.1886 -0.1805 -0.3114
  630TMC3     H 9386   2.046   0.717  16.444  1.4700  1.2197 -1.4078
  630TMC3    H1 9387   2.106   0.291  16.534 -0.0489  1.0408 -1.2408
  630TMC3    H2 9388   2.431   0.567  16.482 -0.3378  0.4019 -1.1311
  630TMC3    C7 9389   2.345   0.348  16.644 -0.5983  0.6136  0.4182
  630TMC3    C8 9390   2.304   0.782  16.492 -0.0514  0.4330  0.3877
  630TMC3    O1 9391   2.294   0.249  16.697 -0.0504 -0.0434 -0.6096
  630TMC3    O2 9392   2.411   0.777  16.557  0.2334  0.2201 -0.2605
  631MPD2     C 9393   0.028   0.572  15.607 -1.1078 -0.5807 -0.5989
  631MPD2    C1 9394   0.137   0.658  15.585 -0.2975  0.1629 -0.9533
  631MPD2    C2 9395   0.259   0.615  15.542 -0.4283 -0.0337 -0.4620
  631MPD2    C3 9396   0.276   0.476  15.506 -0.0098 -0.5220  0.0933
  631MPD2    C4 9397   0.169   0.391  15.534 -0.1359 -0.4078  0.0492
  631MPD2    C5 9398   0.047   0.434  15.585  0.4591  0.0983 -0.0257
  631MPD2     H 9399   0.341   0.681  15.515 -0.5697  1.1509  2.0444
  631MPD2    H1 9400   0.169   0.283  15.521 -1.2400 -0.5916  1.5988
  631MPD2    H2 9401   4.671   0.609  15.635 -0.9487 -1.5909  1.2831
  631MPD2    H3 9402   4.710   0.361  15.601 -0.3181  0.9747  0.2043
  631MPD2     N 9403   0.402   0.429  15.463 -0.0720  0.1569  0.7868
  631MPD2    H5 9404   0.470   0.500  15.434 -1.1091  1.3714  1.3162
  631MPD2    N1 9405   0.124   0.792  15.605 -0.0426 -0.2795 -0.4491
  631MPD2    H7 9406   0.028   0.826  15.607  0.3268  0.7926 -1.0123
  632TMC3    C1 9407   0.177   1.010  15.603  0.0807  0.1428 -0.1577
  632TMC3    C2 9408   0.049   1.043  15.624  0.5265 -0.2435  0.6997
  632TMC3    C3 9409   4.735   1.157  15.574  0.0310  0.0043 -0.0214
  632TMC3    C4 9410   0.255   1.088  15.520 -0.3629 -0.5080  0.4490
  632TMC3    C5 9411   0.199   1.193  15.464  0.7291  1.0246 -0.3763
  632TMC3    C6 9412   0.070   1.234  15.486  0.2309 -0.0343  0.5834
  632TMC3     C 9413   0.225   0.876  15.630 -0.0422  0.2558 -0.1843
  632TMC3     O 9414   0.345   0.860  15.653 -0.3674 -0.0173  0.0032
  632TMC3     H 9415   4.737   0.991  15.703 -0.2096  1.2383  1.1831
  632TMC3    H1 9416   0.351   1.052  15.486 -0.8825 -1.8922  0.4595
  632TMC3    H2 9417   0.050   1.332  15.445  1.7863 -1.2521 -3.1270
  632TMC3    C7 9418   0.268   1.270  15.360  0.4275 -1.2330  0.2069
  632TMC3    C8 9419   4.648   1.226  15.665 -0.8059 -0.7511  0.3368
  632TMC3    O1 9420   0.202   1.321  15.266 -0.4798 -0.0473 -0.1334
  632TMC3    O2 9421   4.655   1.202  15.788 -0.2744 -0.0729 -0.4621
  633MPD2     C 9422   4.338   3.321  17.136 -0.0661 -0.4931  0.2694
  633MPD2    C1 9423   4.379   3.259  17.017 -0.6678  0.7402 -0.0807
  633MPD2    C2 9424   4.332   3.132  16.987 -0.1830 -0.1034  0.1230
  633MPD2    C3 9425   4.255   3.064  17.077 -0.7493  0.2718  0.1001
  633MPD2    C4 9426   4.221   3.130  17.194  0.0949 -0.3485  0.6801
  633MPD2    C5 9427   4.266   3.253  17.222 -0.5340  0.6412 -0.5051
  633MPD2     H 9428   4.364   3.082  16.896 -0.5933  0.3805 -0.2857
  633MPD2    H1 9429   4.160   3.088  17.274  0.4777 -1.1772  0.5274
  633MPD2    H2 9430   4.364   3.420  17.172  0.8641 -0.8047  0.4498
  633MPD2    H3 9431   4.233   3.301  17.314  0.1867  0.8672 -0.3669
  633MPD2     N 9432   4.197   2.943  17.063 -0.6733 -0.1789  0.0893
  633MPD2    H5 9433   4.173   2.902  17.153 -0.1655 -2.0928 -0.6474
  633MPD2    N1 9434   4.477   3.315  16.932  0.8764  0.0865  0.1731
  633MPD2    H7 9435   4.507   3.262  16.851 -2.6168  1.3674 -1.9109
  634TMC3    C1 9436   4.623   3.473  16.830  0.1404  0.4801  0.8758
  634TMC3    C2 9437   4.680   3.371  16.761  0.6917 -0.5389  0.1687
  634TMC3    C3 9438   0.008   3.406  16.643  0.4157 -0.0807  1.0178
  634TMC3    C4 9439   4.622   3.607  16.788  0.5777 -0.9128  0.1838
  634TMC3    C5 9440   4.686   3.633  16.671  0.4786 -0.1323  0.3637
  634TMC3    C6 9441   0.007   3.537  16.595 -0.5648  0.4110  0.2271
  634TMC3     C 9442   4.538   3.434  16.942  0.4413 -0.0124 -0.1741
  634TMC3     O 9443   4.507   3.531  17.012 -0.2153  0.6151 -0.1604
  634TMC3     H 9444   4.695   3.272  16.802  1.4266 -0.3527  0.3624
  634TMC3    H1 9445   4.557   3.683  16.831  2.0174  0.1424  0.4843
  634TMC3    H2 9446   0.060   3.567  16.505 -1.4287  1.7404  0.1686
  634TMC3    C7 9447   4.664   3.761  16.603  0.1891  0.4253  0.1379
  634TMC3    C8 9448   0.045   3.288  16.569 -1.4976  0.4684 -0.1084
  634TMC3    O1 9449   4.736   3.786  16.505  0.5905 -0.3638  0.1362
  634TMC3    O2 9450   0.056   3.182  16.629  0.3759 -0.2494  0.4374
  635TMC3    C1 9451   0.034   4.626  17.381  0.1626  0.4017 -0.0834
  635TMC3    C2 9452   4.650   4.682  17.407  0.7939 -0.0099 -0.2109
  635TMC3    C3 9453   4.557   4.669  17.304 -0.7295 -0.2720  0.1429
  635TMC3    C4 9454   0.065   4.564  17.257  0.2012 -0.0874  0.5679
  635TMC3    C5 9455   4.711   4.569  17.154  0.7122  0.0489 -0.4820
  635TMC3    C6 9456   4.586   4.620  17.172  0.5407  0.0473  0.3941
  635TMC3     C 9457   0.142   4.645  17.479 -0.9925  0.5454 -0.5500
  635TMC3     O 9458   0.133   4.734  17.561 -0.2461  0.0113 -0.4241
  635TMC3     H 9459   4.625   4.710  17.508 -0.0639 -0.7776 -0.2116
  635TMC3    H1 9460   0.166   4.530  17.238 -0.0141  0.0183 -0.7190
  635TMC3    H2 9461   4.512   4.611  17.094 -0.5184  0.3623  1.3592
  635TMC3    C7 9462   4.727   4.473  17.045 -0.5874 -0.1145  0.2181
  635TMC3    C8 9463   4.413   4.683  17.325 -0.3207  0.0877 -0.2568
  635TMC3    O1 9464   0.045   4.370  17.071  0.7179 -0.3083  0.2353
  635TMC3    O2 9465   4.352   4.728  17.230  0.4389 -0.5168  0.4952
  636MPD2     C 9466   0.791   3.640  16.330 -0.4255  0.0880  0.2613
  636MPD2    C1 9467   0.831   3.672  16.460 -0.1982  0.1511 -0.5381
  636MPD2    C2 9468   0.883   3.574  16.539 -0.9572  0.0977 -0.4926
  636MPD2    C3 9469   0.901   3.442  16.494  0.0110  0.7567 -0.1772
  636MPD2    C4 9470   0.846   3.404  16.377 -0.1414  0.2818  0.1496
  636MPD2    C5 9471   0.792   3.504  16.299 -0.1333  0.5969 -1.2581
  636MPD2     H 9472   0.892   3.606  16.642  1.3083  2.5341 -1.4338
  636MPD2    H1 9473   0.845   3.301  16.345 -0.0216 -0.1257  1.4378
  636MPD2    H2 9474   0.736   3.700  16.259 -1.0092 -1.8487 -0.9299
  636MPD2    H3 9475   0.762   3.484  16.196  0.0747 -1.0897 -0.9933
  636MPD2     N 9476   0.947   3.348  16.584  0.1098  0.1504 -0.2206
  636MPD2    H5 9477   0.977   3.386  16.673  0.2225 -0.4785  0.0079
  636MPD2    N1 9478   0.824   3.806  16.510 -0.3735 -0.1168 -0.5760
  636MPD2    H7 9479   0.877   3.825  16.595  1.2582 -0.8809 -1.4230
  637TMC3    C1 9480   1.017   3.144  16.681  0.2084 -0.2755  0.1252
  637TMC3    C2 9481   0.980   3.206  16.793  0.4224  0.5226 -0.1818
  637TMC3    C3 9482   1.069   3.232  16.887  0.8750  0.4919 -0.0602
  637TMC3    C4 9483   1.148   3.118  16.662  0.4241  0.2566  0.3366
  637TMC3    C5 9484   1.245   3.143  16.762 -0.2644 -0.0606 -0.1529
  637TMC3    C6 9485   1.197   3.188  16.882 -0.8371  0.4523  0.4919
  637TMC3     C 9486   0.976   3.214  16.555 -0.4172 -0.5460 -0.0702
  637TMC3     O 9487   0.987   3.164  16.445  0.3413 -0.2242 -0.4129
  637TMC3     H 9488   0.877   3.239  16.804  0.0310  0.0040 -2.3122
  637TMC3    H1 9489   1.181   3.094  16.562 -1.5286  1.6975 -0.6225
  637TMC3    H2 9490   1.268   3.219  16.957 -0.5792  1.3605 -0.1263
  637TMC3    C7 9491   1.352   3.232  16.710  0.5185 -0.6559  0.0251
  637TMC3    C8 9492   1.052   3.377  16.929 -0.1129  0.9659  0.7379
  637TMC3    O1 9493   1.359   3.342  16.763 -0.7717  0.2382 -1.3976
  637TMC3    O2 9494   0.996   3.446  16.844  0.1662 -0.0927 -0.2731
  638MPD2     C 9495   1.197   2.785  15.022 -1.0102  0.1730  0.0092
  638MPD2    C1 9496   1.181   2.669  14.952  0.0170  0.0714 -0.3672
  638MPD2    C2 9497   1.152   2.559  15.032 -0.7212  0.2753  0.9190
  638MPD2    C3 9498   1.155   2.561  15.165  0.0761 -0.2155  0.0612
  638MPD2    C4 9499   1.161   2.680  15.237  0.0612  0.4242  0.1247
  638MPD2    C5 9500   1.183   2.793  15.160 -0.0827 -0.0317 -0.2171
  638MPD2     H 9501   1.139   2.463  14.985  1.3544  1.3928 -1.9067
  638MPD2    H1 9502   1.153   2.685  15.345  1.4151  0.6906  0.2153
  638MPD2    H2 9503   1.219   2.879  14.974 -0.3512 -0.2720 -0.5603
  638MPD2    H3 9504   1.175   2.889  15.209  2.3671  0.8931 -1.6847
  638MPD2     N 9505   1.130   2.435  15.224 -0.2582 -0.4241 -0.1214
  638MPD2    H5 9506   1.108   2.357  15.163 -3.6768 -0.5480  1.2498
  638MPD2    N1 9507   1.196   2.667  14.808  0.2653  0.0222  0.9528
  638MPD2    H7 9508   1.237   2.747  14.760  1.3584 -0.7897  0.5276
  639TMC3    C1 9509   1.106   2.276  15.392  0.4011  0.3673 -0.1592
  639TMC3    C2 9510   0.998   2.218  15.334  0.0258 -0.0260  0.1013
  639TMC3    C3 9511   0.944   2.102  15.390  0.1675  0.0803  0.2918
  639TMC3    C4 9512   1.183   2.211  15.488  0.0894 -0.0250  0.4910
  639TMC3    C5 9513   1.131   2.090  15.533 -0.7313 -0.3823 -0.1102
  639TMC3    C6 9514   1.008   2.041  15.492  0.3843  0.1984 -0.4662
  639TMC3     C 9515   1.152   2.406  15.359 -0.1355  0.1797 -0.2227
  639TMC3     O 9516   1.205   2.474  15.445  0.4089 -0.4738  0.8375
  639TMC3     H 9517   0.944   2.276  15.261 -0.1513  0.8670  0.9321
  639TMC3    H1 9518   1.263   2.266  15.535  0.3474 -0.8324  0.9961
  639TMC3    H2 9519   0.972   1.944  15.522  1.2224  0.2554  0.7246
  639TMC3    C7 9520   1.225   2.002  15.593 -0.3674  0.5484  0.3655
  639TMC3    C8 9521   0.890   2.004  15.300 -0.0136 -0.6430 -0.1109
  639TMC3    O1 9522   1.179   1.927  15.677  0.2945 -0.0981  0.6262
  639TMC3    O2 9523   0.948   1.998  15.189  0.1752  0.5619 -0.4991
  640MPD2     C 9524   1.103   1.759  10.339 -0.2322  0.0295  0.1213
  640MPD2    C1 9525   1.207   1.853  10.327  0.2471  0.0212  0.8533
  640MPD2    C2 9526   1.197   1.986  10.362 -0.5312  0.0251  0.3566
  640MPD2    C3 9527   1.068   2.031  10.404  0.0332 -1.1534  0.1926
  640MPD2    C4 9528   0.972   1.940  10.424  0.3150  0.7027 -0.7816
  640MPD2    C5 9529   0.985   1.807  10.393  0.6502  0.3405  0.5529
  640MPD2     H 9530   1.275   2.061  10.354  1.3454 -1.9691  0.0791
  640MPD2    H1 9531   0.875   1.975  10.458  1.0041  0.1215  1.7336
  640MPD2    H2 9532   1.110   1.652  10.323 -0.5161 -0.2860  2.2138
  640MPD2    H3 9533   0.908   1.734  10.414  0.1611  0.4526 -0.8463
  640MPD2     N 9534   1.036   2.169  10.422 -0.2100  0.3338 -0.1202
  640MPD2    H5 9535   0.942   2.191  10.452  1.0740  3.4237  1.6315
  640MPD2    N1 9536   1.332   1.801  10.288 -0.2031 -0.1680 -0.6509
  640MPD2    H7 9537   1.356   1.704  10.305 -0.8617 -0.2030  0.1175
  641TMC3    C1 9538   1.557   1.819  10.200 -0.7121  0.2910  0.2334
  641TMC3    C2 9539   1.568   1.694  10.252  0.3251 -0.6591  0.4728
  641TMC3    C3 9540   1.639   1.605  10.175  0.1678 -0.6967  0.8689
  641TMC3    C4 9541   1.625   1.859  10.085  0.3556 -0.7490 -0.4991
  641TMC3    C5 9542   1.689   1.765  10.010  0.3857 -0.0906 -0.0859
  641TMC3    C6 9543   1.695   1.636  10.056  0.2440 -0.5028 -0.2105
  641TMC3     C 9544   1.422   1.879  10.224  1.0833  0.8837  0.2466
  641TMC3     O 9545   1.411   1.985  10.171 -0.6255  0.3124 -0.3497
  641TMC3     H 9546   1.521   1.665  10.345  0.2707 -1.1337  0.3007
  641TMC3    H1 9547   1.612   1.965  10.067 -0.0324 -1.2275 -3.0048
  641TMC3    H2 9548   1.729   1.559   9.987  2.4322 -1.4217  1.8877
  641TMC3    C7 9549   1.733   1.800   9.875 -0.1346 -0.2369  0.0277
  641TMC3    C8 9550   1.618   1.459  10.188  0.3575 -0.5988  0.0522
  641TMC3    O1 9551   1.760   1.704   9.799 -0.5770 -0.0292 -0.5156
  641TMC3    O2 9552   1.628   1.390  10.088 -0.1077  0.3250 -0.1668
  642TMC3    C1 9553   2.312   2.462  12.490  0.4627  0.7487  0.5448
  642TMC3    C2 9554   2.448   2.457  12.494  0.3820  0.2649 -0.0327
  642TMC3    C3 9555   2.511   2.341  12.518 -0.4202 -0.3465 -0.7267
  642TMC3    C4 9556   2.233   2.345  12.493  0.1768  0.0153  0.0324
  642TMC3    C5 9557   2.295   2.224  12.510 -0.0154  0.4218 -0.0904
  642TMC3    C6 9558   2.430   2.226  12.519  0.7521  0.1166 -0.4104
  642TMC3     C 9559   2.239   2.589  12.497 -0.4766 -0.0967  0.5700
  642TMC3     O 9560   2.284   2.665  12.411 -0.4968 -0.3168  0.5413
  642TMC3     H 9561   2.492   2.555  12.502 -0.0479  0.5037 -0.5604
  642TMC3    H1 9562   2.127   2.351  12.471  0.3280 -0.5466 -0.8454
  642TMC3    H2 9563   2.483   2.132  12.531  0.4710  0.1119  0.7374
  642TMC3    C7 9564   2.226   2.117  12.437  0.4121  0.0833 -0.1823
  642TMC3    C8 9565   2.656   2.329  12.524 -0.2659 -0.2151 -0.4282
  642TMC3    O1 9566   2.130   2.148  12.369 -0.1694  0.1461  0.1686
  642TMC3    O2 9567   2.688   2.214  12.488 -0.0035  0.1744  0.7791
  643TMC3    C1 9568   1.909   1.244   0.721 -0.1467  0.2314  0.1663
  643TMC3    C2 9569   1.776   1.229   0.747  0.1563 -1.1472  0.0139
  643TMC3    C3 9570   1.688   1.233   0.642  0.1819  0.0499  0.6661
  643TMC3    C4 9571   1.956   1.223   0.592 -0.2063  0.0574 -0.1146
  643TMC3    C5 9572   1.867   1.211   0.484 -0.2389  0.6859 -0.2372
  643TMC3    C6 9573   1.730   1.218   0.516 -0.1844 -0.4307 -0.4864
  643TMC3     C 9574   1.991   1.253   0.837  0.5195  0.3716  0.2782
  643TMC3     O 9575   1.945   1.225   0.945  0.5661 -0.0593  1.1793
  643TMC3     H 9576   1.732   1.241   0.845  1.7024 -0.6406  0.6438
  643TMC3    H1 9577   2.063   1.230   0.580  0.0657 -2.0596  0.9654
  643TMC3    H2 9578   1.661   1.226   0.433 -1.0811 -0.6383  0.2380
  643TMC3    C7 9579   1.907   1.197   0.346 -0.6212  0.2540 -0.1010
  643TMC3    C8 9580   1.546   1.235   0.673 -0.3560  0.9532  1.0678
  643TMC3    O1 9581   1.822   1.198   0.259 -0.4158 -0.2683 -0.1049
  643TMC3    O2 9582   1.516   1.197   0.787  0.4778  0.8828  0.1743
  644MPD2     C 9583   2.294   2.310  10.025 -0.1182 -0.3598  1.2223
  644MPD2    C1 9584   2.174   2.243  10.035 -0.1066  0.4845  0.2622
  644MPD2    C2 9585   2.056   2.315  10.045 -0.2330 -0.9412 -0.1886
  644MPD2    C3 9586   2.059   2.450  10.048  0.1231  0.0639 -0.1364
  644MPD2    C4 9587   2.185   2.517  10.043  0.6822 -0.2481 -0.1424
  644MPD2    C5 9588   2.297   2.446  10.028  0.7628 -0.5429  0.1794
  644MPD2     H 9589   1.965   2.257  10.041  1.0751 -3.0794  1.1189
  644MPD2    H1 9590   2.193   2.625  10.046  2.8939 -0.4379  0.3675
  644MPD2    H2 9591   2.387   2.255  10.026  0.7723  1.1157 -1.7778
  644MPD2    H3 9592   2.399   2.483  10.024  1.0515 -1.6510 -2.5663
  644MPD2     N 9593   1.932   2.507  10.058 -0.4502 -0.5350 -0.2688
  644MPD2    H5 9594   1.851   2.450  10.077 -0.2118 -0.7307  0.1799
  644MPD2    N1 9595   2.174   2.100  10.041  0.4893 -0.5511 -0.1363
  644MPD2    H7 9596   2.262   2.052  10.025  0.6086 -0.1487 -0.7085
  645TMC3    C1 9597   1.755   2.672  10.059  0.0198 -0.4176  0.2121
  645TMC3    C2 9598   1.727   2.806  10.029 -0.3286 -0.0883 -0.1585
  645TMC3    C3 9599   1.596   2.830   9.988 -0.1735 -0.2863 -0.2457
  645TMC3    C4 9600   1.656   2.574  10.068  0.2058  0.1941 -0.3418
  645TMC3    C5 9601   1.532   2.603  10.032 -0.4638 -0.0450 -0.2338
  645TMC3    C6 9602   1.497   2.730   9.988  0.1116  0.0917 -0.4527
  645TMC3     C 9603   1.901   2.640  10.050 -0.2129  0.7742 -0.2896
  645TMC3     O 9604   1.983   2.727  10.032 -0.1525 -1.1076 -0.0459
  645TMC3     H 9605   1.800   2.885  10.013 -1.2937  0.4438 -1.8931
  645TMC3    H1 9606   1.679   2.471  10.090  1.0797  0.1305 -1.5533
  645TMC3    H2 9607   1.395   2.750   9.960  0.6216  0.9622 -1.6820
  645TMC3    C7 9608   1.436   2.494  10.039 -0.6735  0.1047 -0.0523
  645TMC3    C8 9609   1.573   2.971   9.966 -0.1501  0.1270  0.1007
  645TMC3    O1 9610   1.457   2.403  10.122 -0.0399 -0.0340 -0.5448
  645TMC3    O2 9611   1.644   3.056  10.011 -0.4274 -0.1141 -0.0135
  646MPD2     C 9612   1.395   1.294  14.931  0.4243 -0.7733  0.7025
  646MPD2    C1 9613   1.284   1.271  15.014  0.2116 -0.1953 -0.1031
  646MPD2    C2 9614   1.161   1.317  14.965  0.3001  0.5115  0.7447
  646MPD2    C3 9615   1.147   1.370  14.840  0.3223  0.0609  0.0580
  646MPD2    C4 9616   1.259   1.378  14.763  0.1508 -0.1496 -0.1823
  646MPD2    C5 9617   1.380   1.336  14.801 -0.3706 -0.3980  0.3036
  646MPD2     H 9618   1.071   1.327  15.025 -0.7092 -1.2635 -0.5050
  646MPD2    H1 9619   1.262   1.417  14.662  0.1045 -1.7033 -0.7823
  646MPD2    H2 9620   1.497   1.281  14.966  0.3314 -0.8920  0.9310
  646MPD2    H3 9621   1.458   1.367  14.732 -2.4046 -1.1620 -2.3347
  646MPD2     N 9622   1.017   1.414  14.811  0.8537  0.7614 -0.0567
  646MPD2    H5 9623   0.949   1.385  14.880  0.8561 -2.5197 -1.4410
  646MPD2    N1 9624   1.300   1.214  15.144 -0.1943  0.1477 -0.3187
  646MPD2    H7 9625   1.392   1.182  15.170 -0.2840 -0.9596 -1.3697
  647TMC3    C1 9626   1.243   1.089  15.336  0.5234  0.1998  0.1617
  647TMC3    C2 9627   1.149   0.995  15.386 -0.3178 -0.9715  0.4701
  647TMC3    C3 9628   1.183   0.931  15.503 -0.6038  0.4894 -0.7881
  647TMC3    C4 9629   1.370   1.097  15.388 -1.0124  1.1688 -0.8484
  647TMC3    C5 9630   1.394   1.031  15.506 -0.2913  0.0237  0.3026
  647TMC3    C6 9631   1.300   0.955  15.571  0.4585 -0.1029  0.4241
  647TMC3     C 9632   1.201   1.176  15.229 -0.4462 -1.4107 -0.4632
  647TMC3     O 9633   1.081   1.203  15.224 -0.3027  0.0650  0.5200
  647TMC3     H 9634   1.057   0.967  15.336 -2.1490  1.6864  2.3102
  647TMC3    H1 9635   1.446   1.169  15.360  0.0430  0.6726  0.7944
  647TMC3    H2 9636   1.332   0.898  15.657  1.8553  1.1307  0.7285
  647TMC3    C7 9637   1.529   0.979  15.514 -0.3612  0.1626  0.0451
  647TMC3    C8 9638   1.145   0.791  15.502 -0.0370  0.2987  0.0828
  647TMC3    O1 9639   1.580   0.975  15.625 -0.1689 -0.6222 -1.0425
  647TMC3    O2 9640   1.029   0.774  15.455 -0.4466 -0.9083  0.0355
  648TMC3    C1 9641   0.437   3.431  16.220 -0.5236 -0.8237 -0.3604
  648TMC3    C2 9642   0.528   3.330  16.218  0.0098 -0.3687 -0.9987
  648TMC3    C3 9643   0.576   3.290  16.098  0.0984  0.0656 -0.1770
  648TMC3    C4 9644   0.405   3.496  16.111  0.1393 -0.8466 -1.1365
  648TMC3    C5 9645   0.476   3.468  15.996  0.1341  0.0577 -0.1249
  648TMC3    C6 9646   0.547   3.353  15.981 -0.6436  0.0795 -0.1853
  648TMC3     C 9647   0.379   3.469  16.347 -0.4475 -0.2153  0.6052
  648TMC3     O 9648   0.323   3.580  16.354  0.0392 -0.3698  0.3316
  648TMC3     H 9649   0.568   3.288  16.310 -0.7954 -0.4097 -0.6673
  648TMC3    H1 9650   0.346   3.587  16.115  1.9088  0.2736 -0.4485
  648TMC3    H2 9651   0.593   3.329  15.885  0.4844 -0.8286  0.5806
  648TMC3    C7 9652   0.437   3.534  15.870 -0.1651 -0.7786  0.5143
  648TMC3    C8 9653   0.646   3.173  16.083  0.9089  0.0797  0.0468
  648TMC3    O1 9654   0.509   3.506  15.772  0.8471  0.1552  0.3818
  648TMC3    O2 9655   0.589   3.071  16.121  0.6622 -0.3372  0.1047
  649TMC3    C1 9656   3.649   4.668  12.509  0.2466 -0.4714  0.5417
  649TMC3    C2 9657   3.751   4.668  12.415 -0.4520 -0.2522  0.0811
  649TMC3    C3 9658   3.875   4.625  12.457 -0.0123 -0.0481  0.4680
  649TMC3    C4 9659   3.678   4.650  12.640 -0.0366  0.4243  0.1698
  649TMC3    C5 9660   3.804   4.621  12.679 -0.5757  0.6655  0.2049
  649TMC3    C6 9661   3.909   4.604  12.587  0.2126 -0.2814 -0.1153
  649TMC3     C 9662   3.515   4.718  12.469  0.1454  1.2815 -0.1686
  649TMC3     O 9663   3.441   4.738  12.568 -0.2991  0.3612 -0.1674
  649TMC3     H 9664   3.732   4.689  12.310  0.2981  1.4409  0.2810
  649TMC3    H1 9665   3.607   4.653  12.722 -1.0805 -1.0890 -0.6589
  649TMC3    H2 9666   4.008   4.574  12.618  0.3986  0.8167  0.3642
  649TMC3    C7 9667   3.832   4.587  12.826 -0.3411 -0.8441  0.0922
  649TMC3    C8 9668   3.982   4.636  12.368 -0.0877 -1.3458  0.5319
  649TMC3    O1 9669   3.731   4.593  12.897  0.1864  0.9029 -0.3926
  649TMC3    O2 9670   3.956   4.625  12.250  0.0672 -0.8034  0.2108
  650TMC3    C1 9671   1.616   1.529  13.125  0.8672  0.5199 -0.7244
  650TMC3    C2 9672   1.574   1.646  13.188  0.7773  0.2983 -0.2401
  650TMC3    C3 9673   1.473   1.717  13.133  1.0911  0.1745 -0.1338
  650TMC3    C4 9674   1.565   1.498  13.003  0.4316  0.6139  0.2635
  650TMC3    C5 9675   1.470   1.580  12.946 -0.5879 -0.6363  0.5854
  650TMC3    C6 9676   1.415   1.689  13.013  0.1642 -0.3131 -0.2586
  650TMC3     C 9677   1.685   1.423  13.208 -0.7541  0.9591 -0.3892
  650TMC3     O 9678   1.723   1.458  13.316  0.3292 -0.3308 -0.8826
  650TMC3     H 9679   1.626   1.681  13.276 -0.6556  0.5091  0.5151
  650TMC3    H1 9680   1.608   1.416  12.947 -1.9597  1.2356 -2.4580
  650TMC3    H2 9681   1.331   1.747  12.973  0.0975 -0.4012 -0.2456
  650TMC3    C7 9682   1.461   1.576  12.800  0.1883  0.6254  0.0285
  650TMC3    C8 9683   1.462   1.854  13.165  0.0756 -0.2415 -0.1227
  650TMC3    O1 9684   1.503   1.479  12.742  0.3224  0.0513 -0.9021
  650TMC3    O2 9685   1.551   1.922  13.218 -0.2895 -0.3900  0.4054
  651MPD2     C 9686   0.265   3.306  11.115 -0.2563 -0.5995  0.4202
  651MPD2    C1 9687   0.243   3.442  11.126  0.1708 -0.1869  0.7797
  651MPD2    C2 9688   0.353   3.530  11.099  0.1403 -0.0417  0.4070
  651MPD2    C3 9689   0.477   3.477  11.061  0.4341 -0.2602 -0.2172
  651MPD2    C4 9690   0.498   3.340  11.069 -0.0648 -0.9368  0.1187
  651MPD2    C5 9691   0.395   3.260  11.103  0.3588 -0.4248 -0.1486
  651MPD2     H 9692   0.330   3.635  11.093  1.2084  0.0354 -2.6320
  651MPD2    H1 9693   0.590   3.288  11.047 -1.4486 -2.1236 -2.7862
  651MPD2    H2 9694   0.183   3.241  11.143 -1.5536  1.0933  0.5333
  651MPD2    H3 9695   0.417   3.154  11.096 -1.4200 -0.9675  2.5232
  651MPD2     N 9696   0.579   3.573  11.027  0.1011  0.2551 -0.4541
  651MPD2    H5 9697   0.553   3.669  11.048  2.9813  0.8790  0.2472
  651MPD2    N1 9698   0.129   3.495  11.182 -0.7695  0.0244  0.6186
  651MPD2    H7 9699   0.122   3.596  11.189  0.1912  0.0532  1.2239
  652TMC3    C1 9700   0.948   3.816  11.048 -0.2700  0.0890  0.1230
  652TMC3    C2 9701   0.895   3.692  11.034 -0.8403 -0.9403  0.9926
  652TMC3    C3 9702   0.775   3.678  10.978 -0.0429  0.4021  0.5811
  652TMC3    C4 9703   0.884   3.931  11.002  0.3391  0.4502  0.6246
  652TMC3    C5 9704   0.764   3.913  10.937 -0.0218  0.6628 -0.1444
  652TMC3    C6 9705   0.703   3.789  10.936 -0.3043  0.5563 -0.2649
  652TMC3     C 9706   1.070   3.812  11.126 -0.6092  1.0966 -0.0586
  652TMC3     O 9707   1.097   3.700  11.175  0.1161  0.5322  0.1603
  652TMC3     H 9708   0.949   3.603  11.066  2.2786  1.1125  1.3483
  652TMC3    H1 9709   0.925   4.029  11.023 -1.3770  1.1996  0.4846
  652TMC3    H2 9710   0.616   3.768  10.875 -1.5089  0.4097  1.5086
  652TMC3    C7 9711   0.670   4.026  10.916 -0.3414  0.2401 -0.4149
  652TMC3    C8 9712   0.706   3.550  10.998 -0.1044  0.1334  0.7631
  652TMC3    O1 9713   0.555   4.000  10.938 -0.1137  0.0857 -0.4960
  652TMC3    O2 9714   0.758   3.440  10.997  0.0380 -0.3652 -0.0102
  653MPD2     C 9715   4.056   3.467  17.644 -0.1460 -0.6994  0.6795
  653MPD2    C1 9716   3.971   3.544  17.566  0.2011 -0.2389 -0.0692
  653MPD2    C2 9717   3.899   3.484  17.465  0.0266 -0.0444  0.2086
  653MPD2    C3 9718   3.907   3.346  17.437  0.1934  0.3884  0.8784
  653MPD2    C4 9719   3.984   3.274  17.529  0.6422  0.7871 -0.4777
  653MPD2    C5 9720   4.066   3.330  17.619  0.0246  0.0647 -0.6515
  653MPD2     H 9721   3.854   3.557  17.399  0.9058 -0.5175 -0.9236
  653MPD2    H1 9722   3.998   3.168  17.514 -1.0643  0.6928 -1.4760
  653MPD2    H2 9723   4.114   3.517  17.721  1.1347 -0.6504 -0.3091
  653MPD2    H3 9724   4.139   3.276  17.678 -0.2773 -0.1956 -0.5199
  653MPD2     N 9725   3.850   3.292  17.319  0.0915  0.3362 -0.5168
  653MPD2    H5 9726   3.792   3.356  17.264 -0.4581 -1.8089 -2.4427
  653MPD2    N1 9727   3.964   3.682  17.569  0.3861 -0.5666  0.2777
  653MPD2    H7 9728   3.895   3.735  17.516  2.3067  1.1518 -0.4976
  654TMC3    C1 9729   3.811   3.155  17.146  0.0049  0.6177 -0.3568
  654TMC3    C2 9730   3.759   3.260  17.074  0.0548 -0.3570  0.1217
  654TMC3    C3 9731   3.707   3.230  16.950 -0.0253 -0.4748  0.2694
  654TMC3    C4 9732   3.826   3.031  17.097 -0.3738 -0.1083  0.1534
  654TMC3    C5 9733   3.770   3.002  16.971  0.3258  0.1450 -0.3748
  654TMC3    C6 9734   3.720   3.104  16.895 -0.1770  0.2930  0.5853
  654TMC3     C 9735   3.860   3.164  17.282  0.2031 -1.0254 -0.0876
  654TMC3     O 9736   3.906   3.058  17.331  0.0587  0.0907 -0.2468
  654TMC3     H 9737   3.742   3.360  17.111  2.2245  1.1143 -2.9252
  654TMC3    H1 9738   3.873   2.947  17.146 -0.9300 -0.2723  0.4063
  654TMC3    H2 9739   3.677   3.086  16.797 -1.2997 -1.4150  1.3738
  654TMC3    C7 9740   3.845   2.906  16.893  0.1767  0.3947  0.0832
  654TMC3    C8 9741   3.730   3.336  16.850  0.1317  0.1814  0.1087
  654TMC3    O1 9742   3.881   2.956  16.786  1.1522  0.0124  0.0478
  654TMC3    O2 9743   3.683   3.445  16.875 -0.2115  0.1106 -0.4980
  655MPD2     C 9744   1.214   3.566  15.855 -0.1980  0.5053  0.3897
  655MPD2    C1 9745   1.149   3.640  15.751  0.6118 -0.5385  0.1879
  655MPD2    C2 9746   1.190   3.614  15.617  0.1583  0.0640 -0.0210
  655MPD2    C3 9747   1.297   3.518  15.596  0.4001  0.1575 -0.4018
  655MPD2    C4 9748   1.355   3.451  15.703 -0.1333  0.2686 -0.0103
  655MPD2    C5 9749   1.317   3.477  15.833  0.4869 -0.6201  0.4472
  655MPD2     H 9750   1.152   3.670  15.533 -0.3183  0.0664  0.1970
  655MPD2    H1 9751   1.433   3.377  15.687  0.1034  0.4350  0.3937
  655MPD2    H2 9752   1.193   3.591  15.958  1.4784  3.8956 -0.0838
  655MPD2    H3 9753   1.356   3.404  15.903  0.3206 -2.0878 -0.9945
  655MPD2     N 9754   1.339   3.475  15.473  0.2527 -0.1458 -0.1576
  655MPD2    H5 9755   1.371   3.378  15.467  0.3816 -0.0794 -0.5415
  655MPD2    N1 9756   1.040   3.732  15.774 -0.5345  0.1113  0.1481
  655MPD2    H7 9757   1.011   3.785  15.691 -0.1987  0.0296 -0.0189
  656TMC3    C1 9758   0.853   3.832  15.877  1.0303 -0.3571 -0.5455
  656TMC3    C2 9759   0.770   3.828  15.981  0.6564 -0.2115  0.2775
  656TMC3    C3 9760   0.658   3.904  15.976  0.3608  0.0644  0.2818
  656TMC3    C4 9761   0.838   3.920  15.780  0.1264 -0.0724 -0.4099
  656TMC3    C5 9762   0.723   4.000  15.768 -0.4216 -0.4506  0.6197
  656TMC3    C6 9763   0.631   3.992  15.866  0.5103  0.2835  0.0863
  656TMC3     C 9764   0.967   3.737  15.886  0.9088 -0.2520 -0.1476
  656TMC3     O 9765   0.977   3.668  15.989  0.0091 -0.3308  0.1673
  656TMC3     H 9766   0.779   3.760  16.065  4.4997 -0.5634 -0.4430
  656TMC3    H1 9767   0.914   3.929  15.703  0.4107 -0.9375 -0.2341
  656TMC3    H2 9768   0.538   4.047  15.868 -0.8404 -2.0398  2.3972
  656TMC3    C7 9769   0.704   4.077  15.643  0.0211  0.7327  0.1764
  656TMC3    C8 9770   0.556   3.871  16.075  0.9543 -0.2885 -0.2083
  656TMC3    O1 9771   0.786   4.070  15.558  0.1708 -0.3481  0.0604
  656TMC3    O2 9772   0.543   3.755  16.106  0.1241  0.0678 -0.2514
  657TMC3    C1 9773   0.049   2.986  15.002  0.0359  0.6140 -0.5420
  657TMC3    C2 9774   0.095   3.037  15.124  0.7595 -0.5604 -0.4247
  657TMC3    C3 9775   0.003   3.096  15.210  0.8846 -0.5693  0.2804
  657TMC3    C4 9776   4.660   2.992  14.971  0.5475 -0.0837  0.3419
  657TMC3    C5 9777   4.574   3.052  15.057  0.2641  0.1251 -0.6606
  657TMC3    C6 9778   4.620   3.117  15.171 -0.0308  0.1138  0.4317
  657TMC3     C 9779   0.130   2.899  14.916 -0.3103  0.1558  0.0239
  657TMC3     O 9780   0.096   2.885  14.799 -0.1889 -0.2608  0.3115
  657TMC3     H 9781   0.201   3.041  15.143  0.7560  1.0594 -0.7139
  657TMC3    H1 9782   4.631   2.945  14.878 -1.1266  2.4279 -0.3928
  657TMC3    H2 9783   4.557   3.164  15.245  1.0608  1.3778  0.5701
  657TMC3    C7 9784   4.431   3.044  15.027  0.2698 -0.4445 -0.6576
  657TMC3    C8 9785   0.042   3.144  15.338  0.2778  0.4458 -0.7380
  657TMC3    O1 9786   4.403   3.027  14.907  0.2604 -0.5059 -0.3832
  657TMC3    O2 9787   4.722   3.241  15.380  0.2128  0.2468 -0.3376
  658MPD2     C 9788   1.777   3.408  14.678  0.2292  0.1030  0.0372
  658MPD2    C1 9789   1.681   3.497  14.730 -1.2985 -0.5275 -0.6150
  658MPD2    C2 9790   1.631   3.600  14.650  0.2375 -0.9065  0.7612
  658MPD2    C3 9791   1.682   3.626  14.519 -0.6762 -0.0176  0.3894
  658MPD2    C4 9792   1.774   3.533  14.471 -0.3356 -0.2302  0.5716
  658MPD2    C5 9793   1.823   3.429  14.554  0.2114 -0.0922  0.1047
  658MPD2     H 9794   1.561   3.672  14.692  1.4884  1.3062 -0.9652
  658MPD2    H1 9795   1.811   3.534  14.369 -1.0455  0.2055  0.3131
  658MPD2    H2 9796   1.814   3.323  14.734 -0.7964  1.3885  2.6782
  658MPD2    H3 9797   1.898   3.365  14.509 -1.3260 -3.2940  2.0882
  658MPD2     N 9798   1.627   3.730  14.441  0.4117  0.0852  1.1102
  658MPD2    H5 9799   1.554   3.783  14.488  2.1121  2.5698  0.9593
  658MPD2    N1 9800   1.630   3.475  14.855 -0.0590 -0.4089  0.2966
  658MPD2    H7 9801   1.660   3.388  14.898 -0.5366  0.4197  2.2873
  659TMC3    C1 9802   1.487   3.473  15.039 -0.7079  0.6098  0.2312
  659TMC3    C2 9803   1.444   3.542  15.145 -0.1029 -0.6502 -0.1753
  659TMC3    C3 9804   1.368   3.473  15.238 -0.8219 -0.3791 -0.2698
  659TMC3    C4 9805   1.481   3.341  15.022 -0.0775  0.4442  0.4177
  659TMC3    C5 9806   1.397   3.276  15.111 -0.2470  0.7957 -0.0992
  659TMC3    C6 9807   1.340   3.339  15.217 -0.0344 -0.2590 -0.1381
  659TMC3     C 9808   1.552   3.553  14.929 -0.1495  0.0849 -0.4414
  659TMC3     O 9809   1.535   3.672  14.924 -0.5776 -0.1751 -0.4103
  659TMC3     H 9810   1.455   3.649  15.156  0.2683 -0.7548  0.4512
  659TMC3    H1 9811   1.513   3.285  14.935 -1.1692  1.3998 -0.5968
  659TMC3    H2 9812   1.282   3.281  15.287 -0.8835  0.5671 -0.1528
  659TMC3    C7 9813   1.307   3.190  15.043  1.0966 -0.3935 -0.4757
  659TMC3    C8 9814   1.326   3.547  15.361 -0.0030 -0.1202  0.1614
  659TMC3    O1 9815   1.354   3.099  14.975  0.3013 -0.4632  0.1561
  659TMC3    O2 9816   1.311   3.671  15.357 -0.2550  0.2868 -0.2724
  660MPD2     C 9817   3.738   2.528  12.609 -0.0815  0.9092  0.0886
  660MPD2    C1 9818   3.620   2.588  12.645 -0.5218 -0.0592  0.3055
  660MPD2    C2 9819   3.558   2.561  12.765 -0.3743  0.9920 -0.0465
  660MPD2    C3 9820   3.629   2.493  12.862  0.3178 -0.1073  0.1966
  660MPD2    C4 9821   3.755   2.443  12.830 -0.1231 -0.2737  0.4495
  660MPD2    C5 9822   3.810   2.464  12.707 -0.0319 -0.7363 -0.3024
  660MPD2     H 9823   3.455   2.591  12.779 -1.3352 -1.9229 -0.9920
  660MPD2    H1 9824   3.822   2.397  12.902  0.3666  0.1203  0.2424
  660MPD2    H2 9825   3.787   2.550  12.515  1.0232  1.7508  0.8616
  660MPD2    H3 9826   3.912   2.427  12.700  0.1268 -0.0474 -1.4898
  660MPD2     N 9827   3.555   2.454  12.980 -0.4631  0.1289  0.1002
  660MPD2    H5 9828   3.458   2.482  12.993  0.2750  2.2946  1.0470
  660MPD2    N1 9829   3.559   2.663  12.544  0.3514 -0.4381 -0.0272
  660MPD2    H7 9830   3.584   2.648  12.447 -0.7122  0.7728 -0.4999
  661TMC3    C1 9831   3.392   2.795  12.430  0.8669 -0.0401 -0.2389
  661TMC3    C2 9832   3.450   2.764  12.305  0.0826  0.0630  0.8166
  661TMC3    C3 9833   3.393   2.817  12.189  0.5791  0.0988 -0.3175
  661TMC3    C4 9834   3.276   2.869  12.432 -0.7097 -0.3763 -0.5045
  661TMC3    C5 9835   3.214   2.911  12.316 -0.4804  0.2972 -0.2114
  661TMC3    C6 9836   3.271   2.869  12.192 -0.3455 -0.3624 -1.0419
  661TMC3     C 9837   3.449   2.747  12.561 -1.6783 -0.6941  0.5402
  661TMC3     O 9838   3.383   2.761  12.664  0.1596  0.8072  0.0893
  661TMC3     H 9839   3.549   2.722  12.295 -0.0876 -0.2982  0.6370
  661TMC3    H1 9840   3.219   2.899  12.519  2.3295  0.6026  1.1335
  661TMC3    H2 9841   3.216   2.881  12.100 -0.2273  2.1896 -0.7892
  661TMC3    C7 9842   3.066   2.917  12.330  0.0634  0.0909  0.0963
  661TMC3    C8 9843   3.452   2.779  12.067  0.3394 -0.6007  0.6385
  661TMC3    O1 9844   3.020   2.911  12.443  0.2044 -0.0134 -0.2164
  661TMC3    O2 9845   3.516   2.674  12.068  0.2368  0.2153 -0.0267
  662MPD2     C 9846   3.638   2.137  16.896  0.2685 -0.4158 -0.4567
  662MPD2    C1 9847   3.645   2.077  17.020 -0.6044 -0.5401 -0.8905
  662MPD2    C2 9848   3.608   2.158  17.129 -0.6675 -0.5276 -0.2542
  662MPD2    C3 9849   3.590   2.291  17.119 -0.5780 -1.2903 -0.4515
  662MPD2    C4 9850   3.593   2.351  16.997 -0.1739 -0.4097 -0.5744
  662MPD2    C5 9851   3.618   2.275  16.883  0.1458  0.0313 -0.0360
  662MPD2     H 9852   3.625   2.114  17.227 -1.2335  0.0954  0.1229
  662MPD2    H1 9853   3.584   2.459  16.987 -2.4988 -0.6558 -1.0274
  662MPD2    H2 9854   3.659   2.090  16.801 -0.0310 -0.3950 -0.5316
  662MPD2    H3 9855   3.625   2.315  16.783  2.9948 -0.2486  0.0518
  662MPD2     N 9856   3.564   2.383  17.225 -0.6856  0.1812  0.0221
  662MPD2    H5 9857   3.530   2.475  17.200 -0.8880  0.5688  1.7423
  662MPD2    N1 9858   3.685   1.944  17.038  0.1204 -0.5167 -0.0601
  662MPD2    H7 9859   3.674   1.907  17.131 -0.7197 -0.0576  0.0196
  663TMC3    C1 9860   3.787   1.735  16.995  0.4664  0.3873  0.0295
  663TMC3    C2 9861   3.800   1.715  17.134  0.1523 -0.8474 -0.4410
  663TMC3    C3 9862   3.871   1.612  17.186  0.0127 -0.0548  0.3230
  663TMC3    C4 9863   3.832   1.636  16.911  0.1659  0.0766  0.5623
  663TMC3    C5 9864   3.894   1.525  16.966 -0.4769 -0.3552 -0.5599
  663TMC3    C6 9865   3.925   1.523  17.095 -0.4177 -0.1347 -0.2705
  663TMC3     C 9866   3.736   1.861  16.943 -0.3977 -0.5572 -0.0569
  663TMC3     O 9867   3.732   1.873  16.823  0.3827 -0.5142  0.0760
  663TMC3     H 9868   3.772   1.787  17.209  0.1307 -0.2706 -1.0047
  663TMC3    H1 9869   3.823   1.661  16.806 -1.2451 -0.4949  0.5543
  663TMC3    H2 9870   3.966   1.429  17.130  0.7533  0.2662 -0.5658
  663TMC3    C7 9871   3.843   1.403  16.908 -0.2233 -0.5410  0.0911
  663TMC3    C8 9872   3.792   1.534  17.287 -0.2452  1.3864  0.9310
  663TMC3    O1 9873   3.851   1.399  16.784 -0.4819  0.4977 -0.3778
  663TMC3    O2 9874   3.788   1.415  17.263 -0.5562 -0.2747 -0.0857
  664MPD2     C 9875   1.954   4.367  17.297  0.0517 -0.6778 -0.4336
  664MPD2    C1 9876   2.003   4.455  17.390  0.3160  0.2760 -0.9132
  664MPD2    C2 9877   1.918   4.494  17.495 -0.1526 -0.0348  0.0869
  664MPD2    C3 9878   1.794   4.426  17.511  0.0477 -0.5819  0.4746
  664MPD2    C4 9879   1.761   4.327  17.422  0.2286 -1.3640  0.2388
  664MPD2    C5 9880   1.839   4.304  17.317 -0.1229 -0.1315  0.3292
  664MPD2     H 9881   1.964   4.563  17.564 -0.4136  0.8043 -0.5835
  664MPD2    H1 9882   1.662   4.285  17.429 -0.6013  0.5407  0.0288
  664MPD2    H2 9883   2.002   4.327  17.207  0.9083 -1.4462  0.3564
  664MPD2    H3 9884   1.805   4.244  17.234 -0.7243  1.9790 -0.9705
  664MPD2     N 9885   1.716   4.457  17.623  1.4209 -0.0710 -0.2473
  664MPD2    H5 9886   1.754   4.532  17.681  2.1307 -0.5079 -0.1410
  664MPD2    N1 9887   2.123   4.524  17.376 -0.4338  0.2641 -0.1582
  664MPD2    H7 9888   2.150   4.584  17.454 -1.2529  0.1327  0.2236
  665TMC3    C1 9889   1.552   4.442   0.022  0.0641 -0.2270  0.2132
  665TMC3    C2 9890   1.523   4.344   0.121  0.0249 -0.7911  0.5843
  665TMC3    C3 9891   1.541   4.396   0.251  0.3851  0.6475  0.5030
  665TMC3    C4 9892   1.580   4.575   0.046 -0.2534 -0.1730  0.3511
  665TMC3    C5 9893   1.578   4.613   0.178  0.2269  0.5623  0.0067
  665TMC3    C6 9894   1.589   4.521   0.279 -0.8786 -0.4380  0.5027
  665TMC3     C 9895   1.611   4.384  17.670  0.0223 -0.3356  0.4420
  665TMC3     O 9896   1.568   4.276  17.635  1.1021 -0.3492 -0.2817
  665TMC3     H 9897   1.497   4.241   0.100 -0.1468 -0.3804 -1.1779
  665TMC3    H1 9898   1.601   4.656  17.736  2.0601 -0.8108  0.3017
  665TMC3    H2 9899   1.601   4.556   0.381  2.5416  1.5384 -0.5936
  665TMC3    C7 9900   1.600   0.009   0.211  0.5555 -0.2960  0.3789
  665TMC3    C8 9901   1.509   4.316   0.366  0.1406 -0.2025 -0.4826
  665TMC3    O1 9902   1.676   0.021   0.310 -0.4831  0.0328  0.0241
  665TMC3    O2 9903   1.491   4.387   0.462 -0.1775  0.7028 -0.1767
  666TMC3    C1 9904   0.105   0.762  10.035  0.5566 -1.3405  0.4904
  666TMC3    C2 9905   0.190   0.651  10.044  0.4854  0.6411 -0.2294
  666TMC3    C3 9906   0.308   0.674   9.984 -0.5500 -0.9638 -0.0729
  666TMC3    C4 9907   0.127   0.883   9.978  0.2244  0.0629 -0.3696
  666TMC3    C5 9908   0.255   0.895   9.929  0.4051  0.3101  0.1473
  666TMC3    C6 9909   0.349   0.795   9.936 -0.4774 -0.0735 -0.6497
  666TMC3     C 9910   4.704   0.741  10.068 -0.2656 -0.3115 -0.0360
  666TMC3     O 9911   4.616   0.815  10.026 -0.0199  0.0889 -0.3676
  666TMC3     H 9912   0.174   0.551  10.083  2.2262  0.1686 -0.7772
  666TMC3    H1 9913   0.066   0.972   9.992  1.6015  1.0850 -0.7986
  666TMC3    H2 9914   0.446   0.807   9.890 -0.0209 -1.6891 -0.0997
  666TMC3    C7 9915   0.302   1.028   9.891  0.7120 -0.2671 -0.3983
  666TMC3    C8 9916   0.420   0.596  10.047  0.6612 -0.0676  0.3469
  666TMC3    O1 9917   0.423   1.036   9.909 -0.0046 -0.0509  0.0496
  666TMC3    O2 9918   0.398   0.571  10.165 -0.6929  0.5225 -0.1236
  667MPD2     C 9919   2.644   0.175  15.043  0.0841 -0.1287  0.2047
  667MPD2    C1 9920   2.566   0.263  15.124 -1.1001 -0.4334  0.2889
  667MPD2    C2 9921   2.440   0.222  15.164  0.2493 -0.4843 -0.0413
  667MPD2    C3 9922   2.386   0.093  15.128 -0.5022  0.7227  0.3843
  667MPD2    C4 9923   2.473   0.009  15.053 -0.1018 -0.0492 -1.1244
  667MPD2    C5 9924   2.594   0.057  15.003  0.1050  0.0804  0.3974
  667MPD2     H 9925   2.375   0.288  15.221 -0.5510 -0.9493 -0.4120
  667MPD2    H1 9926   2.449   4.645  15.037 -0.0315 -0.6194  2.4611
  667MPD2    H2 9927   2.747   0.194  15.014  0.4717 -0.6889  1.2180
  667MPD2    H3 9928   2.652   4.723  14.949 -0.6871 -0.2217 -0.0315
  667MPD2     N 9929   2.256   0.054  15.159 -0.2046 -0.0409  0.1316
  667MPD2    H5 9930   2.245   4.696  15.135 -0.8510 -0.3398  1.6086
  667MPD2    N1 9931   2.628   0.379  15.174  0.6509 -0.0861  0.0611
  667MPD2    H7 9932   2.569   0.435  15.236  0.9188  0.5203 -0.2343
  668TMC3    C1 9933   2.779   0.564  15.205 -0.4284  0.3376 -0.2265
  668TMC3    C2 9934   2.865   0.651  15.143  0.8580 -0.2107  0.3973
  668TMC3    C3 9935   2.911   0.757  15.222 -0.6992 -0.1265  0.2059
  668TMC3    C4 9936   2.752   0.578  15.338  0.5091 -1.1687  0.0665
  668TMC3    C5 9937   2.796   0.684  15.411  1.4743 -0.2185 -0.2251
  668TMC3    C6 9938   2.869   0.779  15.353  0.2148 -0.2704  0.4235
  668TMC3     C 9939   2.744   0.438  15.132 -0.4037  0.7325 -0.3517
  668TMC3     O 9940   2.815   0.418  15.035  0.0166 -0.5752  0.3594
  668TMC3     H 9941   2.893   0.632  15.040  2.4481 -1.0434  0.9728
  668TMC3    H1 9942   2.699   0.498  15.389 -1.6812  2.3015  3.1852
  668TMC3    H2 9943   2.904   0.870  15.401  0.9315  0.7181 -1.9536
  668TMC3    C7 9944   2.784   0.676  15.555  0.6630  0.5224 -0.7611
  668TMC3    C8 9945   3.042   0.804  15.193 -0.4213 -0.2897  0.4790
  668TMC3    O1 9946   2.707   0.600  15.603 -0.0879  0.0922  0.1392
  668TMC3    O2 9947   3.111   0.811  15.291  0.1614  0.5110 -0.1356
  669TMC3    C1 9948   0.688   0.336  14.830  0.8182  0.4192 -0.7246
  669TMC3    C2 9949   0.624   0.296  14.717  0.2237  0.3296  0.8261
  669TMC3    C3 9950   0.661   0.353  14.592  0.5482 -1.1248 -0.3497
  669TMC3    C4 9951   0.787   0.431  14.816 -1.3677  0.4409 -0.1130
  669TMC3    C5 9952   0.822   0.483  14.694 -0.0289  0.4311  0.8574
  669TMC3    C6 9953   0.756   0.448  14.576 -0.6981  0.8906  0.1452
  669TMC3     C 9954   0.703   0.237  14.930  0.2187 -0.1266  0.1439
  669TMC3     O 9955   0.610   0.168  14.967 -0.6943  0.3050  0.9487
  669TMC3     H 9956   0.547   0.220  14.714  0.1726  0.4213 -0.0134
  669TMC3    H1 9957   0.840   0.472  14.901  0.8453 -1.2606 -0.6797
  669TMC3    H2 9958   0.796   0.462  14.476 -0.0603  0.4968  0.3502
  669TMC3    C7 9959   0.940   0.570  14.695 -0.5633 -0.6768  0.4439
  669TMC3    C8 9960   0.572   0.312  14.479  0.8975 -0.4161  0.6495
  669TMC3    O1 9961   1.000   0.595  14.799  0.1356 -0.2920 -0.4730
  669TMC3    O2 9962   0.480   0.230  14.489  0.0624  0.2688 -0.0260
  670MPD2     C 9963   4.079   2.713  13.433  0.0613  0.0620  0.6070
  670MPD2    C1 9964   4.038   2.583  13.471 -0.1253  0.3087 -0.9616
  670MPD2    C2 9965   3.977   2.557  13.589 -0.0392 -0.9392  0.2880
  670MPD2    C3 9966   3.960   2.659  13.679 -0.9105  0.0702 -0.7667
  670MPD2    C4 9967   4.007   2.786  13.646  0.7343  0.2115  0.4839
  670MPD2    C5 9968   4.061   2.817  13.523 -0.1253 -0.2849 -0.0142
  670MPD2     H 9969   3.934   2.459  13.606  1.0370 -1.0804  2.3634
  670MPD2    H1 9970   4.000   2.870  13.714  2.3561  0.2660  0.5895
  670MPD2    H2 9971   4.126   2.721  13.336  1.9305  0.6624  1.5582
  670MPD2    H3 9972   4.110   2.912  13.511  0.8303 -0.8920 -0.9535
  670MPD2     N 9973   3.875   2.634  13.792 -0.5006  0.0547 -0.6628
  670MPD2    H5 9974   3.835   2.541  13.794  2.0424 -1.0501 -1.9062
  670MPD2    N1 9975   4.073   2.466  13.395 -0.2068 -0.0800 -0.3408
  670MPD2    H7 9976   4.085   2.380  13.448  0.8423 -0.1980 -0.7715
  671TMC3    C1 9977   3.747   2.666  13.980 -0.1170  0.0973 -0.0014
  671TMC3    C2 9978   3.800   2.647  14.103  0.3762  0.4743 -0.2742
  671TMC3    C3 9979   3.745   2.551  14.186  0.0769 -0.0131  0.4627
  671TMC3    C4 9980   3.646   2.586  13.934 -1.2198 -0.7827 -0.7368
  671TMC3    C5 9981   3.596   2.487  14.013 -0.1303  0.1210 -0.6771
  671TMC3    C6 9982   3.643   2.467  14.140 -0.1015 -0.4238 -0.6548
  671TMC3     C 9983   3.839   2.728  13.887  0.7985 -0.7626 -0.3121
  671TMC3     O 9984   3.909   2.823  13.915  0.3501 -0.5093 -0.0296
  671TMC3     H 9985   3.893   2.698  14.122  0.5042  0.0007  0.3628
  671TMC3    H1 9986   3.622   2.597  13.829 -0.5208 -0.6057 -0.8811
  671TMC3    H2 9987   3.606   2.395  14.212  0.1718  0.2363  0.1473
  671TMC3    C7 9988   3.492   2.405  13.951 -0.4846  0.1010 -0.4828
  671TMC3    C8 9989   3.844   2.471  14.252  0.5342  0.1096  0.2587
  671TMC3    O1 9990   3.487   2.289  13.991  0.0351 -0.2122  0.0781
  671TMC3    O2 9991   3.833   2.348  14.247  0.2862  0.1367 -0.2064
  672MPD2     C 9992   3.852   3.430   0.487 -0.5139 -0.7808 -0.4172
  672MPD2    C1 9993   3.905   3.337   0.565  0.1653 -0.0756 -0.7032
  672MPD2    C2 9994   4.018   3.371   0.634  0.3560 -0.2344 -0.3683
  672MPD2    C3 9995   4.069   3.498   0.626 -0.0363 -0.1903  0.4230
  672MPD2    C4 9996   4.006   3.593   0.551  0.5381 -0.1241 -0.3770
  672MPD2    C5 9997   3.896   3.562   0.478 -0.0803 -0.5747  0.4383
  672MPD2     H 9998   4.061   3.298   0.701  0.2367  1.1096  1.1834
  672MPD2    H1 9999   4.057   3.688   0.537 -0.9804  0.9697  1.5412
  672MPD2    H210000   3.760   3.416   0.431 -1.1314 -1.0346  0.6383
  672MPD2    H310001   3.845   3.638   0.421  2.0823 -0.0005 -0.6862
  672MPD2     N10002   4.192   3.534   0.693 -0.0741 -0.4254  0.0825
  672MPD2    H510003   4.225   3.630   0.685  0.1615 -0.5826 -0.8344
  672MPD2    N110004   3.840   3.211   0.588  0.5254  0.4242 -0.0549
  672MPD2    H710005   3.894   3.135   0.628  1.3505  0.9852 -0.1007
  673TMC3    C110006   3.662   3.043   0.613 -0.3047 -0.0855 -0.3432
  673TMC3    C210007   3.736   2.950   0.547 -0.7489 -0.1782  0.0734
  673TMC3    C310008   3.670   2.837   0.513  0.1343 -0.3891  0.9164
  673TMC3    C410009   3.529   3.039   0.628  0.2771 -0.2002  0.1776
  673TMC3    C510010   3.457   2.935   0.574 -0.8189  0.4150  0.9083
  673TMC3    C610011   3.533   2.823   0.522 -0.4043 -0.4195  0.9574
  673TMC3     C10012   3.703   3.182   0.579 -1.1361 -0.3717 -1.5164
  673TMC3     O10013   3.608   3.256   0.558 -0.0677  0.1710  0.5592
  673TMC3     H10014   3.830   2.981   0.503 -0.8870 -1.3054 -1.0096
  673TMC3    H110015   3.473   3.112   0.686  0.1662 -0.8174  0.8459
  673TMC3    H210016   3.477   2.738   0.483  2.4991 -1.7061 -0.3693
  673TMC3    C710017   3.354   2.981   0.480 -0.1238 -0.2676 -0.4044
  673TMC3    C810018   3.746   2.733   0.444  0.5859 -0.1124 -0.3888
  673TMC3    O110019   3.290   2.902   0.411 -0.0318 -0.6197  0.5158
  673TMC3    O210020   3.687   2.650   0.389  0.0222  0.3186 -0.2915
  674MPD2     C10021   3.791   3.399   0.133  0.0679 -0.3901 -0.3322
  674MPD2    C110022   3.714   3.289   0.106  0.6085 -0.2406 -0.3191
  674MPD2    C210023   3.592   3.300   0.049 -0.6878 -0.1163 -0.3228
  674MPD2    C310024   3.551   3.419  17.747  0.3825  0.2029  0.3159
  674MPD2    C410025   3.631   3.533   0.002  0.4303 -0.4494  0.5561
  674MPD2    C510026   3.749   3.526   0.077 -0.1012 -0.8194  0.1132
  674MPD2     H10027   3.531   3.211   0.036 -0.0834 -0.3916 -1.2925
  674MPD2    H110028   3.602   3.633  17.730 -2.2278 -2.1450 -2.3328
  674MPD2    H210029   3.876   3.391   0.199  1.6337 -2.0025 -2.5575
  674MPD2    H310030   3.811   3.614   0.090 -0.1812 -0.4587 -1.9177
  674MPD2     N10031   3.428   3.407  17.673 -0.0897  0.0784 -0.3139
  674MPD2    H510032   3.382   3.316  17.664 -0.6610  0.0654  2.8922
  674MPD2    N110033   3.764   3.169   0.151  0.7480 -0.0004  0.0769
  674MPD2    H710034   3.861   3.178   0.180  0.9968  0.6435 -0.9582
  675TMC3    C110035   3.815   2.946   0.116 -0.1004 -0.3011  0.7929
  675TMC3    C210036   3.762   2.820   0.102 -0.1491 -0.1389  0.3279
  675TMC3    C310037   3.844   2.725   0.038  0.2882  0.6166 -0.3003
  675TMC3    C410038   3.938   2.971   0.060 -0.1856  0.5096 -0.1758
  675TMC3    C510039   4.007   2.871  17.747  0.7315 -0.4349  0.0852
  675TMC3    C610040   3.965   2.747  17.744 -0.3257 -0.1974  0.6725
  675TMC3     C10041   3.712   3.048   0.137  0.2798 -0.3918  0.2083
  675TMC3     O10042   3.595   3.015   0.136  0.2533 -0.1368  0.4671
  675TMC3     H10043   3.657   2.799   0.121 -0.6653 -0.7109 -3.0677
  675TMC3    H110044   3.977   3.072   0.059 -1.3963  0.9902  0.6634
  675TMC3    H210045   4.014   2.659  17.702 -0.5344  0.2252 -0.4539
  675TMC3    C710046   4.131   2.901  17.673 -0.2213  0.5626 -0.0495
  675TMC3    C810047   3.783   2.600   0.005 -1.1658 -0.0692 -0.4157
  675TMC3    O110048   4.167   2.819  17.587  0.3014 -0.4179 -0.2688
  675TMC3    O210049   3.825   2.534  17.674  0.4527  0.3444 -0.2267
  676MPD2     C10050   1.695   1.645  11.279 -1.2619 -0.1708  0.8581
  676MPD2    C110051   1.589   1.582  11.345  0.2571  0.2053 -0.5788
  676MPD2    C210052   1.563   1.448  11.326  0.7179  0.6754 -0.4151
  676MPD2    C310053   1.654   1.366  11.259 -0.0191 -0.2757 -0.4708
  676MPD2    C410054   1.761   1.430  11.190  0.2491  0.0990 -0.1776
  676MPD2    C510055   1.776   1.569  11.199 -0.8575  0.4159 -0.4184
  676MPD2     H10056   1.480   1.402  11.379  0.8195 -0.3907 -1.1763
  676MPD2    H110057   1.823   1.381  11.115 -0.0951  1.1271 -1.1392
  676MPD2    H210058   1.713   1.751  11.297 -3.2135  0.3641 -0.3250
  676MPD2    H310059   1.858   1.606  11.139  0.0373  1.0146  1.1568
  676MPD2     N10060   1.634   1.232  11.239  0.9998 -0.1253  0.5139
  676MPD2    H510061   1.715   1.181  11.206 -0.0351 -1.4901  0.0675
  676MPD2    N110062   1.501   1.647  11.430 -0.0362 -0.0701  0.6963
  676MPD2    H710063   1.420   1.597  11.465  0.3540  0.4519  2.3399
  677TMC3    C110064   1.431   1.815  11.578 -0.0065 -0.1351  0.0027
  677TMC3    C210065   1.312   1.762  11.552  0.1988  0.9223 -0.4332
  677TMC3    C310066   1.224   1.772  11.654 -0.3135  0.1374 -0.2536
  677TMC3    C410067   1.464   1.848  11.707 -0.1197  0.4880  0.1275
  677TMC3    C510068   1.372   1.879  11.800  0.4778  0.0039  0.2411
  677TMC3    C610069   1.242   1.829  11.775 -0.3032  0.5692 -0.1406
  677TMC3     C10070   1.532   1.762  11.496  0.5341  0.7361  0.0994
  677TMC3     O10071   1.644   1.809  11.511  0.9032  0.8535  0.3669
  677TMC3     H10072   1.286   1.748  11.448 -2.6052  1.0470  0.2464
  677TMC3    H110073   1.571   1.856  11.723  0.0111 -0.6499 -0.2012
  677TMC3    H210074   1.165   1.830  11.851  0.4241 -0.7650  0.6122
  677TMC3    C710075   1.411   1.902  11.941 -0.2019  0.5223 -0.8704
  677TMC3    C810076   1.105   1.690  11.628 -0.0899 -0.6189  0.0380
  677TMC3    O110077   1.333   1.868  12.029  0.5883  0.7652  0.0738
  677TMC3    O210078   1.028   1.737  11.547  0.2980  0.1353 -0.1696
  678MPD2     C10079   2.674   1.234   1.287  0.7019 -0.7859  0.3258
  678MPD2    C110080   2.674   1.156   1.172 -0.4081  0.1807 -0.8014
  678MPD2    C210081   2.560   1.089   1.134  0.0414 -0.0246  0.7840
  678MPD2    C310082   2.448   1.102   1.213 -0.5085  0.3266  0.1674
  678MPD2    C410083   2.448   1.189   1.323 -0.9124 -0.5767 -0.1461
  678MPD2    C510084   2.559   1.253   1.357 -0.4802 -0.2710 -0.5118
  678MPD2     H10085   2.558   1.024   1.048 -0.5990 -0.9983  1.5342
  678MPD2    H110086   2.360   1.197   1.385 -0.0457  2.9962  0.6113
  678MPD2    H210087   2.758   1.297   1.312  0.2889  0.2140 -0.8258
  678MPD2    H310088   2.560   1.326   1.437 -1.1869  0.0554 -0.8027
  678MPD2     N10089   2.341   1.018   1.182  0.0240  0.0934  0.1916
  678MPD2    H510090   2.337   0.956   1.102 -0.6119  0.1085  0.2111
  678MPD2    N110091   2.790   1.146   1.084 -0.3084 -0.3383  0.3462
  678MPD2    H710092   2.771   1.113   0.990  1.0603 -1.3699  0.4285
  679TMC3    C110093   3.171   1.125   0.887 -0.2974 -0.1275  0.1048
  679TMC3    C210094   3.107   1.123   1.008 -0.2264 -0.1318  0.0983
  679TMC3    C310095   2.997   1.203   1.009 -0.6818  0.4111 -0.1268
  679TMC3    C410096   3.133   1.203   0.774 -0.0426 -1.0450  0.0134
  679TMC3    C510097   3.030   1.290   0.790 -0.6759 -0.1015 -0.3888
  679TMC3    C610098   2.949   1.279   0.904 -0.0965  0.1303 -0.0214
  679TMC3     C10099   3.245   1.006   0.842  0.1315  0.6497 -0.2087
  679TMC3     O10100   3.275   0.988   0.724  0.1392  0.1100  0.0169
  679TMC3     H10101   3.131   1.064   1.096  1.1443  0.1583 -0.0823
  679TMC3    H110102   3.194   1.212   0.686 -0.5619 -4.6563 -0.7202
  679TMC3    H210103   2.867   1.347   0.924  1.2958  0.7348  3.6271
  679TMC3    C710104   3.015   1.387   0.685  0.4301 -0.0754 -0.2060
  679TMC3    C810105   2.911   1.185   1.126  0.0982  0.5006 -0.7770
  679TMC3    O110106   3.110   1.412   0.613 -0.2736 -0.2542 -0.5921
  679TMC3    O210107   2.968   1.188   1.236  0.2500 -0.3667 -0.4547
  680MPD2     C10108   3.406   0.330  13.633  0.6902 -0.1859  0.3553
  680MPD2    C110109   3.502   0.282  13.726  0.1187  0.0395 -0.1364
  680MPD2    C210110   3.535   0.370  13.832  0.8290 -0.1038  0.0533
  680MPD2    C310111   3.511   0.507  13.817 -0.0773  0.0305 -0.5077
  680MPD2    C410112   3.433   0.551  13.717  0.3089  0.5102  0.0224
  680MPD2    C510113   3.369   0.463  13.631  0.3582 -0.2566  0.1066
  680MPD2     H10114   3.596   0.322  13.907  1.1129  0.1675 -0.0020
  680MPD2    H110115   3.414   0.657  13.721  2.5218  0.9197 -0.3547
  680MPD2    H210116   3.353   0.258  13.572 -0.5438  0.4545  0.6635
  680MPD2    H310117   3.304   0.502  13.554  0.5676 -0.2861 -0.0862
  680MPD2     N10118   3.573   0.604  13.892  0.5689 -0.3181  0.0985
  680MPD2    H510119   3.565   0.704  13.874 -1.5580 -0.1275  2.0339
  680MPD2    N110120   3.550   0.149  13.733 -0.3069  0.4614  0.2788
  680MPD2    H710121   3.597   0.113  13.815 -1.3083  1.5273  1.3257
  681TMC3    C110122   3.636   4.690  13.634 -0.9516 -0.2162  0.5400
  681TMC3    C210123   3.643   4.631  13.758 -0.6379  0.3245  0.0491
  681TMC3    C310124   3.702   4.515  13.766  0.0917  0.2909 -0.7215
  681TMC3    C410125   3.703   4.630  13.522 -0.0220  0.1681 -0.5070
  681TMC3    C510126   3.769   4.511  13.541  0.2497 -0.4940 -0.1559
  681TMC3    C610127   3.762   4.448  13.661  0.5355 -0.0469 -0.0251
  681TMC3     C10128   3.562   0.070  13.620 -0.2829  0.1676  0.0224
  681TMC3     O10129   3.520   0.085  13.504  0.6479 -0.5566  0.3743
  681TMC3     H10130   3.593   4.677  13.842  1.7591 -1.7647  2.6113
  681TMC3    H110131   3.705   4.681  13.427  1.4174  0.8781 -0.0924
  681TMC3    H210132   3.825   4.361  13.679 -0.3460 -0.1252  2.6472
  681TMC3    C710133   3.899   4.508  13.468 -0.7909 -0.2825  0.1328
  681TMC3    C810134   3.679   4.429  13.880  0.2599 -0.2360  0.0267
  681TMC3    O110135   4.001   4.495  13.535 -0.6199 -0.4424 -0.4426
  681TMC3    O210136   3.685   4.309  13.862  0.3365  0.5091  0.4103
  682MPD2     C10137   0.622   1.878  10.396  0.0154  0.0347  0.5868
  682MPD2    C110138   0.627   1.745  10.362  0.2018 -0.6810 -0.5542
  682MPD2    C210139   0.568   1.652  10.438 -0.4282  0.3117 -0.4554
  682MPD2    C310140   0.503   1.687  10.555 -0.0796  0.0063  0.0069
  682MPD2    C410141   0.492   1.817  10.590  0.2958  0.3677 -0.2795
  682MPD2    C510142   0.547   1.906  10.505  0.0095 -0.4268  0.1170
  682MPD2     H10143   0.564   1.552  10.395  0.3922  0.1008 -0.0292
  682MPD2    H110144   0.447   1.851  10.683 -0.5869  1.9101 -1.2659
  682MPD2    H210145   0.676   1.949  10.335 -0.3009  0.5260  0.8768
  682MPD2    H310146   0.539   2.013  10.521  0.0499 -0.5802  1.1450
  682MPD2     N10147   0.445   1.589  10.642 -0.6428 -0.4547  0.2785
  682MPD2    H510148   0.431   1.608  10.740 -0.0398 -4.8889  1.2078
  682MPD2    N110149   0.685   1.699  10.244  0.0222  0.3463 -0.0284
  682MPD2    H710150   0.696   1.599  10.226 -2.7354 -0.0104  0.2383
  683TMC3    C110151   0.405   1.339  10.953  0.2106  0.3210  0.0850
  683TMC3    C210152   0.363   1.211  10.930  0.8523  0.0291 -0.1802
  683TMC3    C310153   0.334   1.162  10.801  0.1370 -0.0161  0.2561
  683TMC3    C410154   0.420   1.427  10.852  0.2536  0.9378 -0.3781
  683TMC3    C510155   0.386   1.374  10.726  0.1276  0.7969 -0.3207
  683TMC3    C610156   0.351   1.249  10.692  0.3439  0.3495  0.0105
  683TMC3     C10157   0.450   1.390  11.087 -0.6461 -0.1205 -0.2738
  683TMC3     O10158   0.503   1.502  11.100 -0.2233 -0.4100  0.0842
  683TMC3     H10159   0.324   1.158  11.016  0.5958 -0.4225 -0.5747
  683TMC3    H110160   0.458   1.524  10.880  0.9150  0.3853  0.6114
  683TMC3    H210161   0.315   1.218  10.595 -1.0159  2.0028 -0.0054
  683TMC3    C710162   0.417   1.455  10.609 -0.4047  0.0386 -0.1419
  683TMC3    C810163   0.324   1.020  10.780 -0.1371  0.1620  0.8970
  683TMC3    O110164   0.405   1.408  10.495 -0.2884 -0.2174 -0.0873
  683TMC3    O210165   0.354   0.990  10.665 -0.1517 -0.0834 -0.1585
  684MPD2     C10166   4.106   0.333  16.124 -0.8328 -0.2582  0.5611
  684MPD2    C110167   4.016   0.409  16.054  0.3766  0.0745  0.1939
  684MPD2    C210168   3.989   0.526  16.115 -0.6775 -0.1170 -0.5364
  684MPD2    C310169   4.052   0.590  16.223  0.2381 -0.5479  0.2195
  684MPD2    C410170   4.136   0.499  16.281 -0.3630  0.0555  0.1710
  684MPD2    C510171   4.163   0.375  16.235 -0.0937  0.1848 -0.3264
  684MPD2     H10172   3.913   0.577  16.057  1.0020  2.0422 -0.8073
  684MPD2    H110173   4.196   0.536  16.363  1.3370 -2.4316  0.0642
  684MPD2    H210174   4.142   0.237  16.088 -0.0972  0.8803 -1.7524
  684MPD2    H310175   4.242   0.315  16.277  0.4878  0.5823 -0.8491
  684MPD2     N10176   4.041   0.724  16.257 -0.0946 -0.5184 -0.3334
  684MPD2    H510177   4.097   0.756  16.335 -1.5126  0.0876  0.4435
  684MPD2    N110178   3.960   0.382  15.927  0.1370  0.0309 -0.1907
  684MPD2    H710179   3.901   0.452  15.882 -1.5099 -1.6668 -0.6708
  685TMC3    C110180   3.980   0.322  15.712 -0.4954 -0.5899 -0.5144
  685TMC3    C210181   3.900   0.429  15.683 -0.6392  0.3339 -0.2599
  685TMC3    C310182   3.926   0.505  15.579  0.2070  0.6612 -0.4832
  685TMC3    C410183   4.111   0.315  15.659 -0.3303  0.5522  1.5433
  685TMC3    C510184   4.138   0.414  15.567  0.2877 -0.6944 -0.7618
  685TMC3    C610185   4.044   0.500  15.510  0.2898  0.4087  0.0923
  685TMC3     C10186   3.984   0.278  15.851 -0.1508  0.6098  0.5359
  685TMC3     O10187   4.046   0.176  15.877 -0.3533 -0.6978  0.5100
  685TMC3     H10188   3.797   0.419  15.715 -0.8631  2.2055 -0.4046
  685TMC3    H110189   4.182   0.243  15.698  0.7170  0.2596 -0.8841
  685TMC3    H210190   4.061   0.564  15.425  2.2194 -0.8608 -0.4594
  685TMC3    C710191   4.269   0.475  15.596  0.7321 -0.3193 -0.7348
  685TMC3    C810192   3.815   0.585  15.528  0.2484  0.2128  0.1259
  685TMC3    O110193   4.354   0.407  15.644 -0.3678  0.6446  0.3014
  685TMC3    O210194   3.819   0.598  15.402  0.1399 -0.3338  0.3358
  686MPD2     C10195   0.606   0.858  15.495 -0.5129 -0.6182  0.0058
  686MPD2    C110196   0.665   0.744  15.539  0.5566  0.6522 -0.2389
  686MPD2    C210197   0.711   0.661  15.439  0.3585  0.1942 -0.9212
  686MPD2    C310198   0.713   0.692  15.304  0.1752 -0.0048 -0.1303
  686MPD2    C410199   0.655   0.815  15.263  0.5461  0.0535 -0.0702
  686MPD2    C510200   0.604   0.894  15.363  0.1688 -0.1008  0.1393
  686MPD2     H10201   0.755   0.565  15.461 -1.8831  0.1369  3.2803
  686MPD2    H110202   0.644   0.841  15.158  1.4143 -1.6605 -0.5766
  686MPD2    H210203   0.550   0.918  15.565 -1.3225 -1.4328  0.0435
  686MPD2    H310204   0.554   0.988  15.343  1.2355 -0.1173 -2.6307
  686MPD2     N10205   0.769   0.607  15.203 -0.2291 -0.7192 -0.5427
  686MPD2    H510206   0.787   0.649  15.113 -1.0998  1.8870  0.4935
  686MPD2    N110207   0.641   0.704  15.672  0.1924  0.1862  0.1279
  686MPD2    H710208   0.582   0.771  15.720 -0.5638 -2.0083  2.2324
  687TMC3    C110209   0.770   0.392  15.317 -0.8610  0.1493 -0.0941
  687TMC3    C210210   0.635   0.377  15.325  0.4769  0.0427 -0.4742
  687TMC3    C310211   0.582   0.288  15.409 -0.0323  0.0126  0.3033
  687TMC3    C410212   0.848   0.304  15.387  0.5705 -0.2840 -0.8256
  687TMC3    C510213   0.790   0.199  15.459 -0.1529 -0.6822 -0.3716
  687TMC3    C610214   0.657   0.206  15.483  0.2896  0.5045  0.4950
  687TMC3     C10215   0.833   0.486  15.219  0.2793  0.0483  0.0821
  687TMC3     O10216   0.905   0.429  15.133  0.2969  0.2255  0.3596
  687TMC3     H10217   0.571   0.440  15.263  0.2886  0.0012 -0.3230
  687TMC3    H110218   0.956   0.308  15.386  0.4795  2.4050  0.5261
  687TMC3    H210219   0.614   0.152  15.566  1.0271 -1.0991 -0.1559
  687TMC3    C710220   0.871   0.141  15.565  0.3011 -0.2304 -0.1771
  687TMC3    C810221   0.445   0.301  15.460  0.2862 -0.3758  0.3017
  687TMC3    O110222   0.817   0.098  15.665  0.2049  0.5402 -0.4153
  687TMC3    O210223   0.390   0.206  15.511  0.5760  0.0975  0.4987
  688MPD2     C10224   4.247   4.260  17.162  0.5710  1.2260 -0.1414
  688MPD2    C110225   4.285   4.153  17.242 -0.0910 -0.1712 -0.2409
  688MPD2    C210226   4.406   4.086  17.216 -0.5060  0.1427 -0.3383
  688MPD2    C310227   4.488   4.140  17.117  0.3110  0.7922  0.0446
  688MPD2    C410228   4.454   4.255  17.045 -0.5166  1.1156  0.0419
  688MPD2    C510229   4.327   4.307  17.062 -0.5011  0.7463 -0.0410
  688MPD2     H10230   4.433   4.000  17.277 -1.2750 -0.3315 -0.6740
  688MPD2    H110231   4.529   4.300  16.980  1.1619  0.0499  1.2345
  688MPD2    H210232   4.143   4.289  17.155 -0.5819 -2.4247  1.7267
  688MPD2    H310233   4.287   4.386  16.999  0.0600  0.1079 -1.2043
  688MPD2     N10234   4.615   4.086  17.094  0.0558 -0.0262  0.7051
  688MPD2    H510235   4.676   4.131  17.027  1.4509  0.1790  2.1089
  688MPD2    N110236   4.198   4.089  17.336  0.5634  0.0160 -0.0115
  688MPD2    H710237   4.235   4.006  17.380 -0.3396  0.6407  1.9490
  689TMC3    C110238   4.067   4.093  17.523  0.6390  0.2539 -0.3198
  689TMC3    C210239   4.020   4.173  17.627  1.0220  0.3452  0.1675
  689TMC3    C310240   3.969   4.109  17.740 -0.1222  0.5028  0.4251
  689TMC3    C410241   4.056   3.958  17.522  0.1168 -0.4105  0.0651
  689TMC3    C510242   4.010   3.899  17.635  0.3903 -0.1579  0.6336
  689TMC3    C610243   3.970   3.971  17.743 -0.3040 -0.0324  0.3278
  689TMC3     C10244   4.109   4.163  17.410 -0.0039  0.1528 -0.1447
  689TMC3     O10245   4.093   4.283  17.404 -0.2582 -0.0532  0.1513
  689TMC3     H10246   4.030   4.281  17.627  0.7170  0.3723 -1.1554
  689TMC3    H110247   4.077   3.892  17.439  3.4587  1.7248 -0.7748
  689TMC3    H210248   3.941   3.919   0.073 -0.4815  1.5750  1.1994
  689TMC3    C710249   4.043   3.759  17.647 -0.0989  0.2394 -0.0499
  689TMC3    C810250   3.938   4.187   0.095  1.2343 -0.4172 -0.3586
  689TMC3    O110251   4.096   3.727  17.754  0.0900  0.4713 -0.0624
  689TMC3    O210252   3.948   4.131   0.205  0.2423 -0.5517  0.1693
  690MPD2     C10253   2.171   1.344  16.117  0.3093  0.1424  0.7589
  690MPD2    C110254   2.103   1.353  15.994 -0.3765  0.9107  0.3512
  690MPD2    C210255   2.160   1.424  15.885  0.3929  0.0569 -0.4146
  690MPD2    C310256   2.300   1.458  15.893 -0.2378 -0.0751  0.8736
  690MPD2    C410257   2.356   1.452  16.018 -0.4596 -0.5935 -0.7426
  690MPD2    C510258   2.293   1.407  16.126  0.5094  0.1027 -0.0756
  690MPD2     H10259   2.102   1.442  15.796 -1.9753  2.6846  1.6411
  690MPD2    H110260   2.455   1.493  16.033 -0.5865 -0.3094 -0.6950
  690MPD2    H210261   2.129   1.313  16.212  1.6581 -1.1331  0.9308
  690MPD2    H310262   2.344   1.425  16.220 -2.6433  0.5233  1.5394
  690MPD2     N10263   2.359   1.522  15.779  0.2400  0.1050 -0.4104
  690MPD2    H510264   2.300   1.536  15.697  0.4601 -0.4007 -0.6514
  690MPD2    N110265   1.974   1.300  15.988  0.4626  0.0964 -0.2847
  690MPD2    H710266   1.918   1.322  15.906 -0.7597 -0.1296  0.4860
  691TMC3    C110267   1.797   1.161  16.040  0.8672  0.1678 -0.1925
  691TMC3    C210268   1.702   1.201  16.131  0.4166  0.4780 -0.9027
  691TMC3    C310269   1.600   1.108  16.164 -0.6138  0.5838  0.3630
  691TMC3    C410270   1.789   1.037  15.987  0.2095  0.3448 -0.1502
  691TMC3    C510271   1.688   0.949  16.025 -0.3834 -0.0486  0.1102
  691TMC3    C610272   1.592   0.982  16.115 -0.3617  0.6768  0.0126
  691TMC3     C10273   1.934   1.201  16.075  0.1027  0.0735 -0.6599
  691TMC3     O10274   2.001   1.125  16.144  0.8127  0.1854 -0.1417
  691TMC3     H10275   1.717   1.292  16.189  2.2179 -0.2613 -0.2290
  691TMC3    H110276   1.855   1.001  15.908  0.8908  0.0884  0.5300
  691TMC3    H210277   1.507   0.921  16.141 -0.4314  0.6356 -0.3127
  691TMC3    C710278   1.696   0.811  15.970  0.5707  0.2203  0.0503
  691TMC3    C810279   1.497   1.161  16.251 -0.1004 -0.0151 -0.6343
  691TMC3    O110280   1.792   0.782  15.905  0.3109  0.1339 -0.4493
  691TMC3    O210281   1.414   1.089  16.302 -0.6578  0.6946 -0.3681
  692TMC3    C110282   3.731   2.157  15.801  0.4165 -0.4349 -1.1567
  692TMC3    C210283   3.849   2.182  15.865  0.3960 -0.4990  0.0755
  692TMC3    C310284   3.941   2.082  15.871 -0.1419 -0.0209  0.2732
  692TMC3    C410285   3.694   2.041  15.744 -0.2422 -0.5080 -0.2512
  692TMC3    C510286   3.778   1.935  15.770  0.0468 -0.2606  0.3977
  692TMC3    C610287   3.895   1.956  15.838  0.0166 -0.1802  0.0787
  692TMC3     C10288   3.633   2.266  15.814 -0.3888  0.3351  0.2933
  692TMC3     O10289   3.517   2.231  15.826 -0.2277 -0.8206  0.3611
  692TMC3     H10290   3.834   2.252  15.946  1.7542  1.6003 -1.4676
  692TMC3    H110291   3.591   2.018  15.720 -0.6300 -0.1662  1.0809
  692TMC3    H210292   3.972   1.882  15.827  1.4384  1.0854  1.5593
  692TMC3    C710293   3.737   1.800  15.727  0.3347  1.1025  1.3199
  692TMC3    C810294   4.027   2.078  15.986 -0.3542 -0.0229 -0.0695
  692TMC3    O110295   3.646   1.788  15.646  0.0171  0.1802  0.4436
  692TMC3    O210296   4.066   1.964  16.019 -0.6717  0.0182 -0.3036
  693MPD2     C10297   2.688   0.427  10.866  0.1994 -0.3735 -0.2890
  693MPD2    C110298   2.634   0.303  10.889  0.1283 -0.5404 -0.0161
  693MPD2    C210299   2.724   0.199  10.921 -0.1606  0.5117 -0.0703
  693MPD2    C310300   2.856   0.224  10.943 -0.4946 -0.1329  0.1772
  693MPD2    C410301   2.901   0.358  10.940  0.2489 -0.6093 -0.1243
  693MPD2    C510302   2.817   0.449  10.886  0.9101  0.5520 -0.4444
  693MPD2     H10303   2.673   0.103  10.924  0.9413 -0.0748  0.0083
  693MPD2    H110304   3.007   0.382  10.941 -0.3271  1.6030  3.6541
  693MPD2    H210305   2.631   0.508  10.822  0.9658  1.0099  1.2853
  693MPD2    H310306   2.850   0.550  10.863  0.4187  0.9034  0.4118
  693MPD2     N10307   2.947   0.123  10.991  0.1651 -0.2913 -0.1782
  693MPD2    H510308   3.026   0.167  11.037 -1.5788  0.9203  1.6684
  693MPD2    N110309   2.497   0.284  10.885  0.4535 -0.3890 -0.4987
  693MPD2    H710310   2.434   0.363  10.883 -0.7176 -1.2438  2.0943
  694TMC3    C110311   2.295   0.181  10.899  0.3685  0.2294  0.5256
  694TMC3    C210312   2.206   0.106  10.826 -0.1576  0.8259  0.4233
  694TMC3    C310313   2.109   0.047  10.904  0.4472  0.1570  0.1964
  694TMC3    C410314   2.286   0.207  11.033  0.8310  0.2253 -0.1003
  694TMC3    C510315   2.195   0.139  11.103 -0.4898  0.5130 -0.6183
  694TMC3    C610316   2.099   0.060  11.042  0.0563 -0.0574  0.2129
  694TMC3     C10317   2.432   0.167  10.858 -0.0999 -1.1728 -0.1599
  694TMC3     O10318   2.461   0.085  10.780  0.0824 -0.4289  0.2402
  694TMC3     H10319   2.225   0.073  10.724 -2.5926 -0.6765  0.4503
  694TMC3    H110320   2.367   0.258  11.083 -0.9438  1.0779  1.8989
  694TMC3    H210321   2.038   4.733  11.100  0.1223  0.7563  1.2360
  694TMC3    C710322   2.203   0.156  11.244 -0.2797  0.3477  0.5897
  694TMC3    C810323   1.991   4.722  10.850  0.3697  0.3827 -0.1371
  694TMC3    O110324   2.308   0.193  11.294 -0.2906  0.2482 -0.2714
  694TMC3    O210325   1.924   4.650  10.925 -0.3688 -0.3799 -0.3539
  695MPD2     C10326   4.074   1.650  14.052  0.0094  0.8279  0.2952
  695MPD2    C110327   4.077   1.788  14.048 -0.1776  0.6988 -0.8191
  695MPD2    C210328   3.973   1.856  13.987  0.1666  0.5233  0.4996
  695MPD2    C310329   3.862   1.795  13.928  0.6919  0.4077  1.2442
  695MPD2    C410330   3.861   1.663  13.954 -0.0557 -0.6289 -0.5507
  695MPD2    C510331   3.962   1.592  14.017 -0.2954 -0.0271  0.2202
  695MPD2     H10332   3.975   1.965  13.984 -0.3281  0.5633  1.6709
  695MPD2    H110333   3.780   1.598  13.922  0.3068 -1.9000  1.0746
  695MPD2    H210334   4.155   1.588  14.088  0.4251  0.3461 -1.4527
  695MPD2    H310335   3.947   1.485  14.020 -0.0944 -0.0755 -0.7008
  695MPD2     N10336   3.752   1.869  13.876 -0.9726 -0.5185  0.3012
  695MPD2    H510337   3.761   1.968  13.895  1.7507 -0.9196  1.0785
  695MPD2    N110338   4.188   1.868  14.092  0.9758 -0.2859  0.4249
  695MPD2    H710339   4.183   1.969  14.083  1.4185 -0.5622 -2.8884
  696TMC3    C110340   3.543   1.927  13.777 -0.0683 -0.5464  0.2899
  696TMC3    C210341   3.412   1.932  13.812  0.2033  0.3260 -0.4725
  696TMC3    C310342   3.338   2.022  13.743 -0.4731 -0.0998  0.5849
  696TMC3    C410343   3.604   1.997  13.673 -0.2624  0.6931  1.1535
  696TMC3    C510344   3.517   2.078  13.603 -0.4618 -0.0950 -0.5721
  696TMC3    C610345   3.386   2.093  13.641 -0.2674 -0.7613  0.5041
  696TMC3     C10346   3.622   1.828  13.845  1.0007  0.4524  1.3751
  696TMC3     O10347   3.572   1.714  13.866 -0.2846  0.1806 -0.2249
  696TMC3     H10348   3.379   1.872  13.895  0.2621  0.2075 -0.5354
  696TMC3    H110349   3.709   1.993  13.644 -0.2158 -1.0965  1.5484
  696TMC3    H210350   3.314   2.142  13.576 -0.4379 -2.1456 -0.3585
  696TMC3    C710351   3.580   2.169  13.513 -0.2965 -0.5830  0.0519
  696TMC3    C810352   3.197   1.995  13.751 -0.1192  0.3803  0.6100
  696TMC3    O110353   3.653   2.121  13.427 -0.0509  0.0731  0.7067
  696TMC3    O210354   3.175   1.877  13.776 -0.3289  0.5894  0.4494
  697MPD2     C10355   3.792   4.076  15.484  0.1378  0.4977  0.2374
  697MPD2    C110356   3.660   4.037  15.463  0.0433 -0.2561 -0.2261
  697MPD2    C210357   3.576   4.137  15.418 -0.3855 -0.0113 -0.2502
  697MPD2    C310358   3.614   4.267  15.396  0.0070 -0.3219 -0.8563
  697MPD2    C410359   3.748   4.304  15.419  0.0276 -0.1075  0.1720
  697MPD2    C510360   3.830   4.202  15.456 -0.3350  0.3313 -0.3425
  697MPD2     H10361   3.475   4.108  15.389 -0.1096 -1.2901  0.0710
  697MPD2    H110362   3.791   4.402  15.402 -0.5144  0.3637  1.4767
  697MPD2    H210363   3.872   4.008  15.509  0.3490  0.6838  0.0654
  697MPD2    H310364   3.935   4.220  15.478 -0.8556  0.9749  1.5981
  697MPD2     N10365   3.518   4.356  15.341 -0.3044  0.2347 -0.2460
  697MPD2    H510366   3.427   4.316  15.319 -0.3538 -1.1895  2.5910
  697MPD2    N110367   3.612   3.903  15.466 -0.9719 -0.4780 -0.0415
  697MPD2    H710368   3.511   3.892  15.463 -1.1660  1.2479  0.2002
  698TMC3    C110369   3.437   4.542  15.220  0.1318  0.3353  0.7678
  698TMC3    C210370   3.455   4.677  15.201  0.1629 -0.0490  0.5988
  698TMC3    C310371   3.390   4.729  15.089 -0.2819 -1.3342 -0.4591
  698TMC3    C410372   3.375   4.464  15.121  0.4068  0.4366  0.1717
  698TMC3    C510373   3.305   4.527  15.023 -0.9604 -0.7341 -0.0468
  698TMC3    C610374   3.321   4.655  14.997  0.3668  0.3599  0.0213
  698TMC3     C10375   3.540   4.485  15.307  0.3035 -0.3649  0.9455
  698TMC3     O10376   3.638   4.556  15.329  0.5875 -0.9283  0.3622
  698TMC3     H10377   3.506   4.730  15.281  1.0242 -1.3882  0.9305
  698TMC3    H110378   3.360   4.357  15.122 -0.8903  0.5978 -1.2747
  698TMC3    H210379   3.276   4.703  14.911 -0.2081  0.4989  0.3996
  698TMC3    C710380   3.285   4.447  14.907 -0.3342  0.9635 -0.3159
  698TMC3    C810381   3.427   0.120  15.043 -0.6575  0.0828  0.5351
  698TMC3    O110382   3.172   4.475  14.856 -0.2237  0.0721 -0.5800
  698TMC3    O210383   3.341   0.167  14.968 -0.1990  0.6211  0.1266
  699TMC3    C110384   3.469   2.303  13.137  0.7981  0.0365 -0.7699
  699TMC3    C210385   3.479   2.173  13.178  0.1761 -0.4469  0.1885
  699TMC3    C310386   3.361   2.103  13.206  0.5290 -1.1323 -0.3399
  699TMC3    C410387   3.349   2.370  13.153  0.4923  0.1616 -0.4497
  699TMC3    C510388   3.235   2.299  13.182  0.1687  0.7909 -0.0642
  699TMC3    C610389   3.243   2.169  13.205  0.1651  0.1775 -0.2123
  699TMC3     C10390   3.588   2.355  13.071 -0.2435  0.2357 -0.5323
  699TMC3     O10391   3.688   2.283  13.068  0.8273 -0.3349  0.7104
  699TMC3     H10392   3.577   2.128  13.188  0.1019 -0.4576  0.8649
  699TMC3    H110393   3.358   2.478  13.162  0.7596  0.1035  0.0032
  699TMC3    H210394   3.158   2.112  13.239  1.1958 -1.1845  0.0909
  699TMC3    C710395   3.140   2.377  13.265 -0.6490  0.0290 -0.1830
  699TMC3    C810396   3.367   1.972  13.264  0.5582 -0.1383 -0.5750
  699TMC3    O110397   3.101   2.310  13.361 -0.7372  0.1476  0.0629
  699TMC3    O210398   3.260   1.919  13.276 -0.3700 -0.1392  0.6289
  700TMC3    C110399   2.675   4.246  17.002  0.1721  0.0544  0.4153
  700TMC3    C210400   2.794   4.198  16.967  0.6491  0.1550  0.5246
  700TMC3    C310401   2.904   4.214  17.055  0.2820 -0.2534 -0.1164
  700TMC3    C410402   2.669   4.313  17.123  0.1975  1.0923  0.0745
  700TMC3    C510403   2.777   4.331  17.203 -0.0629 -0.3109 -0.6442
  700TMC3    C610404   2.900   4.292  17.170 -0.0821 -0.3713 -0.3455
  700TMC3     C10405   2.592   4.306  16.904  0.0927 -0.2903 -0.2900
  700TMC3     O10406   2.470   4.287  16.893  0.6907  0.0546 -0.4812
  700TMC3     H10407   2.801   4.133  16.880 -1.5415  0.3174  0.2331
  700TMC3    H110408   2.574   4.349  17.159 -1.5298 -1.0389 -2.3297
  700TMC3    H210409   2.989   4.331  17.217 -1.0949  1.7146 -0.1517
  700TMC3    C710410   2.761   4.404  17.323 -0.3559  0.2289  0.3397
  700TMC3    C810411   3.029   4.162  17.011 -0.0508  0.5053 -0.2723
  700TMC3    O110412   2.848   4.479  17.363 -0.1403 -0.1105  0.0107
  700TMC3    O210413   3.031   4.097  16.904 -0.0295 -0.4920 -0.0875
  701TMC3    C110414   2.876   3.494  15.608  0.5514  0.5067 -0.7035
  701TMC3    C210415   2.878   3.450  15.478 -0.4420  0.6233 -0.4357
  701TMC3    C310416   2.919   3.544  15.385  0.0259  0.2033  0.8020
  701TMC3    C410417   2.939   3.610  15.641  0.3108 -0.3343 -0.1565
  701TMC3    C510418   2.982   3.702  15.546 -0.1594 -0.1703  0.3741
  701TMC3    C610419   2.984   3.658  15.421  0.7310  0.0776 -0.4451
  701TMC3     C10420   2.817   3.420  15.720 -0.1297 -0.0721 -0.4478
  701TMC3     O10421   2.819   3.489  15.824 -0.2828 -0.5080  0.4574
  701TMC3     H10422   2.822   3.361  15.450  0.7392 -0.2623 -0.0276
  701TMC3    H110423   2.956   3.636  15.745 -0.9703  0.4303 -0.1338
  701TMC3    H210424   3.012   3.724  15.339  2.3867  1.6649  1.4051
  701TMC3    C710425   3.025   3.835  15.576 -0.7203  0.1162  0.1973
  701TMC3    C810426   2.880   3.523  15.251  0.2467 -0.4258 -0.2670
  701TMC3    O110427   3.044   3.906  15.478 -0.1241 -0.6532 -0.3842
  701TMC3    O210428   2.954   3.566  15.165  0.0100  0.5692  0.2732
  702MPD2     C10429   1.874   0.722  10.902 -0.0554 -0.4835 -0.5851
  702MPD2    C110430   1.908   0.797  11.012  0.1767 -0.3579  0.5236
  702MPD2    C210431   2.005   0.898  10.995 -0.3060 -0.0328  0.7863
  702MPD2    C310432   2.063   0.923  10.875 -0.4248  0.2102  0.2869
  702MPD2    C410433   2.019   0.855  10.764 -0.0355  0.8497  0.8110
  702MPD2    C510434   1.927   0.756  10.781 -0.7309  0.6244 -0.1407
  702MPD2     H10435   2.042   0.941  11.088  0.7488  0.9236 -0.0818
  702MPD2    H110436   2.051   0.867  10.661  1.7734  2.9115  1.6108
  702MPD2    H210437   1.808   0.636  10.911 -0.5907 -0.0829 -0.7503
  702MPD2    H310438   1.889   0.703  10.695  3.3438 -1.3109 -0.7291
  702MPD2     N10439   2.167   1.022  10.859 -0.0377 -0.4446 -0.4594
  702MPD2    H510440   2.195   1.028  10.762 -1.3945  1.1604 -0.7468
  702MPD2    N110441   1.847   0.788  11.141 -0.4303 -0.3222  0.0705
  702MPD2    H710442   1.884   0.851  11.211  2.4706 -2.3655  0.4004
  703TMC3    C110443   2.241   1.237  10.882 -0.9544  0.5943  0.3603
  703TMC3    C210444   2.147   1.329  10.864  0.1332 -0.3480 -0.6931
  703TMC3    C310445   2.160   1.412  10.759 -1.1009 -0.0425  0.6263
  703TMC3    C410446   2.348   1.215  10.799  0.5767 -0.0199 -0.2851
  703TMC3    C510447   2.362   1.302  10.699 -0.6399 -0.0229  1.1435
  703TMC3    C610448   2.272   1.407  10.681  0.0177  0.7929  0.1128
  703TMC3     C10449   2.192   1.125  10.948  0.7290  0.3184 -0.1024
  703TMC3     O10450   2.145   1.156  11.057 -0.2713 -0.2658 -0.2105
  703TMC3     H10451   2.065   1.329  10.935  1.6273  2.0211  1.0422
  703TMC3    H110452   2.403   1.122  10.806  1.4494  0.5097 -0.1199
  703TMC3    H210453   2.283   1.473  10.596 -2.0486 -0.8863 -1.4622
  703TMC3    C710454   2.489   1.319  10.631  0.2463 -0.0720 -0.3896
  703TMC3    C810455   2.058   1.509  10.735 -0.3146 -0.2595 -1.2005
  703TMC3    O110456   2.506   1.430  10.585  0.3829 -0.1192 -0.1247
  703TMC3    O210457   2.084   1.618  10.683 -0.0409  0.2207  1.0687
  704TMC3    C110458   4.244   3.838  12.951  0.0118 -0.2531 -0.1577
  704TMC3    C210459   4.322   3.906  12.867 -0.9404 -0.4529 -0.0954
  704TMC3    C310460   4.459   3.891  12.858  0.3700  0.4257 -0.2967
  704TMC3    C410461   4.301   3.743  13.031 -0.4645 -0.0918 -0.7234
  704TMC3    C510462   4.433   3.728  13.025 -0.0107  0.1697  0.1452
  704TMC3    C610463   4.515   3.793  12.936 -0.6164 -0.3985 -0.3874
  704TMC3     C10464   4.100   3.838  12.939  0.3447  0.0849 -0.4949
  704TMC3     O10465   4.035   3.801  13.038 -0.1588  0.5211 -0.1199
  704TMC3     H10466   4.276   3.986  12.811 -0.1008  0.9391  1.1906
  704TMC3    H110467   4.239   3.684  13.098  0.2553 -0.1981 -0.1583
  704TMC3    H210468   4.622   3.778  12.940 -0.7608 -0.5185  2.7546
  704TMC3    C710469   4.475   3.606  13.079  0.3383 -0.3248 -0.2325
  704TMC3    C810470   4.487   3.883  12.713  0.1986 -0.1840 -0.5477
  704TMC3    O110471   4.400   3.512  13.083 -0.3631 -0.2305  0.1322
  704TMC3    O210472   4.388   3.894  12.642 -0.5337  0.6591  0.1418
  705MPD2     C10473   4.297   1.843  16.542  0.1589 -0.4441 -0.7000
  705MPD2    C110474   4.228   1.799  16.428 -0.3327  0.2839  0.3786
  705MPD2    C210475   4.091   1.782  16.438 -0.2605  0.3701 -0.3585
  705MPD2    C310476   4.026   1.821  16.558 -0.3771 -0.0887  0.0502
  705MPD2    C410477   4.101   1.873  16.667 -0.2945  0.0659 -0.5153
  705MPD2    C510478   4.240   1.872  16.665 -0.3510  0.0652  0.2290
  705MPD2     H10479   4.031   1.751  16.354 -0.6208 -0.8488  0.3490
  705MPD2    H110480   4.049   1.900  16.758  1.2862  3.5574 -0.6394
  705MPD2    H210481   4.404   1.858  16.539 -0.0299  1.2358  1.5181
  705MPD2    H310482   4.302   1.909  16.746 -0.6080  2.0865 -0.4896
  705MPD2     N10483   3.884   1.817  16.571 -0.2028 -0.1810 -0.0992
  705MPD2    H510484   3.838   1.864  16.648  1.6799  2.0528 -0.3291
  705MPD2    N110485   4.287   1.777  16.300  0.1870  1.2416 -0.2183
  705MPD2    H710486   4.228   1.758  16.220 -2.2834  1.4534  1.5509
  706TMC3    C110487   4.582   1.720  15.966  0.5001  0.1166  0.2313
  706TMC3    C210488   4.504   1.799  15.885 -0.0154  0.4362 -0.3328
  706TMC3    C310489   4.408   1.875  15.947  0.7839  0.6110 -0.1528
  706TMC3    C410490   4.569   1.709  16.100  0.1463  0.1425  0.6516
  706TMC3    C510491   4.467   1.784  16.154  0.2303 -0.2285  1.7407
  706TMC3    C610492   4.387   1.864  16.081 -0.2594  0.4033  0.4912
  706TMC3     C10493   4.692   1.650  15.903 -0.0302  0.5169  0.2149
  706TMC3     O10494   0.045   1.604  15.967 -0.2040  0.4543 -0.3742
  706TMC3     H10495   4.545   1.836  15.792  1.4416  1.6682  0.8079
  706TMC3    H110496   4.627   1.642  16.163 -1.4697  0.1953  2.2014
  706TMC3    H210497   4.331   1.943  16.131 -0.6324 -0.5121  1.5115
  706TMC3    C710498   4.430   1.770  16.294  0.8792 -0.3054  0.4324
  706TMC3    C810499   4.389   2.015  15.899  0.6861  0.2623  0.2450
  706TMC3    O110500   4.521   1.774  16.374 -0.1517  0.2579 -0.3781
  706TMC3    O210501   4.398   2.037  15.778 -0.1115  0.0556  0.6905
  707TMC3    C110502   0.665   0.570   1.023 -0.3745 -0.1301 -0.1755
  707TMC3    C210503   0.702   0.489   1.126  0.2414  0.1593 -0.0707
  707TMC3    C310504   0.673   0.358   1.126 -0.3799 -0.6401 -1.1571
  707TMC3    C410505   0.597   0.509   0.920  0.1437 -0.2745 -0.1485
  707TMC3    C510506   0.584   0.377   0.917  0.3739 -0.5272  0.2106
  707TMC3    C610507   0.619   0.295   1.022 -0.0716 -0.2386  0.3858
  707TMC3     C10508   0.770   0.651   0.970  0.1950  0.3878 -0.1347
  707TMC3     O10509   0.884   0.624   1.004  0.6661 -0.0179  0.1830
  707TMC3     H10510   0.758   0.527   1.210  1.0869 -1.0273 -0.0958
  707TMC3    H110511   0.583   0.570   0.831 -1.6173  0.2916  0.5131
  707TMC3    H210512   0.585   0.192   1.021 -0.9793  0.0734 -0.8966
  707TMC3    C710513   0.519   0.316   0.806  0.3232 -0.1718 -0.0451
  707TMC3    C810514   0.733   0.286   1.238  0.6408  0.6263  0.5150
  707TMC3    O110515   0.448   0.399   0.744  0.1187 -0.6862  0.1230
  707TMC3    O210516   0.763   0.335   1.344  0.1496  0.4728  0.6246
  708MPD2     C10517   2.168   0.088  14.211  0.4481 -0.2900  0.5979
  708MPD2    C110518   2.120   0.216  14.235 -0.7522 -0.0787  0.1689
  708MPD2    C210519   2.141   0.277  14.358  0.0182 -0.0678 -0.1517
  708MPD2    C310520   2.224   0.211  14.453 -0.2459  0.7512 -1.0291
  708MPD2    C410521   2.280   0.083  14.426 -0.6863 -0.1207  0.6117
  708MPD2    C510522   2.249   0.029  14.307  0.4933 -0.4108  0.2132
  708MPD2     H10523   2.104   0.376  14.382 -1.0729 -0.3829 -0.5325
  708MPD2    H110524   2.348   0.030  14.491  1.9607  1.0926 -1.1703
  708MPD2    H210525   2.161   0.042  14.114 -0.8142  0.0418  0.5393
  708MPD2    H310526   2.279   4.669  14.279  0.8650  0.0141 -0.9210
  708MPD2     N10527   2.230   0.260  14.581  0.7147  0.1625  0.4932
  708MPD2    H510528   2.193   0.354  14.581 -1.7090 -0.7970  2.5431
  708MPD2    N110529   2.033   0.289  14.157 -0.3526 -0.3051  0.3493
  708MPD2    H710530   2.010   0.384  14.187  0.1860 -1.0063  2.9927
  709TMC3    C110531   1.862   0.340  14.013 -0.3360  0.0853 -0.3623
  709TMC3    C210532   1.748   0.277  13.970 -0.4132  0.0382 -0.9565
  709TMC3    C310533   1.631   0.318  14.028  0.2529  0.5012  0.3594
  709TMC3    C410534   1.857   0.453  14.093  0.4447 -0.4750 -0.0627
  709TMC3    C510535   1.739   0.485  14.150 -0.1458 -0.0846  0.1757
  709TMC3    C610536   1.623   0.419  14.118  0.6827  1.0189 -0.2029
  709TMC3     C10537   1.955   0.241  14.058 -0.3273  0.1207 -0.2826
  709TMC3     O10538   1.935   0.124  14.034  0.4297  0.1349 -0.0434
  709TMC3     H10539   1.744   0.189  13.907  1.5353  0.4183 -1.6065
  709TMC3    H110540   1.944   0.510  14.124 -0.5774  1.6683 -1.0986
  709TMC3    H210541   1.526   0.457  14.149 -0.4011 -0.1994 -2.1311
  709TMC3    C710542   1.761   0.523  14.287  0.2094 -0.2686  0.5563
  709TMC3    C810543   1.513   0.297  13.958 -0.1787 -0.4014 -0.4303
  709TMC3    O110544   1.878   0.529  14.326  0.4278  0.6144 -0.2701
  709TMC3    O210545   1.403   0.308  14.015 -0.0776  0.6784  0.2033
  710TMC3    C110546   3.124   2.048   0.092 -0.7019  0.3581 -0.4496
  710TMC3    C210547   3.210   1.989   0.000  0.2294 -0.0818  0.7550
  710TMC3    C310548   3.248   1.864   0.021 -0.4556 -0.5885  0.0755
  710TMC3    C410549   3.065   1.971   0.187  0.3634  0.8402 -0.0314
  710TMC3    C510550   3.100   1.834   0.186  0.4448 -0.0912  0.5021
  710TMC3    C610551   3.190   1.778   0.108 -0.5263 -0.9841  0.6642
  710TMC3     C10552   3.111   2.189   0.082 -1.3218  0.4734  0.6094
  710TMC3     O10553   3.187   2.239   0.005  0.7884 -0.5832  0.7657
  710TMC3     H10554   3.253   2.055  17.686 -1.2207  0.0228  0.0139
  710TMC3    H110555   2.993   2.005   0.260  0.7653 -0.6676  1.0518
  710TMC3    H210556   3.214   1.672   0.109 -3.1779 -1.6023 -0.0066
  710TMC3    C710557   3.060   1.757   0.298 -0.2161  0.0919  0.1396
  710TMC3    C810558   3.343   1.814  17.683  0.3186  0.5243 -0.7784
  710TMC3    O110559   3.134   1.665   0.328  0.0179 -0.2317  0.4332
  710TMC3    O210560   3.383   1.889  17.600  0.0004 -0.4107  0.3545
  711TMC3    C110561   3.275   2.945  14.802  0.4428  0.2660 -0.1673
  711TMC3    C210562   3.255   3.022  14.918  0.0221  0.9032 -0.1542
  711TMC3    C310563   3.369   3.074  14.975  0.0865 -0.4813  1.0844
  711TMC3    C410564   3.395   2.932  14.738 -0.0876  0.0807 -0.5384
  711TMC3    C510565   3.510   2.960  14.814  0.0007  0.7212  0.3309
  711TMC3    C610566   3.491   3.040  14.925  0.2990 -0.0769  0.2882
  711TMC3     C10567   3.188   2.835  14.779  0.2546  0.5993  0.0701
  711TMC3     O10568   3.201   2.774  14.673  0.0546 -0.0935 -0.2195
  711TMC3     H10569   3.155   3.042  14.955 -1.6145 -0.2331 -3.9895
  711TMC3    H110570   3.407   2.876  14.645  1.3527  0.0465 -0.3358
  711TMC3    H210571   3.577   3.082  14.977 -0.1126  1.9822 -0.6862
  711TMC3    C710572   3.587   2.839  14.853  0.4446 -0.7614  0.1657
  711TMC3    C810573   3.377   3.078  15.114  0.1362 -0.9954 -0.2282
  711TMC3    O110574   3.645   2.848  14.964  0.4090 -0.1680 -0.1555
  711TMC3    O210575   3.286   3.133  15.172  0.0707  0.2093  0.2406
  712MPD2     C10576   4.478   3.784  14.143  0.1433  0.2162  0.3931
  712MPD2    C110577   4.354   3.830  14.111 -0.0930  0.0531 -0.0461
  712MPD2    C210578   4.331   3.967  14.095 -0.8249  0.0613 -0.2863
  712MPD2    C310579   4.437   4.063  14.107 -0.2377 -0.4040  0.5599
  712MPD2    C410580   4.561   4.011  14.128  0.6538 -0.0308 -0.0130
  712MPD2    C510581   4.573   3.877  14.151 -0.4776 -0.0916 -0.1709
  712MPD2     H10582   4.236   3.997  14.051 -0.5924 -1.8848 -2.1257
  712MPD2    H110583   4.652   4.064  14.153  0.6375 -0.2283  0.4618
  712MPD2    H210584   4.503   3.680  14.162  2.6813  0.8984  0.7118
  712MPD2    H310585   4.675   3.845  14.173 -0.7511 -0.1352  1.0667
  712MPD2     N10586   4.429   4.201  14.062  0.1860  0.7248  0.0652
  712MPD2    H510587   4.503   4.268  14.046 -1.7189  2.3770 -1.7886
  712MPD2    N110588   4.252   3.734  14.060  0.4090 -0.1146  0.1888
  712MPD2    H710589   4.183   3.785  14.005  0.9477 -0.5299 -0.8647
  713TMC3    C110590   4.290   4.359  13.949  0.0001 -0.0606 -0.0273
  713TMC3    C210591   4.375   4.344  13.846 -0.0681 -0.1301  0.0428
  713TMC3    C310592   4.341   4.418  13.737 -0.0005  0.1105 -0.5080
  713TMC3    C410593   4.173   4.431  13.943 -0.1400  0.0513 -0.1900
  713TMC3    C510594   4.146   4.508  13.831  0.1373 -1.1454 -0.5249
  713TMC3    C610595   4.230   4.501  13.726  0.6224  0.1619  0.2078
  713TMC3     C10596   4.296   4.248  14.041  0.2557  0.6420  0.4015
  713TMC3     O10597   4.186   4.212  14.088 -0.4025 -0.3687  0.2035
  713TMC3     H10598   4.456   4.273  13.844 -1.3680 -1.6641  1.7740
  713TMC3    H110599   4.102   4.425  14.024  0.5984 -0.7600  0.4069
  713TMC3    H210600   4.219   4.570  13.644  0.4146 -0.5948 -0.4037
  713TMC3    C710601   4.087   4.635  13.860 -0.3290  0.5158 -0.4031
  713TMC3    C810602   4.442   4.436  13.637  0.1586  0.2050 -0.1946
  713TMC3    O110603   4.081   4.670  13.979  0.3149  0.0658 -0.4510
  713TMC3    O210604   4.409   4.472  13.526 -0.0657 -0.2433 -0.2514
  714MPD2     C10605   1.790   1.944   1.559 -0.1085  0.1737 -0.2021
  714MPD2    C110606   1.782   2.083   1.544  0.1682  0.7209 -0.0238
  714MPD2    C210607   1.672   2.146   1.489  0.6094  0.4007  0.1938
  714MPD2    C310608   1.562   2.070   1.458  0.1508  0.4475 -0.1358
  714MPD2    C410609   1.567   1.931   1.465 -0.1340 -0.3996  0.3852
  714MPD2    C510610   1.682   1.870   1.513  0.3889 -0.2398  0.1616
  714MPD2     H10611   1.666   2.254   1.486  2.0029  0.5972  4.5262
  714MPD2    H110612   1.488   1.864   1.436 -1.1633  2.1193 -2.5835
  714MPD2    H210613   1.874   1.883   1.591  0.2875  0.2194 -1.1377
  714MPD2    H310614   1.691   1.763   1.520  0.5991 -0.2220  0.1594
  714MPD2     N10615   1.449   2.142   1.435 -0.8279 -0.2636  0.3846
  714MPD2    H510616   1.452   2.240   1.462 -0.4575 -0.0220 -0.5228
  714MPD2    N110617   1.903   2.155   1.573 -0.3954  0.2830  0.2804
  714MPD2    H710618   1.973   2.091   1.609  0.0846 -0.5802 -2.1825
  715TMC3    C110619   2.076   2.306   1.576 -0.1560  1.1443  0.2590
  715TMC3    C210620   2.162   2.202   1.560  0.0706 -0.2552  0.2932
  715TMC3    C310621   2.295   2.224   1.584 -0.0392  0.3144  0.0453
  715TMC3    C410622   2.117   2.431   1.605 -0.1891 -0.4086  0.6689
  715TMC3    C510623   2.251   2.448   1.629  0.3479  0.3448  0.0205
  715TMC3    C610624   2.342   2.349   1.610  0.6737  0.4396 -0.1322
  715TMC3     C10625   1.933   2.285   1.547  0.6177 -0.0017 -0.3695
  715TMC3     O10626   1.864   2.380   1.518  0.7089 -0.2746  0.0257
  715TMC3     H10627   2.137   2.100   1.533 -0.1364 -0.1384  0.0489
  715TMC3    H110628   2.040   2.498   1.643  0.4707 -0.3327  1.8727
  715TMC3    H210629   2.448   2.374   1.614  0.3187  2.2214 -1.7423
  715TMC3    C710630   2.306   2.575   1.672 -0.1277 -0.4643 -0.1494
  715TMC3    C810631   2.376   2.140   1.505 -0.4297 -0.7683 -0.3387
  715TMC3    O110632   2.416   2.572   1.728 -0.0652 -0.0759  0.3126
  715TMC3    O210633   2.322   2.065   1.419 -0.2768 -0.6870  0.5213
  716MPD2     C10634   1.606   1.222  10.476  0.3084  0.2476 -0.2379
  716MPD2    C110635   1.572   1.276  10.352  0.1641 -0.3689 -0.4887
  716MPD2    C210636   1.484   1.203  10.271  0.0829 -0.3983  0.0368
  716MPD2    C310637   1.449   1.070  10.298  0.7131 -0.1431  0.5093
  716MPD2    C410638   1.485   1.017  10.419 -0.1747 -0.5000 -0.1464
  716MPD2    C510639   1.561   1.097  10.512  0.6486  0.0064  0.0954
  716MPD2     H10640   1.463   1.242  10.172  0.7352 -0.8811 -0.2954
  716MPD2    H110641   1.455   0.915  10.442 -0.8764  0.3887  2.8692
  716MPD2    H210642   1.659   1.285  10.546  0.0698  1.9034 -1.5340
  716MPD2    H310643   1.591   1.061  10.610  0.3497 -1.0950 -0.2208
  716MPD2     N10644   1.374   1.004  10.197  0.2163  0.7042  0.4983
  716MPD2    H510645   1.353   1.061  10.116 -3.7302 -2.3940 -0.6388
  716MPD2    N110646   1.611   1.409  10.320  0.2673  0.2537 -0.2140
  716MPD2    H710647   1.650   1.471  10.391  1.4392 -0.2644 -0.4053
  717TMC3    C110648   1.245   0.835  10.089 -0.5085 -0.4772  0.5764
  717TMC3    C210649   1.190   0.940  10.011  0.0334 -0.4735 -0.5423
  717TMC3    C310650   1.133   0.896   9.892  0.2213  0.2306 -0.8831
  717TMC3    C410651   1.241   0.700  10.059  0.0069  0.0896  0.1071
  717TMC3    C510652   1.193   0.668   9.937  0.4449  0.1925  0.7626
  717TMC3    C610653   1.135   0.765   9.852  0.0318  0.0638  0.0353
  717TMC3     C10654   1.326   0.872  10.205 -0.1692  0.7158 -0.3347
  717TMC3     O10655   1.349   0.780  10.280 -0.0914 -0.0093 -0.7789
  717TMC3     H10656   1.159   1.030  10.062 -0.1796  0.1764 -1.8250
  717TMC3    H110657   1.279   0.622  10.125 -1.3983 -0.1481  0.6286
  717TMC3    H210658   1.107   0.741   9.750 -0.2514 -1.8946  0.5776
  717TMC3    C710659   1.210   0.529   9.885 -0.0468  0.6796 -0.6437
  717TMC3    C810660   1.062   0.989   9.812  0.0401  0.1941  0.1382
  717TMC3    O110661   1.175   0.508   9.770  0.0639  0.0433  0.8099
  717TMC3    O210662   0.970   0.943   9.746 -0.0428  0.0696  0.0763
  718MPD2     C10663   1.415   3.663  12.759 -0.1505  0.0550  0.3176
  718MPD2    C110664   1.320   3.700  12.663  1.3114 -0.2035 -0.1397
  718MPD2    C210665   1.191   3.639  12.677 -0.2359 -0.3661  0.1835
  718MPD2    C310666   1.162   3.546  12.776 -0.3222 -0.2469  0.2772
  718MPD2    C410667   1.264   3.514  12.870 -0.2716  0.1005 -0.2009
  718MPD2    C510668   1.390   3.572  12.860  0.1104 -0.0411  0.3339
  718MPD2     H10669   1.105   3.665  12.617 -0.9743  0.3434  1.5514
  718MPD2    H110670   1.252   3.441  12.949  1.2878  0.2662  0.1841
  718MPD2    H210671   1.511   3.711  12.743  0.8978 -1.7267  1.1565
  718MPD2    H310672   1.472   3.536  12.921 -0.2337  0.3898  1.0567
  718MPD2     N10673   1.028   3.500  12.780 -0.8663  0.0040 -0.1361
  718MPD2    H510674   0.961   3.540  12.715 -0.3034 -1.0791 -1.3934
  718MPD2    N110675   1.353   3.799  12.565 -0.7285 -0.2295  0.5861
  718MPD2    H710676   1.437   3.855  12.574  0.3403 -1.7675  0.1197
  719TMC3    C110677   1.301   3.926  12.375 -0.1270 -0.2132  0.4297
  719TMC3    C210678   1.236   3.920  12.257  0.3926 -0.1952 -0.3052
  719TMC3    C310679   1.173   4.026  12.205 -0.1877  0.8119 -0.0431
  719TMC3    C410680   1.301   4.043  12.439 -0.0770  0.3923  0.3402
  719TMC3    C510681   1.235   4.155  12.392 -0.2895  0.2748 -0.1003
  719TMC3    C610682   1.180   4.148  12.263  0.3052  0.8179 -0.1757
  719TMC3     C10683   1.291   3.799  12.447 -0.2282 -0.3443  0.6970
  719TMC3     O10684   1.211   3.723  12.399  0.3817 -0.1060 -0.3145
  719TMC3     H10685   1.219   3.828  12.204  1.4515 -1.0216  0.7991
  719TMC3    H110686   1.351   4.043  12.535 -0.1780 -0.0129  0.3918
  719TMC3    H210687   1.120   4.228  12.220  0.8993  1.7226  0.7005
  719TMC3    C710688   1.319   4.273  12.409  0.5617 -0.7034 -0.8603
  719TMC3    C810689   1.031   3.993  12.193 -0.6799 -0.1841  0.8226
  719TMC3    O110690   1.342   4.345  12.313 -0.3438 -0.3631  0.1953
  719TMC3    O210691   0.964   4.054  12.110  0.3696 -0.0651  0.0816
  720MPD2     C10692   4.547   0.863  14.418 -0.0577 -0.0038 -0.3046
  720MPD2    C110693   4.610   0.953  14.340  0.4147  0.2336 -0.3082
  720MPD2    C210694   4.737   0.992  14.365 -0.9858  0.5641 -0.3965
  720MPD2    C310695   0.068   0.932  14.468  0.5433 -0.4013 -0.2449
  720MPD2    C410696   0.008   0.827  14.539 -0.3909  0.4314  0.1525
  720MPD2    C510697   4.619   0.794  14.514 -0.2881  1.2152  0.0985
  720MPD2     H10698   0.038   1.071  14.305 -0.7960 -0.2529 -1.3403
  720MPD2    H110699   0.060   0.764  14.610 -0.8482  0.2945  0.3649
  720MPD2    H210700   4.446   0.827  14.402 -0.7019  1.6534 -0.0541
  720MPD2    H310701   4.573   0.717  14.574  1.1277  1.5556  1.6216
  720MPD2     N10702   0.192   0.985  14.496 -0.1415 -0.3949  0.3920
  720MPD2    H510703   0.227   1.057  14.434  0.9929  1.0491  2.6936
  720MPD2    N110704   4.540   0.995  14.223 -0.0286  0.2715  0.0294
  720MPD2    H710705   4.595   1.037  14.149  0.0596 -0.5787 -0.3788
  721TMC3    C110706   0.398   1.020  14.598 -0.3129  0.2247  0.2908
  721TMC3    C210707   0.461   1.052  14.717  0.2896 -0.4218  0.9585
  721TMC3    C310708   0.571   1.128  14.712  0.6574  0.1191 -0.2095
  721TMC3    C410709   0.439   1.059  14.472  0.8541 -0.1190  0.3645
  721TMC3    C510710   0.555   1.138  14.476 -0.1594 -0.2881 -0.5437
  721TMC3    C610711   0.625   1.163  14.592 -0.5797  0.5272 -0.0807
  721TMC3     C10712   0.264   0.954  14.609  0.0098 -0.3718 -0.1674
  721TMC3     O10713   0.230   0.904  14.714 -1.1315  0.1554  0.1996
  721TMC3     H10714   0.406   1.038  14.809 -0.8693 -0.0640  0.3259
  721TMC3    H110715   0.404   1.032  14.373 -0.3208 -2.4333  1.3979
  721TMC3    H210716   0.727   1.199  14.587 -0.5308  0.5896  1.2992
  721TMC3    C710717   0.622   1.164  14.349  0.1416 -0.8224  0.3431
  721TMC3    C810718   0.630   1.182  14.834  0.1462  0.6125 -0.5129
  721TMC3    O110719   0.743   1.160  14.359 -0.0189  0.3257 -0.5492
  721TMC3    O210720   0.737   1.239  14.819  0.2253  0.2222 -0.3296
  722MPD2     C10721   3.306   4.627  13.076 -0.0102 -0.5520 -0.3171
  722MPD2    C110722   3.247   4.717  13.169  0.0160 -0.0849  0.4131
  722MPD2    C210723   3.118   4.728  13.179  0.1465  0.3454 -0.9184
  722MPD2    C310724   3.029   4.638  13.123  0.7599  0.4936 -0.5062
  722MPD2    C410725   3.089   4.537  13.045  0.6099  0.2252  0.0122
  722MPD2    C510726   3.222   4.523  13.032  0.0719 -0.3664 -0.5157
  722MPD2     H10727   3.070   0.068  13.233 -2.0821 -0.5824 -1.5240
  722MPD2    H110728   3.035   4.464  12.986 -0.6644  0.3217  1.0574
  722MPD2    H210729   3.413   4.626  13.060 -0.0416  1.3197 -0.6728
  722MPD2    H310730   3.261   4.442  12.972 -1.7971 -2.8093  1.5453
  722MPD2     N10731   2.889   4.649  13.159 -0.4586 -0.2198 -0.3189
  722MPD2    H510732   2.871   4.720  13.229  1.5960 -0.6355  0.6476
  722MPD2    N110733   3.322   0.082  13.222 -0.3609 -0.3379  0.3919
  722MPD2    H710734   3.268   0.148  13.278 -1.3786 -1.2995  0.5319
  723TMC3    C110735   2.678   4.569  13.197  0.3601 -0.1844 -0.5549
  723TMC3    C210736   2.614   4.453  13.221  0.2790 -0.2052 -1.4595
  723TMC3    C310737   2.503   4.459  13.298 -0.3271 -0.5379  0.3185
  723TMC3    C410738   2.634   4.690  13.232 -0.3699  0.8619  0.5198
  723TMC3    C510739   2.516   4.697  13.299 -0.3802  0.0206 -0.4871
  723TMC3    C610740   2.453   4.577  13.346 -0.4366  0.1041  0.0493
  723TMC3     C10741   2.801   4.559  13.124  0.8527 -0.3193 -0.6081
  723TMC3     O10742   2.801   4.471  13.038 -0.1592 -0.4003 -0.5930
  723TMC3     H10743   2.652   4.358  13.183 -0.0023 -0.0669 -2.0699
  723TMC3    H110744   2.683   0.041  13.200  1.8906 -0.7100 -0.4462
  723TMC3    H210745   2.362   4.589  13.404  0.2509  0.7841  0.9850
  723TMC3    C710746   2.452   0.085  13.298  0.4741  0.0224  0.0227
  723TMC3    C810747   2.437   4.343  13.336 -0.1946  0.7866  0.3130
  723TMC3    O110748   2.511   0.175  13.243  0.2484 -0.5780 -0.1434
  723TMC3    O210749   2.363   4.347  13.431 -0.9753  0.6582 -0.3832
  724TMC3    C110750   3.698   1.926  10.530  0.2264 -0.0286 -0.9056
  724TMC3    C210751   3.770   1.922  10.409 -0.8394 -0.1509 -0.0874
  724TMC3    C310752   3.854   2.025  10.374  0.3295 -0.1811  0.2748
  724TMC3    C410753   3.743   2.011  10.626 -0.2385 -0.5489  0.2441
  724TMC3    C510754   3.833   2.113  10.588  0.2435  0.0681  0.0591
  724TMC3    C610755   3.895   2.119  10.463 -0.1145 -1.1028 -0.3696
  724TMC3     C10756   3.633   1.804  10.580  0.6411 -0.2455  0.3500
  724TMC3     O10757   3.638   1.775  10.699  0.4167  0.3640  0.4585
  724TMC3     H10758   3.734   1.848  10.339 -0.3782 -0.4705  0.0151
  724TMC3    H110759   3.692   2.019  10.721 -1.2798 -3.0675 -0.0911
  724TMC3    H210760   3.950   2.209  10.440 -0.8670 -0.1383  1.5693
  724TMC3    C710761   3.841   2.243  10.650 -0.1480  0.9403 -0.1550
  724TMC3    C810762   3.901   2.033  10.240  0.7017  0.7538  0.0574
  724TMC3    O110763   3.954   2.286  10.650  0.0299 -0.0370  0.2003
  724TMC3    O210764   3.892   1.935  10.167  0.3996 -1.0918  0.4366
  725TMC3    C110765   0.902   1.353  13.191 -0.2788  0.2470 -0.2188
  725TMC3    C210766   0.771   1.400  13.200  0.2232 -0.0515 -0.2390
  725TMC3    C310767   0.700   1.397  13.093  0.2992 -0.4975 -0.5695
  725TMC3    C410768   0.952   1.291  13.079 -0.2857 -0.3162 -0.1823
  725TMC3    C510769   0.867   1.287  12.966  0.0462 -0.2414  0.0121
  725TMC3    C610770   0.742   1.341  12.975 -0.0308 -0.0544 -0.1170
  725TMC3     C10771   1.000   1.410  13.283 -0.5726 -0.4606 -0.3526
  725TMC3     O10772   0.975   1.523  13.327 -0.2220  0.1969  0.5079
  725TMC3     H10773   0.738   1.454  13.289  1.0340  1.9686 -1.1562
  725TMC3    H110774   1.053   1.253  13.071  0.5777  1.9403 -0.1633
  725TMC3    H210775   0.685   1.337  12.883 -0.3522 -0.6358  0.1036
  725TMC3    C710776   0.897   1.183  12.868 -0.1701 -0.6133  0.3231
  725TMC3    C810777   0.558   1.384  13.118 -0.3508 -0.6069  0.2401
  725TMC3    O110778   0.855   1.201  12.760 -0.4905  0.0826  0.1106
  725TMC3    O210779   0.523   1.358  13.228  0.3391 -0.4423 -0.7879
  726MPD2     C10780   2.806   2.731  10.506 -0.3514  0.2978  0.3835
  726MPD2    C110781   2.752   2.827  10.576  0.3818  0.7135  0.2589
  726MPD2    C210782   2.698   2.797  10.694 -0.1052  0.7905  0.5393
  726MPD2    C310783   2.697   2.665  10.740  0.0180 -0.7119 -0.0625
  726MPD2    C410784   2.746   2.566  10.660 -0.1052 -0.1793  0.2530
  726MPD2    C510785   2.803   2.600  10.543 -0.3063 -0.6483 -0.4442
  726MPD2     H10786   2.646   2.868  10.757 -0.8985  0.0002  0.7808
  726MPD2    H110787   2.751   2.463  10.693  1.9007 -0.8142 -1.9887
  726MPD2    H210788   2.863   2.748  10.415  0.1320 -1.9220  0.2776
  726MPD2    H310789   2.843   2.529  10.473  0.2113 -2.0836  1.3063
  726MPD2     N10790   2.618   2.625  10.850  0.6399 -0.0304  0.2997
  726MPD2    H510791   2.600   2.525  10.850  0.0952  0.0658  0.2789
  726MPD2    N110792   2.760   2.961  10.535  0.2525 -0.2734  1.0446
  726MPD2    H710793   2.734   3.039  10.594 -2.2576 -0.6114  0.4024
  727TMC3    C110794   2.783   3.148  10.381  0.0796 -0.4240  0.5794
  727TMC3    C210795   2.833   3.230  10.478  0.0671 -0.2987  0.7833
  727TMC3    C310796   2.797   3.361  10.465 -0.0665 -0.2047  0.2381
  727TMC3    C410797   2.697   3.188  10.279 -0.5862 -0.0470  0.1829
  727TMC3    C510798   2.668   3.323  10.263  0.1586 -0.0280 -0.5218
  727TMC3    C610799   2.725   3.410  10.356  0.1606 -0.4655 -0.1667
  727TMC3     C10800   2.782   3.005  10.400  0.4698 -0.1026 -0.1725
  727TMC3     O10801   2.789   2.934  10.299  0.7418 -0.0644 -0.6359
  727TMC3     H10802   2.903   3.198  10.554 -0.3759 -0.2064  1.2302
  727TMC3    H110803   2.667   3.106  10.215 -1.0323  1.2066 -1.2301
  727TMC3    H210804   2.706   3.516  10.345  0.7452 -0.2919  0.4797
  727TMC3    C710805   2.569   3.376  10.172  1.1511  0.1429  0.4368
  727TMC3    C810806   2.833   3.454  10.571  0.5866 -0.0877  0.0918
  727TMC3    O110807   2.546   3.492  10.161 -0.4093 -0.2815  0.1092
  727TMC3    O210808   2.936   3.440  10.642 -0.3389  0.4811 -0.7700
  728TMC3    C110809   2.520   1.644  15.643 -0.0668 -0.0815 -0.0389
  728TMC3    C210810   2.635   1.720  15.649 -0.5435  0.3674  0.0697
  728TMC3    C310811   2.679   1.790  15.537 -0.0798  0.2858  0.2928
  728TMC3    C410812   2.457   1.621  15.527  0.2229 -0.3185  0.1858
  728TMC3    C510813   2.504   1.684  15.416 -0.1701  0.2205 -0.0525
  728TMC3    C610814   2.617   1.766  15.415 -0.1903 -0.7080 -0.1366
  728TMC3     C10815   2.484   1.569  15.766 -0.3449  0.9598  0.2041
  728TMC3     O10816   2.577   1.555  15.843  0.3772 -0.0920  0.6953
  728TMC3     H10817   2.679   1.722  15.748  0.7129 -1.9906 -0.4388
  728TMC3    H110818   2.380   1.545  15.525  0.3122 -0.4278  0.9685
  728TMC3    H210819   2.629   1.836  15.333 -1.8958 -0.2378  0.0190
  728TMC3    C710820   2.439   1.665  15.288  0.0008  0.1914 -0.1966
  728TMC3    C810821   2.752   1.917  15.559  0.1385 -0.1437 -0.1133
  728TMC3    O110822   2.321   1.628  15.299 -0.5253 -0.2803 -0.1929
  728TMC3    O210823   2.755   1.989  15.463 -0.3269  0.1799  0.1653
  729MPD2     C10824   4.627   2.162  16.454  0.5841 -0.2331 -0.1232
  729MPD2    C110825   4.625   2.301  16.456  0.0979  0.0350  0.7263
  729MPD2    C210826   4.536   2.363  16.537  0.9434 -0.0354  0.6153
  729MPD2    C310827   4.467   2.291  16.631 -0.6417  0.1058  0.0822
  729MPD2    C410828   4.488   2.154  16.645  0.1751  0.3522 -0.4344
  729MPD2    C510829   4.567   2.089  16.551  0.2686 -0.6265  0.4282
  729MPD2     H10830   4.543   2.470  16.555  2.2706 -0.3497  1.9640
  729MPD2    H110831   4.458   2.090  16.727 -0.8754 -0.3879 -1.4000
  729MPD2    H210832   4.685   2.108  16.381  1.5851  2.1834 -1.1234
  729MPD2    H310833   4.575   1.981  16.551 -1.2290 -0.7301 -0.7144
  729MPD2     N10834   4.392   2.352  16.734  0.0465  0.0253 -0.2076
  729MPD2    H510835   4.387   2.308  16.825  0.1062 -1.4515 -0.9225
  729MPD2    N110836   4.714   2.364  16.370 -0.1551  0.1415 -0.1368
  729MPD2    H710837   0.053   2.310  16.338 -0.0306  1.1926 -1.5886
  730TMC3    C110838   4.326   2.533  16.874 -0.4256 -0.5244  0.4428
  730TMC3    C210839   4.432   2.533  16.960 -0.6928  0.0675  0.4346
  730TMC3    C310840   4.447   2.616  17.073 -0.2603 -0.1418  0.0480
  730TMC3    C410841   4.236   2.638  16.884 -0.2563 -0.1407 -0.0109
  730TMC3    C510842   4.246   2.723  16.992 -0.0441  0.0888  0.6029
  730TMC3    C610843   4.349   2.717  17.087 -0.5036 -0.8387  0.2987
  730TMC3     C10844   4.349   2.482  16.740  0.0741 -0.2006 -0.3740
  730TMC3     O10845   4.339   2.558  16.644  0.4022 -0.6404  0.1905
  730TMC3     H10846   4.510   2.461  16.935 -0.8113  0.5110 -1.1636
  730TMC3    H110847   4.158   2.640  16.809  0.0984 -3.0804 -0.4541
  730TMC3    H210848   4.348   2.789  17.169  0.0440 -0.4198 -0.0575
  730TMC3    C710849   4.207   2.859  16.955 -0.3893  0.0584  0.1093
  730TMC3    C810850   4.580   2.657  17.123 -0.2360 -0.5908  0.1673
  730TMC3    O110851   4.217   2.880  16.837 -0.5470 -0.1820  0.3560
  730TMC3    O210852   4.661   2.565  17.142  0.1350 -0.5162  0.2975
  731MPD2     C10853   4.158   1.232  12.468 -0.5019  0.0451  0.0081
  731MPD2    C110854   4.285   1.271  12.510 -0.2250 -0.0201 -0.0686
  731MPD2    C210855   4.318   1.271  12.642  0.0404  0.1000 -0.0493
  731MPD2    C310856   4.228   1.222  12.734  0.3507 -0.2316  0.6054
  731MPD2    C410857   4.097   1.189  12.695 -0.2994  0.6130  0.0075
  731MPD2    C510858   4.072   1.189  12.563  0.2289  0.6096 -0.4456
  731MPD2     H10859   4.417   1.300  12.674  0.8298 -1.4006 -1.1045
  731MPD2    H110860   4.027   1.142  12.763 -1.1950  0.6997 -0.8704
  731MPD2    H210861   4.135   1.227  12.362 -1.7687 -0.5148  0.3099
  731MPD2    H310862   3.973   1.154  12.535  0.0614  0.3175  0.5143
  731MPD2     N10863   4.287   1.185  12.860  0.0246  0.0185 -0.5531
  731MPD2    H510864   4.385   1.210  12.872  0.3595 -1.5595  0.0037
  731MPD2    N110865   4.369   1.313  12.410  0.1869  0.1573 -0.0510
  731MPD2    H710866   4.348   1.295  12.312  0.6080  0.9761 -0.2884
  732TMC3    C110867   4.583   1.322  12.310 -0.8132 -1.2692  0.9434
  732TMC3    C210868   4.568   1.196  12.257 -0.4347 -0.4337  0.1060
  732TMC3    C310869   4.678   1.120  12.223 -0.2397 -0.0823 -0.4685
  732TMC3    C410870   4.711   1.371  12.327  0.0510  0.3883 -0.2101
  732TMC3    C510871   0.075   1.287  12.297  0.5081 -0.2150 -0.3844
  732TMC3    C610872   0.066   1.159  12.238  0.4682 -0.3324  0.0123
  732TMC3     C10873   4.495   1.364  12.421 -0.6020 -0.6070  0.3062
  732TMC3     O10874   4.543   1.438  12.509  0.4337 -0.8701  0.0864
  732TMC3     H10875   4.464   1.169  12.241 -1.0479  2.2501 -0.4168
  732TMC3    H110876   4.739   1.468  12.367 -1.3024  0.8873 -0.4740
  732TMC3    H210877   0.149   1.099  12.202  0.9026 -2.3045  4.3023
  732TMC3    C710878   0.192   1.305  12.386 -0.5161 -0.0446  0.3279
  732TMC3    C810879   4.661   0.980  12.189  0.5405  0.1335 -0.0790
  732TMC3    O110880   0.179   1.364  12.493  0.5837  0.3369 -0.4843
  732TMC3    O210881   0.015   0.926  12.129  0.1889  0.0952 -0.2629
  733TMC3    C110882   0.624   3.486  12.956 -0.1726 -0.5506 -0.1033
  733TMC3    C210883   0.750   3.431  12.974  0.2556  0.0496  0.2973
  733TMC3    C310884   0.826   3.411  12.860 -0.8732 -0.1728  0.4607
  733TMC3    C410885   0.580   3.516  12.823  0.4690 -0.2149 -0.5209
  733TMC3    C510886   0.664   3.476  12.718 -0.3542 -0.0491  0.4542
  733TMC3    C610887   0.783   3.431  12.733  0.1998  0.2453 -0.1058
  733TMC3     C10888   0.561   3.547  13.069 -0.1582 -0.0942  1.1122
  733TMC3     O10889   0.492   3.642  13.041  0.2896  0.4925  0.2241
  733TMC3     H10890   0.800   3.425  13.070  2.3393  0.0355 -0.7990
  733TMC3    H110891   0.480   3.555  12.806  0.4576  0.0566  0.1853
  733TMC3    H210892   0.846   3.391  12.654 -0.9822 -0.2845 -0.7701
  733TMC3    C710893   0.623   3.548  12.602 -0.3766 -0.2526 -0.1066
  733TMC3    C810894   0.970   3.419  12.875  0.2411  0.4406 -0.8100
  733TMC3    O110895   0.504   3.540  12.567 -0.3851  0.2742  0.7580
  733TMC3    O210896   1.027   3.372  12.973 -0.4896 -0.4605  0.2800
  734MPD2     C10897   2.456   1.440  12.866  0.6224 -0.5938 -0.8114
  734MPD2    C110898   2.389   1.404  12.756 -0.1267 -0.1295 -0.3059
  734MPD2    C210899   2.399   1.485  12.645  0.4788  0.4490 -0.6539
  734MPD2    C310900   2.479   1.597  12.646 -0.3081  0.3094  0.9432
  734MPD2    C410901   2.532   1.641  12.763 -0.0968 -0.4360 -0.0355
  734MPD2    C510902   2.518   1.567  12.873  0.3676  0.2624  0.6560
  734MPD2     H10903   2.374   1.462  12.542 -2.5444 -2.2340  0.6810
  734MPD2    H110904   2.592   1.731  12.767 -0.4134 -0.2420  0.3930
  734MPD2    H210905   2.457   1.381  12.958 -1.3179  2.5491  1.2348
  734MPD2    H310906   2.561   1.607  12.965  0.6379 -2.3307  1.6397
  734MPD2     N10907   2.476   1.664  12.520  0.3480  0.5682  0.5482
  734MPD2    H510908   2.442   1.610  12.442  0.2171  0.8078  0.4409
  734MPD2    N110909   2.331   1.277  12.738  0.0541  0.0125  0.3750
  734MPD2    H710910   2.328   1.203  12.808  0.1097  0.4155  0.7989
  735TMC3    C110911   2.242   1.115  12.594 -0.0937 -0.5204 -0.8628
  735TMC3    C210912   2.143   1.085  12.511 -0.1886 -0.2130 -0.0910
  735TMC3    C310913   2.144   0.969  12.442  0.5490  0.4016 -0.5919
  735TMC3    C410914   2.355   1.038  12.592 -0.0353  0.1552 -0.8564
  735TMC3    C510915   2.355   0.917  12.525  0.5563  0.0352  0.8501
  735TMC3    C610916   2.243   0.877  12.461 -0.4894  0.3974 -0.6306
  735TMC3     C10917   2.256   1.253  12.627  0.4426 -0.1982  0.0583
  735TMC3     O10918   2.196   1.324  12.550 -0.3312 -0.6177 -0.2201
  735TMC3     H10919   2.055   1.144  12.533 -1.1764 -1.9794  0.7130
  735TMC3    H110920   2.443   1.070  12.646 -0.1195  1.1839 -1.3371
  735TMC3    H210921   2.234   0.783  12.407  1.6535  0.1783 -0.6252
  735TMC3    C710922   2.482   0.873  12.477  0.6607 -0.5401  0.1634
  735TMC3    C810923   2.124   0.997  12.304  0.1244 -0.5698 -0.3862
  735TMC3    O110924   2.562   0.967  12.477  0.2002  0.2879 -0.2358
  735TMC3    O210925   2.136   0.913  12.217  0.0946 -0.5469 -0.3763
  736MPD2     C10926   2.598   0.539  12.378  0.3911 -0.0381  0.0421
  736MPD2    C110927   2.608   0.674  12.390  0.0167 -0.2750 -0.0240
  736MPD2    C210928   2.732   0.733  12.372 -0.0600  0.4566 -0.0450
  736MPD2    C310929   2.845   0.655  12.339 -0.1389 -0.3258 -0.3050
  736MPD2    C410930   2.833   0.519  12.319 -0.1278 -0.9941 -1.1910
  736MPD2    C510931   2.707   0.467  12.327 -0.0365 -0.7597  0.8516
  736MPD2     H10932   2.748   0.840  12.377 -1.0400  0.7225 -2.2060
  736MPD2    H110933   2.924   0.461  12.309  0.0304 -1.1822  1.3533
  736MPD2    H210934   2.499   0.495  12.388  0.4746  0.2648  2.2359
  736MPD2    H310935   2.697   0.361  12.308  1.5877 -1.0371  1.5068
  736MPD2     N10936   2.978   0.706  12.330 -0.3178  0.4436 -0.7261
  736MPD2    H510937   3.041   0.636  12.292  3.4881  4.2703 -1.5163
  736MPD2    N110938   2.489   0.740  12.439 -0.1154 -0.0599  1.0167
  736MPD2    H710939   2.405   0.689  12.462 -1.4770  1.3780 -0.8794
  737TMC3    C110940   3.154   0.843  12.268 -0.4335 -0.4299  0.8429
  737TMC3    C210941   3.214   0.969  12.252 -0.3524 -0.0698  0.4600
  737TMC3    C310942   3.326   0.978  12.178 -0.0545  0.4226 -0.1661
  737TMC3    C410943   3.204   0.723  12.207 -0.1317  0.2383 -0.3247
  737TMC3    C510944   3.312   0.745  12.124  0.1721  0.3813 -0.4133
  737TMC3    C610945   3.372   0.869  12.112 -0.0179  0.2289 -0.5499
  737TMC3     C10946   3.028   0.836  12.333  0.5134  0.2597  0.4982
  737TMC3     O10947   2.975   0.940  12.375 -1.0490 -0.6691  0.1586
  737TMC3     H10948   3.173   1.052  12.308 -1.2008 -0.0175 -0.2335
  737TMC3    H110949   3.167   0.621  12.214  0.4153  0.2670  3.0571
  737TMC3    H210950   3.463   0.877  12.053  0.0886  0.0278 -0.4154
  737TMC3    C710951   3.384   0.624  12.078 -0.2946  0.3872 -0.0622
  737TMC3    C810952   3.388   1.109  12.156 -0.5059 -0.2673  1.1437
  737TMC3    O110953   3.349   0.511  12.115  0.0720  0.6849  0.4011
  737TMC3    O210954   3.342   1.196  12.232  0.6506  0.6545  0.1829
  738MPD2     C10955   3.518   0.390  14.974 -0.0311 -0.3492  0.0931
  738MPD2    C110956   3.599   0.295  15.048  0.8292 -0.2497  0.2026
  738MPD2    C210957   3.727   0.339  15.090 -0.0360 -0.0059 -1.0929
  738MPD2    C310958   3.776   0.461  15.034  0.3302 -0.0415  0.6762
  738MPD2    C410959   3.697   0.546  14.969  0.3769 -0.1160 -0.5125
  738MPD2    C510960   3.570   0.511  14.937  0.9999  0.0484 -1.4439
  738MPD2     H10961   3.781   0.266  15.149  0.3040  1.5159  0.4928
  738MPD2    H110962   3.733   0.641  14.931 -0.8828  0.4411 -0.3034
  738MPD2    H210963   3.418   0.365  14.940  0.2797 -0.6315 -0.6114
  738MPD2    H310964   3.507   0.578  14.878 -0.8789 -1.4845 -1.1841
  738MPD2     N10965   3.912   0.496  15.041 -0.2140  0.2351 -0.1054
  738MPD2    H510966   3.936   0.576  14.983  1.7872 -0.9457 -0.9082
  738MPD2    N110967   3.550   0.168  15.093  0.2459 -0.1831  0.0009
  738MPD2    H710968   3.603   0.120  15.165 -1.9939 -0.4063  1.4761
  739TMC3    C110969   4.143   0.472  15.052  0.0495 -0.3341 -0.5424
  739TMC3    C210970   4.143   0.492  14.917  0.0982 -0.0009 -0.5473
  739TMC3    C310971   4.257   0.453  14.846  0.5839 -0.0971  0.0284
  739TMC3    C410972   4.259   0.427  15.108  0.4204  0.5621 -0.5841
  739TMC3    C510973   4.355   0.367  15.032 -0.2542 -0.2180  0.2280
  739TMC3    C610974   4.367   0.394  14.902  0.1956 -0.0484 -0.7073
  739TMC3     C10975   4.012   0.423  15.105 -0.2319 -0.4272 -0.2334
  739TMC3     O10976   4.017   0.332  15.190 -0.5048 -0.1460 -0.1219
  739TMC3     H10977   4.064   0.548  14.868 -0.6566  0.4336  1.1894
  739TMC3    H110978   4.261   0.409  15.215 -1.0856  2.0095 -0.3110
  739TMC3    H210979   4.428   0.330  14.839  1.1933 -0.7583  0.9724
  739TMC3    C710980   4.472   0.309  15.099  0.1074 -0.5032  0.3499
  739TMC3    C810981   4.243   0.472  14.706  0.3817 -1.0951  0.6729
  739TMC3    O110982   4.571   0.297  15.025 -0.1299  0.6009  0.6726
  739TMC3    O210983   4.128   0.489  14.672  0.0376 -0.2095 -0.4758
  740TMC3    C110984   4.673   1.475  14.562  0.3784  0.3421  0.2791
  740TMC3    C210985   4.723   1.415  14.669 -0.0881  0.0750 -0.5300
  740TMC3    C310986   0.111   1.360  14.675 -0.0934 -0.1716 -0.0454
  740TMC3    C410987   4.738   1.449  14.445 -0.2375 -0.6170  0.4466
  740TMC3    C510988   0.117   1.375  14.448 -0.8573  0.0275  0.5859
  740TMC3    C610989   0.182   1.343  14.559  0.0626 -0.2343 -0.0325
  740TMC3     C10990   4.560   1.563  14.553 -0.4862 -0.0418  0.1985
  740TMC3     O10991   4.536   1.621  14.445 -0.7922 -0.7335  0.3285
  740TMC3     H10992   4.684   1.439  14.767 -1.4050 -0.6026 -0.8981
  740TMC3    H110993   4.697   1.488  14.352  0.7329 -1.0741 -0.1795
  740TMC3    H210994   0.282   1.303  14.573  1.1744  3.2431  2.1688
  740TMC3    C710995   0.169   1.313  14.323 -0.1549 -0.1159 -0.2948
  740TMC3    C810996   0.158   1.290  14.793  0.3606 -0.2773 -0.3033
  740TMC3    O110997   0.263   1.237  14.336  0.0898 -0.3357  0.3958
  740TMC3    O210998   0.276   1.274  14.802  0.3534  0.2746  0.1616
  741TMC3    C110999   3.839   0.940  14.440 -0.9534  0.0208 -0.2607
  741TMC3    C211000   3.729   0.861  14.417  0.5682  0.5679  0.5283
  741TMC3    C311001   3.720   0.746  14.493 -0.4658 -0.4124 -0.6404
  741TMC3    C411002   3.926   0.914  14.543  0.3333  0.4512 -0.0586
  741TMC3    C511003   3.897   0.808  14.618  0.5182  0.6446  0.0976
  741TMC3    C611004   3.790   0.726  14.609 -0.0947  0.1178  0.4468
  741TMC3     C11005   3.848   1.074  14.381 -0.1684  0.2504  0.6291
  741TMC3     O11006   3.952   1.136  14.402 -0.3855  0.3318 -0.1297
  741TMC3     H11007   3.647   0.876  14.348 -0.9505  1.0881  2.4370
  741TMC3    H111008   4.004   0.982  14.573  2.0008 -1.1210 -0.8245
  741TMC3    H211009   3.781   0.638  14.670  1.5817 -0.2303  0.2098
  741TMC3    C711010   3.978   0.797  14.742  0.0997  0.6068  0.3048
  741TMC3    C811011   3.610   0.649  14.464  0.6858 -0.2447 -1.6365
  741TMC3    O111012   3.922   0.768  14.847 -0.3836 -0.4316  0.8740
  741TMC3    O211013   3.536   0.686  14.371  0.0154  0.4750 -0.4657
  742TMC3    C111014   4.114   3.470  15.225 -0.5370 -0.1600  0.1570
  742TMC3    C211015   4.020   3.537  15.144 -0.3681  0.0984  0.1194
  742TMC3    C311016   4.071   3.575  15.018 -0.6023  0.5662  0.3765
  742TMC3    C411017   4.238   3.432  15.188  0.0955 -0.2509 -0.3350
  742TMC3    C511018   4.278   3.457  15.061  0.4633  0.2567 -0.0392
  742TMC3    C611019   4.198   3.538  14.986  0.3017  0.0711 -0.5802
  742TMC3     C11020   4.084   3.448  15.368  0.4472 -0.1432 -0.3567
  742TMC3     O11021   4.178   3.458  15.446 -0.2022  0.2712 -0.2025
  742TMC3     H11022   3.931   3.582  15.186 -0.2309  1.7882 -1.3925
  742TMC3    H111023   4.308   3.403  15.266  1.3957  3.2337 -0.1948
  742TMC3    H211024   4.231   3.568  14.887 -0.1740 -0.6726 -0.9720
  742TMC3    C711025   4.414   3.435  15.021  0.1763  0.4335 -0.4429
  742TMC3    C811026   3.995   3.651  14.920  0.0433  0.2266 -0.9559
  742TMC3    O111027   4.501   3.441  15.106 -0.3129 -0.1631  0.5677
  742TMC3    O211028   4.010   3.629  14.804 -1.0502  0.3451 -0.7195
  743MPD2     C11029   1.688   4.593   1.448  0.5717  0.1815 -0.4469
  743MPD2    C111030   1.684   4.516   1.330  0.1606  0.3943  0.2765
  743MPD2    C211031   1.804   4.504   1.256 -0.2295 -0.4609  0.4309
  743MPD2    C311032   1.913   4.582   1.286  0.9808 -0.5308 -0.2772
  743MPD2    C411033   1.910   4.659   1.395 -0.0157  0.8875 -0.2773
  743MPD2    C511034   1.804   4.657   1.484  0.2355  0.1645  0.1863
  743MPD2     H11035   1.812   4.446   1.165 -1.0246 -1.2563  0.8707
  743MPD2    H111036   1.987   4.733   1.417 -0.4346  1.3887 -0.4857
  743MPD2    H211037   1.601   4.599   1.512  0.1038  1.8732 -1.2311
  743MPD2    H311038   1.800   4.712   1.578 -0.2425 -1.1120  0.9112
  743MPD2     N11039   2.026   4.580   1.203 -0.6411 -0.5080  0.1407
  743MPD2    H511040   2.012   4.544   1.109 -0.4868 -0.7397  0.2048
  743MPD2    N111041   1.563   4.451   1.301 -0.2278  0.6801  0.3918
  743MPD2    H711042   1.480   4.484   1.349 -0.0177 -1.2269  2.0700
  744TMC3    C111043   1.418   4.302   1.177 -0.0457  0.8917  0.2688
  744TMC3    C211044   1.301   4.370   1.217  0.5236 -0.2292  0.0205
  744TMC3    C311045   1.192   4.372   1.140 -0.1808  0.6023 -0.8748
  744TMC3    C411046   1.412   4.227   1.060  0.2666  0.0390 -0.2456
  744TMC3    C511047   1.297   4.228   0.989 -0.4785  0.2913 -0.0442
  744TMC3    C611048   1.187   4.299   1.023 -0.3587  0.0982 -0.1263
  744TMC3     C11049   1.555   4.360   1.197 -0.2318  0.5426 -0.1247
  744TMC3     O11050   1.643   4.315   1.122 -0.0656 -0.6038  1.0656
  744TMC3     H11051   1.306   4.428   1.309 -1.3277 -0.5727  0.3321
  744TMC3    H111052   1.498   4.170   1.026  0.3066  0.9239 -1.6650
  744TMC3    H211053   1.112   4.330   0.950 -2.2650  2.4819  2.8195
  744TMC3    C711054   1.318   4.194   0.848  0.4092 -0.7230  0.3907
  744TMC3    C811055   1.100   4.475   1.155 -0.1222 -0.4051  0.3635
  744TMC3    O111056   1.269   4.275   0.772 -0.4914 -0.2736  0.1289
  744TMC3    O211057   1.068   4.537   1.055 -0.1250 -0.2445  0.3004
  745TMC3    C111058   4.143   3.540  13.995  0.0722  0.4680 -0.8328
  745TMC3    C211059   4.034   3.586  14.065 -0.4783 -0.1557 -0.1942
  745TMC3    C311060   3.920   3.620  14.001 -0.4590  0.0142  0.2293
  745TMC3    C411061   4.139   3.546  13.854 -0.1350 -1.0629 -0.6561
  745TMC3    C511062   4.014   3.573  13.800  0.3942  0.2757 -0.2264
  745TMC3    C611063   3.905   3.615  13.868 -0.1699  0.1546  0.1192
  745TMC3     C11064   4.256   3.596  14.056 -0.0040 -0.0910 -0.1520
  745TMC3     O11065   4.326   3.520  14.115  0.2910  0.1232 -0.3272
  745TMC3     H11066   4.041   3.584  14.173 -0.7028  0.8768 -0.1618
  745TMC3    H111067   4.226   3.520  13.795  0.6171  2.1427 -0.9693
  745TMC3    H211068   3.814   3.647  13.818 -0.9017 -1.5303  0.3968
  745TMC3    C711069   4.016   3.622  13.661  0.0704 -0.9277 -0.4942
  745TMC3    C811070   3.840   3.725  14.068 -0.0305  0.6929 -0.2897
  745TMC3    O111071   3.912   3.655  13.601 -0.7105 -0.4853  0.6052
  745TMC3    O211072   3.720   3.736  14.050  0.2702  0.3359 -0.1030
  746TMC3    C111073   1.530   1.019  11.278 -0.3870 -0.4196  0.3663
  746TMC3    C211074   1.640   0.950  11.236  0.1763  0.2436  0.5247
  746TMC3    C311075   1.652   0.815  11.269 -0.2551  0.6646  0.1831
  746TMC3    C411076   1.428   0.955  11.339 -0.3155 -0.4025 -0.1529
  746TMC3    C511077   1.435   0.818  11.369 -0.4676  0.6494  0.5443
  746TMC3    C611078   1.555   0.756  11.345 -0.4839 -0.3753  0.0279
  746TMC3     C11079   1.517   1.162  11.264 -0.4727  0.0433  0.1540
  746TMC3     O11080   1.406   1.211  11.281 -0.5289  0.1849 -0.7464
  746TMC3     H11081   1.704   1.003  11.167 -1.1855  2.1046  0.6899
  746TMC3    H111082   1.346   1.019  11.369  0.0080 -0.1697  0.2350
  746TMC3    H211083   1.562   0.653  11.376 -0.3884  0.0667  1.4699
  746TMC3    C711084   1.337   0.751  11.458 -0.2642  0.0026 -0.0575
  746TMC3    C811085   1.719   0.732  11.165 -0.2004  0.1876 -0.2531
  746TMC3    O111086   1.384   0.684  11.547  0.0536  0.5659 -0.2040
  746TMC3    O211087   1.648   0.653  11.097 -0.3642  0.6939  0.3164
  747TMC3    C111088   4.334   0.756  11.634  0.0865  0.7144 -0.0461
  747TMC3    C211089   4.235   0.679  11.681  0.7462 -0.3452  0.1245
  747TMC3    C311090   4.179   0.719  11.803 -0.6156 -0.6558 -0.0637
  747TMC3    C411091   4.393   0.856  11.707  0.9558  0.0395  0.3287
  747TMC3    C511092   4.339   0.884  11.826 -0.5706 -0.6830 -0.0451
  747TMC3    C611093   4.222   0.824  11.870  0.3714  0.7722  0.0060
  747TMC3     C11094   4.400   0.710  11.509 -0.3950 -0.3732 -0.5123
  747TMC3     O11095   4.514   0.740  11.483 -0.0735 -0.2801  0.5217
  747TMC3     H11096   4.207   0.584  11.637  0.5114 -1.5759  2.9339
  747TMC3    H111097   4.473   0.916  11.666  0.9972 -1.1962 -1.3756
  747TMC3    H211098   4.165   0.863  11.954 -0.1614 -0.3709  0.1743
  747TMC3    C711099   4.366   1.010  11.903  0.1745 -0.0720 -0.3224
  747TMC3    C811100   4.093   0.626  11.867  0.3333 -0.1317  0.2161
  747TMC3    O111101   4.282   1.073  11.965  0.5110 -0.2230 -0.5427
  747TMC3    O211102   4.122   0.511  11.849  0.5170 -0.2863  0.2024
  748MPD2     C11103   0.414   1.340   1.368  0.0171  0.2317 -0.1175
  748MPD2    C111104   0.458   1.214   1.347 -0.4711  0.1862 -0.5725
  748MPD2    C211105   0.588   1.202   1.340  0.4705 -0.2335 -0.0521
  748MPD2    C311106   0.675   1.308   1.346 -0.3163 -0.7647  0.4744
  748MPD2    C411107   0.631   1.434   1.375 -0.4861  0.0079  0.0050
  748MPD2    C511108   0.498   1.446   1.388 -0.4043 -0.4788  0.1277
  748MPD2     H11109   0.630   1.111   1.298 -2.6594 -2.4023  1.5087
  748MPD2    H111110   0.695   1.522   1.382 -0.8117  0.4838 -2.9063
  748MPD2    H211111   0.310   1.370   1.362 -0.2104 -0.3669  0.9299
  748MPD2    H311112   0.454   1.543   1.403 -2.3307 -1.2452 -0.6342
  748MPD2     N11113   0.817   1.284   1.347  0.3738  1.2401 -0.1434
  748MPD2    H511114   0.841   1.185   1.353  1.0054  1.2944 -1.7119
  748MPD2    N111115   0.366   1.107   1.341  0.0818  0.4955 -0.3970
  748MPD2    H711116   0.267   1.131   1.337 -0.0227  0.3601  1.5796
  749TMC3    C111117   1.057   1.303   1.360 -0.1866  0.3510  0.4493
  749TMC3    C211118   1.074   1.168   1.346  0.2568 -0.5861  0.1376
  749TMC3    C311119   1.196   1.118   1.339  0.4182  0.2125  0.2240
  749TMC3    C411120   1.164   1.385   1.374  0.2282  0.1507 -0.0729
  749TMC3    C511121   1.294   1.321   1.382 -0.1358  0.1460  0.9793
  749TMC3    C611122   1.307   1.192   1.338 -0.9431  0.5080  0.6592
  749TMC3     C11123   0.927   1.370   1.339  0.1898 -0.4531 -0.4014
  749TMC3     O11124   0.926   1.491   1.352  0.3638  0.3476 -0.1892
  749TMC3     H11125   0.984   1.109   1.356  0.1616 -0.5304 -0.3947
  749TMC3    H111126   1.147   1.492   1.386  1.5658  0.4257 -0.5832
  749TMC3    H211127   1.402   1.142   1.332 -0.5656  1.4871 -1.6360
  749TMC3    C711128   1.393   1.415   1.339 -1.0201  0.0215 -0.6134
  749TMC3    C811129   1.208   0.978   1.338  0.1860 -0.3684 -0.1474
  749TMC3    O111130   1.349   1.515   1.288  0.4216 -0.1134 -0.0952
  749TMC3    O211131   1.132   0.917   1.411 -0.0340 -0.7203  0.1985
  750MPD2     C11132   1.946   2.751  11.693 -0.4621 -0.1381  0.1391
  750MPD2    C111133   1.826   2.705  11.643  0.3943  0.3099  0.2562
  750MPD2    C211134   1.832   2.590  11.562  0.2137 -0.4346  0.4092
  750MPD2    C311135   1.952   2.521  11.542  0.9432  0.2443 -0.5676
  750MPD2    C411136   2.069   2.570  11.598  0.3093 -0.8442 -0.9183
  750MPD2    C511137   2.061   2.685  11.669 -0.3523 -0.3600 -0.5451
  750MPD2     H11138   1.739   2.549  11.524  0.3592 -0.0397 -0.3899
  750MPD2    H111139   2.162   2.522  11.572  0.3619 -1.5257  0.5182
  750MPD2    H211140   1.957   2.845  11.747  0.4242 -0.3738  0.3667
  750MPD2    H311141   2.146   2.727  11.723 -0.5835 -0.7944  0.1634
  750MPD2     N11142   1.955   2.401  11.463  0.3059 -0.0059  0.3279
  750MPD2    H511143   2.029   2.332  11.479  1.1771  1.1702  1.4116
  750MPD2    N111144   1.705   2.772  11.668  0.6745  0.0054  1.0910
  750MPD2    H711145   1.700   2.862  11.715  0.4526  1.4695 -1.7460
  751TMC3    C111146   1.853   2.231  11.341  0.3949  0.4164  0.6341
  751TMC3    C211147   1.727   2.179  11.314  0.1668 -0.5339  1.1825
  751TMC3    C311148   1.711   2.060  11.251 -0.3408 -0.4450  0.2423
  751TMC3    C411149   1.968   2.161  11.306  0.0472 -0.8839 -0.4485
  751TMC3    C511150   1.947   2.032  11.265  0.7281  0.7643 -0.0156
  751TMC3    C611151   1.820   1.978  11.243  0.1373  0.2105  0.2474
  751TMC3     C11152   1.854   2.370  11.379 -0.3121  0.5600  0.1554
  751TMC3     O11153   1.756   2.432  11.342 -0.5435 -0.5453  0.2484
  751TMC3     H11154   1.642   2.245  11.323  0.1707 -0.2539 -0.8177
  751TMC3    H111155   2.065   2.207  11.318 -0.9059  1.3868 -1.3485
  751TMC3    H211156   1.812   1.893  11.176  2.4856  0.5644 -0.4860
  751TMC3    C711157   2.066   1.964  11.216 -0.5776 -0.7090  0.1321
  751TMC3    C811158   1.584   2.019  11.206 -0.2564 -0.1820 -0.2220
  751TMC3    O111159   2.159   2.033  11.177 -0.3543 -0.7426  0.3179
  751TMC3    O211160   1.576   1.923  11.130  0.1920  0.1535 -0.3108
  752TMC3    C111161   0.258   2.123  17.262 -0.0457  0.6906  0.9712
  752TMC3    C211162   0.282   2.055  17.377  0.2358  0.0149  0.1604
  752TMC3    C311163   0.193   2.078  17.475 -0.3388  0.1336 -0.3048
  752TMC3    C411164   0.137   2.172  17.233  0.5872 -0.1397 -0.1467
  752TMC3    C511165   0.051   2.184  17.335  0.0571 -0.3794  0.9568
  752TMC3    C611166   0.076   2.149  17.459 -0.0648 -0.4334 -0.5856
  752TMC3     C11167   0.363   2.112  17.159  0.1051 -0.0784  0.4535
  752TMC3     O11168   0.471   2.055  17.184 -0.5466 -0.1646 -0.1125
  752TMC3     H11169   0.387   2.034  17.399 -0.0001  0.0518  1.3518
  752TMC3    H111170   0.124   2.227  17.141 -0.8150 -0.0751  0.1036
  752TMC3    H211171   4.735   2.143  17.530 -0.0160 -2.3525 -0.6914
  752TMC3    C711172   4.666   2.230  17.291 -0.0068 -0.2082  0.2910
  752TMC3    C811173   0.193   1.992  17.596  0.2345  0.2602  0.0355
  752TMC3    O111174   4.636   2.237  17.173  0.2213 -0.1866 -0.9109
  752TMC3    O211175   0.265   1.892  17.581  0.3850  0.0735 -0.1427
  753TMC3    C111176   2.636   3.721  13.338 -0.1840 -0.2529 -0.2661
  753TMC3    C211177   2.593   3.733  13.469  0.4096 -0.1443  0.3238
  753TMC3    C311178   2.497   3.636  13.506  0.3337  0.5641 -0.2366
  753TMC3    C411179   2.587   3.629  13.246 -0.1503 -1.0419 -0.0233
  753TMC3    C511180   2.498   3.544  13.296 -0.3390 -0.4838 -0.1025
  753TMC3    C611181   2.450   3.543  13.424  0.1215 -0.2400 -0.0188
  753TMC3     C11182   2.717   3.832  13.288  0.7477  0.2052  0.5031
  753TMC3     O11183   2.782   3.808  13.190 -0.1007  0.0313  0.2711
  753TMC3     H11184   2.626   3.812  13.535 -3.4414  3.2518 -1.7886
  753TMC3    H111185   2.608   3.638  13.141 -1.2905  1.3924 -0.0389
  753TMC3    H211186   2.372   3.471  13.446  1.3781 -1.6171 -0.1409
  753TMC3    C711187   2.423   3.471  13.193  0.1946  0.2983 -0.1518
  753TMC3    C811188   2.427   3.649  13.627  0.1941 -0.7132 -0.5319
  753TMC3    O111189   2.416   3.523  13.083  0.3068 -0.1458 -0.4134
  753TMC3    O211190   2.313   3.607  13.639  0.5900 -0.5019 -0.2233
  754MPD2     C11191   2.113   2.336  13.600 -0.3824 -0.9268  0.3098
  754MPD2    C111192   2.090   2.199  13.610  0.7145  0.3725 -0.8289
  754MPD2    C211193   1.967   2.142  13.566 -0.0946 -0.4543 -0.0675
  754MPD2    C311194   1.875   2.228  13.515  0.3440 -0.0584  0.1301
  754MPD2    C411195   1.891   2.362  13.517 -0.0870  0.4348 -0.7808
  754MPD2    C511196   2.006   2.414  13.564  0.6601  0.9985  0.7503
  754MPD2     H11197   1.953   2.034  13.572 -1.5147 -0.2376  0.6047
  754MPD2    H111198   1.818   2.433  13.481 -0.1856  0.7132 -0.0155
  754MPD2    H211199   2.203   2.392  13.622  0.1840 -0.8411 -2.1851
  754MPD2    H311200   2.027   2.520  13.553  0.2572  0.8659 -1.3547
  754MPD2     N11201   1.741   2.188  13.487 -0.2710  0.4033  0.6737
  754MPD2    H511202   1.673   2.260  13.463  0.7836  0.7315 -1.3108
  754MPD2    N111203   2.193   2.126  13.669 -0.0250 -0.1448 -0.1532
  754MPD2    H711204   2.271   2.187  13.691  1.7390 -2.8564  1.1524
  755MPD2     C11205   1.202   2.740  13.408 -0.0347 -0.5935 -0.1221
  755MPD2    C111206   1.138   2.660  13.498  0.2027 -0.1524  0.0747
  755MPD2    C211207   1.177   2.527  13.502  0.5167 -0.1397 -0.7533
  755MPD2    C311208   1.271   2.472  13.414 -0.5051  0.7581  0.7151
  755MPD2    C411209   1.340   2.557  13.329 -1.1983 -0.1411  0.3497
  755MPD2    C511210   1.295   2.689  13.323  0.4333 -0.2085 -0.2695
  755MPD2     H11211   1.129   2.462  13.574 -1.6806  1.1462 -1.0330
  755MPD2    H111212   1.412   2.520  13.257 -0.8439 -0.7277  1.0051
  755MPD2    H211213   1.177   2.845  13.402 -0.1011 -0.6030 -0.0070
  755MPD2    H311214   1.337   2.758  13.250  0.5378 -1.0791 -1.0355
  755MPD2     N11215   1.316   2.339  13.429 -0.2245  0.5231 -1.0247
  755MPD2    H511216   1.396   2.317  13.370  1.3908  2.4988  0.4195
  755MPD2    N111217   1.054   2.715  13.595 -0.1859 -0.6362 -0.4902
  755MPD2    H711218   1.042   2.652  13.674 -0.5723 -0.3374 -0.3105
  756MPD2     C11219   0.768   3.901  10.183 -0.1163  0.2715  0.3585
  756MPD2    C111220   0.715   3.810  10.273  0.1134 -0.2523  0.3329
  756MPD2    C211221   0.571   3.805  10.299  0.0024  0.4291  0.5837
  756MPD2    C311222   0.493   3.891  10.230 -0.2257  0.0913 -0.4428
  756MPD2    C411223   0.550   3.984  10.142 -0.3932  0.0445 -0.0115
  756MPD2    C511224   0.683   3.990  10.117  0.4579  0.0641 -0.6894
  756MPD2     H11225   0.527   3.743  10.377  1.8705  0.2630  1.4973
  756MPD2    H111226   0.491   4.058  10.089 -0.1475 -0.7640 -1.3970
  756MPD2    H211227   0.872   3.918  10.161  0.1159 -0.3942  0.9297
  756MPD2    H311228   0.726   4.075  10.065  1.9448 -0.4725 -0.3308
  756MPD2     N11229   0.350   3.870  10.245 -0.0673 -0.5881  0.9855
  756MPD2    H511230   0.326   3.790  10.303  0.9942 -1.1318  0.6762
  756MPD2    N111231   0.798   3.730  10.354 -0.2349 -0.3793 -0.1878
  756MPD2    H711232   0.756   3.671  10.425  1.8792 -0.9697  0.5807
  757MPD2     C11233   4.659   3.141  10.459 -0.3825 -0.3206  0.3386
  757MPD2    C111234   0.041   3.179  10.392  0.0237 -0.6195  0.2002
  757MPD2    C211235   0.065   3.315  10.380 -0.0859  1.4735  0.8920
  757MPD2    C311236   4.717   3.412  10.413  0.7662 -0.1660  1.1023
  757MPD2    C411237   4.600   3.373  10.482  0.0479 -0.6194 -0.5206
  757MPD2    C511238   4.575   3.238  10.505 -0.4585 -0.0265 -1.1610
  757MPD2     H11239   0.155   3.351  10.333  1.6696 -2.5350  1.1892
  757MPD2    H111240   4.526   3.439  10.525 -1.7392 -2.6109 -0.4970
  757MPD2    H211241   4.627   3.040  10.485  2.0800 -1.4084 -0.7911
  757MPD2    H311242   4.503   3.205  10.577  0.5072 -0.5560 -0.4395
  757MPD2     N11243   0.015   3.548  10.398 -0.1579  0.6181 -0.3095
  757MPD2    H511244   0.110   3.578  10.380 -0.0332 -0.2092 -1.0221
  757MPD2    N111245   0.136   3.076  10.362  0.2321 -0.2882 -0.0293
  757MPD2    H711246   0.119   2.977  10.375  1.8557 -0.5743 -0.2064
  758MPD2     C11247   1.715   2.147  16.316  0.8487  0.0137  0.5597
  758MPD2    C111248   1.743   2.077  16.428  0.1912  0.3640  0.1842
  758MPD2    C211249   1.668   2.104  16.541  0.4445  0.0664  0.7860
  758MPD2    C311250   1.551   2.183  16.536 -0.1550  0.0130 -1.2559
  758MPD2    C411251   1.519   2.247  16.419  0.1231  0.4225  0.4004
  758MPD2    C511252   1.606   2.229  16.314 -0.0499 -0.2507 -0.0622
  758MPD2     H11253   1.685   2.050  16.633 -0.8626 -0.8399  0.5091
  758MPD2    H111254   1.428   2.303  16.405  0.6184  1.5915  1.8826
  758MPD2    H211255   1.772   2.141  16.224  0.2365  1.6087  0.0698
  758MPD2    H311256   1.586   2.270  16.215  2.0482  0.8592 -0.0171
  758MPD2     N11257   1.458   2.193  16.644 -0.4203  0.2082 -0.7321
  758MPD2    H511258   1.365   2.231  16.629 -1.2216 -1.2212  0.6854
  758MPD2    N111259   1.849   1.983  16.418  0.0446  0.0617  0.0641
  758MPD2    H711260   1.882   1.965  16.323  0.6381  2.1155 -0.1110
  759MPD2     C11261   3.597   0.518   9.811 -0.0453 -0.5145 -0.5404
  759MPD2    C111262   3.727   0.469   9.844 -0.5904 -0.4688 -0.1091
  759MPD2    C211263   3.843   0.532   9.810  0.3607 -0.6032 -0.5452
  759MPD2    C311264   3.829   0.653   9.739  0.2794  0.5787 -0.5983
  759MPD2    C411265   3.700   0.688   9.695  0.1807 -0.4077 -0.2190
  759MPD2    C511266   3.587   0.630   9.732 -0.4362  0.0906 -0.1911
  759MPD2     H11267   3.939   0.507   9.853  0.2116  1.7046  1.1572
  759MPD2    H111268   3.685   0.786   9.650  0.6272 -0.6220 -0.8266
  759MPD2    H211269   3.510   0.473   9.858 -0.3211  1.0446  0.4480
  759MPD2    H311270   3.494   0.675   9.700 -1.3237 -1.8855 -0.3861
  759MPD2     N11271   3.948   0.727   9.722  1.0724  0.2784 -0.6685
  759MPD2    H511272   4.030   0.683   9.763  1.8206  2.3153  0.0151
  759MPD2    N111273   3.738   0.358   9.938  0.2904 -0.1896 -0.5053
  759MPD2    H711274   3.830   0.355   9.982 -0.0808 -1.1808  0.2097
  760MPD2     C11275   4.155   2.202  12.508 -0.2230 -0.0641 -0.1343
  760MPD2    C111276   4.274   2.237  12.448  0.9304 -0.1506  0.2679
  760MPD2    C211277   4.380   2.153  12.440 -0.2396 -0.4497 -0.7483
  760MPD2    C311278   4.370   2.025  12.482  0.3532  0.3781 -0.5103
  760MPD2    C411279   4.261   1.988  12.544  0.3676  0.6260  0.4880
  760MPD2    C511280   4.148   2.073  12.551  1.1389 -0.1672 -0.2800
  760MPD2     H11281   4.467   2.174  12.379  1.6091  0.2878  2.1545
  760MPD2    H111282   4.237   1.887  12.575 -0.8695  0.3593 -1.3541
  760MPD2    H211283   4.079   2.276  12.533  0.1960  0.1199  0.5849
  760MPD2    H311284   4.057   2.041  12.600  1.3058 -0.2996 -0.0578
  760MPD2     N11285   4.470   1.922  12.461 -0.3550  0.1159  0.0490
  760MPD2    H511286   4.455   1.831  12.502 -0.0108  0.4528  0.9294
  760MPD2    N111287   4.297   2.368  12.398 -0.5471 -0.3177  0.1850
  760MPD2    H711288   4.391   2.391  12.367 -1.1974 -2.0553 -2.9534
  761MPD2     C11289   1.087   1.953  11.298 -0.3280  0.5480 -0.9338
  761MPD2    C111290   1.176   1.886  11.210  0.3760  0.4996 -0.3808
  761MPD2    C211291   1.306   1.929  11.204 -0.4617  0.2129  0.8573
  761MPD2    C311292   1.349   2.033  11.280  0.0200 -0.5295 -0.8392
  761MPD2    C411293   1.259   2.094  11.359  1.1512 -0.2222  0.4178
  761MPD2    C511294   1.130   2.060  11.370  0.0471 -0.0379 -0.5506
  761MPD2     H11295   1.367   1.882  11.129  0.5551  1.4490  0.9166
  761MPD2    H111296   1.289   2.179  11.419  2.1268  0.3226 -0.8419
  761MPD2    H211297   0.982   1.931  11.312 -0.0401 -0.3352 -0.1952
  761MPD2    H311298   1.068   2.111  11.443 -0.0641  0.6023 -1.1009
  761MPD2     N11299   1.486   2.073  11.285  0.1864  0.6829  0.1859
  761MPD2    H511300   1.509   2.141  11.356  1.0824 -0.3882  0.9265
  761MPD2    N111301   1.121   1.773  11.144  0.0023  0.8528  0.3440
  761MPD2    H711302   1.030   1.748  11.180 -1.2974  1.0742 -2.8404
  762MPD2     C11303   1.621   1.715  10.895 -0.2368 -0.2750  0.4384
  762MPD2    C111304   1.601   1.580  10.898  0.1959  0.5077 -0.2839
  762MPD2    C211305   1.710   1.498  10.869  0.5838  0.0502 -0.0714
  762MPD2    C311306   1.830   1.558  10.829  0.3299  0.5586 -0.1575
  762MPD2    C411307   1.850   1.696  10.831  0.2261 -0.6165  0.0555
  762MPD2    C511308   1.739   1.767  10.864  0.4842 -0.0694  0.0470
  762MPD2     H11309   1.709   1.390  10.879  0.4876  0.1460  0.9784
  762MPD2    H111310   1.936   1.758  10.811  0.3241  0.0523  2.5457
  762MPD2    H211311   1.535   1.779  10.911 -1.0032 -0.9457 -0.9573
  762MPD2    H311312   1.751   1.875  10.869  1.9265 -0.2305  0.0696
  762MPD2     N11313   1.941   1.471  10.796  0.0666 -0.0337 -0.5444
  762MPD2    H511314   1.927   1.371  10.807  4.0488 -0.3788  1.3292
  762MPD2    N111315   1.476   1.533  10.941  0.2287 -0.3984  0.2920
  762MPD2    H711316   1.409   1.607  10.963  0.2721 -0.3563  0.2806
  763MPD2     C11317   3.280   2.156  16.241 -0.3882  0.2377  0.2235
  763MPD2    C111318   3.367   2.178  16.137 -0.0266  0.2771 -0.4758
  763MPD2    C211319   3.468   2.273  16.154  0.1173 -0.7601 -0.2550
  763MPD2    C311320   3.473   2.361  16.264 -0.6171 -1.0477  0.7592
  763MPD2    C411321   3.373   2.341  16.362  0.3846  0.0157 -0.2995
  763MPD2    C511322   3.288   2.236  16.357 -0.0819 -0.3197  0.2340
  763MPD2     H11323   3.541   2.301  16.079 -0.1674 -1.5007 -0.8136
  763MPD2    H111324   3.362   2.409  16.446 -0.1488 -0.0941 -0.2806
  763MPD2    H211325   3.206   2.076  16.242 -0.6317  0.4635  0.5670
  763MPD2    H311326   3.204   2.237  16.425 -0.4672 -2.2639 -0.2063
  763MPD2     N11327   3.563   2.465  16.279  0.2761  0.0634 -0.4632
  763MPD2    H511328   3.540   2.535  16.348  0.6565 -1.1537  0.8898
  763MPD2    N111329   3.349   2.119  16.011 -0.3430 -0.9803  0.0599
  763MPD2    H711330   3.408   2.156  15.938 -2.4126  0.7936 -0.6917
  764MPD2     C11331   1.337   3.649   0.346 -0.1395  0.0032  0.6049
  764MPD2    C111332   1.338   3.534   0.274  0.3317  0.7204 -0.2013
  764MPD2    C211333   1.265   3.430   0.319 -0.4696  0.1987  0.1080
  764MPD2    C311334   1.181   3.443   0.425  0.3684  0.3740 -0.2254
  764MPD2    C411335   1.179   3.558   0.500  0.4788  0.0095 -0.2486
  764MPD2    C511336   1.264   3.659   0.466 -0.3622  0.6028 -0.4169
  764MPD2     H11337   1.274   3.339   0.261 -1.7687  0.6688 -0.8225
  764MPD2    H111338   1.116   3.571   0.588 -1.9410 -2.4263 -1.6293
  764MPD2    H211339   1.387   3.736   0.303  1.1019  1.0225  4.1045
  764MPD2    H311340   1.257   3.749   0.526 -1.6534  0.0768  0.2096
  764MPD2     N11341   1.112   3.328   0.465 -0.0154  1.0005 -0.1368
  764MPD2    H511342   1.120   3.252   0.399 -1.0921  0.1517  0.6944
  764MPD2    N111343   1.418   3.516   0.159  0.1935  0.1332  0.3229
  764MPD2    H711344   1.407   3.428   0.110 -0.0440  0.5553 -0.3934
  765MPD2     C11345   1.215   1.540  16.450  0.4078  0.1219  0.4313
  765MPD2    C111346   1.285   1.587  16.339  0.7024 -0.1848 -0.4791
  765MPD2    C211347   1.379   1.507  16.278 -0.2793  0.7875  0.3903
  765MPD2    C311348   1.397   1.373  16.318 -0.3770 -0.0278 -0.8378
  765MPD2    C411349   1.336   1.332  16.433 -0.2160 -0.0099  0.3399
  765MPD2    C511350   1.247   1.415  16.498  0.7748  0.1948 -0.6720
  765MPD2     H11351   1.434   1.542  16.191 -0.7706  0.1207 -0.1971
  765MPD2    H111352   1.337   1.234  16.480 -0.2910  0.3004  0.9963
  765MPD2    H211353   1.136   1.589  16.504 -0.0715 -0.2240  0.0392
  765MPD2    H311354   1.202   1.376  16.589 -1.8607  0.4263 -1.8730
  765MPD2     N11355   1.487   1.297  16.240 -0.0282 -0.0451  0.1166
  765MPD2    H511356   1.538   1.346  16.167 -0.5628  3.3955  2.0780
  765MPD2    N111357   1.244   1.719  16.294  0.2689  0.4879  0.1821
  765MPD2    H711358   1.161   1.759  16.337 -0.6071 -0.3364 -0.7437
  766MPD2     C11359   0.753   1.744  15.763  0.0768 -0.1632 -0.0629
  766MPD2    C111360   0.893   1.758  15.761  0.3406  0.7636 -0.2185
  766MPD2    C211361   0.964   1.710  15.649  0.7633 -0.0799 -0.3552
  766MPD2    C311362   0.900   1.657  15.539  0.4876 -0.1814  0.4272
  766MPD2    C411363   0.762   1.662  15.538  0.0216 -0.3709  0.8790
  766MPD2    C511364   0.693   1.702  15.646 -0.6294 -0.1034  0.0263
  766MPD2     H11365   1.071   1.727  15.655  0.7431  0.3153 -1.0777
  766MPD2    H111366   0.711   1.630  15.448 -0.0326 -0.0893  0.8091
  766MPD2    H211367   0.709   1.780  15.855 -0.9423  0.3035 -0.7417
  766MPD2    H311368   0.585   1.689  15.648 -0.4169 -1.7404  0.8970
  766MPD2     N11369   0.964   1.614  15.421  0.6816 -0.0398  0.1009
  766MPD2    H511370   0.906   1.583  15.343  0.3120 -0.1661  0.4263
  766MPD2    N111371   0.971   1.841  15.848  0.0077  0.3237 -0.6551
  766MPD2    H711372   1.066   1.852  15.815 -0.3342  1.8144 -1.1049
  767MPD2     C11373   0.559   1.863  15.338 -0.0872  0.8064 -0.1227
  767MPD2    C111374   0.678   1.881  15.271  0.0639  0.0088 -0.4095
  767MPD2    C211375   0.698   1.826  15.145 -0.6680 -0.1472 -0.6270
  767MPD2    C311376   0.608   1.745  15.089  0.5769 -0.1449 -0.0897
  767MPD2    C411377   0.482   1.731  15.150  0.3821  0.6700 -0.4389
  767MPD2    C511378   0.459   1.793  15.274  0.1454  0.0476  0.2302
  767MPD2     H11379   0.799   1.821  15.105  0.4505 -0.7593  2.2298
  767MPD2    H111380   0.405   1.668  15.106  1.8101 -0.9978 -0.5633
  767MPD2    H211381   0.542   1.902  15.438 -0.5033 -0.2077  0.2000
  767MPD2    H311382   0.359   1.783  15.314  0.0204  4.0315  0.9200
  767MPD2     N11383   0.648   1.667  14.978 -0.5338  0.3309  0.3368
  767MPD2    H511384   0.744   1.675  14.947  0.1719  1.0852  2.7127
  767MPD2    N111385   0.769   1.959  15.347  0.2062 -0.3645  0.4777
  767MPD2    H711386   0.727   1.992  15.433 -0.9931 -0.7224  0.0291
  768MPD2     C11387   1.475   0.345  10.721 -0.4723 -0.1876  0.6456
  768MPD2    C111388   1.416   0.428  10.816  0.5907  0.0732 -0.3271
  768MPD2    C211389   1.466   0.423  10.944  0.4453 -0.1004  0.2171
  768MPD2    C311390   1.567   0.337  10.977 -0.1522  0.2699  0.4956
  768MPD2    C411391   1.624   0.258  10.876 -0.2623 -0.3873  0.1053
  768MPD2    C511392   1.576   0.264  10.755  0.5926 -0.3553 -0.6981
  768MPD2     H11393   1.430   0.498  11.013  1.3902  1.0992 -0.5990
  768MPD2    H111394   1.704   0.187  10.897  0.2303 -0.1794 -1.0906
  768MPD2    H211395   1.446   0.347  10.616  1.2635 -0.0052  0.1626
  768MPD2    H311396   1.637   0.215  10.680  0.8635 -0.8996 -0.1226
  768MPD2     N11397   1.623   0.331  11.105 -0.1557  0.0083  0.9699
  768MPD2    H511398   1.714   0.291  11.121 -0.5896 -0.6754  1.7189
  768MPD2    N111399   1.345   0.541  10.774 -0.0228  0.0505  0.2689
  768MPD2    H711400   1.335   0.612  10.846 -2.6594  1.6553 -1.6703
  769MPD2     C11401   2.545   3.392  14.884 -0.7346 -0.4884  0.4241
  769MPD2    C111402   2.492   3.360  15.011  0.3326  0.4833 -0.0841
  769MPD2    C211403   2.565   3.389  15.127  0.5273  0.3436  0.5506
  769MPD2    C311404   2.690   3.445  15.117  0.4173 -0.4048  0.2437
  769MPD2    C411405   2.739   3.486  14.991  0.3086  0.8765 -0.1105
  769MPD2    C511406   2.666   3.457  14.880 -0.3200  0.1075  0.4898
  769MPD2     H11407   2.536   3.363  15.229  1.3512 -1.3062  0.3606
  769MPD2    H111408   2.838   3.525  14.970  0.6878  0.1628  0.3921
  769MPD2    H211409   2.485   3.370  14.797 -1.0006 -2.8477  1.2228
  769MPD2    H311410   2.714   3.475  14.785 -2.3200  2.1873 -0.1125
  769MPD2     N11411   2.752   3.476  15.238 -0.4923 -0.2079 -0.2016
  769MPD2    H511412   2.696   3.466  15.323  1.7735 -0.5831  1.2475
  769MPD2    N111413   2.364   3.303  15.011  0.5031 -0.1414  0.2029
  769MPD2    H711414   2.320   3.282  14.922  0.0337 -0.5430  0.5305
  770MPD2     C11415   2.024   2.526  15.636  0.1104  0.1952 -0.1671
  770MPD2    C111416   2.031   2.493  15.505  0.0514  0.2174  0.1355
  770MPD2    C211417   2.026   2.586  15.410  0.5137 -0.1230  0.2007
  770MPD2    C311418   2.032   2.720  15.439  0.7708  0.0386 -0.8619
  770MPD2    C411419   2.029   2.753  15.568 -0.0559  0.1658 -0.5555
  770MPD2    C511420   2.022   2.661  15.669 -0.1349  0.4880  0.2469
  770MPD2     H11421   2.066   2.564  15.311 -0.6322  0.2532 -0.3483
  770MPD2    H111422   2.015   2.854  15.604  0.4408 -0.1956  0.6478
  770MPD2    H211423   2.030   2.452  15.715  2.2517 -0.2827 -0.7765
  770MPD2    H311424   2.015   2.686  15.774 -1.3086 -2.4450  0.8886
  770MPD2     N11425   2.048   2.817  15.332 -0.2002 -0.1733 -0.7721
  770MPD2    H511426   2.052   2.786  15.236 -0.7917  0.1890 -0.9129
  770MPD2    N111427   2.055   2.356  15.471 -0.0974  0.1091 -0.0140
  770MPD2    H711428   2.065   2.282  15.540  3.2231  0.0053 -0.6177
  771MPD2     C11429   2.887   0.846  13.615  0.5288  0.1938  0.1780
  771MPD2    C111430   2.830   0.966  13.578 -0.0763  1.0988 -0.0077
  771MPD2    C211431   2.719   0.970  13.501  0.4662  0.8257 -0.4698
  771MPD2    C311432   2.650   0.855  13.469 -0.6041 -0.5029  0.3544
  771MPD2    C411433   2.703   0.736  13.501 -0.2594  0.8175 -0.1787
  771MPD2    C511434   2.813   0.728  13.579 -0.2848  0.4330  0.4536
  771MPD2     H11435   2.683   1.069  13.474  0.9687  0.9846 -0.5473
  771MPD2    H111436   2.649   0.645  13.475  1.7359 -0.7479  1.1820
  771MPD2    H211437   2.965   0.828  13.688 -0.4242 -0.0063  1.1518
  771MPD2    H311438   2.846   0.634  13.622  2.6492  0.9315 -0.7393
  771MPD2     N11439   2.527   0.846  13.396  0.6786 -0.1786 -0.0142
  771MPD2    H511440   2.489   0.753  13.380  0.2063  0.2151 -1.1537
  771MPD2    N111441   2.877   1.084  13.632 -0.5039 -0.7103  0.4350
  771MPD2    H711442   2.818   1.161  13.601  2.3408  2.1051  2.0105
  772MPD2     C11443   2.620   1.707  13.952  0.3972  0.2543 -0.3509
  772MPD2    C111444   2.620   1.575  13.906  0.2234 -0.2901  0.5133
  772MPD2    C211445   2.512   1.499  13.940  0.5522 -0.1471  0.3388
  772MPD2    C311446   2.400   1.543  14.007 -0.2548 -0.4652  0.6330
  772MPD2    C411447   2.390   1.678  14.025  0.5225 -0.1219 -0.6632
  772MPD2    C511448   2.500   1.755  14.006  0.2954 -0.1042  0.1888
  772MPD2     H11449   2.519   1.396  13.905 -0.8298 -0.1372  0.0022
  772MPD2    H111450   2.300   1.725  14.062  0.4859  0.1095 -1.0417
  772MPD2    H211451   2.699   1.779  13.936  1.2971 -0.6429  0.0672
  772MPD2    H311452   2.491   1.862  14.023  2.2824  0.1567 -0.4615
  772MPD2     N11453   2.291   1.463  14.044 -0.3181 -0.5796  0.3433
  772MPD2    H511454   2.207   1.511  14.074 -0.0301  0.4068 -0.3997
  772MPD2    N111455   2.721   1.514  13.831  0.0899 -0.4187 -0.0731
  772MPD2    H711456   2.704   1.424  13.787  0.1584 -0.2147 -0.5261
  773MPD2     C11457   1.382   1.804  17.569  0.1319  0.3881 -0.1722
  773MPD2    C111458   1.381   1.737  17.690 -0.4234  0.0710  0.2519
  773MPD2    C211459   1.496   1.693  17.746 -0.8247 -0.4069  0.3743
  773MPD2    C311460   1.621   1.712  17.691 -0.1873  0.0201  0.0243
  773MPD2    C411461   1.621   1.795  17.582  0.1846  0.7342  0.3401
  773MPD2    C511462   1.504   1.839  17.519  0.1215 -0.0015 -0.2448
  773MPD2     H11463   1.493   1.636   0.079  0.0886 -1.3293 -0.1528
  773MPD2    H111464   1.714   1.819  17.532 -0.2308  4.7136  1.4650
  773MPD2    H211465   1.292   1.828  17.513 -0.1904 -0.4171 -0.0126
  773MPD2    H311466   1.503   1.899  17.429 -1.4564 -0.8951 -0.8223
  773MPD2     N11467   1.733   1.669   0.001  0.5007 -0.7497 -0.1437
  773MPD2    H511468   1.715   1.625   0.091 -0.6881  0.8547  0.4129
  773MPD2    N111469   1.258   1.703  17.759 -0.1616  0.0575  0.5864
  773MPD2    H711470   1.254   1.686   0.099  0.2544  0.9434  0.7498
  774MPD2     C11471   1.732   1.145  13.759  0.3778  0.4984  0.7273
  774MPD2    C111472   1.638   1.236  13.775 -0.1518  0.2532 -0.0016
  774MPD2    C211473   1.667   1.369  13.791 -0.4688 -0.3573 -1.0475
  774MPD2    C311474   1.793   1.406  13.801  0.1479  0.6142 -0.7498
  774MPD2    C411475   1.889   1.312  13.790 -0.6931 -0.2735  0.3059
  774MPD2    C511476   1.862   1.179  13.771 -0.5695  0.1559 -0.6870
  774MPD2     H11477   1.583   1.438  13.787 -0.7252 -0.4764  2.2180
  774MPD2    H111478   1.996   1.330  13.802 -0.3111 -1.0045 -2.0787
  774MPD2    H211479   1.701   1.043  13.738  0.9277  0.3559  0.6168
  774MPD2    H311480   1.939   1.103  13.764 -0.2116  0.3189  1.4148
  774MPD2     N11481   1.824   1.539  13.827 -0.2064 -0.1511  0.0973
  774MPD2    H511482   1.737   1.592  13.819 -0.9341 -1.2913  0.4947
  774MPD2    N111483   1.507   1.185  13.762  0.2954  0.8612  0.1562
  774MPD2    H711484   1.500   1.097  13.711  2.3539  0.5254  0.4494
  775MPD2     C11485   3.061   3.083  15.689 -0.5430  0.4259  0.1505
  775MPD2    C111486   3.088   3.202  15.756 -0.0747  0.8413 -0.5514
  775MPD2    C211487   3.154   3.300  15.686 -0.6520  0.5933  0.5025
  775MPD2    C311488   3.193   3.288  15.552  0.5385 -0.3411 -0.6639
  775MPD2    C411489   3.160   3.169  15.487 -0.4152 -0.0265 -0.5235
  775MPD2    C511490   3.093   3.069  15.560 -0.1442  0.2190 -0.4021
  775MPD2     H11491   3.185   3.388  15.740  1.6374 -0.0339  0.2279
  775MPD2    H111492   3.181   3.151  15.382  0.1222  0.8688 -0.5622
  775MPD2    H211493   2.994   3.007  15.730  0.9604 -2.1600 -2.1478
  775MPD2    H311494   3.056   2.980  15.510  0.9833 -0.5031  0.0481
  775MPD2     N11495   3.274   3.381  15.483 -0.3242 -0.1703  0.3742
  775MPD2    H511496   3.292   3.357  15.387 -0.4487 -1.3694  0.6562
  775MPD2    N111497   3.052   3.216  15.895  0.3394 -0.1994  0.4190
  775MPD2    H711498   2.998   3.132  15.916 -2.2319  1.2612 -0.3307
  776MPD2     C11499   1.562   3.334  11.896  0.5225 -0.2184 -0.4796
  776MPD2    C111500   1.483   3.327  11.782 -0.5944  0.0913 -0.2119
  776MPD2    C211501   1.439   3.441  11.717  0.1569 -0.5963 -0.7047
  776MPD2    C311502   1.482   3.560  11.775  0.0071 -0.1733  0.3171
  776MPD2    C411503   1.554   3.555  11.892  0.2554 -0.1269  0.0251
  776MPD2    C511504   1.600   3.443  11.953 -1.1294  0.1127  0.0680
  776MPD2     H11505   1.405   3.444  11.614 -1.6265 -1.2890 -0.1384
  776MPD2    H111506   1.582   3.649  11.937 -1.2136  0.3586 -0.0753
  776MPD2    H211507   1.622   3.251  11.930  0.7774  0.7307  1.4003
  776MPD2    H311508   1.669   3.446  12.036  1.1394  1.4854 -1.8840
  776MPD2     N11509   1.454   3.686  11.725 -0.1985 -0.3727  0.0027
  776MPD2    H511510   1.501   3.765  11.768 -1.4044  1.0546 -1.3076
  776MPD2    N111511   1.464   3.194  11.728 -0.8886  0.7751 -0.4125
  776MPD2    H711512   1.524   3.124  11.772 -1.8346 -0.3619 -0.9246
  777MPD2     C11513   1.529   0.512   0.199  0.2756  0.0927  0.6159
  777MPD2    C111514   1.599   0.435   0.289  0.4043 -0.0085 -0.1650
  777MPD2    C211515   1.611   0.303   0.261  1.0505  0.4571 -0.5276
  777MPD2    C311516   1.542   0.242   0.154 -0.5617  0.1329  0.1434
  777MPD2    C411517   1.465   0.322   0.073  0.9252 -0.0819  0.6546
  777MPD2    C511518   1.471   0.456   0.090 -0.5222  0.8930  0.3375
  777MPD2     H11519   1.658   0.240   0.336  0.1473 -0.3646 -0.6540
  777MPD2    H111520   1.412   0.288  17.745 -0.0544  2.1957  0.3486
  777MPD2    H211521   1.525   0.619   0.219 -0.7664  0.4740 -1.6639
  777MPD2    H311522   1.423   0.518   0.016  1.8275  1.5647 -0.6004
  777MPD2     N11523   1.545   0.103   0.133  0.5772  0.6159 -0.3184
  777MPD2    H511524   1.493   0.068   0.054  1.0735  4.0034 -2.1522
  777MPD2    N111525   1.641   0.499   0.410 -0.2944 -0.4453 -0.3381
  777MPD2    H711526   1.587   0.581   0.437 -0.2646 -1.5447  3.0131
  778MPD2     C11527   3.183   1.055  15.149  0.1258  0.6506 -0.3751
  778MPD2    C111528   3.129   0.982  15.048  0.7659 -0.4011  0.8683
  778MPD2    C211529   3.126   1.024  14.917 -0.5339 -0.0948  0.2757
  778MPD2    C311530   3.194   1.135  14.876  0.2221 -0.3570 -0.1873
  778MPD2    C411531   3.258   1.210  14.972 -0.4145 -0.1228  0.6329
  778MPD2    C511532   3.251   1.170  15.104 -0.4193  0.4371 -0.1498
  778MPD2     H11533   3.078   0.969  14.837  3.1023 -0.6771 -1.4934
  778MPD2    H111534   3.306   1.305  14.952 -0.7830 -0.0497  0.0815
  778MPD2    H211535   3.175   1.026  15.253  0.8070  0.3214 -0.4175
  778MPD2    H311536   3.295   1.239  15.175  0.6578  0.8347 -1.1924
  778MPD2     N11537   3.184   1.175  14.742 -0.4712 -0.3979  0.0420
  778MPD2    H511538   3.136   1.105  14.686  1.0465 -1.2475 -0.1872
  778MPD2    N111539   3.060   0.863  15.074  0.4752  0.3295  0.0980
  778MPD2    H711540   2.984   0.851  15.008 -0.1372  2.7140  0.3448
  779MPD2     C11541   2.566   4.545  14.650  0.3743  0.2366  0.2103
  779MPD2    C111542   2.673   4.548  14.559 -0.4798 -0.6200 -0.7743
  779MPD2    C211543   2.722   4.674  14.523 -0.3656 -0.1883 -0.4281
  779MPD2    C311544   2.676   0.054  14.582 -0.2065 -0.1608  0.6522
  779MPD2    C411545   2.566   0.043  14.669  0.0274  0.2419 -0.5415
  779MPD2    C511546   2.519   4.661  14.703  0.2221  0.0345  0.0181
  779MPD2     H11547   2.807   4.678  14.455 -0.8032 -0.7594 -0.9998
  779MPD2    H111548   2.524   0.130  14.717  0.4448  0.0202  0.2134
  779MPD2    H211549   2.513   4.458  14.685  0.7072 -0.2002 -0.3590
  779MPD2    H311550   2.442   4.655  14.779 -0.6106 -0.1824 -0.8459
  779MPD2     N11551   2.737   0.172  14.548 -0.1864  0.3751 -0.3354
  779MPD2    H511552   2.822   0.167  14.493  0.0663 -0.0934  0.0873
  779MPD2    N111553   2.726   4.438  14.490  0.4855 -0.9817  0.0943
  779MPD2    H711554   2.802   4.449  14.424  2.4963 -2.0347  2.1846
  780MPD2     C11555   2.177   3.907   0.951 -0.0926  0.0735  0.2521
  780MPD2    C111556   2.099   3.872   0.843 -0.2471  0.0689 -0.0136
  780MPD2    C211557   2.143   3.913   0.715  0.2123 -0.2323 -0.0491
  780MPD2    C311558   2.261   3.987   0.694  0.2053 -0.4933 -0.1936
  780MPD2    C411559   2.332   4.025   0.811 -0.5787 -0.2635 -0.4768
  780MPD2    C511560   2.288   3.982   0.931 -0.2691 -0.1052  0.7454
  780MPD2     H11561   2.084   3.880   0.630  1.7880 -0.4639 -1.0449
  780MPD2    H111562   2.421   4.086   0.814  0.1093 -1.2485 -0.6299
  780MPD2    H211563   2.149   3.897   1.055  2.9572 -0.4306  1.0048
  780MPD2    H311564   2.327   4.016   1.027  0.7154 -0.2121  0.3845
  780MPD2     N11565   2.298   4.012   0.562  0.6521 -0.2596  0.2554
  780MPD2    H511566   2.245   3.973   0.484  2.2681  1.4865 -1.7189
  780MPD2    N111567   1.970   3.812   0.852  0.5248 -0.5941 -0.4160
  780MPD2    H711568   1.901   3.814   0.778 -0.8316 -0.1481  0.8480
  781MPD2     C11569   3.615   1.629  12.364 -0.3745  0.0349 -0.5393
  781MPD2    C111570   3.725   1.600  12.448  0.0663  0.8576  0.1665
  781MPD2    C211571   3.848   1.648  12.412 -0.1202  0.3459  0.2065
  781MPD2    C311572   3.867   1.723  12.296  0.5312 -0.1830  0.1459
  781MPD2    C411573   3.754   1.762  12.222  0.0575 -0.3704  0.0490
  781MPD2    C511574   3.632   1.716  12.264 -0.4245  0.5363  0.6152
  781MPD2     H11575   3.927   1.662  12.485  1.5581 -2.8339 -1.0113
  781MPD2    H111576   3.758   1.819  12.130  2.0407 -0.4298  0.1166
  781MPD2    H211577   3.520   1.588  12.394 -0.4544 -1.5158 -2.8781
  781MPD2    H311578   3.537   1.745  12.220  1.2281  0.5109 -2.8913
  781MPD2     N11579   3.993   1.768  12.260  0.1584 -0.4656  0.2691
  781MPD2    H511580   3.987   1.827  12.178 -0.7116  0.7335  1.1970
  781MPD2    N111581   3.701   1.529  12.561  0.2597  0.2550  0.6564
  781MPD2    H711582   3.616   1.474  12.562 -0.2411  1.0768  2.5067
  782MPD2     C11583   2.166   1.946  10.766  0.0754  0.2954 -0.7051
  782MPD2    C111584   2.293   1.999  10.734 -0.0700 -0.5245  0.0555
  782MPD2    C211585   2.332   2.112  10.803 -0.3311  0.4901 -0.4548
  782MPD2    C311586   2.239   2.173  10.885 -0.3450  0.1924 -0.1505
  782MPD2    C411587   2.108   2.125  10.902 -0.0799  0.1955  0.0566
  782MPD2    C511588   2.069   2.007  10.849 -0.4841  0.0253 -0.4091
  782MPD2     H11589   2.434   2.149  10.801  0.0791 -0.7056 -1.6218
  782MPD2    H111590   2.051   2.184  10.972  0.6970 -1.4525  2.0899
  782MPD2    H211591   2.143   1.843  10.740  1.8832 -0.4755  0.7313
  782MPD2    H311592   1.978   1.951  10.868  0.4438 -1.0865  0.7811
  782MPD2     N11593   2.277   2.298  10.937 -0.5983  0.2081  0.2017
  782MPD2    H511594   2.374   2.324  10.921 -0.9409  2.6052  2.0031
  782MPD2    N111595   2.382   1.917  10.653 -0.2862  0.2461 -0.1626
  782MPD2    H711596   2.351   1.832  10.607  3.2431 -1.7326  1.1408
  783MPD2     C11597   2.121   1.606  11.243 -0.2650 -0.2874 -0.2957
  783MPD2    C111598   2.138   1.729  11.185  0.5602  0.1963 -0.3944
  783MPD2    C211599   2.227   1.746  11.078  0.6033 -0.3328 -0.2558
  783MPD2    C311600   2.300   1.632  11.038 -0.4090 -0.1301 -1.0787
  783MPD2    C411601   2.285   1.509  11.101 -0.2992  0.0340 -1.1176
  783MPD2    C511602   2.204   1.504  11.211  0.0749  0.3745  0.2852
  783MPD2     H11603   2.237   1.846  11.039 -2.7956  0.8339  1.8635
  783MPD2    H111604   2.335   1.417  11.074 -0.1002 -0.3137  0.4424
  783MPD2    H211605   2.046   1.599  11.320  0.0564  2.9170  0.3410
  783MPD2    H311606   2.198   1.409  11.264 -0.3343  0.9002  1.1880
  783MPD2     N11607   2.400   1.656  10.937  0.1217 -0.4950  0.3879
  783MPD2    H511608   2.410   1.751  10.902  0.0345 -0.2934  0.9025
  783MPD2    N111609   2.058   1.831  11.245  0.1509 -0.2928 -0.0399
  783MPD2    H711610   1.984   1.806  11.310  0.0759 -0.3513 -0.1470
  784MPD2     C11611   4.140   2.524   0.217 -0.3863 -0.0579 -0.2656
  784MPD2    C111612   4.183   2.650   0.249 -0.2750  0.0594 -0.0216
  784MPD2    C211613   4.096   2.721   0.323  0.1077  0.2977  0.3997
  784MPD2    C311614   3.977   2.676   0.369  0.0342 -0.2972 -0.2845
  784MPD2    C411615   3.943   2.544   0.343  0.5271  0.2795  0.2389
  784MPD2    C511616   4.027   2.462   0.267 -0.1570  0.2975 -0.3106
  784MPD2     H11617   4.107   2.828   0.342  1.0455  0.2863 -0.0833
  784MPD2    H111618   3.853   2.499   0.383  0.5474 -0.6517 -0.7504
  784MPD2    H211619   4.200   2.466   0.148  1.2380 -0.2910  1.3586
  784MPD2    H311620   4.008   2.359   0.238  0.1109 -0.0284  0.6491
  784MPD2     N11621   3.887   2.766   0.426  0.6224  0.0943  0.1718
  784MPD2    H511622   3.929   2.853   0.455 -0.5451  0.4050  0.9225
  784MPD2    N111623   4.294   2.718   0.197  0.0837  0.3293  0.0547
  784MPD2    H711624   4.305   2.814   0.228  2.8745  0.4899 -1.4290
  785MPD2     C11625   4.539   1.116  11.119  0.1454  0.8405 -0.2279
  785MPD2    C111626   4.478   1.158  11.000  0.2009 -0.0440 -0.3338
  785MPD2    C211627   4.475   1.068  10.897  0.5183  0.5142  0.9833
  785MPD2    C311628   4.541   0.948  10.902  0.3882 -0.3930  0.3095
  785MPD2    C411629   4.606   0.910  11.012  0.5038  0.5415 -0.0431
  785MPD2    C511630   4.605   0.997  11.120 -0.2006 -0.3069 -0.5168
  785MPD2     H11631   4.431   1.113  10.808 -0.1564  0.4898  1.3063
  785MPD2    H111632   4.649   0.812  11.030  1.9876  0.8826 -1.8017
  785MPD2    H211633   4.536   1.181  11.206 -1.7794  1.1703 -0.5446
  785MPD2    H311634   4.643   0.967  11.217 -0.0626  0.0641 -0.4594
  785MPD2     N11635   4.528   0.863  10.791  0.2803  0.1116 -0.6463
  785MPD2    H511636   4.472   0.886  10.709 -1.5674 -0.7244  0.3946
  785MPD2    N111637   4.414   1.281  10.984 -0.6054 -0.7316  0.3927
  785MPD2    H711638   4.344   1.285  10.911 -0.3480  0.6744  0.2249
  786MPD2     C11639   3.503   3.778  14.832  0.8249  0.7835 -0.1673
  786MPD2    C111640   3.601   3.717  14.753 -0.5638 -0.7960  0.0623
  786MPD2    C211641   3.726   3.695  14.801  0.4205 -0.0873  1.0777
  786MPD2    C311642   3.761   3.747  14.922 -0.1379 -0.5863  0.1634
  786MPD2    C411643   3.672   3.806  15.002  0.0493  0.5142 -1.1141
  786MPD2    C511644   3.548   3.823  14.954  0.5121 -0.6950 -0.1851
  786MPD2     H11645   3.794   3.644  14.734 -1.3093  1.7055 -2.0521
  786MPD2    H111646   3.699   3.839  15.102  0.2330 -3.1116  0.0427
  786MPD2    H211647   3.401   3.795  14.799  0.5867  2.2946  1.3379
  786MPD2    H311648   3.476   3.871  15.019 -0.0233 -0.3429 -1.0399
  786MPD2     N11649   3.890   3.720  14.978  0.3269  0.5552 -0.3520
  786MPD2    H511650   3.901   3.753  15.073 -1.2254 -0.5566  0.2191
  786MPD2    N111651   3.588   3.679  14.625 -0.0834  0.7465 -0.0369
  786MPD2    H711652   3.671   3.637  14.585  0.0982  0.6867  0.3985
  787MPD2     C11653   4.037   3.313  14.383 -0.0746 -0.0939  0.4998
  787MPD2    C111654   3.946   3.329  14.280 -0.0434  0.4992 -0.3380
  787MPD2    C211655   3.969   3.253  14.161  0.2550 -0.2294 -0.4875
  787MPD2    C311656   4.061   3.148  14.155  0.2501  0.3296  0.3426
  787MPD2    C411657   4.132   3.120  14.270 -0.2737 -0.1679 -0.6608
  787MPD2    C511658   4.119   3.211  14.378  0.1002 -0.5827  0.2085
  787MPD2     H11659   3.927   3.295  14.071  0.7120  0.0683 -0.5589
  787MPD2    H111660   4.191   3.030  14.284  1.8079  1.1846 -0.7271
  787MPD2    H211661   4.033   3.382  14.466 -3.6728  0.7003 -0.3578
  787MPD2    H311662   4.179   3.198  14.467  1.2348  0.7058 -0.3752
  787MPD2     N11663   4.088   3.092  14.028  0.2680  0.7776  0.1045
  787MPD2    H511664   4.052   3.134  13.943 -1.4618 -2.1533 -0.5944
  787MPD2    N111665   3.847   3.426  14.297 -0.0973 -0.1837  0.1877
  787MPD2    H711666   3.856   3.489  14.376  0.1032 -0.1240  0.1165
  788MPD2     C11667   0.021   1.545   1.249  0.4821 -0.2096 -0.2230
  788MPD2    C111668   0.131   1.545   1.168  0.1009 -0.2756 -0.7199
  788MPD2    C211669   0.206   1.664   1.169 -0.1381 -0.3409 -0.2846
  788MPD2    C311670   0.162   1.780   1.225 -0.0398 -0.0912  0.3541
  788MPD2    C411671   0.038   1.776   1.283 -0.1893  0.2052  0.4504
  788MPD2    C511672   4.710   1.662   1.303 -0.8306  0.2035  0.3312
  788MPD2     H11673   0.304   1.661   1.123  0.0083 -2.0095  0.1249
  788MPD2    H111674   4.736   1.870   1.317 -4.1894 -0.8806 -1.5416
  788MPD2    H211675   4.705   1.457   1.275  0.6567 -0.2163  0.1339
  788MPD2    H311676   4.620   1.662   1.363  0.3844 -1.6168  2.1549
  788MPD2     N11677   0.229   1.901   1.208 -0.3241  0.4720 -0.2828
  788MPD2    H511678   0.196   1.987   1.252  1.2054  1.7575 -1.6376
  788MPD2    N111679   0.174   1.437   1.100  0.7122 -0.0511  0.5738
  788MPD2    H711680   0.262   1.445   1.051 -0.5678 -3.1700 -2.2557
  789MPD2     C11681   1.178   1.898  16.605  0.0060 -0.1785  0.1945
  789MPD2    C111682   1.128   1.823  16.704 -0.2296  0.1049 -0.0374
  789MPD2    C211683   0.994   1.836  16.745  0.2446  0.1731 -0.5209
  789MPD2    C311684   0.909   1.919  16.673  0.2154 -0.7153  0.0797
  789MPD2    C411685   0.964   1.988  16.569  0.0597  0.0271 -0.2252
  789MPD2    C511686   1.096   1.977  16.530 -0.1546  0.5344 -0.3225
  789MPD2     H11687   0.955   1.775  16.826 -1.6200  2.6436  0.4464
  789MPD2    H111688   0.898   2.059  16.521  2.4653  2.2466 -0.2628
  789MPD2    H211689   1.283   1.890  16.578 -0.4375  0.2662 -1.6450
  789MPD2    H311690   1.140   2.022  16.441  3.6281  0.5732  1.5273
  789MPD2     N11691   0.773   1.946  16.693 -0.4944 -0.6447 -0.0477
  789MPD2    H511692   0.731   2.003  16.620 -0.6806 -1.1711 -0.3501
  789MPD2    N111693   1.206   1.739  16.783 -0.0509  0.4743 -0.0984
  789MPD2    H711694   1.158   1.678  16.848  1.8392  0.5150  1.3465
  790MPD2     C11695   1.676   3.647  13.780  0.5088  0.2390 -0.0026
  790MPD2    C111696   1.758   3.555  13.721  0.9438 -0.4543  0.2011
  790MPD2    C211697   1.718   3.482  13.611 -0.2480  0.0476  0.7493
  790MPD2    C311698   1.593   3.506  13.558  0.7474 -0.8109  0.5796
  790MPD2    C411699   1.511   3.598  13.619  0.3007 -0.1771 -0.2890
  790MPD2    C511700   1.557   3.668  13.726  0.4983  0.9614 -0.0491
  790MPD2     H11701   1.786   3.414  13.563 -0.9873 -0.5842  0.5930
  790MPD2    H111702   1.405   3.606  13.600 -0.0746 -0.0900  1.7616
  790MPD2    H211703   1.694   3.708  13.868 -1.1163 -2.3863  2.1086
  790MPD2    H311704   1.485   3.730  13.779  0.3154  2.3361 -1.9043
  790MPD2     N11705   1.553   3.429  13.443  0.0553  0.6834 -0.5958
  790MPD2    H511706   1.623   3.368  13.403  0.8972  1.3569 -0.1654
  790MPD2    N111707   1.872   3.520  13.790  0.5449 -0.3163 -0.0250
  790MPD2    H711708   1.893   3.556  13.883 -0.1386  1.3565 -0.5289
  791MPD2     C11709   0.909   2.998  12.945 -0.3593  0.7050 -0.0462
  791MPD2    C111710   1.001   2.987  13.049  0.3194 -0.0228  0.0474
  791MPD2    C211711   1.002   2.872  13.124  0.2114  0.6067 -0.2584
  791MPD2    C311712   0.921   2.768  13.095 -0.2624  0.7719  0.6088
  791MPD2    C411713   0.846   2.774  12.982  0.2633  0.2510  0.6333
  791MPD2    C511714   0.839   2.887  12.907  0.5649 -0.9221 -0.5510
  791MPD2     H11715   1.051   2.868  13.220  0.8014  0.7882 -0.5552
  791MPD2    H111716   0.784   2.692  12.950  0.9267  0.0074 -0.0290
  791MPD2    H211717   0.910   3.082  12.878 -1.5734  1.5150  0.9394
  791MPD2    H311718   0.779   2.902  12.818 -0.6402  0.2032  0.4557
  791MPD2     N11719   0.917   2.659  13.180  0.0515 -0.3280  0.2852
  791MPD2    H511720   0.997   2.654  13.242 -0.9737 -0.5065  1.6151
  791MPD2    N111721   1.095   3.090  13.068  0.0235 -0.6528  0.5872
  791MPD2    H711722   1.079   3.171  13.008  0.1981 -0.4022  0.8775
  792MPD2     C11723   1.937   3.077  11.414  0.1419  0.2297 -0.1122
  792MPD2    C111724   1.812   3.133  11.424  0.5736 -0.6219 -0.5351
  792MPD2    C211725   1.707   3.054  11.383  0.0260  0.1852  0.2154
  792MPD2    C311726   1.725   2.926  11.332 -0.4558  0.0865  0.5056
  792MPD2    C411727   1.847   2.877  11.330  0.2416 -0.0174 -0.4287
  792MPD2    C511728   1.950   2.950  11.367 -0.5502  0.3079  0.6395
  792MPD2     H11729   1.605   3.089  11.381 -0.2008 -0.4615  0.3847
  792MPD2    H111730   1.861   2.780  11.283 -0.0108 -1.2226  1.9763
  792MPD2    H211731   2.015   3.146  11.443 -0.7655  2.4413 -2.9274
  792MPD2    H311732   2.052   2.914  11.372 -0.3235  0.5993 -1.9412
  792MPD2     N11733   1.621   2.845  11.279 -0.2168 -0.1708  0.1017
  792MPD2    H511734   1.647   2.759  11.232 -1.1197 -0.3696 -0.0312
  792MPD2    N111735   1.807   3.264  11.477  0.4960 -0.2219  0.1213
  792MPD2    H711736   1.896   3.301  11.509  0.7772 -1.8228  1.1763
  793MPD2     C11737   0.811   3.126  10.799 -0.6832  0.5848 -0.1871
  793MPD2    C111738   0.941   3.165  10.795  0.0430  0.0291 -0.6868
  793MPD2    C211739   1.038   3.083  10.839  0.7405  0.4165 -0.1901
  793MPD2    C311740   1.007   2.960  10.899  0.4197  0.6426 -0.5647
  793MPD2    C411741   0.874   2.918  10.898  0.3181 -0.0226 -0.2933
  793MPD2    C511742   0.779   3.000  10.845 -0.0385  0.1712  0.7307
  793MPD2     H11743   1.144   3.103  10.835  0.8255  0.2827  1.1785
  793MPD2    H111744   0.849   2.818  10.933 -0.1477  0.3656  0.4671
  793MPD2    H211745   0.741   3.185  10.741  0.4283  2.1191  0.0272
  793MPD2    H311746   0.677   2.965  10.850  0.1384  0.1033  3.5529
  793MPD2     N11747   1.111   2.883  10.947  0.0635 -0.1425  0.1523
  793MPD2    H511748   1.199   2.931  10.934 -0.6674  1.4219  0.9024
  793MPD2    N111749   0.987   3.288  10.746  0.0649  0.0771  0.7738
  793MPD2    H711750   1.087   3.304  10.737  0.4019 -2.0528  0.7576
  794MPD2     C11751   0.876   2.273   0.262  0.0968 -0.1381 -0.6072
  794MPD2    C111752   0.900   2.206   0.147  0.4056  0.4608 -0.1657
  794MPD2    C211753   0.959   2.275   0.044 -0.1903  0.3189 -0.5916
  794MPD2    C311754   0.998   2.413   0.059  1.1010  0.4689  0.4228
  794MPD2    C411755   0.970   2.471   0.179 -0.1206 -0.4978 -0.4427
  794MPD2    C511756   0.915   2.399   0.280 -0.2208 -0.2778  0.1568
  794MPD2     H11757   0.980   2.228  17.708 -0.1103 -1.9398  0.5205
  794MPD2    H111758   0.985   2.577   0.196  2.8412 -0.8566 -0.7176
  794MPD2    H211759   0.812   2.231   0.339 -1.0587  0.3561 -1.3005
  794MPD2    H311760   0.887   2.451   0.370  2.2493 -1.3119  1.5429
  794MPD2     N11761   1.076   2.483  17.725 -0.7900  0.1422 -0.8452
  794MPD2    H511762   1.101   2.577  17.755 -0.8785 -0.1887  0.2636
  794MPD2    N111763   0.881   2.072   0.126  0.3291  1.0998 -0.0579
  794MPD2    H711764   0.910   2.035   0.036 -1.5995 -0.6924  0.0478
  795MPD2     C11765   3.865   0.334  13.727  0.2371 -0.5846 -0.0519
  795MPD2    C111766   3.864   0.255  13.610 -0.3298 -0.2153  0.0780
  795MPD2    C211767   3.921   0.131  13.626  0.6082 -0.4817 -0.4220
  795MPD2    C311768   3.974   0.083  13.748 -0.0448 -0.0932 -0.1834
  795MPD2    C411769   3.977   0.167  13.854  0.3003 -0.5718 -0.1108
  795MPD2    C511770   3.909   0.290  13.846  0.2251  0.1282 -0.7153
  795MPD2     H11771   3.920   0.068  13.538 -0.8581 -0.9824 -0.0498
  795MPD2    H111772   3.998   0.135  13.955 -1.2138 -0.0239  0.3887
  795MPD2    H211773   3.826   0.435  13.729  2.1551  0.1571 -0.2510
  795MPD2    H311774   3.905   0.342  13.941 -0.4508  0.1245 -0.7457
  795MPD2     N11775   4.035   4.694  13.747  0.1934 -0.3219 -0.4628
  795MPD2    H511776   4.047   4.643  13.661  0.8187 -0.5026 -0.2652
  795MPD2    N111777   3.798   0.289  13.490  0.1965  0.7427  0.0031
  795MPD2    H711778   3.799   0.214  13.421  0.9467  0.7443  0.0084
  796MPD2     C11779   3.779   1.272  15.751 -0.1161 -0.6348 -0.0955
  796MPD2    C111780   3.828   1.330  15.861  1.3200  0.7279  0.7520
  796MPD2    C211781   3.829   1.468  15.871 -0.0100 -0.1532 -0.3551
  796MPD2    C311782   3.771   1.555  15.781  0.2225  0.6261 -0.3937
  796MPD2    C411783   3.704   1.498  15.671  0.0023 -0.2065  0.0831
  796MPD2    C511784   3.713   1.359  15.654  0.0624  0.2183 -0.8585
  796MPD2     H11785   3.867   1.506  15.965 -0.0826 -0.2342 -0.2931
  796MPD2    H111786   3.647   1.555  15.598  1.6229  1.1968 -0.0910
  796MPD2    H211787   3.794   1.167  15.731 -0.3496 -0.2208 -2.4530
  796MPD2    H311788   3.677   1.317  15.561 -1.7500 -0.9301  0.3584
  796MPD2     N11789   3.797   1.697  15.802 -0.3013 -0.3897  0.0915
  796MPD2    H511790   3.840   1.723  15.890 -1.3019 -0.8079  0.7014
  796MPD2    N111791   3.879   1.242  15.962 -1.0021  0.3062 -0.0159
  796MPD2    H711792   3.854   1.146  15.942  3.7256 -1.0723  0.7043
  797MPD2     C11793   4.523   0.817  17.705  0.1109 -0.0138 -0.8192
  797MPD2    C111794   4.559   0.943  17.703 -0.1691 -0.6909  0.0542
  797MPD2    C211795   4.559   1.001  17.586  0.2297  0.3459  0.7159
  797MPD2    C311796   4.514   0.945  17.466  0.3272 -0.8790  0.1146
  797MPD2    C411797   4.470   0.812  17.475  0.5358  0.4038  0.2969
  797MPD2    C511798   4.468   0.755  17.597  0.3635  0.2636  0.1349
  797MPD2     H11799   4.605   1.099  17.583 -1.8810  1.3077 -0.6758
  797MPD2    H111800   4.430   0.759  17.390  1.9903  0.8441 -0.6644
  797MPD2    H211801   4.517   0.756   0.034  2.4858  1.1825  0.1466
  797MPD2    H311802   4.430   0.655  17.614  1.4082 -0.2855 -0.7788
  797MPD2     N11803   4.502   1.026  17.353  0.4611 -0.3063 -0.0438
  797MPD2    H511804   4.528   1.124  17.361  0.9197 -0.1106 -3.7662
  797MPD2    N111805   4.615   1.009   0.057 -0.1821  0.0564 -0.0470
  797MPD2    H711806   4.632   1.106   0.034 -0.0754  0.0425 -0.0266
  798MPD2     C11807   0.189   1.526  17.477  0.5542  0.9359  0.8623
  798MPD2    C111808   0.085   1.449  17.490 -0.2461  0.5280 -1.0542
  798MPD2    C211809   0.040   1.404  17.610 -0.4427 -0.0725  0.3999
  798MPD2    C311810   0.104   1.439  17.718 -0.0695  0.2696  0.4269
  798MPD2    C411811   0.222   1.505  17.709 -0.2221 -0.1222  0.2911
  798MPD2    C511812   0.269   1.536  17.587  0.4897  0.2279 -0.0894
  798MPD2     H11813   4.686   1.350  17.612 -0.6352  0.2564  0.1815
  798MPD2    H111814   0.277   1.543   0.034  0.9573 -2.0568  0.3838
  798MPD2    H211815   0.223   1.568  17.383 -0.0309  1.8974  1.0826
  798MPD2    H311816   0.362   1.591  17.586  1.0159 -0.6721 -0.5273
  798MPD2     N11817   0.058   1.375   0.073 -0.3301 -0.1225  0.0720
  798MPD2    H511818   4.711   1.325   0.057 -0.6827 -0.5160  3.2115
  798MPD2    N111819   0.023   1.413  17.367 -0.3907 -0.6200  0.7702
  798MPD2    H711820   0.067   1.438  17.279 -1.7749  2.9860  1.0788
  799MPD2     C11821   3.793   2.951  14.580 -1.2175 -0.5111 -0.4593
  799MPD2    C111822   3.725   2.854  14.503  0.2528 -0.4282 -0.0338
  799MPD2    C211823   3.669   2.884  14.382  0.6571 -0.1792 -1.4993
  799MPD2    C311824   3.677   3.013  14.331  0.0351  0.2785  0.3612
  799MPD2    C411825   3.737   3.105  14.416  0.1646 -0.2149  0.1918
  799MPD2    C511826   3.810   3.075  14.525  0.2249  0.0542 -0.0618
  799MPD2     H11827   3.636   2.798  14.324 -1.6948 -0.5008  0.3234
  799MPD2    H111828   3.758   3.206  14.384  1.8242 -0.2784  1.1034
  799MPD2    H211829   3.839   2.934  14.676 -0.2431  3.4589 -0.2081
  799MPD2    H311830   3.870   3.157  14.564  1.0579 -0.1726 -0.8611
  799MPD2     N11831   3.642   3.057  14.202 -0.0101  0.6096 -0.0978
  799MPD2    H511832   3.660   3.151  14.168  1.9878 -0.3579 -1.6783
  799MPD2    N111833   3.725   2.719  14.545  0.7494 -0.0895  0.3020
  799MPD2    H711834   3.648   2.669  14.503  0.4291  0.0250  0.7632
  800MPD2     C11835   3.858   4.121  14.399 -0.8334  0.2960 -0.3727
  800MPD2    C111836   3.986   4.058  14.397  0.5996  0.5150  0.3124
  800MPD2    C211837   3.999   3.939  14.324  0.6369 -0.4355 -0.1291
  800MPD2    C311838   3.892   3.886  14.254  0.3460  0.0059 -0.2106
  800MPD2    C411839   3.771   3.940  14.272 -0.6642 -0.0701  0.1069
  800MPD2    C511840   3.751   4.054  14.343  0.2494 -0.2024 -0.5372
  800MPD2     H11841   4.099   3.901  14.306 -0.1780 -1.6774 -2.0118
  800MPD2    H111842   3.681   3.892  14.235  0.2901 -2.6880  1.1615
  800MPD2    H211843   3.839   4.213  14.453  0.4975  0.9710 -1.0652
  800MPD2    H311844   3.652   4.095  14.359 -0.1553 -1.8048  1.0085
  800MPD2     N11845   3.919   3.782  14.166 -0.8252  0.3462  0.9431
  800MPD2    H511846   4.016   3.750  14.163 -0.2610  2.1490  0.1852
  800MPD2    N111847   4.095   4.127  14.454 -0.3073  0.5679  0.2147
  800MPD2    H711848   4.079   4.220  14.493  0.1177  1.5542 -2.0017
  801MPD2     C11849   4.310   0.024  14.311  0.5391 -0.1292 -0.7250
  801MPD2    C111850   4.266   4.670  14.400  0.6344  0.6291 -0.0359
  801MPD2    C211851   4.167   4.701  14.488  0.6157  0.0447  0.8426
  801MPD2    C311852   4.100   0.079  14.486 -0.5846 -0.7279 -0.2480
  801MPD2    C411853   4.144   0.177  14.402 -0.0080  0.2388 -0.0696
  801MPD2    C511854   4.253   0.149  14.314 -0.2021  0.6401 -0.6118
  801MPD2     H11855   4.146   4.630  14.567  0.2327 -0.2364  0.4888
  801MPD2    H111856   4.099   0.275  14.389  0.7781  0.6014 -0.0504
  801MPD2    H211857   4.388   0.003  14.239  1.1732  0.7236 -0.2905
  801MPD2    H311858   4.289   0.228  14.249  1.1172  1.4575  1.1258
  801MPD2     N11859   3.997   0.106  14.575 -0.4408 -0.4186  0.1655
  801MPD2    H511860   3.939   0.187  14.556  0.7928  0.0247 -1.6636
  801MPD2    N111861   4.319   4.535  14.408 -0.4863  0.1011 -0.0446
  801MPD2    H711862   4.268   4.475  14.472  1.2204 -0.5617  0.6894
  802MPD2     C11863   3.293   0.599   0.332  0.5864  0.7901 -0.1542
  802MPD2    C111864   3.281   0.464   0.291 -0.5139 -0.3191 -0.5740
  802MPD2    C211865   3.337   0.425   0.176  0.3053 -0.4755 -0.4306
  802MPD2    C311866   3.397   0.517   0.093  0.4678 -0.0742  0.5554
  802MPD2    C411867   3.387   0.652   0.120  0.1756 -0.1938  0.3577
  802MPD2    C511868   3.343   0.692   0.246  0.0523  0.0879  0.0629
  802MPD2     H11869   3.337   0.318   0.154 -1.0186 -0.2367 -1.5721
  802MPD2    H111870   3.439   0.724   0.059 -1.9769 -0.4482 -1.7775
  802MPD2    H211871   3.240   0.640   0.418 -0.0504 -2.6996  1.1137
  802MPD2    H311872   3.350   0.797   0.269 -1.4987  0.0163  0.9145
  802MPD2     N11873   3.447   0.470  17.731  0.3292 -0.4994  0.6696
  802MPD2    H511874   3.447   0.369  17.718 -0.4001 -0.3610 -0.3025
  802MPD2    N111875   3.211   0.363   0.373 -0.4476  0.2120  0.6965
  802MPD2    H711876   3.209   0.268   0.339 -0.8286  0.8747 -1.1637
  803MPD2     C11877   4.148   3.022  12.446 -0.0283  0.4941  0.2521
  803MPD2    C111878   4.266   3.091  12.426  0.2462 -0.1238 -1.2441
  803MPD2    C211879   4.381   3.037  12.491 -0.0315  0.3993  0.7571
  803MPD2    C311880   4.371   2.939  12.590  0.2654 -0.7333  0.6309
  803MPD2    C411881   4.251   2.876  12.612 -0.2200 -0.5021  0.8837
  803MPD2    C511882   4.145   2.919  12.542 -0.5290 -0.4304  0.1922
  803MPD2     H11883   4.481   3.071  12.469  0.1251  0.0877  0.9698
  803MPD2    H111884   4.241   2.804  12.693 -0.5658 -1.5582 -0.0995
  803MPD2    H211885   4.053   3.039  12.397  1.4885  3.1609 -1.7885
  803MPD2    H311886   4.051   2.874  12.570 -0.7330 -0.2852 -0.2500
  803MPD2     N11887   4.475   2.896  12.669 -0.0093 -0.2167  0.8624
  803MPD2    H511888   4.445   2.828  12.738 -3.7329 -0.0426 -0.6115
  803MPD2    N111889   4.278   3.191  12.326 -1.4352  0.1848 -0.1072
  803MPD2    H711890   4.371   3.227  12.307 -0.5881 -1.0922  1.6792
  804MPD2     C11891   4.139   4.493  16.743  0.2142 -0.3099  0.3260
  804MPD2    C111892   4.085   4.531  16.868  0.4716  0.0733 -0.5169
  804MPD2    C211893   4.134   4.633  16.946  0.5558  0.4301  0.5003
  804MPD2    C311894   4.230   4.719  16.890 -0.3984  0.7527  0.1535
  804MPD2    C411895   4.271   4.696  16.758  0.7883 -0.0272 -0.3932
  804MPD2    C511896   4.226   4.586  16.687  0.1277 -0.1531  0.4881
  804MPD2     H11897   4.092   4.641  17.046 -1.7463  0.2202 -0.4613
  804MPD2    H111898   4.342   0.016  16.704  0.2063 -0.7607 -1.9827
  804MPD2    H211899   4.109   4.403  16.690 -1.4711  0.3110  0.2230
  804MPD2    H311900   4.270   4.562  16.591 -0.3223  1.7845 -0.1906
  804MPD2     N11901   4.296   0.071  16.970  0.8767 -0.3331 -0.4527
  804MPD2    H511902   4.269   0.079  17.068 -0.2047  1.3777 -0.9032
  804MPD2    N111903   3.985   4.451  16.924 -0.2920 -0.2448  0.3985
  804MPD2    H711904   3.970   4.470  17.022  0.4463 -0.8244  0.6289
  805MPD2     C11905   3.461   3.046  15.406  0.3917 -0.5032  0.6413
  805MPD2    C111906   3.524   2.993  15.299 -0.4141  0.2358 -0.4580
  805MPD2    C211907   3.641   2.920  15.311 -0.2715 -0.4765 -0.2309
  805MPD2    C311908   3.686   2.897  15.441 -0.6135  0.3727 -0.0450
  805MPD2    C411909   3.619   2.949  15.551 -0.3268 -0.4196  0.3668
  805MPD2    C511910   3.508   3.025  15.533 -0.0529 -0.0069 -0.7417
  805MPD2     H11911   3.696   2.883  15.226  1.9397  3.2620 -0.4060
  805MPD2    H111912   3.658   2.931  15.650  0.3957 -1.5146 -0.1088
  805MPD2    H211913   3.376   3.110  15.386  0.2914 -0.8569 -0.0867
  805MPD2    H311914   3.460   3.071  15.618 -0.4714 -1.4208 -0.2119
  805MPD2     N11915   3.821   2.848  15.450 -0.9512  0.6981 -0.4196
  805MPD2    H511916   3.869   2.842  15.361  0.7356 -1.3058  0.6340
  805MPD2    N111917   3.482   3.015  15.170 -0.2717  0.5090 -0.2269
  805MPD2    H711918   3.532   2.959  15.102 -0.1821  0.9099 -0.4969
  806MPD2     C11919   3.514   2.179   0.127 -1.0732  0.7823  0.5907
  806MPD2    C111920   3.524   2.257   0.244 -1.1077 -0.2384 -0.7497
  806MPD2    C211921   3.586   2.377   0.233 -0.0852 -0.3648 -0.1521
  806MPD2    C311922   3.644   2.424   0.116 -0.0313 -0.1769  0.4863
  806MPD2    C411923   3.631   2.342   0.005  0.2382 -0.0124  0.3775
  806MPD2    C511924   3.563   2.224   0.008  0.4504  0.3897 -0.1023
  806MPD2     H11925   3.591   2.436   0.324  0.1989 -0.5451 -0.0529
  806MPD2    H111926   3.671   2.375  17.670  0.7087  1.8797  1.2256
  806MPD2    H211927   3.466   2.082   0.126 -1.3261  0.9152  0.0052
  806MPD2    H311928   3.558   2.161  17.680 -0.6870 -0.8100  0.8251
  806MPD2     N11929   3.704   2.553   0.107  0.2776  0.3562 -0.0068
  806MPD2    H511930   3.704   2.605   0.194 -2.3188  0.0600  0.1545
  806MPD2    N111931   3.480   2.205   0.369 -0.3248  0.4954  0.0738
  806MPD2    H711932   3.488   2.273   0.445  0.5655  0.6901 -0.1957
  807MPD2     C11933   2.953   1.688   0.845  0.0952 -0.7663  0.3638
  807MPD2    C111934   3.030   1.771   0.924 -0.0071 -0.6235 -0.1964
  807MPD2    C211935   3.024   1.772   1.063  0.1981 -0.4202  0.1931
  807MPD2    C311936   2.936   1.698   1.125  0.1899  0.4561 -0.0288
  807MPD2    C411937   2.842   1.625   1.049 -0.1418 -0.1412  0.0446
  807MPD2    C511938   2.853   1.619   0.911 -0.0307 -0.7081  0.0727
  807MPD2     H11939   3.083   1.838   1.125 -0.8933  1.1381 -0.4176
  807MPD2    H111940   2.757   1.581   1.100 -1.3987  1.9728 -0.2508
  807MPD2    H211941   2.945   1.706   0.739 -3.4787 -1.5624  0.5086
  807MPD2    H311942   2.767   1.574   0.861 -0.0701  0.5891 -1.0222
  807MPD2     N11943   2.937   1.700   1.271 -0.3727  0.6267  0.1157
  807MPD2    H511944   3.014   1.755   1.310 -0.7314  0.6323  0.8143
  807MPD2    N111945   3.124   1.859   0.862 -0.4871 -0.0856 -0.1221
  807MPD2    H711946   3.192   1.906   0.920  1.0478  0.5593 -2.4333
  808MPD2     C11947   3.886   3.325  10.286 -0.1132  0.0685 -0.9600
  808MPD2    C111948   3.951   3.324  10.166 -0.0038  0.2587 -0.1133
  808MPD2    C211949   3.973   3.442  10.102  0.2698  0.2705 -0.1296
  808MPD2    C311950   3.912   3.565  10.144  0.2073  0.0495 -0.0829
  808MPD2    C411951   3.837   3.560  10.263 -0.2213 -0.1021 -0.3511
  808MPD2    C511952   3.831   3.442  10.333  0.4525 -0.0860  0.1329
  808MPD2     H11953   4.016   3.426  10.004 -0.0566 -1.2066 -0.0249
  808MPD2    H111954   3.784   3.648  10.297  1.6248  0.4593  1.0237
  808MPD2    H211955   3.863   3.244  10.354 -2.7059  0.1369 -1.7477
  808MPD2    H311956   3.777   3.427  10.426  0.3291 -1.0934 -0.1016
  808MPD2     N11957   3.912   3.691  10.077  0.0186 -0.1123 -0.6851
  808MPD2    H511958   3.863   3.777  10.102 -1.4389 -1.5445  1.3206
  808MPD2    N111959   4.014   3.209  10.120  0.3384  0.3707  0.0340
  808MPD2    H711960   4.069   3.217  10.036  1.1233 -2.7578  0.2439
  809MPD2     C11961   4.548   4.302   9.597 -0.0658 -0.6967  0.2635
  809MPD2    C111962   4.543   4.232   9.715 -0.0703  0.3532 -0.1995
  809MPD2    C211963   4.441   4.150   9.750  0.1876 -0.2401  0.5722
  809MPD2    C311964   4.330   4.141   9.664 -0.5704 -0.7352 -0.0975
  809MPD2    C411965   4.335   4.209   9.544  0.3653 -0.1941  0.0018
  809MPD2    C511966   4.438   4.288   9.511 -0.1393 -0.5933  0.0426
  809MPD2     H11967   4.447   4.095   9.843  1.7645  0.2301  0.7456
  809MPD2    H111968   4.252   4.206   9.475 -0.4576  3.1339  0.8462
  809MPD2    H211969   4.614   4.382   9.566 -0.9508  0.3250  0.9846
  809MPD2    H311970   4.442   4.338   9.415 -2.1210 -0.4325  0.0467
  809MPD2     N11971   4.220   4.057   9.705  0.0276  0.5844  0.2961
  809MPD2    H511972   4.235   4.002   9.789 -2.1693  1.0155  0.9677
  809MPD2    N111973   4.650   4.243   9.811  0.2095  0.7764 -0.2608
  809MPD2    H711974   4.629   4.204   9.902 -0.0815 -3.0095 -1.9627
  810MPD2     C11975   3.882   3.598  10.714 -0.3116  0.4187 -0.4284
  810MPD2    C111976   3.766   3.541  10.769 -0.3465  0.3186  0.0971
  810MPD2    C211977   3.672   3.627  10.828  0.2059 -0.1160 -0.0372
  810MPD2    C311978   3.690   3.759  10.852  0.8371  0.0897  0.4620
  810MPD2    C411979   3.815   3.809  10.816  0.8739  0.0994  0.5653
  810MPD2    C511980   3.907   3.733  10.743 -0.2510 -0.5034  0.0275
  810MPD2     H11981   3.575   3.585  10.851 -0.1210  0.5952 -0.1369
  810MPD2    H111982   3.838   3.915  10.815 -0.8166  0.4530 -0.6861
  810MPD2    H211983   3.970   3.546  10.678 -0.9988 -0.4993 -0.7992
  810MPD2    H311984   3.999   3.788  10.727 -0.9768  1.1450  1.5872
  810MPD2     N11985   3.602   3.850  10.914 -0.7318 -0.0751 -0.1378
  810MPD2    H511986   3.626   3.947  10.901  1.0163 -0.3193  1.3270
  810MPD2    N111987   3.752   3.403  10.761  0.4845  0.5892 -0.2459
  810MPD2    H711988   3.808   3.359  10.689  0.0577 -1.9486  0.9952
  811MPD2     C11989   3.204   3.040  10.282  0.1355  0.7761  0.7421
  811MPD2    C111990   3.286   3.125  10.355  0.3346  0.7029  0.3206
  811MPD2    C211991   3.256   3.255  10.354  0.2287 -0.3970 -0.6540
  811MPD2    C311992   3.144   3.307  10.294  0.1199 -0.0897  0.1072
  811MPD2    C411993   3.066   3.227  10.221 -0.3339  0.2955  0.0752
  811MPD2    C511994   3.102   3.098  10.217 -0.4832  0.0377  0.1918
  811MPD2     H11995   3.307   3.339  10.400  1.1735 -0.1536 -2.1281
  811MPD2    H111996   2.975   3.255  10.169  0.5337 -2.0435 -2.6643
  811MPD2    H211997   3.211   2.932  10.283  1.3687  0.8574  0.1336
  811MPD2    H311998   3.045   3.037  10.149 -2.6825 -0.4995  2.5393
  811MPD2     N11999   3.111   3.445  10.317  0.3690 -0.3120  0.1643
  811MPD2    H512000   3.173   3.492  10.382 -0.0130  0.1945  0.1507
  811MPD2    N112001   3.380   3.078  10.444 -0.0193 -0.4336 -0.5035
  811MPD2    H712002   3.384   2.976  10.450  3.7212 -0.3200 -0.5187
  812MPD2     C12003   2.202   3.366  12.055 -0.7025 -0.2981 -0.2718
  812MPD2    C112004   2.209   3.454  12.165 -0.1729 -0.0168  0.1244
  812MPD2    C212005   2.252   3.400  12.288  0.0271  0.5167  0.0258
  812MPD2    C312006   2.284   3.263  12.292  0.0140  0.6109  0.5928
  812MPD2    C412007   2.270   3.182  12.180 -0.6915  0.9306  0.1374
  812MPD2    C512008   2.239   3.235  12.064 -0.3645  0.5436 -0.5464
  812MPD2     H12009   2.260   3.458  12.380  1.9038 -0.0698  0.2262
  812MPD2    H112010   2.287   3.075  12.183 -1.2857  0.8285 -0.0607
  812MPD2    H212011   2.174   3.402  11.957 -2.3699 -3.2062 -0.8662
  812MPD2    H312012   2.255   3.178  11.973  0.8507 -0.1694  0.1141
  812MPD2     N12013   2.329   3.203  12.416  0.1897 -0.3161  0.4962
  812MPD2    H512014   2.338   3.267  12.495 -0.0951  0.0168  0.2616
  812MPD2    N112015   2.161   3.585  12.142 -0.8185  0.0776  0.2243
  812MPD2    H712016   2.104   3.599  12.060 -0.7739 -1.7433 -0.1116
  813MPD2     C12017   1.134   0.422  12.776  0.2108 -0.3350  0.0560
  813MPD2    C112018   1.178   0.398  12.904 -0.7395 -0.6788  0.0421
  813MPD2    C212019   1.085   0.365  13.000 -0.0435 -0.0712 -1.0272
  813MPD2    C312020   0.947   0.361  12.966 -0.3718  0.3555 -0.0758
  813MPD2    C412021   0.911   0.382  12.834  0.5449  0.9398 -0.0453
  813MPD2    C512022   1.005   0.402  12.743 -0.4103 -0.0021  0.0884
  813MPD2     H12023   1.120   0.350  13.102 -1.8462  0.7532 -0.2840
  813MPD2    H112024   0.812   0.376  12.790  1.3125  1.1732 -1.7919
  813MPD2    H212025   1.210   0.431  12.698 -1.0828 -3.1358 -1.5422
  813MPD2    H312026   0.987   0.429  12.640  3.8456  1.9665 -0.1305
  813MPD2     N12027   0.857   0.367  13.073  0.3603 -0.4031  0.2551
  813MPD2    H512028   0.760   0.380  13.045  0.2829 -1.2200  0.1321
  813MPD2    N112029   1.317   0.403  12.941 -0.0564 -0.0761  0.0307
  813MPD2    H712030   1.333   0.368  13.035  1.6669  1.1238  0.1792
  814MPD2     C12031   2.044   1.629  12.416  0.0175 -0.3276  0.4279
  814MPD2    C112032   2.035   1.729  12.328 -0.3182 -0.1407 -0.0937
  814MPD2    C212033   2.083   1.853  12.352  0.0178 -0.4527 -0.9859
  814MPD2    C312034   2.155   1.881  12.475  0.6367 -0.0649  0.6099
  814MPD2    C412035   2.161   1.777  12.566 -0.0632  0.7277  0.5756
  814MPD2    C512036   2.100   1.657  12.538  0.2110  0.1908 -0.4493
  814MPD2     H12037   2.080   1.925  12.270  0.2872  0.7396  0.0466
  814MPD2    H112038   2.216   1.774  12.659  2.6883 -1.2036 -1.0957
  814MPD2    H212039   2.014   1.526  12.399 -0.9347 -0.0979  0.7109
  814MPD2    H312040   2.115   1.578  12.611  0.1873  0.5339 -0.0722
  814MPD2     N12041   2.242   1.998  12.497  0.1655 -0.0373 -0.0247
  814MPD2    H512042   2.297   2.003  12.582  0.3465  0.7048 -0.1853
  814MPD2    N112043   1.969   1.714  12.204 -0.5097 -0.1689 -0.0157
  814MPD2    H712044   1.981   1.784  12.131 -0.2795  0.9535  1.1020
  815MPD2     C12045   2.527   0.209  12.168 -0.1635 -0.3178  0.4112
  815MPD2    C112046   2.484   0.089  12.217  0.1636 -0.3224  0.3384
  815MPD2    C212047   2.363   0.094  12.272 -0.6897  0.1734 -0.2104
  815MPD2    C312048   2.293   0.213  12.297 -0.4544  0.0195  0.6323
  815MPD2    C412049   2.347   0.330  12.241 -0.8783 -0.7460 -0.2506
  815MPD2    C512050   2.465   0.327  12.176 -0.0752 -0.8266 -0.1974
  815MPD2     H12051   2.321   0.003  12.314 -0.7280  0.5229  0.5146
  815MPD2    H112052   2.290   0.422  12.244 -0.9551 -0.7874 -0.4464
  815MPD2    H212053   2.614   0.205  12.103 -0.9053  2.2379 -0.7359
  815MPD2    H312054   2.510   0.417  12.136 -1.0038 -0.9254 -1.4777
  815MPD2     N12055   2.164   0.206  12.358  0.6936 -0.1769  0.1860
  815MPD2    H512056   2.135   0.117  12.397  0.9132  0.2956  1.4139
  815MPD2    N112057   2.552   4.711  12.187 -0.1801  0.2528  0.1382
  815MPD2    H712058   2.637   4.727  12.133  0.3718  0.8840  1.1738
  816MPD2     C12059   3.328   4.069  17.198  0.0199 -0.1778 -0.4337
  816MPD2    C112060   3.256   4.117  17.092  0.0400 -0.2838 -0.4243
  816MPD2    C212061   3.318   4.112  16.965  0.8007 -0.3622  0.6922
  816MPD2    C312062   3.450   4.064  16.951  0.7170  0.5933 -0.1889
  816MPD2    C412063   3.523   4.019  17.062 -0.0710 -0.7632 -0.0009
  816MPD2    C512064   3.461   4.033  17.183 -0.2828  0.3160  0.1361
  816MPD2     H12065   3.255   4.141  16.882  3.6162  0.5698 -1.1451
  816MPD2    H112066   3.625   3.982  17.053  0.7485  1.5287 -0.2060
  816MPD2    H212067   3.287   4.066  17.298 -2.4119  0.5996 -1.4028
  816MPD2    H312068   3.521   4.025  17.273  1.5167 -3.1867 -1.3736
  816MPD2     N12069   3.505   4.058  16.821 -0.0765 -0.1011  0.0638
  816MPD2    H512070   3.457   4.119  16.755  0.7731 -0.0040 -0.4617
  816MPD2    N112071   3.124   4.159  17.106 -0.0517  0.0863 -0.2499
  816MPD2    H712072   3.098   4.168  17.203 -1.2480 -2.3889 -0.3340
  817MPD2     C12073   1.941   1.112  10.448  0.1532 -0.4203 -0.0109
  817MPD2    C112074   1.905   1.102  10.316  0.3386  0.0232 -0.2990
  817MPD2    C212075   1.907   1.218  10.246 -0.8843 -0.0736  0.1822
  817MPD2    C312076   1.949   1.341  10.290 -0.2904  0.5013 -0.3462
  817MPD2    C412077   1.982   1.344  10.421 -0.5267  0.6957  0.1619
  817MPD2    C512078   1.980   1.234  10.498 -0.1258  0.2391  0.2365
  817MPD2     H12079   1.856   1.224  10.151  0.4161 -2.9425 -0.7028
  817MPD2    H112080   2.018   1.440  10.457 -0.3701  1.2388 -1.4021
  817MPD2    H212081   1.936   1.023  10.510  3.5124 -1.5709 -1.4063
  817MPD2    H312082   2.028   1.246  10.594  1.0200  2.0276 -0.5545
  817MPD2     N12083   1.971   1.446  10.206 -0.5145  0.7403  1.6935
  817MPD2    H512084   1.963   1.413  10.110 -1.1097  0.9981  1.6543
  817MPD2    N112085   1.855   0.979  10.258 -0.4464  0.1538 -0.2089
  817MPD2    H712086   1.837   0.990  10.158 -1.4437 -0.2402 -0.0720
  818MPD2     C12087   0.355   1.470   9.665  0.2692  0.6678 -0.6807
  818MPD2    C112088   0.434   1.412   9.764  0.3045 -0.0433 -0.1711
  818MPD2    C212089   0.378   1.306   9.832  0.1718  0.8972 -0.9401
  818MPD2    C312090   0.256   1.251   9.798 -0.0012  0.5179 -0.7375
  818MPD2    C412091   0.181   1.307   9.700  0.5913  0.7518  0.1694
  818MPD2    C512092   0.228   1.417   9.637  0.0057  0.5095 -0.0386
  818MPD2     H12093   0.436   1.252   9.906 -0.4556 -0.9687 -1.8013
  818MPD2    H112094   0.087   1.267   9.662  1.0029  1.4276 -1.5699
  818MPD2    H212095   0.380   1.565   9.619 -1.7530  1.6883  0.2733
  818MPD2    H312096   0.183   1.466   9.551  0.6591 -0.0899 -0.7318
  818MPD2     N12097   0.212   1.123   9.844  0.1597 -0.0047  0.4959
  818MPD2    H512098   0.117   1.096   9.824  0.1669  0.9056 -0.7857
  818MPD2    N112099   0.557   1.462   9.814 -0.4895  0.4080 -0.2630
  818MPD2    H712100   0.584   1.418   9.901 -1.6752 -0.3054 -0.2494
  819MPD2     C12101   4.453   2.379  15.237 -0.5615 -0.5069  0.4473
  819MPD2    C112102   4.388   2.355  15.353 -0.1179 -0.0057 -0.0472
  819MPD2    C212103   4.454   2.297  15.461 -0.6434  0.0893  0.2123
  819MPD2    C312104   4.580   2.256  15.453 -0.0461  0.0706 -0.5965
  819MPD2    C412105   4.649   2.288  15.335 -0.2828  0.4373  0.2515
  819MPD2    C512106   4.586   2.344  15.228 -0.2877 -0.3817  0.6541
  819MPD2     H12107   4.404   2.270  15.554  0.3830 -1.2118  0.3803
  819MPD2    H112108   0.013   2.267  15.315 -0.7580 -0.3920 -1.3065
  819MPD2    H212109   4.401   2.420  15.150 -0.7773 -1.3405  0.1820
  819MPD2    H312110   4.646   2.366  15.141 -1.8012 -1.5954 -0.6950
  819MPD2     N12111   4.640   2.184  15.564 -0.1514 -0.7625 -0.5274
  819MPD2    H512112   4.588   2.188  15.651 -0.5712 -1.1515 -0.7661
  819MPD2    N112113   4.251   2.367  15.356  0.2150  0.5474 -0.5173
  819MPD2    H712114   4.206   2.394  15.269  1.2235  0.8831 -0.9301
  820MPD2     C12115   3.477   2.503  14.781  0.5271  0.0030 -0.2697
  820MPD2    C112116   3.551   2.595  14.845 -0.4330  0.2328 -0.5692
  820MPD2    C212117   3.629   2.563  14.954 -0.0187 -0.0790 -0.0286
  820MPD2    C312118   3.634   2.430  14.997 -0.8492  1.0515  0.0202
  820MPD2    C412119   3.550   2.332  14.941 -0.8005 -0.6866 -0.4176
  820MPD2    C512120   3.470   2.376  14.840  0.2271  0.1942  0.5936
  820MPD2     H12121   3.687   2.639  15.004 -0.5986  0.2085  0.2102
  820MPD2    H112122   3.544   2.232  14.981 -0.2872 -1.3350 -1.9826
  820MPD2    H212123   3.429   2.528  14.687  1.7718 -1.3035 -1.2733
  820MPD2    H312124   3.406   2.299  14.797 -1.7716  0.8542  2.4086
  820MPD2     N12125   3.710   2.390  15.108  0.1456  0.4678  0.5341
  820MPD2    H512126   3.716   2.291  15.132 -0.0655 -0.4048 -3.0926
  820MPD2    N112127   3.529   2.731  14.797 -0.9434 -0.1044 -0.2019
  820MPD2    H712128   3.465   2.738  14.718  1.2130  0.2906 -1.9336
  821MPD2     C12129   4.110   3.783  13.426  0.8616 -0.0288  0.8598
  821MPD2    C112130   4.184   3.755  13.533  0.0004  0.0614 -0.2580
  821MPD2    C212131   4.315   3.790  13.529  0.6284 -0.2882 -0.5652
  821MPD2    C312132   4.365   3.860  13.425  0.3449 -0.5676 -0.2932
  821MPD2    C412133   4.281   3.891  13.322 -0.0412 -0.1729 -0.2437
  821MPD2    C512134   4.153   3.858  13.317  0.2840  0.6194 -0.5886
  821MPD2     H12135   4.382   3.778  13.614 -0.1569 -0.4678  0.0240
  821MPD2    H112136   4.305   3.966  13.247  0.8045 -0.8955 -0.7008
  821MPD2    H212137   4.007   3.752  13.412  0.8707  0.1904  0.2978
  821MPD2    H312138   4.076   3.881  13.245  2.5344  1.5137 -2.6966
  821MPD2     N12139   4.495   3.926  13.418  0.0777 -0.2206 -0.0865
  821MPD2    H512140   4.516   3.984  13.338  0.5486 -2.4084 -1.5746
  821MPD2    N112141   4.140   3.672  13.640  0.4048  0.5556 -0.1146
  821MPD2    H712142   4.208   3.654  13.713 -2.6123 -2.0545  2.0290
  822MPD2     C12143   0.344   3.728  15.663 -0.2458  0.4089 -0.1556
  822MPD2    C112144   0.282   3.712  15.784  0.7631  0.1278 -0.2128
  822MPD2    C212145   0.184   3.791  15.823 -0.6822 -0.1911 -0.3140
  822MPD2    C312146   0.140   3.894  15.744  0.2418 -0.1759  0.4010
  822MPD2    C412147   0.192   3.923  15.620  0.5123 -0.2209 -0.4480
  822MPD2    C512148   0.291   3.833  15.587 -0.1692 -0.3980 -0.2190
  822MPD2     H12149   0.134   3.773  15.917 -3.7261  0.6531 -1.7505
  822MPD2    H112150   0.146   4.000  15.559 -0.1333  1.1690  1.8090
  822MPD2    H212151   0.425   3.671  15.619 -0.8506  0.4562 -1.3260
  822MPD2    H312152   0.333   3.849  15.488 -0.8820 -4.2284 -1.1468
  822MPD2     N12153   0.047   3.979  15.810 -0.4267  0.2843  0.5083
  822MPD2    H512154   4.738   3.938  15.888 -1.1107  1.5045  0.7186
  822MPD2    N112155   0.328   3.625  15.885 -0.3571 -0.4165 -0.1671
  822MPD2    H712156   0.277   3.636  15.972  0.0098  0.0545 -0.0161
  823MPD2     C12157   4.418   4.206  16.539 -0.3327  0.0836 -0.1478
  823MPD2    C112158   4.479   4.128  16.438 -0.0870  0.3317  0.0777
  823MPD2    C212159   4.537   4.011  16.489  0.0991  0.4782 -0.4019
  823MPD2    C312160   4.539   3.976  16.618 -0.0855 -0.2347 -0.6259
  823MPD2    C412161   4.473   4.058  16.709  0.3967  0.6797  0.3995
  823MPD2    C512162   4.420   4.173  16.674  0.4463  0.4107  0.0162
  823MPD2     H12163   4.576   3.937  16.420 -0.2531  3.6822 -4.0767
  823MPD2    H112164   4.462   4.048  16.816  2.6788 -0.0689  0.5724
  823MPD2    H212165   4.365   4.297  16.515  0.5098  0.0277 -2.2302
  823MPD2    H312166   4.380   4.248  16.742 -2.7650 -0.2893 -1.0797
  823MPD2     N12167   4.592   3.856  16.673 -0.2609  0.0599  0.0804
  823MPD2    H512168   4.547   3.841  16.763 -0.4310 -0.1874 -0.0476
  823MPD2    N112169   4.468   4.154  16.301  0.2138  0.8105  0.1504
  823MPD2    H712170   4.438   4.247  16.273 -0.3060  0.4048 -0.6440
  824MPD2     C12171   0.868   2.986  16.121  0.3601  0.2493 -0.2915
  824MPD2    C112172   0.863   3.089  16.026 -0.4184  0.0473 -0.3285
  824MPD2    C212173   0.960   3.086  15.926  0.2816  0.1154  0.0375
  824MPD2    C312174   1.047   2.977  15.905  0.0947 -0.3202 -0.2689
  824MPD2    C412175   1.047   2.880  15.999  0.3428  0.4198 -0.5029
  824MPD2    C512176   0.956   2.886  16.107 -0.1834 -0.0433 -0.5224
  824MPD2     H12177   0.944   3.153  15.842  5.1539  0.0351 -0.9211
  824MPD2    H112178   1.110   2.792  16.006 -0.0141  0.2855  1.0788
  824MPD2    H212179   0.793   2.975  16.198  1.9626  0.4317  1.2902
  824MPD2    H312180   0.947   2.808  16.182 -0.5293  1.3624  0.8836
  824MPD2     N12181   1.120   2.972  15.790  0.4825  0.2579 -0.2158
  824MPD2    H512182   1.111   3.052  15.729 -0.1238  0.7553  0.5185
  824MPD2    N112183   0.771   3.193  16.025  0.2257 -0.2332  0.3516
  824MPD2    H712184   0.798   3.274  15.970  1.0550 -0.8405 -0.1253
  825MPD2     C12185   1.755   3.165  15.209  0.1310  0.3699  0.2754
  825MPD2    C112186   1.664   3.204  15.305  0.3756 -0.0247 -0.5128
  825MPD2    C212187   1.664   3.340  15.341  0.5584  0.7705 -0.0529
  825MPD2    C312188   1.740   3.431  15.265 -0.7593 -0.3278  0.6870
  825MPD2    C412189   1.811   3.399  15.152  0.6341 -0.0548  0.5299
  825MPD2    C512190   1.825   3.263  15.132  0.9339 -0.1672 -0.4229
  825MPD2     H12191   1.609   3.368  15.430  0.5268 -1.1584  0.5382
  825MPD2    H112192   1.861   3.475  15.092 -2.4861 -1.0393 -3.2933
  825MPD2    H212193   1.747   3.066  15.166 -0.1422  1.4903 -2.2147
  825MPD2    H312194   1.869   3.227  15.040  2.9062 -0.6801  0.7118
  825MPD2     N12195   1.746   3.576  15.289  0.1552  0.3325  0.1909
  825MPD2    H512196   1.793   3.635  15.221  1.0493  0.6616  1.0890
  825MPD2    N112197   1.589   3.096  15.362 -0.4388  0.0079 -0.2109
  825MPD2    H712198   1.600   3.003  15.322 -2.0194  0.3642 -1.4710
  826MPD2     C12199   1.348   3.066  14.149 -0.3073  0.2243  0.4298
  826MPD2    C112200   1.277   3.066  14.032 -0.1445 -0.4337 -0.2754
  826MPD2    C212201   1.171   3.160  14.013  0.1625  0.8523  0.2215
  826MPD2    C312202   1.154   3.254  14.114 -0.7733  0.3464 -0.1082
  826MPD2    C412203   1.239   3.258  14.219  1.0612  0.1319  0.2071
  826MPD2    C512204   1.333   3.163  14.243 -0.2318  0.8125 -0.2144
  826MPD2     H12205   1.109   3.166  13.924  0.7888  1.2613 -0.1871
  826MPD2    H112206   1.226   3.333  14.297  1.9984 -1.0479  1.4931
  826MPD2    H212207   1.434   3.001  14.155 -0.4945  0.0319  1.0910
  826MPD2    H312208   1.398   3.172  14.329 -1.0866  2.1419  0.2895
  826MPD2     N12209   1.062   3.368  14.107 -0.4919  0.2270  0.3758
  826MPD2    H512210   1.080   3.447  14.167  2.2836  0.2959 -0.5425
  826MPD2    N112211   1.319   2.989  13.922 -0.3853 -0.4909 -0.4901
  826MPD2    H712212   1.407   2.942  13.939 -1.4813 -2.7439 -1.0302
  827MPD2     C12213   1.051   4.708  10.219 -0.2249 -0.6633 -0.3412
  827MPD2    C112214   0.987   4.645  10.321 -0.6661 -0.1232  0.1354
  827MPD2    C212215   0.848   4.648  10.325  0.5567  0.0022 -0.0400
  827MPD2    C312216   0.782   4.721  10.230  0.4067  0.1144 -0.2597
  827MPD2    C412217   0.851   0.044  10.131  0.2662  0.1697  0.2219
  827MPD2    C512218   0.986   0.034  10.122  1.0366  0.0356  0.0533
  827MPD2     H12219   0.785   4.590  10.390  1.1519 -1.7946 -1.0733
  827MPD2    H112220   0.802   0.100  10.052 -0.2924 -0.1879  0.3112
  827MPD2    H212221   1.159   4.700  10.214 -0.1907 -0.8285  0.7034
  827MPD2    H312222   1.030   0.083  10.036  0.9740  2.0350  1.1606
  827MPD2     N12223   0.644   4.729  10.233 -0.3832  0.2825  0.1294
  827MPD2    H512224   0.600   4.689  10.315 -1.1551 -1.0489 -0.9142
  827MPD2    N112225   1.065   4.576  10.419 -0.0017  0.3164  0.1957
  827MPD2    H712226   1.165   4.581  10.400 -0.1391 -1.2691 -1.0115
  828MPD2     C12227   4.602   4.213  12.857  0.1338  0.0805  0.2745
  828MPD2    C112228   4.497   4.205  12.764  0.0693 -1.1634  0.6229
  828MPD2    C212229   4.534   4.182  12.630  0.1441  0.2965 -1.0613
  828MPD2    C312230   4.664   4.152  12.601  0.0802 -0.6591  0.5450
  828MPD2    C412231   0.020   4.156  12.695  0.8922 -0.9403 -0.5129
  828MPD2    C512232   4.730   4.188  12.821 -0.0431 -0.3070 -0.1853
  828MPD2     H12233   4.458   4.181  12.553  0.5305  0.2330 -1.4418
  828MPD2    H112234   0.119   4.114  12.678  2.1881  1.7893  0.2941
  828MPD2    H212235   4.593   4.239  12.962 -0.6100 -3.3034  1.0410
  828MPD2    H312236   0.065   4.198  12.898 -1.8287 -0.7973  1.6326
  828MPD2     N12237   4.705   4.105  12.474 -0.1012  0.3931 -0.3088
  828MPD2    H512238   0.064   4.091  12.460  0.0727  2.3265 -1.0058
  828MPD2    N112239   4.361   4.225  12.797 -0.5883 -0.3203  0.4746
  828MPD2    H712240   4.296   4.222  12.719 -1.8707  0.9821  1.4884
  829MPD2     C12241   3.775   4.299  12.214  0.3103 -0.1372 -0.4161
  829MPD2    C112242   3.686   4.310  12.323  0.2140 -0.4408 -0.1503
  829MPD2    C212243   3.727   4.282  12.453  0.2037 -0.0590 -0.4033
  829MPD2    C312244   3.859   4.245  12.476 -0.6991 -0.3135 -0.0337
  829MPD2    C412245   3.945   4.233  12.368  0.8097  0.1183 -0.3101
  829MPD2    C512246   3.906   4.266  12.244 -0.7068  0.0545  0.5789
  829MPD2     H12247   3.659   4.295  12.537 -0.4181 -0.2054 -0.8788
  829MPD2    H112248   4.051   4.215  12.382  0.8400  0.8536  0.4226
  829MPD2    H212249   3.747   4.324  12.113 -1.2862 -0.7127 -0.1095
  829MPD2    H312250   3.978   4.272  12.163 -1.9147  2.1387 -0.3323
  829MPD2     N12251   3.925   4.234  12.595  0.2663 -0.1079 -0.3987
  829MPD2    H512252   4.020   4.201  12.586  0.5373  0.3395  0.7828
  829MPD2    N112253   3.559   4.359  12.294 -0.4594 -0.3731  0.3457
  829MPD2    H712254   3.544   4.388  12.198  1.6913 -2.2186 -0.5270
  830MPD2     C12255   0.573   2.039  16.003 -0.0200 -0.2301  0.6531
  830MPD2    C112256   0.513   2.031  15.880 -0.3086 -0.7127 -0.0826
  830MPD2    C212257   0.566   2.089  15.767  0.8501 -0.0253 -0.0632
  830MPD2    C312258   0.685   2.164  15.774  1.1702 -0.1350  0.4463
  830MPD2    C412259   0.732   2.187  15.905  0.4035 -0.4631  0.1472
  830MPD2    C512260   0.683   2.124  16.011  0.1480 -0.1652 -0.2310
  830MPD2     H12261   0.522   2.055  15.674  1.2629 -0.5172 -0.0841
  830MPD2    H112262   0.823   2.245  15.918  0.7435 -1.1777  0.9519
  830MPD2    H212263   0.534   1.986  16.088 -0.8693 -2.2952 -1.0213
  830MPD2    H312264   0.739   2.132  16.104  1.4814 -2.1438 -0.8598
  830MPD2     N12265   0.743   2.237  15.668 -0.6736  0.2001 -0.4116
  830MPD2    H512266   0.829   2.285  15.693 -0.7476  0.2230 -0.2069
  830MPD2    N112267   0.400   1.948  15.879  0.0505  0.2183  0.7466
  830MPD2    H712268   0.357   1.934  15.970 -0.8883  1.0368  0.4329
  831MPD2     C12269   0.329   4.119  16.208  0.2450  0.3545  0.2172
  831MPD2    C112270   0.362   3.996  16.164  0.1388 -0.2103 -0.0328
  831MPD2    C212271   0.259   3.897  16.165 -0.1243  0.5555  0.1092
  831MPD2    C312272   0.130   3.928  16.214  0.6895  0.1110  0.0423
  831MPD2    C412273   0.109   4.053  16.267  0.3934  0.2631 -1.2624
  831MPD2    C512274   0.210   4.141  16.269  0.4991  0.6067 -0.6370
  831MPD2     H12275   0.272   3.794  16.134  1.1349  0.3797  1.2464
  831MPD2    H112276   0.010   4.073  16.305  0.6616  1.6398 -1.3153
  831MPD2    H212277   0.401   4.199  16.209  1.5711 -0.8293  0.4398
  831MPD2    H312278   0.198   4.245  16.296 -2.5529  0.0830  0.0461
  831MPD2     N12279   0.021   3.833  16.225 -0.2313 -0.0872 -0.1342
  831MPD2    H512280   4.671   3.871  16.251 -0.2314 -0.7437  0.8129
  831MPD2    N112281   0.492   3.986  16.112 -0.2256 -0.7134 -0.0348
  831MPD2    H712282   0.550   4.070  16.113 -1.6305  0.2496  1.1881
  832MPD2     C12283   3.216   0.331  17.321  0.2362  0.4586  0.2474
  832MPD2    C112284   3.245   0.435  17.234  0.0589  0.2100  0.2455
  832MPD2    C212285   3.238   0.414  17.098  0.2648 -1.1698  0.5927
  832MPD2    C312286   3.183   0.301  17.042  0.0352 -0.4409  0.0359
  832MPD2    C412287   3.150   0.206  17.132  0.2052  0.0647  0.5022
  832MPD2    C512288   3.174   0.214  17.269  0.7404 -0.7430  0.6000
  832MPD2     H12289   3.283   0.491  17.036  1.5634 -1.4888  1.1404
  832MPD2    H112290   3.106   0.115  17.094  0.7414 -0.0608  0.1876
  832MPD2    H212291   3.232   0.331  17.428  0.1712  2.3940  0.2464
  832MPD2    H312292   3.145   0.131  17.332 -0.8217  0.0472  0.9185
  832MPD2     N12293   3.151   0.278  16.909 -0.0689 -0.2492  0.1513
  832MPD2    H512294   3.111   0.191  16.875 -0.6650 -0.0822  0.4372
  832MPD2    N112295   3.297   0.557  17.284  0.8451  0.2626  0.1838
  832MPD2    H712296   3.333   0.623  17.216  2.9196 -0.8597  0.1946
  833MPD2     C12297   0.742   2.084  12.519  0.3779  0.0748  0.1750
  833MPD2    C112298   0.613   2.043  12.492 -0.2778  0.0346  0.1115
  833MPD2    C212299   0.582   1.949  12.394  0.8417 -0.3829  0.4837
  833MPD2    C312300   0.683   1.903  12.309 -0.6053  0.8178 -0.5173
  833MPD2    C412301   0.815   1.946  12.339  0.3944  0.3719  0.3045
  833MPD2    C512302   0.842   2.032  12.442  0.3012  0.3324 -0.0702
  833MPD2     H12303   0.481   1.921  12.366  1.6013 -2.9738  0.3285
  833MPD2    H112304   0.899   1.917  12.277 -0.6941 -2.4329  0.1486
  833MPD2    H212305   0.758   2.160  12.595 -1.1778 -0.3218  0.8928
  833MPD2    H312306   0.942   2.071  12.458 -0.7147  1.7018  2.9276
  833MPD2     N12307   0.644   1.824  12.193 -0.3670 -0.6663 -0.2061
  833MPD2    H512308   0.548   1.796  12.181 -0.5154  0.0842 -0.7992
  833MPD2    N112309   0.513   2.100  12.574 -0.0330  0.3987 -0.6115
  833MPD2    H712310   0.535   2.187  12.622  2.1482  1.1479 -3.0054
  834MPD2     C12311   0.600   1.185  11.350  0.6635 -0.5486 -0.3236
  834MPD2    C112312   0.533   1.293  11.298  0.4292 -0.0419 -0.0487
  834MPD2    C212313   0.524   1.406  11.374  0.9812 -0.3054 -0.4127
  834MPD2    C312314   0.596   1.416  11.492  0.0723  0.0203 -0.7686
  834MPD2    C412315   0.658   1.307  11.539  0.1768  0.0302 -0.2463
  834MPD2    C512316   0.660   1.186  11.471  0.8413 -0.5150 -0.0699
  834MPD2     H12317   0.480   1.499  11.339  1.7537 -0.4496 -1.7926
  834MPD2    H112318   0.716   1.297  11.630  0.2919 -0.3651 -0.3607
  834MPD2    H212319   0.617   1.092  11.297 -1.4236 -0.6996 -0.7342
  834MPD2    H312320   0.728   1.109  11.504  0.7211 -0.7292 -0.3215
  834MPD2     N12321   0.589   1.534  11.570  0.7673  0.1715 -0.6778
  834MPD2    H512322   0.504   1.589  11.566 -0.0543 -0.8377  2.4331
  834MPD2    N112323   0.483   1.281  11.167  0.5843 -0.3734 -0.3456
  834MPD2    H712324   0.467   1.185  11.139 -1.5895  0.2749 -1.2748
  835MPD2     C12325   0.467   0.136  11.881 -0.2549 -0.5071  0.8787
  835MPD2    C112326   0.467   0.023  11.807  0.7376  0.6684 -0.0865
  835MPD2    C212327   0.557   4.667  11.839 -0.1886 -0.0263  0.4422
  835MPD2    C312328   0.619   4.674  11.961  0.5720  0.5869  0.5518
  835MPD2    C412329   0.592   0.036  12.049  0.1977 -0.3695  0.3603
  835MPD2    C512330   0.514   0.140  12.007 -0.4409  0.5142 -0.5193
  835MPD2     H12331   0.555   4.575  11.780  0.8211 -1.0639  2.0218
  835MPD2    H112332   0.636   0.038  12.147  0.8938 -0.9333  0.0574
  835MPD2    H212333   0.407   0.226  11.864 -1.0890 -1.6962 -2.4184
  835MPD2    H312334   0.503   0.229  12.068  0.4391 -0.5472  1.2116
  835MPD2     N12335   0.700   4.570  12.018 -1.0224  0.2945  0.3486
  835MPD2    H512336   0.709   4.570  12.119 -1.2998  0.1836  0.3737
  835MPD2    N112337   0.371   0.002  11.707 -0.0668  0.0029 -0.6779
  835MPD2    H712338   0.301   0.075  11.699 -1.7509 -1.6133 -0.7890
  836MPD2     C12339   0.086   4.236  11.901 -0.3336  0.0454 -0.8034
  836MPD2    C112340   0.167   4.249  12.015 -0.2378 -0.0496  0.1031
  836MPD2    C212341   0.113   4.289  12.132 -0.2077  0.5912 -0.3232
  836MPD2    C312342   4.721   4.320  12.139  0.6223  0.2667 -0.2568
  836MPD2    C412343   4.640   4.309  12.027  0.5014  0.2420 -0.8157
  836MPD2    C512344   4.692   4.260  11.908  0.5557  0.5254 -0.5114
  836MPD2     H12345   0.174   4.290  12.221  1.5780 -1.5107 -1.5227
  836MPD2    H112346   4.534   4.331  12.023  0.3205 -0.4341  0.5532
  836MPD2    H212347   0.130   4.200  11.809 -2.0933 -2.0885 -0.7837
  836MPD2    H312348   4.630   4.243  11.820 -0.4788 -1.0576  0.5253
  836MPD2     N12349   4.655   4.365  12.259  0.4206  0.3034  1.3412
  836MPD2    H512350   4.554   4.357  12.264  0.2018  0.6179 -2.9334
  836MPD2    N112351   0.308   4.227  11.993  0.0886 -1.0031 -0.2398
  836MPD2    H712352   0.345   4.215  11.899  1.3502  1.6159 -0.0922
  837MPD2     C12353   3.346   4.114  10.641  0.2787 -0.4909 -0.0277
  837MPD2    C112354   3.210   4.114  10.628  0.0825 -0.5480  0.2231
  837MPD2    C212355   3.143   4.231  10.657  0.2908 -0.5140 -0.5617
  837MPD2    C312356   3.209   4.343  10.701 -0.2451  0.0135  1.1528
  837MPD2    C412357   3.345   4.344  10.722 -0.1399 -0.1858 -0.1137
  837MPD2    C512358   3.411   4.223  10.704 -0.2435  0.6344 -0.7496
  837MPD2     H12359   3.038   4.226  10.631 -0.1044  3.3323  0.2801
  837MPD2    H112360   3.400   4.429  10.761 -2.0979 -0.4972  3.3277
  837MPD2    H212361   3.405   4.026  10.617  0.7562 -0.0917 -0.3179
  837MPD2    H312362   3.519   4.214  10.705 -0.4318 -1.7611 -0.9029
  837MPD2     N12363   3.129   4.457  10.706  0.7682  0.0078 -0.4966
  837MPD2    H512364   3.031   4.436  10.693  0.3509  0.3090  2.0398
  837MPD2    N112365   3.142   4.010  10.552  0.1854 -0.0925 -0.2901
  837MPD2    H712366   3.047   4.019  10.519 -0.0586  0.5135  0.5711
  838MPD2     C12367   1.739   2.836  12.354 -0.3423  0.0807  0.5657
  838MPD2    C112368   1.746   2.698  12.372 -0.3147  0.0656  0.4732
  838MPD2    C212369   1.647   2.636  12.440  0.1457  0.0450  0.3443
  838MPD2    C312370   1.523   2.695  12.471  0.0936  0.8923  0.2289
  838MPD2    C412371   1.514   2.831  12.442 -0.3279  0.0367 -0.1608
  838MPD2    C512372   1.617   2.897  12.384  0.2262  0.5410 -0.3199
  838MPD2     H12373   1.649   2.529  12.457  0.0276  0.0126  0.1470
  838MPD2    H112374   1.424   2.887  12.462 -0.4049  0.2760 -1.1803
  838MPD2    H212375   1.818   2.898  12.315 -0.1242 -1.2850 -1.1450
  838MPD2    H312376   1.601   3.003  12.367  2.5036  0.8972 -0.2627
  838MPD2     N12377   1.423   2.625  12.539  0.0547  0.3154 -0.3071
  838MPD2    H512378   1.448   2.532  12.570  1.9092  1.0081  0.3091
  838MPD2    N112379   1.857   2.623  12.344 -0.0566  0.9617  0.2658
  838MPD2    H712380   1.845   2.527  12.376 -1.5643  0.0904 -2.8546
  839MPD2     C12381   1.584   1.906  12.189 -0.4224  0.2092  0.4361
  839MPD2    C112382   1.614   1.971  12.069  0.3045 -0.0094  0.0633
  839MPD2    C212383   1.729   2.050  12.065 -0.2956 -0.1176 -1.0400
  839MPD2    C312384   1.811   2.064  12.175 -0.0709  0.7004 -0.5680
  839MPD2    C412385   1.786   1.989  12.287  0.0314 -0.5237 -0.6619
  839MPD2    C512386   1.664   1.915  12.297 -0.2286 -0.7755  0.1345
  839MPD2     H12387   1.753   2.101  11.972 -2.9549  0.8059 -1.2388
  839MPD2    H112388   1.860   1.983  12.366 -1.0734 -0.1798  0.3995
  839MPD2    H212389   1.494   1.846  12.200 -0.8703  0.7834 -0.0575
  839MPD2    H312390   1.642   1.850  12.381  0.5898  0.5773  1.3963
  839MPD2     N12391   1.929   2.144  12.168 -0.0243 -0.0308  0.1764
  839MPD2    H512392   1.984   2.152  12.253  0.3054 -0.3322 -0.0123
  839MPD2    N112393   1.535   1.964  11.950 -0.7490 -0.2872 -0.3893
  839MPD2    H712394   1.575   2.001  11.865 -1.0154 -0.7355 -0.7103
  840MPD2     C12395   1.664   4.692  10.451 -0.3862  0.2463  0.1697
  840MPD2    C112396   1.641   4.654  10.582  0.1432  0.0884 -0.3456
  840MPD2    C212397   1.743   4.669  10.678 -0.2179  0.1557  0.2236
  840MPD2    C312398   1.860   4.733  10.637  0.1995  0.0417  0.5541
  840MPD2    C412399   1.885   0.032  10.504 -0.4632  0.6342  0.1541
  840MPD2    C512400   1.774   0.029  10.419  0.2950  0.0486 -0.0637
  840MPD2     H12401   1.740   4.628  10.778 -0.2193 -0.1681  0.0913
  840MPD2    H112402   1.976   0.081  10.472 -0.5416  0.9871  0.4664
  840MPD2    H212403   1.592   4.679  10.371 -0.7215 -0.3470  0.5674
  840MPD2    H312404   1.784   0.063  10.316 -0.7096 -2.6296 -1.0519
  840MPD2     N12405   1.971   0.020  10.720 -0.0102  0.1100 -0.1931
  840MPD2    H512406   2.039   0.087  10.684 -2.4074  2.7206  0.1231
  840MPD2    N112407   1.523   4.575  10.606 -0.4903  0.1785 -0.2564
  840MPD2    H712408   1.459   4.563  10.527  1.3570  0.0441 -1.7499
  841MPD2     C12409   1.279   0.354  14.865 -0.1642 -0.1041 -0.3116
  841MPD2    C112410   1.316   0.240  14.806 -0.7202  0.0330  0.0356
  841MPD2    C212411   1.434   0.179  14.841  0.0239  0.5155  0.3847
  841MPD2    C312412   1.519   0.226  14.937 -0.5099  0.5272  0.8356
  841MPD2    C412413   1.475   0.340  15.001 -0.2219  0.0653 -0.3699
  841MPD2    C512414   1.357   0.408  14.965 -0.2708  0.3122  0.1952
  841MPD2     H12415   1.470   0.089  14.793 -1.0788 -0.1955  0.8967
  841MPD2    H112416   1.523   0.384  15.088 -1.3267 -2.2364  1.3963
  841MPD2    H212417   1.187   0.397  14.827  0.2049  0.3945 -0.6555
  841MPD2    H312418   1.328   0.496  15.021 -0.5925 -0.2046  0.8429
  841MPD2     N12419   1.640   0.150  14.966 -0.2184  0.5887  0.5026
  841MPD2    H512420   1.664   0.071  14.908 -0.8562  0.9455 -0.2546
  841MPD2    N112421   1.242   0.179  14.709  0.4395  0.3695  0.5310
  841MPD2    H712422   1.278   0.093  14.668 -0.4749 -0.0338  0.5683
  842MPD2     C12423   2.682   0.437  16.766 -0.2770 -0.0700  0.1447
  842MPD2    C112424   2.567   0.364  16.763 -0.0470  0.8338  0.2512
  842MPD2    C212425   2.535   0.272  16.864  0.1620 -0.1990 -0.0361
  842MPD2    C312426   2.626   0.248  16.966  0.1121 -0.5771 -0.3194
  842MPD2    C412427   2.730   0.335  16.975  0.3773  0.5794  0.7602
  842MPD2    C512428   2.762   0.422  16.878  0.4415  0.2881 -0.2513
  842MPD2     H12429   2.458   0.197  16.852  1.4598 -1.4753 -0.4534
  842MPD2    H112430   2.792   0.332  17.064  4.1805  1.6244 -1.8615
  842MPD2    H212431   2.704   0.521  16.701 -0.4654 -0.5604 -0.5526
  842MPD2    H312432   2.844   0.489  16.901  1.0084 -0.2714 -0.6449
  842MPD2     N12433   2.606   0.156  17.073  0.4466  0.1859 -0.2305
  842MPD2    H512434   2.667   0.157  17.155  1.8423  0.4845 -1.2781
  842MPD2    N112435   2.473   0.395  16.661  0.5352 -0.1055  0.5357
  842MPD2    H712436   2.493   0.477  16.604 -0.1826  0.8328  1.6554
  843MPD2     C12437   4.477   1.610  17.612 -0.6321  0.5876 -0.3411
  843MPD2    C112438   4.432   1.512  17.694  0.1065 -0.3373  0.5096
  843MPD2    C212439   4.448   1.516   0.073  0.3693 -0.0234  0.6609
  843MPD2    C312440   4.491   1.634   0.126 -0.2301  0.8208 -0.1358
  843MPD2    C412441   4.537   1.732   0.043 -0.4562 -0.0247 -0.4945
  843MPD2    C512442   4.532   1.724  17.663  0.0127 -0.4963 -0.2975
  843MPD2     H12443   4.410   1.433   0.131  0.5245 -1.1042 -0.7773
  843MPD2    H112444   4.572   1.826   0.083  1.0742 -1.5188  1.6965
  843MPD2    H212445   4.459   1.594  17.506 -0.0733  1.1984 -0.5303
  843MPD2    H312446   4.567   1.807  17.602 -0.2903  1.3918  2.0621
  843MPD2     N12447   4.507   1.666   0.267 -0.1776  0.0570  0.5277
  843MPD2    H512448   4.532   1.764   0.279 -1.1762  0.4219 -0.3328
  843MPD2    N112449   4.386   1.401  17.628 -0.0897 -0.2832  0.2111
  843MPD2    H712450   4.356   1.418  17.533  3.4362 -0.8907 -1.0156
  844MPD2     C12451   3.283   4.714  16.453 -1.2013 -0.1549 -0.0952
  844MPD2    C112452   3.283   0.083  16.357 -0.7280  0.8373  0.1308
  844MPD2    C212453   3.378   0.181  16.375 -0.2100  0.5395 -0.2690
  844MPD2    C312454   3.468   0.182  16.479  0.1938  0.0206 -0.8474
  844MPD2    C412455   3.483   0.067  16.555 -0.4376 -0.0622  0.4593
  844MPD2    C512456   3.380   4.711  16.549  0.2895 -0.3106  0.1412
  844MPD2     H12457   3.383   0.272  16.316  0.5129  0.4940 -0.2837
  844MPD2    H112458   3.548   0.061  16.641  1.6359 -0.9270 -1.1568
  844MPD2    H212459   3.216   4.629  16.453 -0.4754 -0.7254 -2.0464
  844MPD2    H312460   3.375   4.631  16.621 -0.7992  0.5251  0.9772
  844MPD2     N12461   3.548   0.303  16.503 -0.2385  0.3469 -0.4788
  844MPD2    H512462   3.543   0.381  16.438  0.6138 -0.2334 -1.2428
  844MPD2    N112463   3.200   0.095  16.241 -0.1287 -0.1414  0.0776
  844MPD2    H712464   3.220   0.180  16.188  0.1829 -0.7097 -0.7074
  845MPD2     C12465   3.363   1.174  16.677  0.1217  0.3062  0.1392
  845MPD2    C112466   3.341   1.060  16.752  0.0401 -0.6228 -0.3330
  845MPD2    C212467   3.383   0.934  16.708  0.5314  0.3559 -0.6576
  845MPD2    C312468   3.469   0.930  16.597  0.2622 -0.1140 -0.4298
  845MPD2    C412469   3.504   1.048  16.535 -0.7345 -0.3640 -0.4158
  845MPD2    C512470   3.438   1.166  16.568  0.5008  0.3798 -0.3508
  845MPD2     H12471   3.363   0.855  16.780 -0.3098  1.8354  0.7142
  845MPD2    H112472   3.558   1.049  16.442 -1.9930 -0.0358 -1.1529
  845MPD2    H212473   3.316   1.268  16.702 -1.0413  0.2366 -1.8309
  845MPD2    H312474   3.448   1.249  16.500 -4.5194  1.2035 -0.1445
  845MPD2     N12475   3.541   0.810  16.589 -0.0257 -0.4087  0.7785
  845MPD2    H512476   3.498   0.728  16.631  1.3671 -0.4289  2.1610
  845MPD2    N112477   3.275   1.085  16.878 -0.0422  0.6330 -0.7554
  845MPD2    H712478   3.288   1.175  16.922 -0.5069  1.4075 -2.2285
  846MPD2     C12479   0.063   1.155  13.842  0.0781  0.2701 -0.0831
  846MPD2    C112480   4.739   1.281  13.866 -0.4222 -0.2725 -0.8095
  846MPD2    C212481   4.735   1.323  14.004 -0.1314  0.5609  0.0131
  846MPD2    C312482   0.070   1.265  14.098 -0.4000  0.0231  0.6717
  846MPD2    C412483   0.152   1.157  14.064  0.9538  0.8066  0.3592
  846MPD2    C512484   0.135   1.095  13.945 -0.1738 -0.1713  0.6360
  846MPD2     H12485   4.680   1.416  14.019 -1.7288 -0.6185  1.4362
  846MPD2    H112486   0.208   1.103  14.139  1.0937  1.0568  0.4361
  846MPD2    H212487   0.071   1.114  13.742 -0.3027  1.8519 -0.7585
  846MPD2    H312488   0.190   1.003  13.932  0.7549  0.5877 -0.9208
  846MPD2     N12489   0.072   1.326  14.230  0.0220 -0.3769 -0.2195
  846MPD2    H512490   0.009   1.405  14.234  0.6695  0.3018 -2.9251
  846MPD2    N112491   4.678   1.373  13.773 -0.0582  0.6496  0.4326
  846MPD2    H712492   4.637   1.460  13.806 -1.1435  0.1965  0.2974
  847MPD2     C12493   0.326   2.384  14.342 -0.5186 -0.4798  0.3321
  847MPD2    C112494   0.405   2.471  14.416  0.0888  0.4308 -0.1234
  847MPD2    C212495   0.524   2.435  14.474  0.2364 -0.3769 -0.0634
  847MPD2    C312496   0.567   2.306  14.473 -0.0117  0.9765 -0.6956
  847MPD2    C412497   0.479   2.215  14.412  0.0201 -0.1869 -0.4187
  847MPD2    C512498   0.363   2.254  14.348 -0.7016 -0.0859 -0.4337
  847MPD2     H12499   0.592   2.507  14.518 -0.0009 -1.0679  1.4198
  847MPD2    H112500   0.505   2.110  14.399 -0.9335 -0.2730 -1.6234
  847MPD2    H212501   0.229   2.405  14.299 -0.7830 -2.5310 -0.0823
  847MPD2    H312502   0.313   2.173  14.296 -0.4737  0.1324 -0.9967
  847MPD2     N12503   0.678   2.269  14.553 -0.6179  0.6302  0.1469
  847MPD2    H512504   0.730   2.345  14.595 -2.3915  0.7457  2.1595
  847MPD2    N112505   0.381   2.608  14.429 -0.3208  0.4405  0.3295
  847MPD2    H712506   0.463   2.655  14.468  1.2144 -1.4646 -0.6132
  848MPD2     C12507   2.710   0.668  16.342 -0.5052  0.4080 -0.8569
  848MPD2    C112508   2.840   0.687  16.395 -0.1511 -0.1333  0.0866
  848MPD2    C212509   2.889   0.815  16.409 -0.5225  0.3442 -0.9862
  848MPD2    C312510   2.820   0.927  16.362 -0.0358 -0.2474 -0.1828
  848MPD2    C412511   2.693   0.906  16.314 -0.2160 -0.1952  0.7015
  848MPD2    C512512   2.641   0.778  16.314 -0.1149 -0.0568  0.1337
  848MPD2     H12513   2.997   0.819  16.425 -0.6470  0.5586 -0.1878
  848MPD2    H112514   2.635   0.995  16.293  0.2651 -0.1561 -0.4848
  848MPD2    H212515   2.665   0.570  16.329 -1.5530  0.9356 -1.2217
  848MPD2    H312516   2.541   0.759  16.276  1.0913 -1.6932 -2.2190
  848MPD2     N12517   2.869   1.060  16.374  0.3004  0.4398  0.4500
  848MPD2    H512518   2.829   1.135  16.318  3.0712  1.7642  0.2504
  848MPD2    N112519   2.924   0.578  16.435 -0.6097 -0.5123  1.0546
  848MPD2    H712520   3.024   0.594  16.448 -0.4293  1.2821 -2.6263
  849MPD2     C12521   1.547   0.544  14.576 -0.0831  0.2402  0.2910
  849MPD2    C112522   1.661   0.516  14.506 -0.1447  0.3524 -0.1170
  849MPD2    C212523   1.776   0.483  14.580 -0.5349 -0.8276  0.1880
  849MPD2    C312524   1.781   0.501  14.723  0.1446 -0.4283 -0.2566
  849MPD2    C412525   1.666   0.546  14.788  0.0426 -0.1024  0.5162
  849MPD2    C512526   1.558   0.575  14.709 -0.5527  0.7331 -0.0469
  849MPD2     H12527   1.862   0.438  14.532 -0.0975 -0.1546  0.3420
  849MPD2    H112528   1.657   0.573  14.892  2.2703  0.8723  0.4630
  849MPD2    H212529   1.447   0.561  14.538 -0.7210 -0.5017  1.6456
  849MPD2    H312530   1.461   0.585  14.756  0.6949  1.4804  2.3153
  849MPD2     N12531   1.901   0.459  14.780  0.2316 -0.1922  0.5775
  849MPD2    H512532   1.965   0.406  14.721 -1.6090 -1.4520 -0.2883
  849MPD2    N112533   1.647   0.507  14.365 -0.1517  0.3345 -0.0572
  849MPD2    H712534   1.556   0.522  14.323 -0.3406 -2.8050 -0.7855
  850MPD2     C12535   0.848   3.159  14.840 -0.9918 -0.1259  0.2075
  850MPD2    C112536   0.845   3.277  14.916 -0.0015 -0.3713  0.0591
  850MPD2    C212537   0.972   3.322  14.961  0.1003  0.0998 -0.5512
  850MPD2    C312538   1.078   3.231  14.957 -0.1172 -0.8709 -0.5019
  850MPD2    C412539   1.074   3.115  14.890  0.1875 -0.5299  0.7155
  850MPD2    C512540   0.958   3.081  14.830 -0.5823 -0.4068 -0.7653
  850MPD2     H12541   0.989   3.416  15.012 -0.6021  0.5727 -1.1778
  850MPD2    H112542   1.158   3.048  14.885  1.1924  0.8988 -1.6396
  850MPD2    H212543   0.770   3.118  14.777  0.1356  0.2482 -1.4238
  850MPD2    H312544   0.969   3.005  14.754 -1.8228 -0.6111 -0.7279
  850MPD2     N12545   1.187   3.263  15.033  0.1090 -0.3334 -0.9850
  850MPD2    H512546   1.175   3.339  15.099 -1.4459 -0.0043 -1.6494
  850MPD2    N112547   0.720   3.342  14.926  0.4010 -0.6569  0.1104
  850MPD2    H712548   0.643   3.304  14.871  0.8172 -1.3185 -0.0114
  851MPD2     C12549   0.623   3.154  15.572 -0.3396  0.1474 -0.8697
  851MPD2    C112550   0.591   3.110  15.447  0.1814  0.2361  0.6989
  851MPD2    C212551   0.636   2.988  15.409 -0.0797 -0.8498  0.7121
  851MPD2    C312552   0.730   2.919  15.488 -0.3053 -0.6185 -0.8990
  851MPD2    C412553   0.760   2.965  15.610 -0.4591 -0.0507  0.2747
  851MPD2    C512554   0.705   3.083  15.652 -0.0600  0.2759 -0.5798
  851MPD2     H12555   0.609   2.933  15.320 -0.4730  0.2677  0.1383
  851MPD2    H112556   0.816   2.913  15.687  0.4863 -0.4474 -0.6778
  851MPD2    H212557   0.593   3.254  15.602 -1.9022  0.0421 -2.0920
  851MPD2    H312558   0.721   3.118  15.753  1.7248  1.1218 -1.1478
  851MPD2     N12559   0.780   2.791  15.449  0.5059 -0.2178  0.4658
  851MPD2    H512560   0.741   2.762  15.360 -1.0943  0.0568  1.0728
  851MPD2    N112561   0.528   3.204  15.359 -0.6321  0.3117 -0.3257
  851MPD2    H712562   0.518   3.300  15.392  0.7656  0.4173 -0.2181
  852MPD2     C12563   0.348   0.980  10.259 -0.1568  0.3928 -0.0557
  852MPD2    C112564   0.229   1.052  10.289 -0.9878 -0.7004  0.5027
  852MPD2    C212565   0.223   1.180  10.261  0.8189  0.5765  0.3208
  852MPD2    C312566   0.330   1.247  10.205 -0.0274 -0.4168  0.2676
  852MPD2    C412567   0.447   1.186  10.177 -0.6098  0.0974 -0.2319
  852MPD2    C512568   0.456   1.048  10.201  0.0682  0.1158 -1.0114
  852MPD2     H12569   0.132   1.235  10.283  0.6601  0.9752 -1.3925
  852MPD2    H112570   0.533   1.240  10.138  0.6204 -1.7574 -0.0803
  852MPD2    H212571   0.360   0.873  10.264  2.1964  0.6171 -1.1403
  852MPD2    H312572   0.550   0.998  10.183  0.8559  1.7855 -1.5533
  852MPD2     N12573   0.317   1.383  10.185  0.3335 -0.4232 -0.3651
  852MPD2    H512574   0.227   1.419  10.218  0.8835 -0.6595  1.4141
  852MPD2    N112575   0.117   1.000  10.356  0.2723 -0.4595  0.1448
  852MPD2    H712576   0.033   1.055  10.372  2.0989  2.0431  1.0203
  853MPD2     C12577   1.718   0.792  12.682 -0.5672 -0.1750  0.7868
  853MPD2    C112578   1.607   0.862  12.636  0.4118  0.4326 -0.6335
  853MPD2    C212579   1.569   0.844  12.507 -0.8265 -0.1134  0.1004
  853MPD2    C312580   1.645   0.768  12.419  0.4854 -0.2658 -0.1880
  853MPD2    C412581   1.768   0.717  12.463  0.2309 -0.2599  0.4427
  853MPD2    C512582   1.797   0.719  12.594 -0.4221  0.1430 -0.0913
  853MPD2     H12583   1.475   0.885  12.470  0.0677  0.9583 -1.0132
  853MPD2    H112584   1.835   0.668  12.393 -0.2088  0.4768 -0.4875
  853MPD2    H212585   1.752   0.803  12.784  3.7304  2.6202 -0.9297
  853MPD2    H312586   1.894   0.686  12.630 -0.1247  0.4682 -0.5870
  853MPD2     N12587   1.623   0.756  12.286 -0.6990 -0.1836  0.4302
  853MPD2    H512588   1.697   0.718  12.229 -1.0762  0.1410 -0.2768
  853MPD2    N112589   1.533   0.943  12.728 -0.0547  0.3623  0.1174
  853MPD2    H712590   1.554   0.936  12.827  1.8900 -1.3213 -0.4027
  854MPD2     C12591   2.924   1.082  12.703  0.1234  0.0675 -0.0412
  854MPD2    C112592   3.038   1.148  12.662  0.8587 -0.1878 -0.2891
  854MPD2    C212593   3.160   1.134  12.737 -0.4576 -0.2104  0.9030
  854MPD2    C312594   3.156   1.062  12.853 -0.2272 -0.4570 -0.2110
  854MPD2    C412595   3.040   0.998  12.890 -0.1139  0.1591  0.1406
  854MPD2    C512596   2.925   1.008  12.820 -0.2868 -0.3115  0.1157
  854MPD2     H12597   3.247   1.187  12.701  0.5649 -2.5677 -0.1531
  854MPD2    H112598   3.033   0.932  12.975  1.2393 -1.2277 -0.8281
  854MPD2    H212599   2.831   1.094  12.648  1.7330  0.0980 -2.7443
  854MPD2    H312600   2.839   0.951  12.852 -2.5626  2.0295 -1.8592
  854MPD2     N12601   3.265   1.049  12.942 -0.3562 -0.1852  0.1658
  854MPD2    H512602   3.251   0.976  13.012 -0.2613 -0.4845 -0.1285
  854MPD2    N112603   3.029   1.214  12.538 -0.5654  0.0095  0.0040
  854MPD2    H712604   2.944   1.213  12.483  0.6494 -0.1806 -1.8954
  855MPD2     C12605   3.857   1.227  13.785 -0.0190  0.1440 -0.6163
  855MPD2    C112606   3.860   1.100  13.743 -0.5122  0.7820 -0.0816
  855MPD2    C212607   3.835   1.073  13.612 -0.0575 -0.5271 -0.0638
  855MPD2    C312608   3.785   1.165  13.530  0.2451  0.6020 -0.1416
  855MPD2    C412609   3.779   1.299  13.575 -0.8419  0.2452 -0.1982
  855MPD2    C512610   3.817   1.333  13.703 -0.0193 -0.2462  0.0575
  855MPD2     H12611   3.856   0.972  13.578  0.1201 -0.5415  0.0900
  855MPD2    H112612   3.756   1.377  13.502  1.4550 -0.0763 -1.2630
  855MPD2    H212613   3.881   1.250  13.888 -0.3029  3.8904 -1.3997
  855MPD2    H312614   3.811   1.434  13.740 -0.4370 -1.1142  2.3663
  855MPD2     N12615   3.739   1.120  13.404 -0.2145 -0.1324  0.6569
  855MPD2    H512616   3.734   1.020  13.389 -0.4967 -0.1709  0.9859
  855MPD2    N112617   3.877   0.991  13.827  0.4440 -0.9396 -0.2489
  855MPD2    H712618   3.869   0.902  13.779 -0.2784 -2.0135  1.8748
  856MPD2     C12619   0.919   1.723  14.190  0.1395  0.4586  0.2427
  856MPD2    C112620   0.972   1.845  14.168 -0.2385  0.1046 -0.0371
  856MPD2    C212621   0.889   1.954  14.148 -0.8203  0.4171 -0.2254
  856MPD2    C312622   0.750   1.939  14.138 -0.1587  0.0851  0.2459
  856MPD2    C412623   0.702   1.811  14.139 -0.1294  0.3365  0.2095
  856MPD2    C512624   0.781   1.708  14.175 -0.1286 -0.3065 -0.0130
  856MPD2     H12625   0.941   2.048  14.129 -2.5438  1.2206 -1.0340
  856MPD2    H112626   0.598   1.780  14.135 -0.2439  0.8640 -0.8638
  856MPD2    H212627   0.979   1.636  14.214 -0.2697  0.2584  0.5423
  856MPD2    H312628   0.736   1.609  14.178  0.7302 -0.6723  0.8711
  856MPD2     N12629   0.673   2.055  14.103 -0.8337  0.1797  0.4909
  856MPD2    H512630   0.578   2.042  14.069 -0.3793 -0.6811 -0.4643
  856MPD2    N112631   1.108   1.875  14.159  0.2949 -0.8516  0.4162
  856MPD2    H712632   1.140   1.962  14.116 -2.4671  0.3032  0.7066
  857MPD2     C12633   2.254   3.872  13.271  0.1135  1.1491 -0.0037
  857MPD2    C112634   2.328   3.911  13.156 -0.1823 -0.0333  0.4567
  857MPD2    C212635   2.380   4.039  13.148  0.0302  0.6595  0.1603
  857MPD2    C312636   2.371   4.122  13.256 -0.3055 -0.2381  0.3608
  857MPD2    C412637   2.307   4.079  13.373 -0.5339 -0.4445 -0.8434
  857MPD2    C512638   2.254   3.951  13.381 -0.6767 -0.0904 -0.3294
  857MPD2     H12639   2.429   4.074  13.058  0.5109 -0.1675  0.1028
  857MPD2    H112640   2.290   4.147  13.456 -0.1845  0.0060 -1.1389
  857MPD2    H212641   2.210   3.773  13.269 -1.2881  1.8212 -1.7842
  857MPD2    H312642   2.209   3.922  13.476  0.8530  0.9193  0.7042
  857MPD2     N12643   2.433   4.248  13.240 -0.0660 -0.2198  0.4675
  857MPD2    H512644   2.477   4.270  13.151 -0.7786  2.4419  0.7546
  857MPD2    N112645   2.341   3.820  13.055  0.1780  0.9177  0.2198
  857MPD2    H712646   2.311   3.726  13.080 -1.8338  1.7158  0.7900
  858MPD2     C12647   3.639   3.143  16.407  0.3663  0.3703  0.6209
  858MPD2    C112648   3.625   3.007  16.429  0.1664  0.3816  0.4547
  858MPD2    C212649   3.542   2.962  16.531  0.3577  0.2155 -0.0796
  858MPD2    C312650   3.485   3.048  16.626 -0.0172 -0.0492  0.4316
  858MPD2    C412651   3.511   3.184  16.605 -0.0914 -0.7337  0.2293
  858MPD2    C512652   3.582   3.227  16.498 -0.4253  0.2206 -0.6028
  858MPD2     H12653   3.535   2.855  16.544  2.1356  0.3786  2.3099
  858MPD2    H112654   3.474   3.260  16.673 -0.5626 -1.8255  1.2019
  858MPD2    H212655   3.707   3.176  16.330  0.0983  0.0294  0.2402
  858MPD2    H312656   3.606   3.332  16.484 -0.8695  0.6892  2.2170
  858MPD2     N12657   3.416   3.009  16.740 -0.2364 -0.0828 -0.4925
  858MPD2    H512658   3.372   3.073  16.806 -0.2277 -0.7128  0.1187
  858MPD2    N112659   3.695   2.906  16.359  0.8311 -0.4104 -0.6618
  858MPD2    H712660   3.679   2.811  16.390  0.4219  0.0510  0.5262
  859MPD2     C12661   2.530   0.042  15.798  0.6009  0.3823 -0.1576
  859MPD2    C112662   2.409   0.072  15.853 -0.7934 -0.3211 -0.1369
  859MPD2    C212663   2.340   4.709  15.912  0.2248 -0.2793  0.2588
  859MPD2    C312664   2.395   4.583  15.922  0.4851  0.2243 -0.5281
  859MPD2    C412665   2.513   4.559  15.850 -0.2552  0.8288  0.2237
  859MPD2    C512666   2.585   4.659  15.794 -0.1118 -0.2881  0.1306
  859MPD2     H12667   2.244   4.736  15.954 -0.4392 -1.7426 -0.3238
  859MPD2    H112668   2.548   4.457  15.836  1.6711  1.3450  1.3023
  859MPD2    H212669   2.588   0.122  15.754 -0.3923 -0.3625 -2.8091
  859MPD2    H312670   2.684   4.640  15.753 -0.1846  2.6588 -1.3974
  859MPD2     N12671   2.333   4.471  15.974 -0.0330 -0.1333  0.0901
  859MPD2    H512672   2.382   4.383  15.973  2.5924  1.3566 -0.9608
  859MPD2    N112673   2.356   0.205  15.839  0.3189 -0.1970  0.3973
  859MPD2    H712674   2.411   0.276  15.792 -0.1859  0.8456  1.3829
  860MPD2     C12675   4.571   0.704  12.121  0.6324 -0.3326  0.2337
  860MPD2    C112676   4.494   0.799  12.191 -0.1908  0.1383 -0.3903
  860MPD2    C212677   4.368   0.758  12.225 -0.1438 -0.3671 -0.1435
  860MPD2    C312678   4.317   0.634  12.188 -0.0571  0.3077 -0.1090
  860MPD2    C412679   4.387   0.542  12.114  0.1115  0.2970 -0.4871
  860MPD2    C512680   4.516   0.587  12.085  0.3469 -0.2490  0.4646
  860MPD2     H12681   4.301   0.816  12.289 -0.4216 -0.8608  0.0086
  860MPD2    H112682   4.346   0.452  12.072  0.0783 -0.2126  0.6316
  860MPD2    H212683   4.670   0.714  12.077  0.0746 -1.1871 -1.2107
  860MPD2    H312684   4.580   0.509  12.044  1.1001 -0.0909  1.3464
  860MPD2     N12685   4.189   0.597  12.243 -0.4622 -0.0241 -0.7994
  860MPD2    H512686   4.145   0.681  12.280  2.6514  1.4469 -0.5037
  860MPD2    N112687   4.534   0.929  12.223  0.1895 -0.6679  0.4618
  860MPD2    H712688   4.458   0.978  12.270 -0.9062 -1.9727  0.0201
  861MPD2     C12689   2.941   3.472  11.161 -0.3300 -0.4444 -0.2811
  861MPD2    C112690   2.849   3.474  11.261 -0.1295 -0.1718  0.6556
  861MPD2    C212691   2.726   3.532  11.237 -0.4674  0.4693  0.6647
  861MPD2    C312692   2.695   3.582  11.114 -1.1512 -0.3344 -0.9611
  861MPD2    C412693   2.784   3.568  11.012  0.0420  0.2849 -0.1391
  861MPD2    C512694   2.908   3.507  11.031 -0.1167 -1.0220  0.3980
  861MPD2     H12695   2.657   3.531  11.321 -0.7130 -0.7390  0.4479
  861MPD2    H112696   2.763   3.591  10.908 -0.7570  0.2031  0.0020
  861MPD2    H212697   3.040   3.428  11.166  0.3732  0.9544 -1.7299
  861MPD2    H312698   2.979   3.499  10.950 -1.6973  0.2339 -1.0935
  861MPD2     N12699   2.575   3.647  11.074  0.0629 -0.0483 -0.0687
  861MPD2    H512700   2.561   3.675  10.978  2.7190  0.9922 -0.1654
  861MPD2    N112701   2.872   3.418  11.390 -0.5929 -0.2411 -0.1470
  861MPD2    H712702   2.797   3.421  11.458  0.9410  0.5975  1.5255
  862MPD2     C12703   2.207   3.993  10.544  0.2407  0.9021 -0.1854
  862MPD2    C112704   2.236   3.872  10.607  0.2273  0.7283  0.1715
  862MPD2    C212705   2.220   3.761  10.530  0.5664  0.5299  1.0569
  862MPD2    C312706   2.174   3.770  10.401  0.5705  0.7808  0.1955
  862MPD2    C412707   2.131   3.892  10.343 -0.3451  0.5525  0.2860
  862MPD2    C512708   2.166   4.002  10.413  0.8425 -0.3991 -0.5394
  862MPD2     H12709   2.235   3.663  10.573 -2.2222 -0.7716 -0.9770
  862MPD2    H112710   2.095   3.897  10.241 -1.5399 -1.0363  0.6300
  862MPD2    H212711   2.224   4.086  10.597  0.0237  1.1674 -0.5790
  862MPD2    H312712   2.147   4.099  10.369  2.7658  0.0524 -0.3735
  862MPD2     N12713   2.159   3.653  10.328  0.0827 -0.5373 -0.2085
  862MPD2    H512714   2.096   3.651  10.248 -1.9181  2.0113  1.3067
  862MPD2    N112715   2.268   3.857  10.737  0.6343 -0.7377  0.6533
  862MPD2    H712716   2.262   3.764  10.776 -2.5419 -0.8877 -0.2216
  863MPD2     C12717   1.140   1.624  17.276  0.3041 -0.0951 -0.9124
  863MPD2    C112718   1.238   1.710  17.231  0.2373  0.1017 -0.6210
  863MPD2    C212719   1.366   1.669  17.251 -0.4940  0.8387  0.1472
  863MPD2    C312720   1.401   1.557  17.326 -0.1467 -0.4104 -0.3717
  863MPD2    C412721   1.305   1.472  17.361 -0.6842 -0.3396  0.1259
  863MPD2    C512722   1.177   1.508  17.349 -0.3197 -0.0623 -0.3678
  863MPD2     H12723   1.442   1.735  17.210 -0.3970  0.7653  0.2092
  863MPD2    H112724   1.336   1.385  17.418 -1.3277 -0.3144  0.5125
  863MPD2    H212725   1.035   1.650  17.265  0.5865  1.4767  0.0500
  863MPD2    H312726   1.098   1.450  17.398  1.2385  0.3261  2.6296
  863MPD2     N12727   1.539   1.518  17.339 -0.4439 -0.7922 -0.5551
  863MPD2    H512728   1.553   1.433  17.392 -0.2822  0.7811  1.9053
  863MPD2    N112729   1.198   1.824  17.160 -0.1768 -0.2633  0.3077
  863MPD2    H712730   1.103   1.825  17.124  0.0236 -0.1139 -0.2216
  864MPD2     C12731   2.159   3.253  16.918  0.1370 -0.5784 -0.0471
  864MPD2    C112732   2.255   3.161  16.886 -0.2948  0.0087  0.1931
  864MPD2    C212733   2.383   3.213  16.894 -0.2317  0.5047  0.1348
  864MPD2    C312734   2.420   3.347  16.916 -0.0288 -0.0097 -0.1763
  864MPD2    C412735   2.315   3.430  16.946  0.3257 -0.0026  0.2825
  864MPD2    C512736   2.189   3.380  16.951 -0.8346 -0.1924 -0.5665
  864MPD2     H12737   2.465   3.146  16.870 -1.3891 -0.5425 -0.8507
  864MPD2    H112738   2.323   3.538  16.955 -0.8390  0.0074  1.2603
  864MPD2    H212739   2.052   3.234  16.916  0.1962 -0.7266 -2.4015
  864MPD2    H312740   2.115   3.456  16.974 -0.1988  0.1045  0.5211
  864MPD2     N12741   2.549   3.402  16.890 -0.0129 -0.0493 -0.1047
  864MPD2    H512742   2.559   3.502  16.909  1.2480 -0.2530  0.3497
  864MPD2    N112743   2.218   3.031  16.872  0.1282 -0.3776  0.7058
  864MPD2    H712744   2.122   3.009  16.846  0.6716  0.2010 -1.8000
  865MPD2     C12745   3.199   3.784  16.470  0.2596 -0.7498 -0.6756
  865MPD2    C112746   3.086   3.707  16.494 -0.3603  0.2408 -0.5405
  865MPD2    C212747   3.004   3.736  16.602 -0.2189 -0.0298 -0.0288
  865MPD2    C312748   3.049   3.829  16.691 -0.0226  0.2593 -0.1459
  865MPD2    C412749   3.161   3.907  16.664  0.3743  0.2102 -0.2808
  865MPD2    C512750   3.239   3.888  16.549  0.7641  0.1582 -0.0285
  865MPD2     H12751   2.914   3.679  16.625 -0.3411 -0.3956 -1.4322
  865MPD2    H112752   3.193   3.988  16.728 -2.0614 -2.0399  3.8110
  865MPD2    H212753   3.256   3.767  16.380  0.9776 -0.0162 -0.3591
  865MPD2    H312754   3.334   3.936  16.527 -0.1334  2.7829  1.7786
  865MPD2     N12755   2.989   3.847  16.815 -0.4010 -0.1888  0.1678
  865MPD2    H512756   3.001   3.941  16.851 -0.0425 -1.2982  2.9658
  865MPD2    N112757   3.054   3.602  16.399 -0.9706  0.5543 -1.4171
  865MPD2    H712758   3.128   3.583  16.332 -1.9028  0.3444 -2.3830
  866MPD2     C12759   3.591   4.056  11.343  0.0115 -0.1462 -0.6779
  866MPD2    C112760   3.540   3.930  11.323 -0.5677 -0.8234 -0.2674
  866MPD2    C212761   3.405   3.905  11.339 -0.0029  0.1195 -0.3065
  866MPD2    C312762   3.316   4.008  11.368  1.0641 -0.5411 -0.3619
  866MPD2    C412763   3.366   4.139  11.385 -0.2906  0.1395 -0.1048
  866MPD2    C512764   3.505   4.160  11.380 -0.5072  0.0092 -0.3180
  866MPD2     H12765   3.359   3.809  11.318  1.8375 -0.2266 -2.7122
  866MPD2    H112766   3.306   4.228  11.401  1.5084  1.3558 -0.1055
  866MPD2    H212767   3.698   4.072  11.338  0.2292 -0.6781  2.3792
  866MPD2    H312768   3.559   4.254  11.388 -0.8172  0.1296  0.3502
  866MPD2     N12769   3.174   3.983  11.366 -0.3202  0.2414 -0.4672
  866MPD2    H512770   3.144   3.887  11.378  0.2424  0.0037 -0.9640
  866MPD2    N112771   3.616   3.823  11.277  0.2182  1.0330 -0.0095
  866MPD2    H712772   3.578   3.730  11.262  0.9471  0.8332 -0.6539
  867MPD2     C12773   1.847   2.728  17.490  0.8508  0.0102  0.2695
  867MPD2    C112774   1.724   2.773  17.529  0.4392  0.2553 -0.5666
  867MPD2    C212775   1.714   2.900  17.588  0.4994  0.1392  0.4219
  867MPD2    C312776   1.825   2.983  17.606 -0.1108  0.0820 -0.1766
  867MPD2    C412777   1.946   2.928  17.567  0.0276 -0.5116  0.1313
  867MPD2    C512778   1.959   2.803  17.507 -0.1433 -0.2911 -0.1344
  867MPD2     H12779   1.616   2.933  17.619  0.4117  1.4174 -1.2229
  867MPD2    H112780   2.037   2.987  17.570 -0.7428  0.7102 -0.8708
  867MPD2    H212781   1.862   2.633  17.440  1.0569 -0.8135  1.9102
  867MPD2    H312782   2.053   2.781  17.457  0.2450 -0.0836  0.4991
  867MPD2     N12783   1.818   3.124  17.640 -0.5698  0.1213 -0.4518
  867MPD2    H512784   1.903   3.179  17.632 -0.8012  1.0799  3.5955
  867MPD2    N112785   1.611   2.693  17.508 -0.0203 -0.5843  0.5561
  867MPD2    H712786   1.616   2.618  17.439 -2.0877  0.4073 -0.6640
  868MPD2     C12787   2.936   2.672  13.190  0.1528 -0.8182 -0.5405
  868MPD2    C112788   2.982   2.572  13.266 -1.0988  0.2374 -0.2182
  868MPD2    C212789   2.899   2.532  13.369 -0.1929 -0.2339  0.4134
  868MPD2    C312790   2.790   2.603  13.408  0.8523 -0.2905 -0.1768
  868MPD2    C412791   2.745   2.708  13.334  0.2170 -0.3534  0.2023
  868MPD2    C512792   2.817   2.741  13.220 -0.2411 -0.2799  0.3693
  868MPD2     H12793   2.915   2.432  13.409 -2.0588 -1.0276 -0.8367
  868MPD2    H112794   2.649   2.756  13.350 -0.0809 -1.8408  2.9190
  868MPD2    H212795   2.978   2.719  13.101  0.1498 -2.9028 -1.6280
  868MPD2    H312796   2.787   2.823  13.155  1.4018 -0.3912 -0.5112
  868MPD2     N12797   2.725   2.546  13.528  0.0659  0.0278  0.2083
  868MPD2    H512798   2.754   2.455  13.561  0.3064  0.0024 -0.0708
  868MPD2    N112799   3.091   2.496  13.214  0.1398  0.6504  0.0623
  868MPD2    H712800   3.115   2.508  13.116  1.1709 -0.2225  0.2072
  869MPD2     C12801   3.315   4.524   0.558  0.4993 -0.2148  0.3922
  869MPD2    C112802   3.340   4.568   0.431 -0.1583  0.0651  0.1600
  869MPD2    C212803   3.409   4.684   0.416  0.4271  0.0656  0.2827
  869MPD2    C312804   3.444   0.024   0.521  0.3034  0.4372  0.2437
  869MPD2    C412805   3.411   4.718   0.644  0.5389  0.4807  0.2476
  869MPD2    C512806   3.342   4.604   0.669 -0.2741  0.0545 -0.2910
  869MPD2     H12807   3.452   4.723   0.324 -0.8121  1.2538  0.2097
  869MPD2    H112808   3.442   0.037   0.729  2.1372 -2.2784  1.6190
  869MPD2    H212809   3.273   4.427   0.580 -0.9807  0.2970 -0.2324
  869MPD2    H312810   3.312   4.589   0.772  1.5756 -2.4621 -0.1091
  869MPD2     N12811   3.515   0.145   0.514  0.8514 -0.6099  0.2130
  869MPD2    H512812   3.528   0.201   0.598 -1.9801  0.5416 -0.1153
  869MPD2    N112813   3.299   4.488   0.327  0.3076 -0.5945 -0.1240
  869MPD2    H712814   3.249   4.404   0.353 -1.3952  0.0416 -1.3346
  870MPD2     C12815   4.418   3.560   1.223 -0.4256  0.1685 -0.2630
  870MPD2    C112816   4.294   3.542   1.170 -0.1023  0.3372  0.5229
  870MPD2    C212817   4.224   3.659   1.138  0.0808 -0.0097  0.1904
  870MPD2    C312818   4.268   3.783   1.171 -0.1042  0.1640 -0.0552
  870MPD2    C412819   4.397   3.793   1.224  0.3909 -0.2004  0.2087
  870MPD2    C512820   4.475   3.682   1.240 -0.2530 -0.6898  1.0476
  870MPD2     H12821   4.132   3.639   1.085  0.1644  0.5155 -0.1521
  870MPD2    H112822   4.435   3.894   1.241  0.8607 -0.3304 -0.0873
  870MPD2    H212823   4.478   3.473   1.245 -0.2858  0.5700  0.9447
  870MPD2    H312824   4.564   3.686   1.302  0.5811  3.2520 -0.4278
  870MPD2     N12825   4.179   3.889   1.152  0.4188  0.0294 -0.1275
  870MPD2    H512826   4.089   3.866   1.111  0.0755  1.8628 -0.3739
  870MPD2    N112827   4.254   3.408   1.149 -0.5902 -0.3314 -0.2180
  870MPD2    H712828   4.314   3.332   1.178 -0.9662 -0.0120  1.4027
  871MPD2     C12829   0.077   3.299  16.203  0.0437  0.4316 -0.3968
  871MPD2    C112830   0.098   3.240  16.327 -0.1033 -0.1940  0.8305
  871MPD2    C212831   0.156   3.117  16.337 -0.3450 -0.2122 -1.0281
  871MPD2    C312832   0.183   3.055  16.216  0.3677  0.4542 -0.5617
  871MPD2    C412833   0.164   3.112  16.092 -0.3727 -0.6054 -0.0666
  871MPD2    C512834   0.122   3.244  16.090 -0.2874 -0.5715  0.0855
  871MPD2     H12835   0.174   3.076  16.436  0.8053  0.6040 -0.8978
  871MPD2    H112836   0.194   3.063  15.999 -1.0815  1.9025 -1.6213
  871MPD2    H212837   0.024   3.394  16.202 -1.6658 -0.5069  1.3207
  871MPD2    H312838   0.093   3.287  15.995  0.0034 -0.5797 -0.0060
  871MPD2     N12839   0.217   2.914  16.215  0.3589  0.3744 -0.1449
  871MPD2    H512840   0.209   2.865  16.127  1.3686  1.1411 -0.6695
  871MPD2    N112841   0.062   3.326  16.434 -0.3802  0.2372  0.7068
  871MPD2    H712842   0.033   3.422  16.415 -0.5676  0.0407 -0.0163
  872MPD2     C12843   0.660   1.238  13.847 -0.5214 -0.5460 -0.1721
  872MPD2    C112844   0.752   1.189  13.941 -0.1457  0.0309 -0.4245
  872MPD2    C212845   0.703   1.167  14.073 -0.4968 -0.3011 -0.0659
  872MPD2    C312846   0.572   1.197  14.111 -0.6138  0.2217 -0.2766
  872MPD2    C412847   0.485   1.236  14.016 -0.3686  0.2468 -0.6204
  872MPD2    C512848   0.526   1.251  13.884  1.1623 -0.3346 -0.3029
  872MPD2     H12849   0.776   1.134  14.146  0.4779 -0.7099 -1.2257
  872MPD2    H112850   0.382   1.261  14.040 -0.4833 -0.9330  0.0840
  872MPD2    H212851   0.690   1.258  13.745 -1.2520 -1.0831 -0.4927
  872MPD2    H312852   0.452   1.275  13.808  0.5455  2.6299  1.2311
  872MPD2     N12853   0.533   1.188  14.246 -0.9286 -0.3224 -0.6660
  872MPD2    H512854   0.438   1.214  14.273 -1.3192 -0.1671 -2.2048
  872MPD2    N112855   0.886   1.178  13.892 -0.3913  0.1926 -0.1672
  872MPD2    H712856   0.908   1.202  13.796  1.3974  1.3325  0.5279
  873MPD2     C12857   1.755   0.890   0.576  0.0499  0.1773 -0.0267
  873MPD2    C112858   1.884   0.847   0.628  0.0141 -0.1171  0.8398
  873MPD2    C212859   1.968   0.786   0.533  0.5033 -0.2452 -0.6485
  873MPD2    C312860   1.925   0.758   0.402 -0.4018 -0.5794  0.2934
  873MPD2    C412861   1.804   0.803   0.362 -0.3353 -0.5494 -0.1810
  873MPD2    C512862   1.718   0.875   0.442 -0.3467  0.1914  0.3477
  873MPD2     H12863   2.062   0.750   0.574 -0.4327 -2.7112 -0.6389
  873MPD2    H112864   1.765   0.770   0.266  0.9412  1.3351 -1.3572
  873MPD2    H212865   1.679   0.939   0.637 -1.3814 -0.6668 -1.1233
  873MPD2    H312866   1.624   0.915   0.407 -1.4706 -2.7346 -0.0249
  873MPD2     N12867   1.997   0.672   0.317  0.2184  1.0742  0.6349
  873MPD2    H512868   1.962   0.643   0.227  3.8612 -1.8852  0.1553
  873MPD2    N112869   1.910   0.868   0.769  0.9431 -0.2985 -0.6684
  873MPD2    H712870   1.830   0.889   0.827  0.6141 -3.6185  0.0629
  874MPD2     C12871   2.190   1.131  16.466 -0.8721 -0.2614 -0.0357
  874MPD2    C112872   2.275   1.028  16.494  0.1982  0.0495  0.4597
  874MPD2    C212873   2.400   1.071  16.538  0.9772  0.4784 -0.3609
  874MPD2    C312874   2.437   1.202  16.560 -0.6006  0.0863 -0.5694
  874MPD2    C412875   2.345   1.295  16.538 -0.0674 -0.2750 -0.0096
  874MPD2    C512876   2.225   1.259  16.493  0.6491 -0.3325  0.1898
  874MPD2     H12877   2.480   1.002  16.563  1.2659  1.2054  0.7313
  874MPD2    H112878   2.363   1.401  16.553  0.9420 -0.3343 -0.8289
  874MPD2    H212879   2.092   1.114  16.425 -0.9300 -0.3761  0.1539
  874MPD2    H312880   2.153   1.335  16.465  1.9410  0.7562 -0.2166
  874MPD2     N12881   2.573   1.224  16.586  0.3281 -0.5908  0.1106
  874MPD2    H512882   2.632   1.143  16.569  1.4150 -0.1932  1.9791
  874MPD2    N112883   2.232   0.896  16.465 -0.6620 -0.3144 -0.2370
  874MPD2    H712884   2.143   0.894  16.416 -1.0648  0.0584  0.4767
  875MPD2     C12885   3.364   4.099  14.538  0.2833  0.0460  0.3507
  875MPD2    C112886   3.258   4.180  14.565  0.5888 -0.3224  0.8157
  875MPD2    C212887   3.271   4.262  14.672 -0.0063  0.1930  0.6223
  875MPD2    C312888   3.373   4.265  14.759  0.0841  0.2949  0.3299
  875MPD2    C412889   3.472   4.168  14.739 -0.8544  0.0618  0.5433
  875MPD2    C512890   3.476   4.098  14.618  0.2447  0.1070  0.0656
  875MPD2     H12891   3.191   4.334  14.686  0.1938  0.1076  2.1318
  875MPD2    H112892   3.568   4.185  14.786 -0.8249  0.6846  0.2560
  875MPD2    H212893   3.354   4.032  14.453 -0.1934  0.8384 -0.2123
  875MPD2    H312894   3.555   4.026  14.600  0.1808  0.5800 -2.1022
  875MPD2     N12895   3.381   4.351  14.869  0.1346  0.6419  0.0211
  875MPD2    H512896   3.468   4.361  14.921 -0.3860 -1.2625  1.2340
  875MPD2    N112897   3.138   4.190  14.492 -0.0376  0.1010 -0.7272
  875MPD2    H712898   3.083   4.268  14.527 -1.7646 -1.3032 -0.2541
  876MPD2     C12899   1.940   0.513  16.110  0.3716  0.0308 -0.0130
  876MPD2    C112900   2.070   0.542  16.139  0.3896  0.4347  0.4238
  876MPD2    C212901   2.163   0.443  16.181  0.1870  0.3470 -0.0949
  876MPD2    C312902   2.116   0.321  16.213 -0.1244  0.2160 -0.6620
  876MPD2    C412903   1.980   0.290  16.188  0.2158 -0.2114 -0.4359
  876MPD2    C512904   1.891   0.384  16.135  0.2927  0.1924 -0.7233
  876MPD2     H12905   2.264   0.464  16.214  0.6994  0.4635 -1.7096
  876MPD2    H112906   1.942   0.189  16.200 -1.2117  0.3237 -0.3526
  876MPD2    H212907   1.869   0.590  16.085  1.1763  0.6005 -0.5548
  876MPD2    H312908   1.786   0.361  16.125  1.0803 -3.6884 -0.0227
  876MPD2     N12909   2.216   0.226  16.247  0.3811  0.0958 -0.0795
  876MPD2    H512910   2.313   0.257  16.249  0.7728 -1.1737  0.6200
  876MPD2    N112911   2.105   0.679  16.116  0.8462  0.0558  0.3224
  876MPD2    H712912   2.035   0.735  16.068  0.4864  1.9287  3.0575
  877MPD2     C12913   2.025   1.043  15.447  0.3313 -0.0992  0.2473
  877MPD2    C112914   2.136   1.090  15.511 -0.0033 -0.6456 -0.1942
  877MPD2    C212915   2.224   1.164  15.439  0.2013 -0.4925 -0.6489
  877MPD2    C312916   2.211   1.185  15.307  0.1640 -0.8527  0.0163
  877MPD2    C412917   2.102   1.133  15.235  0.3475  0.2428 -0.1270
  877MPD2    C512918   2.008   1.063  15.311 -0.3322 -0.1036 -0.3681
  877MPD2     H12919   2.310   1.205  15.491 -1.9070  1.8598  0.9927
  877MPD2    H112920   2.087   1.152  15.130 -0.2120 -0.8223 -0.2417
  877MPD2    H212921   1.952   0.981  15.498  0.8345  0.1073  1.2122
  877MPD2    H312922   1.920   1.020  15.265  0.5488 -1.4829 -0.7781
  877MPD2     N12923   2.304   1.255  15.230  0.5822 -0.5565 -0.0817
  877MPD2    H512924   2.286   1.257  15.131  0.3972  1.3586 -0.0022
  877MPD2    N112925   2.167   1.065  15.648 -0.8451  0.1641 -0.1403
  877MPD2    H712926   2.246   1.117  15.685 -0.3896  0.6683 -1.8045
  878MPD2     C12927   1.295   0.293  13.480 -0.7146 -0.2777  0.6904
  878MPD2    C112928   1.432   0.305  13.467  0.6251  0.2750 -0.1803
  878MPD2    C212929   1.504   0.322  13.588 -0.1218  0.5165 -0.9441
  878MPD2    C312930   1.447   0.306  13.714  0.2001 -0.1876 -0.6146
  878MPD2    C412931   1.313   0.310  13.726 -0.2439 -0.8191 -0.1698
  878MPD2    C512932   1.238   0.301  13.604  0.7941 -0.1689  0.5153
  878MPD2     H12933   1.610   0.336  13.572  0.2754 -1.2245  0.1164
  878MPD2    H112934   1.259   0.285  13.816  2.6156  3.5526  2.7214
  878MPD2    H212935   1.233   0.269  13.395  0.0891  2.6512 -0.7285
  878MPD2    H312936   1.133   0.274  13.611  1.0347 -0.6358  2.1788
  878MPD2     N12937   1.540   0.299  13.822 -0.0214  0.3706 -0.6543
  878MPD2    H512938   1.636   0.308  13.793 -0.2194  0.1028 -1.3870
  878MPD2    N112939   1.484   0.327  13.340 -0.5637 -0.1163 -0.2935
  878MPD2    H712940   1.412   0.318  13.269 -0.3603  0.0028 -0.5133
  879MPD2     C12941   2.813   1.038  16.855 -0.1272  1.1160 -0.5404
  879MPD2    C112942   2.723   1.098  16.944 -0.6880 -0.3872  0.1265
  879MPD2    C212943   2.589   1.059  16.948  0.4474 -0.2251 -0.8755
  879MPD2    C312944   2.549   0.967  16.851 -0.3638 -0.0116 -0.1027
  879MPD2    C412945   2.638   0.895  16.778  0.8785 -0.5740 -0.3208
  879MPD2    C512946   2.771   0.929  16.781  0.0760 -0.1033 -0.3762
  879MPD2     H12947   2.519   1.116  17.008  1.9657  1.5820 -0.8287
  879MPD2    H112948   2.608   0.817  16.708 -1.1464  0.1768 -0.2895
  879MPD2    H212949   2.916   1.072  16.851  0.5045 -0.3894  2.9898
  879MPD2    H312950   2.847   0.883  16.719  0.7428  0.7377 -0.1853
  879MPD2     N12951   2.417   0.924  16.845  0.4597  0.0490  0.0539
  879MPD2    H512952   2.396   0.858  16.771  0.0729  0.8885 -0.5824
  879MPD2    N112953   2.772   1.211  17.025  0.6052 -0.3948 -0.5178
  879MPD2    H712954   2.859   1.260  17.007  0.3936  0.6213  1.2563
  880MPD2     C12955   3.234   3.376   0.155 -0.2576  0.7076 -0.1596
  880MPD2    C112956   3.326   3.418   0.258 -0.0087 -0.0954  0.2106
  880MPD2    C212957   3.377   3.326   0.345  0.0615  0.4880 -0.0997
  880MPD2    C312958   3.336   3.196   0.349  0.6135 -0.2663 -0.2151
  880MPD2    C412959   3.239   3.162   0.259 -0.7607 -0.0815 -0.2221
  880MPD2    C512960   3.200   3.244   0.161 -0.3341 -0.3158 -0.5015
  880MPD2     H12961   3.447   3.365   0.418 -1.6703  0.6972  1.4342
  880MPD2    H112962   3.222   3.055   0.254  1.2049 -0.5086  2.5784
  880MPD2    H212963   3.193   3.449   0.086 -0.7075  0.1920 -0.4352
  880MPD2    H312964   3.141   3.200   0.082  0.3327 -1.2116 -0.5002
  880MPD2     N12965   3.388   3.115   0.452 -0.4420 -0.1793 -0.0343
  880MPD2    H512966   3.460   3.156   0.511 -0.2589 -1.4508  0.6278
  880MPD2    N112967   3.387   3.541   0.267 -0.4714 -0.2619 -0.5471
  880MPD2    H712968   3.461   3.548   0.336 -0.3017 -1.3607 -0.6244
  881MPD2     C12969   3.615   4.416  17.464  0.4189  0.4091 -0.7500
  881MPD2    C112970   3.645   4.283  17.430  0.1954  0.1893  0.3705
  881MPD2    C212971   3.631   4.187  17.529  1.6869  0.1258  0.0182
  881MPD2    C312972   3.582   4.226  17.660  0.2720 -0.3095 -0.0568
  881MPD2    C412973   3.552   4.355  17.682 -0.4938  0.7371 -0.1279
  881MPD2    C512974   3.577   4.448  17.588 -0.1581 -0.3431 -0.1534
  881MPD2     H12975   3.653   4.082  17.516  1.2144  0.2535 -1.8325
  881MPD2    H112976   3.510   4.387   0.017 -0.8882  0.3861 -0.1847
  881MPD2    H212977   3.651   4.497  17.402  1.6658  0.2666 -0.2132
  881MPD2    H312978   3.564   4.555  17.600 -1.6892 -0.3653 -1.6680
  881MPD2     N12979   3.574   4.131   0.010  0.0109  0.4535  0.3679
  881MPD2    H512980   3.545   4.168   0.100 -1.2871 -0.4759  0.3322
  881MPD2    N112981   3.718   4.264  17.311  0.0386  0.0309  0.4282
  881MPD2    H712982   3.717   4.351  17.260 -2.1455  0.6155  1.4434
  882MPD2     C12983   2.310   1.154  14.529  0.0185  0.5300 -0.4071
  882MPD2    C112984   2.264   1.181  14.655  0.8326  0.0012  0.2764
  882MPD2    C212985   2.150   1.115  14.706  0.7867  0.9011 -0.4229
  882MPD2    C312986   2.084   1.028  14.627  0.8139  0.2791 -0.2070
  882MPD2    C412987   2.126   1.000  14.498  0.2904 -0.1515 -0.4208
  882MPD2    C512988   2.239   1.060  14.454 -0.0201  0.1036  1.0216
  882MPD2     H12989   2.127   1.143  14.808  1.5718  1.9723 -0.5352
  882MPD2    H112990   2.079   0.924  14.438 -1.3364  0.2810  0.2895
  882MPD2    H212991   2.392   1.213  14.489 -0.2430  0.5027 -0.9753
  882MPD2    H312992   2.274   1.032  14.355  1.5321 -2.2490  2.2325
  882MPD2     N12993   1.973   0.948  14.668 -0.0349  0.6254 -0.0407
  882MPD2    H512994   1.932   0.882  14.603 -0.2537 -1.0559  1.8041
  882MPD2    N112995   2.355   1.259  14.738 -0.5291  0.7312 -0.4587
  882MPD2    H712996   2.449   1.282  14.707  0.0719 -1.5216 -0.2725
  883MPD2     C12997   4.507   0.894  16.517 -0.4638 -0.9410 -0.0113
  883MPD2    C112998   4.581   0.978  16.431 -0.5674  0.1655 -0.2903
  883MPD2    C212999   4.706   1.021  16.471  0.1153 -0.1143  0.3124
  883MPD2    C313000   0.018   0.983  16.597 -0.4002  0.0871  0.3172
  883MPD2    C413001   4.683   0.906  16.682  0.0047 -0.2564 -0.5755
  883MPD2    C513002   4.560   0.863  16.643 -0.1348 -1.1250  0.0692
  883MPD2     H13003   0.035   1.082  16.414  0.7572 -0.4401  0.7495
  883MPD2    H113004   4.723   0.870  16.776  0.3682 -3.0423 -1.7870
  883MPD2    H213005   4.408   0.862  16.488 -1.7142  2.4587  0.4875
  883MPD2    H313006   4.495   0.804  16.708  0.1742 -0.5289  0.9175
  883MPD2     N13007   0.145   1.027  16.625  0.2094 -0.9326 -0.0044
  883MPD2    H513008   0.195   1.081  16.555  1.3890 -0.1799  1.4260
  883MPD2    N113009   4.525   1.019  16.308 -0.2581 -0.4554  0.2594
  883MPD2    H713010   4.578   1.084  16.252  0.8538 -2.3290 -0.8759
  884MPD2     C13011   1.680   1.755  15.560 -0.7633 -0.2715 -0.0140
  884MPD2    C113012   1.691   1.879  15.503  0.8737  0.2395  0.2102
  884MPD2    C213013   1.577   1.966  15.509  0.0859 -0.0298  1.0343
  884MPD2    C313014   1.457   1.933  15.561  0.3609  0.0469 -0.2823
  884MPD2    C413015   1.447   1.811  15.619  0.6746  0.5780  0.4613
  884MPD2    C513016   1.557   1.726  15.623  0.0454  0.0419 -0.5907
  884MPD2     H13017   1.588   2.059  15.454  0.2928 -1.1459 -0.8336
  884MPD2    H113018   1.356   1.772  15.663  0.1695 -0.5097 -1.5671
  884MPD2    H213019   1.763   1.687  15.574 -0.4502  0.1183  0.0227
  884MPD2    H313020   1.542   1.629  15.670  1.3922 -0.4422 -1.1596
  884MPD2     N13021   1.353   2.026  15.556  0.3470 -0.0550 -0.5284
  884MPD2    H513022   1.376   2.106  15.497  0.7655 -1.1499 -1.8661
  884MPD2    N113023   1.800   1.924  15.422  0.1190  0.5323  0.7032
  884MPD2    H713024   1.783   2.017  15.383 -0.4601 -1.6449 -4.2260
  885MPD2     C13025   3.777   1.778   0.017 -0.3120  0.5636  0.2118
  885MPD2    C113026   3.901   1.722  17.749 -0.4427 -0.1535  0.0536
  885MPD2    C213027   3.967   1.752  17.629 -0.4134  0.3430 -0.6204
  885MPD2    C313028   3.907   1.857  17.552 -0.7474  0.0250  0.2334
  885MPD2    C413029   3.781   1.909  17.584  0.4200  0.4266 -0.4611
  885MPD2    C513030   3.717   1.864  17.691 -0.2703 -0.4009 -0.2719
  885MPD2     H13031   4.058   1.707  17.591  0.5002  0.0194  1.9930
  885MPD2    H113032   3.737   1.999  17.541 -0.5763  0.3570  0.4199
  885MPD2    H213033   3.724   1.765   0.111 -0.3261  0.9997  0.2628
  885MPD2    H313034   3.627   1.918  17.720  0.4207 -0.3270  1.7550
  885MPD2     N13035   3.986   1.902  17.445 -0.2549 -0.0331  0.3931
  885MPD2    H513036   4.077   1.857  17.439 -1.0181 -1.5938  0.5866
  885MPD2    N113037   3.958   1.642   0.094  0.0409  0.6256 -0.3853
  885MPD2    H713038   3.912   1.661   0.182 -0.3403 -0.7451 -0.2871
  886MPD2     C13039   1.291   0.324  15.315 -0.0238  0.0618 -0.1268
  886MPD2    C113040   1.387   0.372  15.401 -0.2488 -0.2677  0.1861
  886MPD2    C213041   1.373   0.494  15.463  0.4880  0.0472 -0.0958
  886MPD2    C313042   1.259   0.573  15.444 -0.4404  0.3642  0.0951
  886MPD2    C413043   1.162   0.525  15.355  0.2883 -0.7232 -0.0062
  886MPD2    C513044   1.181   0.409  15.286 -0.2634  0.6649 -0.6619
  886MPD2     H13045   1.454   0.529  15.526 -0.5465 -0.4023  1.4971
  886MPD2    H113046   1.071   0.577  15.327  2.0502  2.4699  0.2348
  886MPD2    H213047   1.303   0.234  15.256 -0.8918  0.9355 -1.6260
  886MPD2    H313048   1.105   0.377  15.216  0.0566 -1.5052 -0.0286
  886MPD2     N13049   1.251   0.704  15.501 -0.1932 -0.0532  0.5476
  886MPD2    H513050   1.343   0.729  15.537 -1.0343  0.6030  2.2864
  886MPD2    N113051   1.505   0.304  15.419  0.3673  0.1527 -0.6937
  886MPD2    H713052   1.584   0.356  15.455 -1.0960  1.9347 -0.0058
  887MPD2     C13053   1.511   0.324  15.929 -0.2916  0.0330  0.0504
  887MPD2    C113054   1.624   0.380  15.874 -0.9628  0.2943  0.6100
  887MPD2    C213055   1.650   0.517  15.895  0.2909 -0.5915  0.6005
  887MPD2    C313056   1.570   0.593  15.979 -0.6165  0.1168 -0.0913
  887MPD2    C413057   1.456   0.534  16.025  0.3946 -0.3297 -0.1333
  887MPD2    C513058   1.421   0.402  15.999  0.5977 -0.3488 -0.0088
  887MPD2     H13059   1.735   0.565  15.848 -0.9894  0.1031 -1.0120
  887MPD2    H113060   1.379   0.585  16.081 -1.7924 -1.4799 -2.1258
  887MPD2    H213061   1.489   0.219  15.914  1.1253 -0.4036  1.0608
  887MPD2    H313062   1.322   0.364  16.021 -0.0500  0.8110 -0.8970
  887MPD2     N13063   1.597   0.732  16.008 -0.2840  0.3877 -0.3991
  887MPD2    H513064   1.538   0.770  16.082  1.5191  1.3600  0.5366
  887MPD2    N113065   1.702   0.308  15.786 -0.2539  0.7883 -0.4855
  887MPD2    H713066   1.769   0.363  15.731  0.6998 -0.4597 -0.5773
  888MPD2     C13067   3.300   0.729  14.762 -0.1977  0.0604 -0.1872
  888MPD2    C113068   3.328   0.748  14.897  0.6937  0.2801  0.4458
  888MPD2    C213069   3.413   0.853  14.931  0.6194 -0.0771 -0.2755
  888MPD2    C313070   3.485   0.923  14.837 -0.1877  0.0908  0.0567
  888MPD2    C413071   3.470   0.888  14.705  0.6397  0.5905  0.4848
  888MPD2    C513072   3.374   0.793  14.668 -0.1821  0.2336 -0.1154
  888MPD2     H13073   3.424   0.879  15.036 -2.7702  0.2077  0.0187
  888MPD2    H113074   3.535   0.924  14.625  1.2090 -0.3870  0.5090
  888MPD2    H213075   3.248   0.640  14.727 -0.5537 -0.2269  1.0843
  888MPD2    H313076   3.365   0.770  14.563  0.2149  1.4143 -0.4140
  888MPD2     N13077   3.575   1.014  14.888 -0.3619 -0.0649  0.0719
  888MPD2    H513078   3.567   1.037  14.986 -0.8315  1.6401 -0.3595
  888MPD2    N113079   3.285   0.656  15.001 -0.5140 -0.1979 -0.0413
  888MPD2    H713080   3.325   0.667  15.094 -1.7123 -2.7535  0.7642
  889MPD2     C13081   2.099   0.155  13.372  0.5217 -0.1779 -0.4150
  889MPD2    C113082   2.220   0.181  13.317 -0.3341  0.1677 -0.2008
  889MPD2    C213083   2.253   0.311  13.286 -0.2068 -0.6259  0.1723
  889MPD2    C313084   2.160   0.414  13.299  1.0463 -0.4580  0.7248
  889MPD2    C413085   2.031   0.375  13.340  0.3683  0.7309  0.2701
  889MPD2    C513086   2.004   0.251  13.374  0.4964  0.4428  0.7361
  889MPD2     H13087   2.353   0.346  13.264 -0.1550  0.4322  2.0685
  889MPD2    H113088   1.947   0.443  13.343  0.0554  0.3385  0.3581
  889MPD2    H213089   2.077   0.052  13.397 -3.1690  1.7099  4.0102
  889MPD2    H313090   1.898   0.234  13.393  0.4303 -0.5955 -0.6228
  889MPD2     N13091   2.191   0.550  13.274  0.2938 -0.1073  0.3118
  889MPD2    H513092   2.291   0.568  13.276 -0.1880  2.4667  1.3140
  889MPD2    N113093   2.320   0.077  13.337  0.0556 -0.1168  0.2412
  889MPD2    H713094   2.294   4.731  13.384 -1.5749 -0.2386 -0.8722
  890MPD2     C13095   2.344   1.789  14.806 -0.8821  0.3425  0.6485
  890MPD2    C113096   2.481   1.818  14.836  0.8925  0.2000  0.1837
  890MPD2    C213097   2.536   1.780  14.952 -0.3687  0.2155  0.5175
  890MPD2    C313098   2.456   1.728  15.049 -0.5502  0.1032 -0.1770
  890MPD2    C413099   2.319   1.711  15.029 -0.2491 -0.2649 -0.0975
  890MPD2    C513100   2.262   1.742  14.910 -0.1681 -0.2580  0.1889
  890MPD2     H13101   2.638   1.810  14.970  0.0549 -0.5456 -0.6275
  890MPD2    H113102   2.249   1.664  15.097  0.2740 -1.6471 -0.5091
  890MPD2    H213103   2.313   1.798  14.702 -1.7236 -2.1326  0.7019
  890MPD2    H313104   2.156   1.727  14.892 -0.1202 -0.1747 -0.1538
  890MPD2     N13105   2.511   1.699  15.170 -0.5555 -0.2095  0.2461
  890MPD2    H513106   2.611   1.714  15.177 -0.9573  2.0029  1.2487
  890MPD2    N113107   2.550   1.890  14.737 -0.1333 -0.1549  0.0151
  890MPD2    H713108   2.498   1.934  14.663 -1.2588 -0.6474  0.5125
  891MPD2     C13109   0.503   0.732  16.213 -0.0202 -0.3059  0.5051
  891MPD2    C113110   0.423   0.707  16.320 -0.1764  0.2490  0.2287
  891MPD2    C213111   0.482   0.650  16.430  0.5220 -0.5579  0.2832
  891MPD2    C313112   0.624   0.619  16.434  0.6511  0.1249 -0.2703
  891MPD2    C413113   0.702   0.652  16.321 -0.0442  0.2580  0.0993
  891MPD2    C513114   0.641   0.705  16.207  0.3079 -0.0426  0.4886
  891MPD2     H13115   0.416   0.630  16.514 -0.3640  0.4035 -0.1874
  891MPD2    H113116   0.809   0.666  16.330  0.1583 -0.3678 -1.3420
  891MPD2    H213117   0.462   0.782  16.126  1.2878 -1.1030 -0.5626
  891MPD2    H313118   0.691   0.745  16.120 -1.5858 -1.0035 -1.0263
  891MPD2     N13119   0.683   0.559  16.550  0.1761 -0.2753  0.2956
  891MPD2    H513120   0.622   0.539  16.629 -1.1463  0.5925 -0.5132
  891MPD2    N113121   0.290   0.748  16.305  0.1886 -0.4777 -0.5261
  891MPD2    H713122   0.260   0.773  16.211 -0.4498 -0.4833 -0.3218
  892MPD2     C13123   1.751   1.536  15.115  0.7499  0.2946  0.0885
  892MPD2    C113124   1.649   1.463  15.160 -0.8579 -0.3297 -0.3468
  892MPD2    C213125   1.654   1.326  15.173 -0.2068 -0.0986  0.1241
  892MPD2    C313126   1.758   1.260  15.103  0.3616 -0.2862  0.2521
  892MPD2    C413127   1.858   1.333  15.044  1.1485 -0.3461 -0.1064
  892MPD2    C513128   1.861   1.470  15.063  0.1022  0.9940  0.3453
  892MPD2     H13129   1.572   1.271  15.219  0.9754 -1.0527  1.0978
  892MPD2    H113130   1.942   1.278  15.004  1.3275  0.4329 -0.7967
  892MPD2    H213131   1.751   1.644  15.127 -0.7109  0.3553 -0.4295
  892MPD2    H313132   1.938   1.534  15.021  0.8359 -0.3318 -0.3699
  892MPD2     N13133   1.751   1.128  15.064  0.0964  0.5775 -0.5186
  892MPD2    H513134   1.828   1.092  15.008 -0.9427 -2.4176 -0.0408
  892MPD2    N113135   1.532   1.525  15.202  0.4780 -0.6140  0.3905
  892MPD2    H713136   1.465   1.464  15.247  0.6638 -0.1597  1.3126
  893MPD2     C13137   2.447   4.301   1.384 -0.5595 -0.7935  0.2400
  893MPD2    C113138   2.466   4.269   1.249 -0.1463 -0.0995 -0.5681
  893MPD2    C213139   2.362   4.256   1.159 -0.4494  0.0777 -0.0951
  893MPD2    C313140   2.235   4.274   1.210  0.2804  0.7636  0.3047
  893MPD2    C413141   2.216   4.300   1.346  0.3914  0.0767  0.5791
  893MPD2    C513142   2.320   4.313   1.434 -0.7407 -0.5887  0.3469
  893MPD2     H13143   2.382   4.237   1.054 -1.9225 -1.3937 -0.1280
  893MPD2    H113144   2.116   4.317   1.385  0.2400 -1.6214  0.9301
  893MPD2    H213145   2.526   4.326   1.454  0.3203 -0.8749 -0.7141
  893MPD2    H313146   2.299   4.337   1.538  0.5900  3.8489 -0.4264
  893MPD2     N13147   2.116   4.267   1.126 -0.1973 -0.2035  0.3116
  893MPD2    H513148   2.027   4.258   1.175  0.5592 -0.2021  1.7040
  893MPD2    N113149   2.596   4.245   1.201  0.2943 -0.0321  0.3183
  893MPD2    H713150   2.664   4.285   1.265  0.0651 -1.2288  1.3029
  894MPD2     C13151   0.357   2.258   1.441  0.0448 -0.4504  0.3232
  894MPD2    C113152   0.419   2.357   1.361  0.0252 -1.1214  0.5984
  894MPD2    C213153   0.554   2.353   1.342 -0.0789  0.7058  0.1693
  894MPD2    C313154   0.630   2.257   1.406 -0.4648 -0.7329  0.2910
  894MPD2    C413155   0.568   2.168   1.488  0.7583  0.1599 -0.0103
  894MPD2    C513156   0.429   2.162   1.507 -0.3963  0.3269 -0.0331
  894MPD2     H13157   0.597   2.427   1.277 -1.1901  1.1798 -0.0334
  894MPD2    H113158   0.635   2.092   1.525  0.0067 -1.6566 -2.3629
  894MPD2    H213159   0.250   2.251   1.452  0.0948  1.7991  2.0956
  894MPD2    H313160   0.382   2.086   1.570 -0.9289  1.5688  1.0658
  894MPD2     N13161   0.772   2.270   1.382 -0.1269  0.6178  0.6977
  894MPD2    H513162   0.801   2.347   1.324 -0.2263 -2.3206 -3.2542
  894MPD2    N113163   0.355   2.457   1.278  0.1184 -0.7469  0.1664
  894MPD2    H713164   0.405   2.521   1.217  0.4375 -1.3865 -0.2415
  895MPD2     C13165   0.529   0.355  12.574  0.4419 -0.3473  0.2001
  895MPD2    C113166   0.403   0.391  12.570  0.1385  0.3169 -0.6026
  895MPD2    C213167   0.310   0.345  12.658  0.2999 -0.2440  0.0007
  895MPD2    C313168   0.349   0.258  12.760 -0.1506  0.5161  0.1734
  895MPD2    C413169   0.481   0.217  12.763  0.0577  0.1931  0.3513
  895MPD2    C513170   0.573   0.263  12.671 -0.1569 -0.7005 -0.3224
  895MPD2     H13171   0.212   0.391  12.662 -0.1425 -1.2786  1.1472
  895MPD2    H113172   0.505   0.145  12.840 -1.7510 -0.7135  0.0590
  895MPD2    H213173   0.600   0.379  12.496 -0.6630 -2.6953 -1.5370
  895MPD2    H313174   0.677   0.234  12.662  0.2105  0.1675  1.2647
  895MPD2     N13175   0.267   0.216  12.861  0.0324  0.3084 -0.2577
  895MPD2    H513176   0.313   0.149  12.922 -1.5997 -1.9434 -1.5054
  895MPD2    N113177   0.343   0.480  12.478 -0.2797  0.4241  0.0299
  895MPD2    H713178   0.250   0.519  12.491  1.0799  3.3366  0.9862
  896MPD2     C13179   2.867   3.526   1.327  0.4772  0.5787  0.0322
  896MPD2    C113180   2.832   3.455   1.210  0.3268  0.4652  0.5179
  896MPD2    C213181   2.720   3.379   1.208 -0.0560  0.0944  0.3107
  896MPD2    C313182   2.635   3.381   1.321  0.6005 -0.6096  0.2755
  896MPD2    C413183   2.667   3.452   1.434 -0.4403  0.0640  0.5584
  896MPD2    C513184   2.792   3.511   1.437 -0.4642  0.1154 -0.4394
  896MPD2     H13185   2.689   3.319   1.124  1.1733  3.3252 -2.4774
  896MPD2    H113186   2.620   3.448   1.532 -0.6555  0.1705  0.4583
  896MPD2    H213187   2.965   3.570   1.340 -0.3519  2.9895 -1.7098
  896MPD2    H313188   2.820   3.555   1.532 -0.8751  1.6101 -1.0087
  896MPD2     N13189   2.530   3.285   1.326  0.3024 -0.2680 -0.3709
  896MPD2    H513190   2.511   3.220   1.250 -2.1825 -0.8948  0.7528
  896MPD2    N113191   2.918   3.470   1.098 -0.5984  0.6635 -0.8177
  896MPD2    H713192   2.994   3.537   1.099  0.0245 -0.0456 -0.7706
  897MPD2     C13193   3.670   0.291  11.366 -0.3661 -0.2119 -0.0800
  897MPD2    C113194   3.627   0.273  11.233  0.0558  0.6102 -1.1298
  897MPD2    C213195   3.539   0.172  11.204  0.5646  0.2739 -0.8963
  897MPD2    C313196   3.479   0.102  11.308  0.4684  1.3278 -0.5217
  897MPD2    C413197   3.523   0.117  11.438 -0.3982  0.3819 -0.1840
  897MPD2    C513198   3.618   0.214  11.468 -0.0615  0.0316 -0.4861
  897MPD2     H13199   3.502   0.160  11.103  0.8854 -3.4624 -0.5398
  897MPD2    H113200   3.466   0.079  11.522 -2.2210 -0.0029 -1.6051
  897MPD2    H213201   3.745   0.360  11.402 -0.8419 -1.4003  3.1471
  897MPD2    H313202   3.642   0.234  11.572 -0.6446 -2.2567  0.0767
  897MPD2     N13203   3.365   0.028  11.264 -0.5904 -0.2587  0.1980
  897MPD2    H513204   3.348   0.016  11.165  2.6727 -0.2866 -0.3510
  897MPD2    N113205   3.676   0.363  11.134 -0.7123  0.2199 -0.3615
  897MPD2    H713206   3.758   0.416  11.162 -2.2079  1.9189  0.7866
  898MPD2     C13207   0.223   0.631  17.708 -0.3582  0.4302 -0.8899
  898MPD2    C113208   0.363   0.613  17.728  0.4962 -0.4154  0.0591
  898MPD2    C213209   0.431   0.726   0.015 -0.5846  1.0766 -0.8950
  898MPD2    C313210   0.364   0.848   0.042  0.1746  0.3704 -0.3069
  898MPD2    C413211   0.227   0.861   0.019 -0.1160  0.5731  0.0942
  898MPD2    C513212   0.156   0.746  17.741 -0.7632  0.0392  0.3427
  898MPD2     H13213   0.537   0.713   0.036 -0.5993  2.1518 -0.1208
  898MPD2    H113214   0.181   0.959   0.030  1.1480  1.2596 -0.6936
  898MPD2    H213215   0.161   0.560  17.654  1.0505 -1.0917 -0.5215
  898MPD2    H313216   0.049   0.751  17.724 -0.6123 -1.2815 -1.0199
  898MPD2     N13217   0.458   0.959   0.059 -0.7202  0.2335 -0.4338
  898MPD2    H513218   0.556   0.935   0.047 -0.8547  0.4380 -1.9396
  898MPD2    N113219   0.431   0.494  17.688 -0.8474 -0.2818  0.5591
  898MPD2    H713220   0.532   0.497  17.697 -0.5258 -1.0030 -2.9364
  899MPD2     C13221   2.231   1.169  17.709 -0.0618 -0.4347 -0.7081
  899MPD2    C113222   2.109   1.225  17.722 -0.5704 -0.1308 -0.0171
  899MPD2    C213223   2.039   1.221   0.083 -0.3065  0.4026 -0.3299
  899MPD2    C313224   2.096   1.164   0.198 -0.6702  0.1832 -0.0969
  899MPD2    C413225   2.223   1.119   0.188  0.0764 -0.3006 -0.3466
  899MPD2    C513226   2.290   1.128   0.067 -0.6184 -0.1613 -0.0086
  899MPD2     H13227   1.940   1.264   0.074  0.0763  1.4237  0.3431
  899MPD2    H113228   2.283   1.069   0.263 -1.1518 -0.7362  0.3315
  899MPD2    H213229   2.280   1.164  17.613 -0.2180  1.4624 -0.8980
  899MPD2    H313230   2.394   1.096   0.066 -0.6561 -0.3002  0.9480
  899MPD2     N13231   2.038   1.168   0.326  0.6439 -0.0919 -0.1399
  899MPD2    H513232   2.091   1.133   0.406 -0.4251  1.7309  1.3667
  899MPD2    N113233   2.054   1.285  17.600  0.3775  0.8214 -0.1373
  899MPD2    H713234   2.114   1.310  17.522 -1.1440  0.5308 -1.3984
  900MPD2     C13235   1.341   3.238  12.644  0.2564  0.7515  0.4486
  900MPD2    C113236   1.270   3.123  12.664 -0.4624  0.4518 -0.1696
  900MPD2    C213237   1.138   3.106  12.613  0.6823 -0.2937  0.0869
  900MPD2    C313238   1.088   3.204  12.529 -0.3982 -0.1414 -0.3611
  900MPD2    C413239   1.161   3.312  12.497 -0.3527 -0.5329 -0.1541
  900MPD2    C513240   1.288   3.327  12.553 -0.2590  0.4953  0.3501
  900MPD2     H13241   1.065   3.031  12.640 -1.5600  2.4005  1.5866
  900MPD2    H113242   1.131   3.395  12.434  2.1519 -0.3366 -1.1307
  900MPD2    H213243   1.442   3.251  12.680  0.9114  2.7504 -2.1332
  900MPD2    H313244   1.343   3.413  12.517 -2.3305  1.3366 -0.8191
  900MPD2     N13245   0.962   3.177  12.482  0.4044  0.1299 -0.2321
  900MPD2    H513246   0.930   3.087  12.517 -0.4262  0.5038 -0.0195
  900MPD2    N113247   1.325   3.015  12.743  0.5739  0.0549 -0.1160
  900MPD2    H713248   1.419   3.032  12.776  1.5066 -2.5592 -1.3814
  901MPD2     C13249   1.135   2.015  13.191  0.1366  0.4619 -0.1019
  901MPD2    C113250   1.269   2.012  13.169  0.8094  0.0782  0.3973
  901MPD2    C213251   1.338   2.130  13.122 -0.0407  0.3930  0.0253
  901MPD2    C313252   1.266   2.249  13.107  0.0906  0.4367 -0.4765
  901MPD2    C413253   1.127   2.244  13.134 -0.7561 -0.3740 -0.5285
  901MPD2    C513254   1.072   2.130  13.186 -0.1954 -0.0913  0.2499
  901MPD2     H13255   1.444   2.125  13.098  0.3107 -0.3899  1.6955
  901MPD2    H113256   1.057   2.326  13.122  1.0389  1.2739  0.4382
  901MPD2    H213257   1.078   1.926  13.216  2.3897 -0.4015  1.9093
  901MPD2    H313258   0.966   2.136  13.207 -0.7021 -1.9934 -1.8807
  901MPD2     N13259   1.330   2.363  13.059 -0.5558 -0.1613 -0.4902
  901MPD2    H513260   1.431   2.364  13.063 -0.6576 -0.6580  2.0603
  901MPD2    N113261   1.329   1.889  13.165  0.0491 -0.0961  0.0760
  901MPD2    H713262   1.268   1.808  13.165  0.4047 -0.3679 -2.0941
  902MPD2     C13263   1.081   0.868  12.906 -0.1549  0.4009  0.3678
  902MPD2    C113264   1.026   0.974  12.844 -0.5632 -0.4345 -0.0747
  902MPD2    C213265   1.046   0.982  12.709  0.5032  0.0605  0.3834
  902MPD2    C313266   1.112   0.881  12.643  0.4648 -0.5897 -0.0637
  902MPD2    C413267   1.161   0.773  12.712  0.9260 -0.3021 -0.2108
  902MPD2    C513268   1.146   0.766  12.843  0.0633 -0.5483 -0.0313
  902MPD2     H13269   1.020   1.074  12.658  1.8735 -1.0477 -2.3299
  902MPD2    H113270   1.219   0.693  12.666  2.7356 -0.7541  2.8467
  902MPD2    H213271   1.071   0.859  13.014  1.2963 -0.1217  0.4548
  902MPD2    H313272   1.173   0.679  12.902 -0.8828 -1.6089 -1.1473
  902MPD2     N13273   1.132   0.878  12.499  0.1426 -0.0321  0.1430
  902MPD2    H513274   1.159   0.788  12.460 -0.5055  0.0836 -0.5886
  902MPD2    N113275   0.967   1.075  12.922  0.1306 -0.3382 -0.9814
  902MPD2    H713276   0.970   1.063  13.023  0.8963  0.5631 -0.8966
  903MPD2     C13277   0.699   1.258  12.480  0.2724  0.1405 -0.0371
  903MPD2    C113278   0.674   1.204  12.353  1.0354  0.1871  0.4951
  903MPD2    C213279   0.542   1.215  12.307  0.3257  0.6832  0.6231
  903MPD2    C313280   0.431   1.263  12.380 -0.5509 -0.1229 -0.0439
  903MPD2    C413281   0.463   1.311  12.500  0.2824 -0.2360  0.8810
  903MPD2    C513282   0.588   1.317  12.545  0.5648  0.9493 -0.4741
  903MPD2     H13283   0.513   1.179  12.209 -1.8541 -0.5857  1.7280
  903MPD2    H113284   0.383   1.341  12.566 -0.2196 -1.2721  0.7358
  903MPD2    H213285   0.797   1.263  12.525 -0.7427 -0.2454  2.2404
  903MPD2    H313286   0.602   1.354  12.646  0.3763  0.5688 -0.3091
  903MPD2     N13287   0.303   1.263  12.325  0.5087  0.0914 -0.4646
  903MPD2    H513288   0.288   1.217  12.236  0.6080  0.5133 -0.6955
  903MPD2    N113289   0.782   1.144  12.292  0.1755  0.4781  0.3695
  903MPD2    H713290   0.870   1.143  12.343  0.1457 -1.3203  0.3769
  904MPD2     C13291   0.120   4.204  13.965  0.2427 -0.7323  0.8656
  904MPD2    C113292   0.174   4.308  14.032 -0.9131 -0.1153 -0.8398
  904MPD2    C213293   0.309   4.322  14.046  0.2321  0.2077  0.0374
  904MPD2    C313294   0.392   4.229  13.979  0.3819  0.2364 -0.1853
  904MPD2    C413295   0.331   4.126  13.909 -0.8461 -0.5518 -0.4650
  904MPD2    C513296   0.197   4.114  13.896  0.2677 -0.2991 -0.6732
  904MPD2     H13297   0.344   4.408  14.102 -2.0536  0.2611  1.3894
  904MPD2    H113298   0.393   4.047  13.867 -1.5143 -1.1401 -0.3349
  904MPD2    H213299   0.012   4.202  13.962  0.2564  3.1318 -1.9175
  904MPD2    H313300   0.152   4.027  13.849 -0.4860 -0.2939  0.0271
  904MPD2     N13301   0.530   4.264  13.986 -0.0778  0.3724 -0.0122
  904MPD2    H513302   0.549   4.339  14.053  2.4898 -0.6776  0.4499
  904MPD2    N113303   0.102   4.412  14.088 -0.2783  0.5750  0.0717
  904MPD2    H713304   0.144   4.469  14.160 -0.9305  0.0739  0.8513
  905MPD2     C13305   4.318   0.128  13.635  0.2443 -0.9312 -0.0847
  905MPD2    C113306   4.454   0.107  13.640 -0.1305  0.2501 -0.2725
  905MPD2    C213307   4.513   0.099  13.515  0.0367 -0.3283 -0.4117
  905MPD2    C313308   4.457   0.126  13.392  0.0313 -0.1240 -0.2509
  905MPD2    C413309   4.326   0.170  13.392  0.5797  0.2255 -0.2322
  905MPD2    C513310   4.261   0.169  13.518  0.5051 -0.6685  0.1761
  905MPD2     H13311   4.606   0.044  13.530 -1.0905 -1.2475  3.3220
  905MPD2    H113312   4.276   0.202  13.301 -1.2083  0.6106  0.8801
  905MPD2    H213313   4.252   0.137  13.720 -0.0185 -0.1098 -0.3782
  905MPD2    H313314   4.156   0.193  13.517  0.4824 -0.7965 -0.6615
  905MPD2     N13315   4.541   0.140  13.284 -0.4696  0.3008 -0.5935
  905MPD2    H513316   4.638   0.127  13.310 -0.3785  0.5173 -0.8373
  905MPD2    N113317   4.514   0.080  13.765  0.0566  0.1891 -0.5239
  905MPD2    H713318   4.463   0.051  13.847 -0.2672  1.1930 -0.3753
  906MPD2     C13319   2.154   0.132  11.545  0.1526 -0.0669 -0.0835
  906MPD2    C113320   2.065   0.097  11.450 -0.2250  0.4458 -0.5204
  906MPD2    C213321   1.936   0.071  11.484 -0.6286  0.2975  0.0643
  906MPD2    C313322   1.902   0.066  11.621  0.0562  0.7318  0.5423
  906MPD2    C413323   1.990   0.113  11.716  0.3646 -0.0849 -0.3581
  906MPD2    C513324   2.115   0.142  11.676  0.6667 -0.3029 -0.4494
  906MPD2     H13325   1.862   0.049  11.407  0.3428 -0.1883 -0.7328
  906MPD2    H113326   1.960   0.120  11.820  1.6663  0.1611 -0.0016
  906MPD2    H213327   2.254   0.172  11.528 -1.0154  2.7392 -0.4577
  906MPD2    H313328   2.183   0.172  11.755 -2.5170 -1.8543  2.9080
  906MPD2     N13329   1.767   0.044  11.664  0.2796  0.5424  0.7666
  906MPD2    H513330   1.754   0.037  11.764  2.2399 -2.8365  0.7934
  906MPD2    N113331   2.087   0.121  11.311  0.1914  0.0017  0.2282
  906MPD2    H713332   2.010   0.106  11.247  1.5602 -0.9470 -1.2021
  907MPD2     C13333   1.196   4.046  15.781 -1.0933  0.1184 -0.2296
  907MPD2    C113334   1.305   3.962  15.792 -0.4474 -0.0358 -0.2218
  907MPD2    C213335   1.323   3.902  15.918  0.5935 -0.0109 -0.3994
  907MPD2    C313336   1.245   3.921  16.027  0.4689 -0.4073  0.0941
  907MPD2    C413337   1.129   3.988  16.003 -0.0247 -0.5277  0.7359
  907MPD2    C513338   1.109   4.053  15.885 -0.1635 -0.3078 -0.6167
  907MPD2     H13339   1.412   3.842  15.932  1.1894  1.3773  1.6980
  907MPD2    H113340   1.045   3.999  16.071 -1.9619  3.1997 -2.2771
  907MPD2    H213341   1.159   4.093  15.691  0.1592 -0.3760 -0.9873
  907MPD2    H313342   1.015   4.106  15.875 -0.0852  0.2482  1.7645
  907MPD2     N13343   1.269   3.855  16.148 -0.3615  0.0776 -0.0437
  907MPD2    H513344   1.349   3.793  16.159 -0.3328  0.0305 -0.5503
  907MPD2    N113345   1.396   3.945  15.687 -0.1781 -0.6670  0.3581
  907MPD2    H713346   1.471   3.877  15.695  1.2701  1.1240  2.0292
  908MPD2     C13347   3.389   0.401  10.169  0.0375  0.0065  0.2002
  908MPD2    C113348   3.361   0.307  10.264  0.1159 -1.0971  1.3550
  908MPD2    C213349   3.434   0.322  10.380  0.2940  0.1744  0.4982
  908MPD2    C313350   3.532   0.419  10.402  0.3122 -0.4044  0.2252
  908MPD2    C413351   3.552   0.510  10.299  0.9205 -0.5816 -0.1706
  908MPD2    C513352   3.488   0.494  10.181 -0.1563 -0.0491  0.0333
  908MPD2     H13353   3.429   0.249  10.460  0.2389 -0.6670 -0.2735
  908MPD2    H113354   3.608   0.602  10.310 -0.4673 -0.0016  2.0576
  908MPD2    H213355   3.336   0.405  10.075  1.7183 -0.3388 -0.7592
  908MPD2    H313356   3.510   0.558  10.097 -0.3762  0.1930  0.1599
  908MPD2     N13357   3.612   0.427  10.515  0.8284  0.6018 -0.1741
  908MPD2    H513358   3.568   0.366  10.584  1.5833  0.5198  0.2355
  908MPD2    N113359   3.272   0.202  10.248 -0.4140 -0.0225  0.1472
  908MPD2    H713360   3.222   0.191  10.160  3.0304  2.7642 -2.1862
  909MPD2     C13361   3.902   2.693  12.107 -0.1672  0.4146  0.2233
  909MPD2    C113362   3.864   2.811  12.046  0.0849 -0.0085 -0.1201
  909MPD2    C213363   3.810   2.912  12.126  0.0642 -0.7940  0.0004
  909MPD2    C313364   3.797   2.898  12.261  0.3893 -0.2650  0.2780
  909MPD2    C413365   3.838   2.780  12.317 -0.1101 -0.2423  0.2426
  909MPD2    C513366   3.885   2.679  12.241  0.1960  0.1909  0.3189
  909MPD2     H13367   3.791   3.007  12.079 -2.2971 -1.9046 -1.3111
  909MPD2    H113368   3.835   2.760  12.424 -0.3223  0.5307  0.3843
  909MPD2    H213369   3.950   2.614  12.050 -0.7416 -0.3519  0.8076
  909MPD2    H313370   3.916   2.584  12.283  0.3284  0.3497  0.5818
  909MPD2     N13371   3.732   2.998  12.338 -0.4146  0.2273  0.0933
  909MPD2    H513372   3.684   3.067  12.280  0.7383  1.9721  1.2144
  909MPD2    N113373   3.875   2.837  11.906 -0.2721 -0.3429  0.1385
  909MPD2    H713374   3.823   2.912  11.862 -0.5544 -0.6660 -0.0868
  910MPD2     C13375   1.177   4.352  16.079  0.1528  0.5257  0.2641
  910MPD2    C113376   1.041   4.331  16.101  0.2617 -0.4074 -0.3772
  910MPD2    C213377   0.947   4.369  16.009 -0.6741 -0.2055  0.0079
  910MPD2    C313378   0.991   4.431  15.892  0.4400 -0.7987  0.9547
  910MPD2    C413379   1.126   4.440  15.868 -0.2328 -0.0225 -0.0294
  910MPD2    C513380   1.216   4.401  15.960  0.5536  0.2119  0.2507
  910MPD2     H13381   0.843   4.375  16.038 -0.2558  1.4039  1.1699
  910MPD2    H113382   1.163   4.474  15.771 -0.4636  0.1502 -0.0571
  910MPD2    H213383   1.256   4.320  16.147  1.3443  0.8804 -0.9614
  910MPD2    H313384   1.324   4.404  15.947  0.6137  0.8913  0.8942
  910MPD2     N13385   0.895   4.480  15.795 -1.1953 -0.2744  0.3471
  910MPD2    H513386   0.937   4.501  15.705 -1.8875 -1.5303 -0.2643
  910MPD2    N113387   0.989   4.270  16.220 -0.6318  0.6656  1.1499
  910MPD2    H713388   0.896   4.230  16.214 -0.5673  0.8269 -0.8016
  911MPD2     C13389   3.607   0.274  15.921  0.2315  0.5491  0.3270
  911MPD2    C113390   3.644   0.299  16.049  0.3485  0.0064  0.1187
  911MPD2    C213391   3.631   0.428  16.094  0.2648 -0.8298  0.2516
  911MPD2    C313392   3.570   0.523  16.030  0.3005  0.3852 -0.3843
  911MPD2    C413393   3.531   0.506  15.893  0.1207 -0.2988 -0.4617
  911MPD2    C513394   3.550   0.375  15.849  0.1233 -0.3355 -0.0805
  911MPD2     H13395   3.695   0.458  16.176  1.9290  1.6619 -1.9771
  911MPD2    H113396   3.491   0.579  15.825 -1.0296 -1.5960 -1.1673
  911MPD2    H213397   3.629   0.180  15.872 -0.2292  0.4397  0.3328
  911MPD2    H313398   3.532   0.360  15.743 -1.3390  0.7050  0.0204
  911MPD2     N13399   3.553   0.653  16.081  0.0136 -0.9633  0.1427
  911MPD2    H513400   3.565   0.730  16.015 -0.8808  1.1515  2.4311
  911MPD2    N113401   3.712   0.194  16.115  0.4702  0.4297 -0.3183
  911MPD2    H713402   3.718   0.103  16.071  0.1821  0.1268  0.2871
  912MPD2     C13403   3.163   0.726  15.723  0.2652  0.4721  0.2746
  912MPD2    C113404   3.176   0.690  15.857  0.5559 -0.3244 -0.0176
  912MPD2    C213405   3.193   0.559  15.896 -0.5250 -0.0259  0.1926
  912MPD2    C313406   3.190   0.460  15.800  0.3301 -0.2643  0.2911
  912MPD2    C413407   3.177   0.500  15.669  0.0981 -0.1654 -0.5732
  912MPD2    C513408   3.172   0.628  15.631 -0.3653 -0.2812  0.0108
  912MPD2     H13409   3.219   0.531  15.998  0.7096  0.5147  0.0324
  912MPD2    H113410   3.170   0.429  15.588 -0.5401 -1.2451  0.4186
  912MPD2    H213411   3.167   0.830  15.691 -1.8544 -0.0664 -1.7024
  912MPD2    H313412   3.175   0.648  15.524 -0.2241  2.2011  0.4958
  912MPD2     N13413   3.213   0.332  15.843 -0.4887  0.3650  0.6446
  912MPD2    H513414   3.230   0.325  15.943 -0.0836  0.3454  0.5748
  912MPD2    N113415   3.206   0.797  15.945  0.0461 -0.1467 -0.3649
  912MPD2    H713416   3.239   0.884  15.904  1.7162 -0.6335 -0.0839
  913MPD2     C13417   4.212   0.969  11.191 -0.3899 -1.0274 -0.0352
  913MPD2    C113418   4.127   1.073  11.218 -0.4701  0.9533 -0.2604
  913MPD2    C213419   4.059   1.127  11.115 -0.8039  0.1107 -0.2043
  913MPD2    C313420   4.058   1.082  10.982 -0.0625 -0.3839 -0.3541
  913MPD2    C413421   4.141   0.973  10.963  1.1930  0.4987  1.1655
  913MPD2    C513422   4.224   0.926  11.060 -0.2189 -0.1824 -0.5821
  913MPD2     H13423   3.978   1.198  11.130 -0.6854 -0.0024  0.9061
  913MPD2    H113424   4.155   0.940  10.861  0.9679 -0.1379  1.3433
  913MPD2    H213425   4.262   0.921  11.275  0.7032  2.5613  1.3813
  913MPD2    H313426   4.295   0.848  11.033  1.6674  1.6810 -1.0316
  913MPD2     N13427   3.993   1.139  10.871 -0.1795  0.4392  0.0076
  913MPD2    H513428   3.996   1.092  10.780  0.3096 -0.2480  0.3775
  913MPD2    N113429   4.113   1.118  11.350 -0.4993 -0.5194 -0.0436
  913MPD2    H713430   4.166   1.068  11.421 -0.1478  0.3727  0.3236
  914MPD2     C13431   1.307   1.842  12.379  0.0406  0.1281 -0.3160
  914MPD2    C113432   1.334   1.932  12.482  0.2224 -1.1442 -0.0998
  914MPD2    C213433   1.389   1.885  12.601  0.2885 -0.0714 -0.6554
  914MPD2    C313434   1.407   1.750  12.628 -0.2781 -0.6587 -1.0355
  914MPD2    C413435   1.364   1.663  12.531  0.1493 -1.6249  0.0765
  914MPD2    C513436   1.318   1.710  12.407  0.7293 -0.4063  0.2018
  914MPD2     H13437   1.426   1.957  12.673 -3.7753  0.9302  0.4645
  914MPD2    H113438   1.369   1.556  12.547 -1.4284 -1.6224  0.6064
  914MPD2    H213439   1.283   1.868  12.276 -1.6972  2.3882  0.6373
  914MPD2    H313440   1.288   1.638  12.332  1.3852 -1.5337  1.0181
  914MPD2     N13441   1.442   1.706  12.750 -0.1132  0.7166 -0.0935
  914MPD2    H513442   1.450   1.775  12.824 -0.7587  1.5059 -0.7650
  914MPD2    N113443   1.314   2.074  12.458  0.5848  1.1542  0.6366
  914MPD2    H713444   1.287   2.103  12.365  0.0511 -0.8197  0.1921
  915MPD2     C13445   0.200   1.582  15.465  0.0933  0.5984  0.3147
  915MPD2    C113446   0.061   1.592  15.433 -0.6424  0.2284  0.5939
  915MPD2    C213447   4.716   1.608  15.541 -0.4406 -0.5423  0.6655
  915MPD2    C313448   0.020   1.603  15.670  0.2780  0.2784 -0.7563
  915MPD2    C413449   0.153   1.590  15.696  0.2434  0.5981 -0.2371
  915MPD2    C513450   0.239   1.575  15.590 -0.1074 -0.4639 -0.2586
  915MPD2     H13451   4.610   1.614  15.518  0.1214  3.1405 -1.0550
  915MPD2    H113452   0.199   1.603  15.793 -1.1975  0.7042  0.4294
  915MPD2    H213453   0.277   1.573  15.389  0.1878 -2.6493  0.8161
  915MPD2    H313454   0.343   1.587  15.618 -0.1523  0.1639 -0.3487
  915MPD2     N13455   4.665   1.630  15.770 -0.1222 -0.3099 -0.5046
  915MPD2    H513456   4.568   1.635  15.742  0.0218 -4.1540 -1.7490
  915MPD2    N113457   0.018   1.576  15.297 -0.3394 -0.7491  0.0009
  915MPD2    H713458   0.087   1.553  15.227 -0.9366 -1.0173 -0.5005
  916MPD2     C13459   2.767   0.320  16.063 -0.5192  0.9783 -0.2198
  916MPD2    C113460   2.762   0.184  16.069 -0.3063  0.4465  0.3916
  916MPD2    C213461   2.799   0.112  15.960 -0.2858  0.0809  0.1877
  916MPD2    C313462   2.835   0.180  15.841 -0.6435 -0.8074  0.2113
  916MPD2    C413463   2.850   0.319  15.842  0.2356  0.1851  0.4310
  916MPD2    C513464   2.822   0.383  15.959 -0.0082 -0.2636  0.1367
  916MPD2     H13465   2.788   0.006  15.945 -1.3910  0.4916 -1.8051
  916MPD2    H113466   2.881   0.376  15.756 -0.9920 -0.4663 -0.4398
  916MPD2    H213467   2.728   0.381  16.143 -0.2126 -0.7047  1.2070
  916MPD2    H313468   2.832   0.491  15.965  0.6483 -0.4114  1.6529
  916MPD2     N13469   2.860   0.107  15.726 -0.0511 -0.4803  0.4807
  916MPD2    H513470   2.886   0.009  15.730 -0.9670 -0.7919 -1.4934
  916MPD2    N113471   2.677   0.125  16.164 -0.2536  0.2318 -0.2608
  916MPD2    H713472   2.634   0.191  16.228 -0.0707 -1.2830  1.4648
  917MPD2     C13473   2.775   2.278  11.210 -0.3312 -0.1883 -0.0312
  917MPD2    C113474   2.772   2.381  11.298 -0.4384 -1.2440 -0.5444
  917MPD2    C213475   2.808   2.505  11.248 -0.3828  0.3521 -0.5071
  917MPD2    C313476   2.847   2.519  11.112 -0.3564 -0.2576 -0.2753
  917MPD2    C413477   2.864   2.409  11.032  0.4691 -0.3716  0.0061
  917MPD2    C513478   2.820   2.291  11.083 -0.3448 -0.3961  0.7626
  917MPD2     H13479   2.781   2.591  11.308  1.1389  0.0642  0.6143
  917MPD2    H113480   2.912   2.413  10.935  1.2153  0.1005  0.3916
  917MPD2    H213481   2.747   2.176  11.235  0.2854 -0.5349 -0.7563
  917MPD2    H313482   2.845   2.210  11.016  1.8178 -0.1321  1.2651
  917MPD2     N13483   2.888   2.639  11.059 -0.2621 -0.5022 -0.2210
  917MPD2    H513484   2.933   2.628  10.969 -0.6708 -2.5936 -0.1616
  917MPD2    N113485   2.699   2.360  11.423  0.2823  0.0815 -0.3034
  917MPD2    H713486   2.662   2.268  11.444  0.7664  0.2043  1.1059
  918MPD2     C13487   2.774   2.852  12.290 -0.3877  0.1434  0.9004
  918MPD2    C113488   2.870   2.842  12.194  0.1397  0.3254 -0.8089
  918MPD2    C213489   2.855   2.753  12.095 -0.6802 -0.7708  0.6371
  918MPD2    C313490   2.747   2.669  12.093  0.2110 -0.0114  0.1998
  918MPD2    C413491   2.645   2.689  12.180 -0.3406 -0.3196 -0.7477
  918MPD2    C513492   2.662   2.782  12.284 -0.1035  0.3687 -0.1202
  918MPD2     H13493   2.920   2.734  12.010  0.9038  4.5741  0.6146
  918MPD2    H113494   2.545   2.655  12.153 -0.1272 -0.3719 -1.4934
  918MPD2    H213495   2.788   2.924  12.370 -0.9428  1.9479 -0.6477
  918MPD2    H313496   2.589   2.803  12.361 -0.3735 -2.4558  0.3864
  918MPD2     N13497   2.726   2.576  11.989 -0.9122 -0.0927 -0.2273
  918MPD2    H513498   2.799   2.577  11.918 -0.5114 -1.7927  0.1757
  918MPD2    N113499   3.002   2.888  12.212 -0.0725  0.1816 -0.3555
  918MPD2    H713500   3.057   2.875  12.128 -0.9505  1.7209 -1.1715
  919MPD2     C13501   3.541   1.353  12.059  0.6920  0.0778 -0.0593
  919MPD2    C113502   3.532   1.231  11.993 -0.1452  0.1832 -0.0062
  919MPD2    C213503   3.596   1.214  11.872 -0.2851  0.1794 -0.1689
  919MPD2    C313504   3.662   1.328  11.815  0.4461 -0.2135 -0.5054
  919MPD2    C413505   3.673   1.446  11.880  0.0275  0.0880  0.0456
  919MPD2    C513506   3.604   1.457  11.997 -0.4355  0.2343 -0.2012
  919MPD2     H13507   3.580   1.124  11.815  0.8368 -2.0057  2.9569
  919MPD2    H113508   3.729   1.529  11.837 -0.2805  0.3461  0.1413
  919MPD2    H213509   3.496   1.378  12.155  0.1019 -1.8329  0.1687
  919MPD2    H313510   3.621   1.542  12.062  0.1448 -0.0606  0.0269
  919MPD2     N13511   3.709   1.337  11.681 -0.0403 -0.3510  0.1660
  919MPD2    H513512   3.745   1.428  11.652 -1.3825  0.0736 -0.2100
  919MPD2    N113513   3.460   1.119  12.040 -0.0524  0.9181 -0.3440
  919MPD2    H713514   3.444   1.050  11.968  0.3464  1.9175 -1.4023
  920MPD2     C13515   3.408   1.936  10.945  0.1527 -0.1961  0.4434
  920MPD2    C113516   3.363   1.807  10.905  1.2423  0.9427 -0.2147
  920MPD2    C213517   3.420   1.697  10.969  1.1306 -0.3987  0.7731
  920MPD2    C313518   3.514   1.709  11.067 -0.1739 -0.5363 -0.0107
  920MPD2    C413519   3.541   1.835  11.113  0.2014  0.6319 -0.3390
  920MPD2    C513520   3.496   1.951  11.052 -0.2589  0.0991  0.6466
  920MPD2     H13521   3.398   1.603  10.920  0.5310  0.2724 -0.2278
  920MPD2    H113522   3.607   1.852  11.198  1.3758 -0.2488 -1.0691
  920MPD2    H213523   3.379   2.030  10.899 -0.2185 -0.6764 -0.3032
  920MPD2    H313524   3.528   2.048  11.089  0.2672  0.3402 -0.4561
  920MPD2     N13525   3.553   1.588  11.131  0.0627 -0.6838 -0.0722
  920MPD2    H513526   3.538   1.502  11.080 -1.2247  0.3761 -1.4733
  920MPD2    N113527   3.268   1.792  10.803 -0.3248  0.4037 -0.3824
  920MPD2    H713528   3.248   1.693  10.789 -3.4040  1.2167 -1.5965
  921MPD2     C13529   4.375   0.460  16.728  0.7892 -0.9969  0.5692
  921MPD2    C113530   4.388   0.437  16.591  0.2909 -0.4606  0.4697
  921MPD2    C213531   4.303   0.343  16.538 -0.1963 -0.4118 -0.5853
  921MPD2    C313532   4.205   0.276  16.615  0.3991  0.1369 -0.7062
  921MPD2    C413533   4.188   0.314  16.748  0.3647 -0.1415  0.1932
  921MPD2    C513534   4.276   0.402  16.802  0.2538 -0.4497 -0.1586
  921MPD2     H13535   4.323   0.312  16.436  1.1977 -0.1677 -0.3758
  921MPD2    H113536   4.112   0.271  16.812  0.4429 -1.6727 -0.7468
  921MPD2    H213537   4.435   0.541  16.767 -0.2433  0.2793 -0.4743
  921MPD2    H313538   4.261   0.425  16.907  0.0613 -1.4214  0.0290
  921MPD2     N13539   4.109   0.174  16.566 -0.5992  0.0891 -0.8803
  921MPD2    H513540   4.029   0.144  16.621 -0.4656  2.5063  0.6370
  921MPD2    N113541   4.481   0.518  16.521  0.0086 -0.1898 -0.4786
  921MPD2    H713542   4.531   0.581  16.583  1.2599  0.3877 -2.0870
  922MPD2     C13543   0.188   3.038  17.129  0.3099 -0.3882  0.5346
  922MPD2    C113544   0.207   2.902  17.163 -0.6643  0.3417  0.3697
  922MPD2    C213545   0.089   2.820  17.163 -0.2343 -0.4012 -1.1018
  922MPD2    C313546   4.707   2.871  17.121 -0.8306  0.8061  0.2574
  922MPD2    C413547   4.697   3.005  17.085  0.0101 -0.4291  0.0576
  922MPD2    C513548   0.068   3.089  17.089 -0.2288  0.1718  0.2093
  922MPD2     H13549   0.098   2.720  17.204 -1.3888 -0.5451 -1.2021
  922MPD2    H113550   4.606   3.058  17.056  1.0821  1.2571 -0.2514
  922MPD2    H213551   0.263   3.117  17.128 -0.2548  0.1355 -0.4266
  922MPD2    H313552   0.047   3.193  17.068  2.2087  0.8379  1.0683
  922MPD2     N13553   4.592   2.790  17.107 -0.2129 -0.2899 -0.1867
  922MPD2    H513554   4.516   2.836  17.058 -0.5147  1.5540  2.0285
  922MPD2    N113555   0.322   2.846  17.214  0.5300 -0.3389 -0.1036
  922MPD2    H713556   0.322   2.751  17.250  0.9193 -0.6527 -0.9390
  923MPD2     C13557   0.954   1.435   9.595  0.6058 -0.1924  0.1258
  923MPD2    C113558   0.884   1.321   9.616  0.1919  0.6532  0.4908
  923MPD2    C213559   0.933   1.223   9.701  0.0424  0.6983  0.5404
  923MPD2    C313560   1.067   1.232   9.748 -0.7541 -0.2206  0.2421
  923MPD2    C413561   1.136   1.349   9.729 -0.2330 -0.9067  0.7133
  923MPD2    C513562   1.080   1.448   9.650  0.0198 -0.5275  0.1069
  923MPD2     H13563   0.871   1.144   9.741 -0.3355  0.3383 -0.7597
  923MPD2    H113564   1.236   1.361   9.769 -0.4829 -1.7717  1.5832
  923MPD2    H213565   0.910   1.518   9.540  0.2724  0.8372  1.9504
  923MPD2    H313566   1.135   1.537   9.623 -0.5384 -0.4782 -0.8601
  923MPD2     N13567   1.122   1.114   9.814 -0.0729  0.1026  0.0331
  923MPD2    H513568   1.214   1.128   9.855 -0.7762  1.2885  1.1905
  923MPD2    N113569   0.762   1.308   9.553  0.9092  0.5485 -0.1052
  923MPD2    H713570   0.730   1.380   9.490  1.3242  1.3372  0.5803
  924MPD2     C13571   1.581   3.174  16.440 -0.6047 -0.5289  0.1284
  924MPD2    C113572   1.506   3.243  16.525  0.1576  0.8706 -0.3217
  924MPD2    C213573   1.515   3.387  16.520  0.1413  0.5603 -0.4362
  924MPD2    C313574   1.585   3.449  16.423 -0.8740 -0.8994  0.5447
  924MPD2    C413575   1.659   3.372  16.330 -0.4695 -0.3162  0.6865
  924MPD2    C513576   1.660   3.237  16.352 -0.2640  0.2131 -0.0539
  924MPD2     H13577   1.446   3.449  16.575 -0.9859  0.4948 -1.7782
  924MPD2    H113578   1.722   3.420  16.255 -1.2038 -0.5869 -0.1001
  924MPD2    H213579   1.579   3.066  16.451 -0.3498 -0.3482  1.9709
  924MPD2    H313580   1.722   3.176  16.287  0.1244  0.5133  0.0362
  924MPD2     N13581   1.565   3.592  16.410 -0.5649  0.0360 -0.2184
  924MPD2    H513582   1.592   3.635  16.322  0.6285 -0.4498 -0.0769
  924MPD2    N113583   1.417   3.179  16.606  0.1443  0.0438  0.5316
  924MPD2    H713584   1.403   3.079  16.591 -0.7757 -0.1251  2.4541
  925MPD2     C13585   0.716   1.193  15.115 -0.0487 -0.2295 -0.0704
  925MPD2    C113586   0.582   1.216  15.072  0.2734  0.0481  0.8296
  925MPD2    C213587   0.486   1.254  15.159  0.8017 -0.1466 -0.3317
  925MPD2    C313588   0.514   1.268  15.291  0.0319 -0.5337  0.5891
  925MPD2    C413589   0.644   1.246  15.341  1.0193  0.2160  0.1833
  925MPD2    C513590   0.739   1.214  15.248  0.0498 -0.3291 -0.1556
  925MPD2     H13591   0.391   1.285  15.119  0.9977  0.2402 -0.4995
  925MPD2    H113592   0.663   1.226  15.446 -0.1063  1.8209  0.6960
  925MPD2    H213593   0.790   1.165  15.042 -0.7458  2.7849 -1.9060
  925MPD2    H313594   0.840   1.195  15.282 -0.5553 -3.3041 -0.0032
  925MPD2     N13595   0.406   1.269  15.383 -0.2112 -0.1290  0.6188
  925MPD2    H513596   0.427   1.245  15.479 -1.7931  1.6767  1.4339
  925MPD2    N113597   0.543   1.193  14.937 -0.2080 -0.3979  0.0060
  925MPD2    H713598   0.443   1.196  14.921 -0.4891 -0.3548  1.7138
  926MPD2     C13599   4.112   4.545  13.260 -0.2812 -0.6393  0.1997
  926MPD2    C113600   3.976   4.546  13.233  0.2532  0.2108  0.4495
  926MPD2    C213601   3.933   4.555  13.099 -0.6225 -0.2100  0.1984
  926MPD2    C313602   4.013   4.567  12.993 -0.4014  0.2834 -0.5156
  926MPD2    C413603   4.147   4.576  13.015  0.0021 -0.1581  0.1914
  926MPD2    C513604   4.194   4.573  13.148 -0.2762 -0.4299 -0.2320
  926MPD2     H13605   3.825   4.554  13.091 -0.6497  0.5706  0.4219
  926MPD2    H113606   4.215   4.590  12.932  1.2042 -0.6842  1.0856
  926MPD2    H213607   4.149   4.527  13.360 -0.4215  2.3910  0.8252
  926MPD2    H313608   4.300   4.583  13.167 -0.3590 -0.4105  0.2307
  926MPD2     N13609   3.968   4.577  12.861  0.2435  0.0214 -0.5184
  926MPD2    H513610   4.034   4.613  12.792 -0.3547  2.1086 -0.0177
  926MPD2    N113611   3.879   4.520  13.330 -0.1248 -0.0916 -0.5355
  926MPD2    H713612   3.787   4.524  13.288 -0.2017  1.0169 -0.2594
  927MPD2     C13613   3.476   1.476  17.671  0.2928  0.4302  0.1482
  927MPD2    C113614   3.475   1.606  17.636 -0.0468  0.5755 -0.0993
  927MPD2    C213615   3.547   1.642  17.521 -0.5994  0.1094  0.6480
  927MPD2    C313616   3.629   1.549  17.462 -0.4545  0.0877  0.4441
  927MPD2    C413617   3.632   1.415  17.502  0.2978 -0.0109  0.8604
  927MPD2    C513618   3.549   1.378  17.606 -0.2793  0.2616 -0.1285
  927MPD2     H13619   3.550   1.742  17.481 -0.0679 -0.6392 -1.2022
  927MPD2    H113620   3.679   1.341  17.439  1.2516  1.3994 -0.0921
  927MPD2    H213621   3.428   1.435  17.759 -0.8653  0.0225 -0.6620
  927MPD2    H313622   3.554   1.276  17.642  1.2860  0.6129  0.6349
  927MPD2     N13623   3.704   1.604  17.360  0.5229 -0.0837  0.4127
  927MPD2    H513624   3.711   1.705  17.367  1.5664 -0.1881  0.9120
  927MPD2    N113625   3.392   1.688  17.712  0.0316  0.1469  0.0190
  927MPD2    H713626   3.355   1.643   0.035  1.1554  0.2727  0.5819
  928MPD2     C13627   1.460   3.919   0.665  0.1238 -0.2617 -0.2557
  928MPD2    C113628   1.409   4.043   0.682 -0.1019 -0.4272  0.3969
  928MPD2    C213629   1.408   4.132   0.574 -0.1933 -0.1528  0.3203
  928MPD2    C313630   1.477   4.091   0.455 -0.1227 -0.2602 -0.0995
  928MPD2    C413631   1.518   3.961   0.445  0.3603 -0.4918 -0.1818
  928MPD2    C513632   1.500   3.870   0.545  0.2329  0.1297 -0.2683
  928MPD2     H13633   1.367   4.233   0.574  1.1716  0.4062  1.2495
  928MPD2    H113634   1.568   3.936   0.352 -0.8410 -1.1061 -0.6589
  928MPD2    H213635   1.465   3.844   0.743 -1.9313 -0.1354  0.0020
  928MPD2    H313636   1.535   3.770   0.526  3.2138  1.1687 -0.2470
  928MPD2     N13637   1.513   4.184   0.350 -0.1502  0.1827 -0.3949
  928MPD2    H513638   1.549   4.149   0.261  0.9814  2.0329 -0.6667
  928MPD2    N113639   1.388   4.082   0.820  0.8684  0.6209 -0.0033
  928MPD2    H713640   1.379   4.014   0.895  3.1751  0.0511 -0.2403
  929MPD2     C13641   0.891   0.410  10.065 -0.2808  0.4609  0.3259
  929MPD2    C113642   0.791   0.394  10.157 -0.4465  0.6059 -0.1276
  929MPD2    C213643   0.659   0.431  10.123  0.0919  0.6279 -0.1349
  929MPD2    C313644   0.637   0.491  10.000 -0.5155  0.9592  0.1324
  929MPD2    C413645   0.739   0.495   9.901 -0.0302 -0.1376 -0.0907
  929MPD2    C513646   0.865   0.458   9.941  0.1321  0.3205  0.4134
  929MPD2     H13647   0.580   0.431  10.197 -1.8302  1.3667 -2.1802
  929MPD2    H113648   0.726   0.542   9.804 -0.1661 -1.0331 -0.4996
  929MPD2    H213649   0.994   0.386  10.084 -0.7218 -0.5467  1.3951
  929MPD2    H313650   0.942   0.452   9.866 -0.2651 -1.7586  0.1727
  929MPD2     N13651   0.522   0.564   9.962 -0.1926 -0.2849  0.2274
  929MPD2    H513652   0.520   0.612   9.873 -0.0384 -0.3833  0.1704
  929MPD2    N113653   0.828   0.328  10.276  0.6666  0.3241  0.0053
  929MPD2    H713654   0.925   0.303  10.295 -0.4185 -3.4240  0.5098
  930MPD2     C13655   3.210   2.496  13.727  0.0061 -0.0336 -0.1499
  930MPD2    C113656   3.285   2.421  13.807  0.1034  0.1158  0.7574
  930MPD2    C213657   3.250   2.287  13.813  0.1611 -0.3273 -0.0309
  930MPD2    C313658   3.139   2.241  13.747  0.7630 -0.4635 -0.0041
  930MPD2    C413659   3.048   2.331  13.702 -0.0310  0.0066  0.1222
  930MPD2    C513660   3.085   2.460  13.684  1.1926 -0.5981 -0.4169
  930MPD2     H13661   3.314   2.221  13.870 -2.1605 -1.9850  0.6504
  930MPD2    H113662   2.958   2.289  13.657  0.8739 -1.4044 -0.3640
  930MPD2    H213663   3.228   2.599  13.700 -1.2227 -0.1117 -1.2555
  930MPD2    H313664   3.026   2.544  13.648  0.1146 -0.2756  2.1356
  930MPD2     N13665   3.106   2.103  13.742  0.6378  0.1127  0.2284
  930MPD2    H513666   3.006   2.088  13.732  0.4121  1.5295  0.4148
  930MPD2    N113667   3.400   2.474  13.870 -0.5173  0.5936 -0.2760
  930MPD2    H713668   3.412   2.574  13.857 -0.7850  0.9629  2.2147
  931MPD2     C13669   2.718   1.670   0.380  0.7267  0.1967  0.1931
  931MPD2    C113670   2.848   1.673   0.397  0.3044  0.5234  0.8241
  931MPD2    C213671   2.905   1.582   0.486 -1.0265 -0.6450  0.7428
  931MPD2    C313672   2.831   1.497   0.564 -0.1149  0.2805 -1.0040
  931MPD2    C413673   2.692   1.501   0.548  0.3330 -0.4487 -0.3696
  931MPD2    C513674   2.642   1.581   0.454 -0.6983  0.1323 -0.2412
  931MPD2     H13675   3.013   1.593   0.496 -0.8823 -0.9857 -0.4970
  931MPD2    H113676   2.632   1.432   0.607  2.0121  0.1061  1.9874
  931MPD2    H213677   2.676   1.721   0.294 -0.9997  1.8321  2.0135
  931MPD2    H313678   2.535   1.576   0.441 -0.9868 -0.8042  2.4458
  931MPD2     N13679   2.884   1.415   0.663 -0.1609 -0.2630 -0.4185
  931MPD2    H513680   2.813   1.367   0.719  0.7439 -0.3906  0.6382
  931MPD2    N113681   2.925   1.769   0.320  0.4636  1.5398 -0.7146
  931MPD2    H713682   2.872   1.842   0.273 -0.4697  0.9369 -0.5978
  932MPD2     C13683   0.266   0.738  10.790 -0.1519 -0.4721  0.2766
  932MPD2    C113684   0.311   0.800  10.901 -0.8343  1.4187 -0.4480
  932MPD2    C213685   0.342   0.727  11.015 -0.3782  0.3952  0.5444
  932MPD2    C313686   0.349   0.585  11.002 -0.1147  0.0864  0.1842
  932MPD2    C413687   0.311   0.526  10.882  0.1477  0.0040  0.0117
  932MPD2    C513688   0.261   0.605  10.780  0.5841 -0.2663  0.2213
  932MPD2     H13689   0.368   0.776  11.108  1.3806  2.9405 -1.2812
  932MPD2    H113690   0.323   0.419  10.871 -0.4300 -0.1980  1.3078
  932MPD2    H213691   0.246   0.797  10.701  1.0267 -2.0736 -1.0574
  932MPD2    H313692   0.231   0.547  10.693  0.3675  3.0257 -1.8632
  932MPD2     N13693   0.395   0.501  11.109  0.2733  0.3654  0.7033
  932MPD2    H513694   0.397   0.401  11.091 -1.5218  0.3403  0.6730
  932MPD2    N113695   0.316   0.939  10.902 -0.4965  0.3555 -0.0225
  932MPD2    H713696   0.334   0.989  10.988  3.1192  0.9591 -1.1463
  933MPD2     C13697   0.953   4.613   1.453  0.0554 -0.2322 -0.0752
  933MPD2    C113698   0.978   4.605   1.323 -0.4921  0.2996  0.0495
  933MPD2    C213699   0.910   4.699   1.241  0.6068 -0.3137  0.7439
  933MPD2    C313700   0.844   0.065   1.290  0.3138  0.0773  0.0481
  933MPD2    C413701   0.819   0.068   1.426 -0.8380  0.1107  0.2514
  933MPD2    C513702   0.880   4.712   1.506 -0.1048  0.0838  0.5218
  933MPD2     H13703   0.920   4.695   1.133  0.4094  0.7340  0.6870
  933MPD2    H113704   0.757   0.145   1.470 -0.5929 -0.9340  2.4000
  933MPD2    H213705   0.993   4.536   1.519  1.3135  1.1785  0.7924
  933MPD2    H313706   0.865   4.706   1.614  0.1384  1.1767  0.6206
  933MPD2     N13707   0.782   0.164   1.204  0.4827  0.8185  0.5690
  933MPD2    H513708   0.790   0.137   1.107  0.8055 -2.2547  1.4455
  933MPD2    N113709   1.062   4.498   1.287 -0.1940  0.1620 -0.6063
  933MPD2    H713710   1.103   4.441   1.360 -0.0740 -0.5703 -1.2435
  934MPD2     C13711   2.255   3.082   1.752  0.6398 -0.1382  0.4479
  934MPD2    C113712   2.372   3.008   1.751 -0.0335  0.1321 -0.1085
  934MPD2    C213713   2.361   2.869   1.732  0.0646 -0.2799  0.1076
  934MPD2    C313714   2.235   2.808   1.727 -0.2852  0.6461  0.4455
  934MPD2    C413715   2.121   2.878   1.752 -1.5584 -0.0246 -0.0599
  934MPD2    C513716   2.133   3.011   1.757  0.0170 -0.3312 -0.8132
  934MPD2     H13717   2.454   2.815   1.721  0.0964 -0.5142  1.5625
  934MPD2    H113718   2.028   2.822   1.753 -0.4836 -1.7393  2.4226
  934MPD2    H213719   2.256   3.189   1.737 -1.2093 -0.3388 -0.9572
  934MPD2    H313720   2.045   3.072   1.768  0.4565  0.2105 -0.3021
  934MPD2     N13721   2.213   2.675   1.678  0.4801  0.0072 -0.0492
  934MPD2    H513722   2.115   2.657   1.657  1.0051 -2.8758  0.0370
  934MPD2    N113723   2.499   3.073   1.754  0.0528  0.1103  0.0693
  934MPD2    H713724   2.577   3.020   1.717  1.4315  2.5497 -0.5569
  935MPD2     C13725   2.832   2.107   1.262  0.2984 -0.0597  0.5500
  935MPD2    C113726   2.706   2.077   1.217  0.0600  0.1048 -0.2353
  935MPD2    C213727   2.598   2.092   1.297 -0.1085 -0.1639  0.3075
  935MPD2    C313728   2.613   2.152   1.425 -0.8728  0.8664 -0.3547
  935MPD2    C413729   2.733   2.197   1.462  0.5958 -0.1671 -0.2107
  935MPD2    C513730   2.842   2.168   1.386 -0.2207 -0.0529  0.1233
  935MPD2     H13731   2.496   2.069   1.266  0.9031 -1.7675 -1.8481
  935MPD2    H113732   2.740   2.251   1.557 -0.3982  0.1588 -0.3235
  935MPD2    H213733   2.919   2.087   1.200  0.1196  0.2933  0.1896
  935MPD2    H313734   2.938   2.207   1.418 -0.3465 -1.7096  2.4917
  935MPD2     N13735   2.511   2.168   1.516  0.0405  0.3388  0.1054
  935MPD2    H513736   2.541   2.225   1.594  1.0244 -1.4231  1.0258
  935MPD2    N113737   2.683   2.027   1.086 -0.2487  0.5436  0.5169
  935MPD2    H713738   2.589   1.990   1.071 -0.1438  0.9214 -1.0831
  936MPD2     C13739   0.628   3.689  12.330 -0.1454 -0.5953  0.1337
  936MPD2    C113740   0.735   3.674  12.416  0.3291  0.7640 -0.2591
  936MPD2    C213741   0.855   3.729  12.377 -0.1751 -0.2305 -0.2387
  936MPD2    C313742   0.873   3.819  12.277  0.1706  0.5940 -0.5522
  936MPD2    C413743   0.754   3.854  12.210  0.2755 -0.4330  0.7665
  936MPD2    C513744   0.639   3.785  12.231 -0.2928  0.2309 -0.3105
  936MPD2     H13745   0.947   3.708  12.430 -0.5880 -0.8973  0.2141
  936MPD2    H113746   0.759   3.923  12.127 -0.6580 -0.6773  0.5046
  936MPD2    H213747   0.532   3.639  12.338 -0.9343  1.1490  1.7503
  936MPD2    H313748   0.559   3.801  12.160  0.3234 -0.9616 -1.2692
  936MPD2     N13749   0.998   3.880  12.266 -0.3231  0.0567  0.3740
  936MPD2    H513750   1.077   3.846  12.319  0.0600  0.0202 -0.2225
  936MPD2    N113751   0.734   3.585  12.528  0.0908 -0.2053 -0.3835
  936MPD2    H713752   0.821   3.575  12.580 -0.5331 -0.1639  0.6561
  937MPD2     C13753   3.633   0.455  12.023  0.2285 -0.5719  0.5384
  937MPD2    C113754   3.612   0.581  11.973  0.4647  0.7883  0.6545
  937MPD2    C213755   3.735   0.651  11.950 -0.2734  0.8256  1.2024
  937MPD2    C313756   3.863   0.595  11.951 -0.1902 -1.2684 -0.6455
  937MPD2    C413757   3.866   0.461  11.982  0.5178  0.0625 -0.2713
  937MPD2    C513758   3.754   0.388  12.004  0.4146 -0.0250 -0.3339
  937MPD2     H13759   3.730   0.759  11.943  0.1110  0.5165 -3.8351
  937MPD2    H113760   3.954   0.397  11.980  0.2560 -0.3312  0.6518
  937MPD2    H213761   3.556   0.388  12.060  0.4463 -0.2120  1.6291
  937MPD2    H313762   3.769   0.281  12.015  2.4437  0.0094 -2.8018
  937MPD2     N13763   3.971   0.676  11.916 -0.1106  0.4653 -0.6856
  937MPD2    H513764   3.948   0.774  11.904  0.5611  0.8054  0.6870
  937MPD2    N113765   3.498   0.653  12.001 -0.3258  0.4616 -0.4562
  937MPD2    H713766   3.497   0.747  11.961  1.9424  0.1553 -1.2288
  938MPD2     C13767   1.886   1.562   1.268  1.0123  0.6043  0.7862
  938MPD2    C113768   1.765   1.628   1.250  0.5313  0.0935 -0.0686
  938MPD2    C213769   1.647   1.567   1.274  0.1168  0.3533  0.3812
  938MPD2    C313770   1.642   1.439   1.319  0.1852  0.5866 -0.6479
  938MPD2    C413771   1.758   1.377   1.348 -0.5799 -0.7946  0.5313
  938MPD2    C513772   1.876   1.437   1.322 -0.5303 -0.0343  0.1274
  938MPD2     H13773   1.553   1.620   1.260  0.6069  1.5943  1.7933
  938MPD2    H113774   1.758   1.281   1.399 -0.8265 -0.4292  1.2154
  938MPD2    H213775   1.989   1.590   1.249  0.8134 -1.3538 -3.2889
  938MPD2    H313776   1.962   1.382   1.358 -0.3841 -1.3902 -2.2838
  938MPD2     N13777   1.525   1.378   1.359 -1.1120  0.1053 -0.1784
  938MPD2    H513778   1.544   1.292   1.409  0.9518 -0.8815 -2.6532
  938MPD2    N113779   1.756   1.751   1.188 -0.4372  0.9338  0.1505
  938MPD2    H713780   1.667   1.777   1.148 -0.7461 -1.2361 -0.6073
  939MPD2     C13781   2.245   3.033   0.179  0.3436  0.4819  0.8250
  939MPD2    C113782   2.183   2.915   0.202  0.4542  0.2728  0.7721
  939MPD2    C213783   2.193   2.816   0.111 -0.3496  0.5331  0.0984
  939MPD2    C313784   2.267   2.841  17.755  0.1989 -0.3777 -0.5694
  939MPD2    C413785   2.338   2.963  17.738 -0.1956  0.6264  0.0967
  939MPD2    C513786   2.326   3.064   0.069 -0.3522  0.4430 -0.3566
  939MPD2     H13787   2.139   2.722   0.119 -0.9677  0.7015 -1.8886
  939MPD2    H113788   2.403   2.991  17.656  1.4075 -1.6884  0.5974
  939MPD2    H213789   2.243   3.106   0.259 -0.8023  0.0044  1.2263
  939MPD2    H313790   2.364   3.165   0.059 -1.0077  0.7797  0.5664
  939MPD2     N13791   2.272   2.736  17.658 -0.0804 -0.3175  0.2043
  939MPD2    H513792   2.213   2.656  17.683 -0.7037 -0.3266 -1.2769
  939MPD2    N113793   2.124   2.903   0.325 -0.2294  0.0578 -0.0262
  939MPD2    H713794   2.132   2.981   0.390  1.8031 -3.0145  3.3669
  940MPD2     C13795   2.011   4.516  13.325 -0.1355 -0.0143  0.2444
  940MPD2    C113796   1.905   4.422  13.308  0.4894 -0.7086  0.1162
  940MPD2    C213797   1.884   4.377  13.178 -0.0389  0.2997 -0.0078
  940MPD2    C313798   1.963   4.411  13.073  0.1984  0.3185  0.7075
  940MPD2    C413799   2.068   4.499  13.092 -0.1762  0.5870  0.1951
  940MPD2    C513800   2.085   4.553  13.215  0.3651 -0.8365 -0.1114
  940MPD2     H13801   1.795   4.319  13.155 -1.2836  1.4422  1.9689
  940MPD2    H113802   2.115   4.548  13.007 -0.6105  0.1538 -0.2888
  940MPD2    H213803   2.022   4.570  13.418 -1.7834 -0.3461  0.6479
  940MPD2    H313804   2.162   4.629  13.220 -0.8343  0.4411 -1.2001
  940MPD2     N13805   1.942   4.368  12.939 -0.0461 -0.0722 -0.5402
  940MPD2    H513806   2.012   4.409  12.878 -0.9973 -0.5880 -1.9679
  940MPD2    N113807   1.812   4.384  13.409 -0.3812 -0.4369 -0.0383
  940MPD2    H713808   1.740   4.320  13.378 -1.4443  0.4317  0.6427
  941MPD2     C13809   0.301   2.955  10.655  0.3670 -0.3061  0.3458
  941MPD2    C113810   0.360   3.077  10.639  0.2215  0.1193 -0.1388
  941MPD2    C213811   0.490   3.082  10.584  0.5056  0.1028  0.0748
  941MPD2    C313812   0.566   2.970  10.554  0.5804 -0.6394  0.3334
  941MPD2    C413813   0.502   2.851  10.563  0.2935 -0.1741 -1.0316
  941MPD2    C513814   0.377   2.843  10.620  0.0202  0.4089  0.7177
  941MPD2     H13815   0.546   3.174  10.577 -1.3029  1.2471  0.8214
  941MPD2    H113816   0.566   2.767  10.539  0.8186  0.5232 -2.0667
  941MPD2    H213817   0.202   2.938  10.694  0.3720 -0.1210  0.4435
  941MPD2    H313818   0.328   2.747  10.613  0.1497  0.3117  1.1250
  941MPD2     N13819   0.700   2.970  10.508  0.1770 -0.3162  0.4910
  941MPD2    H513820   0.748   2.880  10.500  0.5601 -0.0619 -0.0368
  941MPD2    N113821   0.306   3.205  10.676 -0.0944 -0.2033 -0.7211
  941MPD2    H713822   0.366   3.287  10.672 -2.0058  1.2092  0.0647
  942MPD2     C13823   0.056   0.268  10.154 -0.8351  0.8208 -0.4276
  942MPD2    C113824   0.015   0.281  10.016 -0.7874 -0.0397  0.7921
  942MPD2    C213825   0.117   0.276   9.920 -0.6477 -0.2070  0.6362
  942MPD2    C313826   0.249   0.280   9.958  0.4558 -0.6031  0.0474
  942MPD2    C413827   0.282   0.288  10.088 -0.0297 -0.0740  0.2854
  942MPD2    C513828   0.188   0.286  10.189 -0.4042  0.6765 -0.1031
  942MPD2     H13829   0.087   0.271   9.816 -0.6137 -1.1537  0.6721
  942MPD2    H113830   0.388   0.294  10.110  0.2486 -0.4880 -0.9602
  942MPD2    H213831   4.729   0.267  10.239 -1.1328  0.8447 -0.6635
  942MPD2    H313832   0.216   0.282  10.293  0.1563  0.4311 -0.2653
  942MPD2     N13833   0.353   0.271   9.864  0.1135  0.7292  0.7106
  942MPD2    H513834   0.447   0.268   9.903 -0.4089  0.2996  1.9423
  942MPD2    N113835   4.623   0.274   9.975  0.0384 -0.7263  0.1276
  942MPD2    H713836   4.600   0.287   9.877 -1.3383 -0.5589  0.4755
  943MPD2     C13837   4.538   2.751  10.066 -0.3175 -0.1985 -0.0194
  943MPD2    C113838   4.465   2.672  10.156 -0.1223 -0.0803  0.0108
  943MPD2    C213839   4.406   2.735  10.261 -1.0642 -0.3013 -0.3657
  943MPD2    C313840   4.401   2.869  10.274  0.3348  0.3890  0.3728
  943MPD2    C413841   4.474   2.946  10.185 -0.0964  0.2268  0.2794
  943MPD2    C513842   4.545   2.890  10.080 -0.3840  0.2363 -0.4219
  943MPD2     H13843   4.363   2.673  10.339  0.2993  0.0244  0.6584
  943MPD2    H113844   4.478   3.054  10.193  2.1479  0.3844 -3.2845
  943MPD2    H213845   4.594   2.708   9.984 -1.4922 -2.7207  0.5002
  943MPD2    H313846   4.610   2.949  10.016  1.0742 -0.0840  0.7684
  943MPD2     N13847   4.333   2.935  10.377  0.3591  0.0239  0.1075
  943MPD2    H513848   4.322   3.034  10.361  1.9438  0.3306  0.8864
  943MPD2    N113849   4.454   2.533  10.146 -0.2200  0.2292  0.2231
  943MPD2    H713850   4.472   2.493  10.055  2.3711 -1.9486  1.7064
  944MPD2     C13851   4.605   2.319  11.385 -0.1973  0.5817  0.2538
  944MPD2    C113852   4.527   2.294  11.269  0.1403  0.9584 -0.5962
  944MPD2    C213853   4.389   2.301  11.284  0.3729  0.7270 -0.6432
  944MPD2    C313854   4.328   2.325  11.405  0.0523 -0.5102 -0.3992
  944MPD2    C413855   4.412   2.341  11.515 -0.0124  0.0626 -0.7869
  944MPD2    C513856   4.547   2.332  11.506  0.4817 -0.8748  0.7988
  944MPD2     H13857   4.317   2.298  11.203 -1.6306 -0.3124  1.1604
  944MPD2    H113858   4.383   2.375  11.614  2.1291 -0.4205  0.0145
  944MPD2    H213859   4.711   2.337  11.370 -0.6633  0.2932 -3.3211
  944MPD2    H313860   4.609   2.379  11.581 -0.0321 -1.7465  1.7619
  944MPD2     N13861   4.188   2.337  11.409 -1.0832 -0.0496 -0.1617
  944MPD2    H513862   4.138   2.326  11.321  1.0251 -0.8882 -1.2443
  944MPD2    N113863   4.584   2.288  11.141 -0.1757  0.5496  0.0444
  944MPD2    H713864   4.682   2.301  11.118 -0.2214 -0.9776 -1.0376
    1TMC1    C113865   2.454   2.697  14.761  0.0011 -0.0117  0.1005
    1TMC1    C213866   2.380   2.722  14.871  0.9021  0.4067 -0.1317
    1TMC1    C313867   2.368   2.611  14.956  0.0881  0.0901 -0.0711
    1TMC1    C413868   2.505   2.574  14.726  0.2429 -0.2385  0.0874
    1TMC1    C513869   2.492   2.472  14.809 -0.1455 -0.3183  0.2629
    1TMC1    C613870   2.423   2.482  14.929 -0.0066  0.3087  0.3670
    1TMC1     C13871   2.516   2.806  14.682  0.2662 -0.1428  0.3533
    1TMC1     O13872   2.632   2.796  14.634  0.4888 -0.1135 -0.4311
    1TMC1     H13873   2.357   2.819  14.914 -0.0596 -0.2068  0.7332
    1TMC1    H113874   2.557   2.571  14.631  2.8183  3.4431  1.4070
    1TMC1    H213875   2.416   2.396  14.994  1.7294  1.0279  1.5232
    1TMC1    C713876   2.585   2.361  14.811 -0.3922 -0.1079 -0.2391
    1TMC1    C813877   2.276   2.630  15.066  0.6660  0.5387  0.2406
    1TMC1    O113878   2.548   2.251  14.853  0.0919 -0.5501 -0.1220
    1TMC1    O213879   2.256   2.728  15.131 -0.3870  0.6030 -0.3698
    1TMC1    O313880   2.710   2.400  14.789 -0.3512  0.4033  0.2093
    1TMC1    H313881   2.719   2.490  14.750 -0.6708  0.1166 -0.5302
    1TMC1    O513882   2.201   2.518  15.064  0.4921 -0.3142  0.2088
    1TMC1    H513883   2.223   2.460  14.988  2.0823  0.2660  0.2094
    2MPD2     C13884   2.519   3.263  14.466  0.3698  0.1700  0.0640
    2MPD2    C113885   2.406   3.262  14.548  0.1894  0.4636  0.3333
    2MPD2    C213886   2.377   3.141  14.606 -0.3332 -0.3247  0.5254
    2MPD2    C313887   2.463   3.028  14.597  0.1755 -0.4284  0.0226
    2MPD2    C413888   2.574   3.042  14.519  0.1678 -0.6429  0.4378
    2MPD2    C513889   2.598   3.154  14.450 -0.5384  0.2979  0.7412
    2MPD2     H13890   2.293   3.129  14.672  1.2353  1.0026  2.7485
    2MPD2    H113891   2.645   2.962  14.503 -1.6260 -1.3665 -3.8348
    2MPD2    H213892   2.532   3.350  14.403  2.6524 -0.7638 -0.7538
    2MPD2    H313893   2.680   3.152  14.379 -1.3978 -0.8352 -0.2163
    2MPD2     N13894   2.438   2.918  14.682 -1.0081  0.4236 -0.2147
    2MPD2    H513895   2.345   2.912  14.722 -0.5648  2.0627  1.0701
    2MPD2    N113896   2.339   3.382  14.562  0.0637  0.5854  0.0181
    2MPD2    H713897   2.354   3.467  14.508  1.2437  0.3646  0.0108
    3TMC2    C113898   2.150   3.501  14.640  0.4296 -0.2129  0.1062
    3TMC2    C213899   2.100   3.554  14.756 -0.6101  0.4578 -0.1739
    3TMC2    C313900   2.035   3.675  14.739 -0.3514  0.0533 -0.4000
    3TMC2    C413901   2.131   3.559  14.516 -0.0012  0.1982 -0.1638
    3TMC2    C513902   2.073   3.684  14.513 -0.3721  0.3485  0.3163
    3TMC2    C613903   2.007   3.738  14.620 -0.9206  0.6025  0.1407
    3TMC2     C13904   2.240   3.389  14.653 -0.3351  0.6882  0.2456
    3TMC2     O13905   2.229   3.324  14.761 -0.1320  0.1734 -0.4482
    3TMC2     H13906   2.115   3.513  14.855 -3.6019 -1.0356 -0.3317
    3TMC2    H113907   2.178   3.523  14.426 -1.0186  0.9722 -1.0063
    3TMC2    H213908   1.946   3.827  14.617  1.2751  2.1218  0.8500
    3TMC2    C713909   2.071   3.749  14.388  0.1948  0.1051 -0.4270
    3TMC2    C813910   1.978   3.737  14.856  0.0364 -0.2878  0.5418
    3TMC2    O113911   2.114   3.692  14.291  0.1887  0.3446  0.0410
    3TMC2    O213912   1.944   3.677  14.958  0.0953  0.2677 -0.6431
    3TMC2    O513913   2.030   3.859  14.865 -0.4890  0.4820  0.4610
    3TMC2    H513914   2.073   3.892  14.784  1.0186  0.9226  1.4261
    4TMC2    C113915   1.799   4.714  14.258  0.1312 -0.9472  0.3280
    4TMC2    C213916   1.810   0.046  14.368  0.4260  0.2609 -0.4987
    4TMC2    C313917   1.863   4.730  14.478  0.8518 -0.2819  0.2783
    4TMC2    C413918   1.860   4.588  14.242 -0.4735 -0.7224  0.0521
    4TMC2    C513919   1.921   4.537  14.353  0.6395 -0.4633  0.3955
    4TMC2    C613920   1.910   4.600  14.473 -0.7096 -0.0164 -0.1599
    4TMC2     C13921   1.669   4.727  14.191 -0.2443  0.5205 -0.1586
    4TMC2     O13922   1.581   0.038  14.258  0.0022  0.3428 -0.8163
    4TMC2     H13923   1.759   0.141  14.381  0.3489  0.3365 -1.3088
    4TMC2    H113924   1.821   4.520  14.168  1.5984  0.4325 -2.0918
    4TMC2    H213925   1.969   4.566  14.557  1.2789  0.0409 -1.5426
    4TMC2    C713926   1.950   4.389  14.362 -0.5318  0.4718 -0.4899
    4TMC2    C813927   1.900   0.072  14.589 -0.5051 -0.3624  0.0235
    4TMC2    O113928   1.975   4.350  14.474  0.5736 -0.1637 -0.0265
    4TMC2    O213929   1.898   0.190  14.565  0.4871 -0.1365 -0.7601
    4TMC2    O513930   1.822   0.026  14.689 -0.6406  0.2376 -0.1144
    4TMC2    H513931   1.825   4.669  14.698  2.1355  0.4413  1.1739
    5MPD2     C13932   1.343   4.701  13.805 -0.3051 -0.2182  0.7259
    5MPD2    C113933   1.468   4.707  13.755 -0.4982 -0.8564  0.3273
    5MPD2    C213934   1.572   4.692  13.842  0.5582  0.0990 -0.3766
    5MPD2    C313935   1.552   4.694  13.981 -0.1430  0.0820  0.2409
    5MPD2    C413936   1.428   4.700  14.030  0.2934 -0.4853  0.0399
    5MPD2    C513937   1.326   4.703  13.938  0.0468  0.0249  0.1244
    5MPD2     H13938   1.675   4.689  13.811  0.7501  0.8478  0.1879
    5MPD2    H113939   1.407   4.713  14.136 -1.9171 -2.1413 -0.1943
    5MPD2    H213940   1.257   4.721  13.741  0.0972  0.4013  0.3808
    5MPD2    H313941   1.224   4.717  13.973 -0.9978 -0.4528 -2.7136
    5MPD2     N13942   1.670   4.691  14.055 -0.0705 -0.5430 -0.5934
    5MPD2    H513943   1.756   4.663  14.008  1.0637 -2.2924  2.5475
    5MPD2    N113944   1.488   4.707  13.618  0.4547  0.4874 -0.3128
    5MPD2    H713945   1.407   4.693  13.560  0.1797 -1.5256  0.5655
    6MPD1     C13946   1.114   0.057  11.670 -0.5699  0.9417 -0.7959
    6MPD1    C113947   1.057   4.698  11.735  0.1069  0.1421  0.1174
    6MPD1    C213948   1.094   4.671  11.866 -0.5592  0.2459  0.4914
    6MPD1    C313949   1.182   0.012  11.935 -0.2409 -0.6993  0.8305
    6MPD1    C413950   1.249   0.117  11.863  0.0369  0.1034 -0.7654
    6MPD1    C513951   1.217   0.126  11.728  0.6443 -1.1552 -0.3998
    6MPD1     H13952   1.035   4.595  11.916 -1.5188 -0.6500 -2.0294
    6MPD1    H113953   1.318   0.185  11.911  1.3338 -0.4433 -1.8887
    6MPD1    H213954   1.089   0.087  11.569 -0.9016 -1.7710 -1.5074
    6MPD1    H313955   1.260   0.210  11.675  0.9489 -0.6591  0.6138
    6MPD1     N13956   1.228   4.723  12.072 -0.9102 -0.6004  0.5076
    6MPD1    H513957   1.315   0.027  12.101 -0.2407 -0.5023 -1.6179
    6MPD1    N113958   0.975   4.604  11.677  0.5801  0.2067  0.6093
    6MPD1    H613959   0.926   4.631  11.592  0.5537 -1.1475  0.1899
    6MPD1    H713960   0.897   4.572  11.735 -0.4579  0.8037 -0.4545
    7MPD2     C13961   1.078   4.363  12.845  0.2456 -0.3762  0.1188
    7MPD2    C113962   1.158   4.476  12.831  0.7902  0.1673 -0.7217
    7MPD2    C213963   1.236   4.517  12.942  0.7574 -0.1385 -0.4330
    7MPD2    C313964   1.252   4.441  13.058  0.4719  0.3154  0.4213
    7MPD2    C413965   1.176   4.328  13.067  0.0305  0.3461 -0.0732
    7MPD2    C513966   1.091   4.291  12.962 -0.2874  0.0821  0.1564
    7MPD2     H13967   1.282   4.615  12.934 -2.2260  1.1778 -1.2405
    7MPD2    H113968   1.181   4.266  13.156  0.0264 -0.6540 -0.7663
    7MPD2    H213969   1.003   4.326  12.776  1.5108 -0.6246 -1.1394
    7MPD2    H313970   1.036   4.199  12.981  1.3424 -0.2476  3.4366
    7MPD2     N13971   1.349   4.473  13.161  0.1834 -0.3670 -0.3630
    7MPD2    H513972   1.360   4.413  13.242  3.5332 -0.7245 -1.0531
    7MPD2    N113973   1.151   4.567  12.721  0.0958 -0.2236 -0.1642
    7MPD2    H713974   1.219   4.642  12.725  0.9744 -0.9633 -1.1693
    8TMC3    C113975   1.553   4.562  13.244 -0.2906  0.3908  0.1082
    8TMC3    C213976   1.528   4.614  13.364  0.1112 -0.3809 -0.1335
    8TMC3    C313977   1.590   4.727  13.407  0.0476 -0.6578  0.3938
    8TMC3    C413978   1.655   4.613  13.176  0.8677  0.0725  0.2562
    8TMC3    C513979   1.716   4.730  13.215  0.2083  0.1033  0.7406
    8TMC3    C613980   1.684   0.048  13.330  0.6228 -0.8142 -0.1779
    8TMC3     C13981   1.440   4.571  13.156 -0.6382  0.7570  0.0597
    8TMC3     O13982   1.452   4.655  13.069 -0.0364  0.5087  0.4321
    8TMC3     H13983   1.449   4.572  13.425 -1.2124 -0.0279 -1.6060
    8TMC3    H113984   1.681   4.576  13.077  0.8423 -0.5594  0.4868
    8TMC3    H213985   1.726   0.144  13.361 -1.2577 -0.5941  1.6765
    8TMC3    C713986   1.754   0.081  13.100  0.1018 -0.8085 -0.4209
    8TMC3    C813987   1.601   0.003  13.550 -0.2464 -0.3443 -0.0397
    8TMC3    O113988   1.838   0.164  13.113  0.1182  0.0559 -0.1210
    8TMC3    O213989   1.705   0.045  13.602 -0.5353  0.0004  0.4375
    9TMC3    C113990   1.201   4.681  12.297  0.5553  0.4389 -0.0267
    9TMC3    C213991   1.247   0.068  12.335 -0.5574 -0.3914 -0.2927
    9TMC3    C313992   1.226   0.109  12.462 -0.0183  0.4507 -0.6568
    9TMC3    C413993   1.141   4.595  12.387  0.1009 -0.0121 -0.1737
    9TMC3    C513994   1.107   4.648  12.508 -0.0803 -0.5079  0.7062
    9TMC3    C613995   1.152   0.027  12.555 -1.0282  0.5754  0.3804
    9TMC3     C13996   1.157   4.651  12.165 -0.1291 -0.6500  0.4918
    9TMC3     O13997   1.062   4.572  12.148  0.4518 -0.0069  0.0037
    9TMC3     H13998   1.304   0.131  12.268  0.3335 -1.8837 -0.9210
    9TMC3    H113999   1.105   4.501  12.347  2.1036 -1.6150  1.7765
    9TMC3    H214000   1.103   0.067  12.643  0.4956  2.4994  0.3400
    9TMC3    C714001   1.069   4.547  12.609 -0.2447 -0.6472 -0.2030
    9TMC3    C814002   1.331   0.194  12.518  0.0902 -0.6397 -0.7204
    9TMC3    O114003   0.992   4.453  12.573 -0.5871  0.3243  0.0110
    9TMC3    O214004   1.396   0.270  12.445  0.0499 -0.3313 -0.1917
   10MPD2     C14005   1.723   0.228  12.845  0.0734 -0.9918 -0.1325
   10MPD2    C114006   1.642   0.130  12.890  0.8873 -0.3477 -0.3950
   10MPD2    C214007   1.518   0.121  12.826  0.2168  0.2743 -0.2866
   10MPD2    C314008   1.487   0.191  12.709 -0.2447 -0.5305  0.3095
   10MPD2    C414009   1.576   0.280  12.661  0.0981 -0.2904 -0.2540
   10MPD2    C514010   1.694   0.290  12.730 -0.9166  0.3265 -0.1327
   10MPD2     H14011   1.450   0.047  12.865  0.7383  0.5917  1.2492
   10MPD2    H114012   1.566   0.342  12.573  0.3170 -1.4390 -1.1016
   10MPD2    H214013   1.818   0.249  12.893 -1.2504  0.8543  1.6942
   10MPD2    H314014   1.768   0.361  12.695  0.2092 -0.6693  0.2078
   10MPD2     N14015   1.358   0.170  12.653  0.3497 -0.7313  0.4338
   10MPD2    H514016   1.284   0.124  12.705  1.5126 -0.4855  2.2938
   10MPD2    N114017   1.658   0.062  13.006 -0.2504 -0.4321 -0.1495
   10MPD2    H714018   1.588   4.733  13.028 -1.4996  0.7626 -0.3864
   11MPD2     C14019   2.016   3.931  14.159  0.2152 -0.4996 -0.0950
   11MPD2    C114020   2.008   3.969  14.289 -0.3514  0.5986  0.0374
   11MPD2    C214021   1.984   4.102  14.320 -0.2928  0.5880  0.0201
   11MPD2    C314022   1.977   4.195  14.216  0.2465  0.1758 -0.0595
   11MPD2    C414023   1.996   4.156  14.086  0.1925 -0.3656  1.3229
   11MPD2    C514024   2.007   4.023  14.056  0.2807  0.8728 -0.6502
   11MPD2     H14025   1.977   4.133  14.423 -1.6964  1.6552 -0.3891
   11MPD2    H114026   1.993   4.227  14.005 -1.4056  1.4179  2.9289
   11MPD2    H214027   2.019   3.828  14.125  0.0284 -0.3347 -0.6083
   11MPD2    H314028   2.013   3.987  13.954  0.5099 -0.4066 -0.1927
   11MPD2     N14029   1.948   4.327  14.238  0.0023 -0.2024  0.6150
   11MPD2    H514030   1.930   4.386  14.158  2.3858  2.0879  1.8034
   11MPD2    N114031   2.036   3.881  14.395  0.0356  0.1274 -0.0842
   11MPD2    H714032   2.027   3.918  14.489 -1.1345  1.9690 -0.9093
    1MPD1     C14033   0.007   0.149  16.416 -0.7815  0.5153  0.7405
    1MPD1    C114034   4.689   0.168  16.538 -0.1857  0.1466 -0.6062
    1MPD1    C214035   4.711   0.279  16.624 -0.6729 -0.3820 -0.9161
    1MPD1    C314036   0.069   0.365  16.575  0.3165 -0.0405 -0.4626
    1MPD1    C414037   0.122   0.349  16.447 -0.1568 -0.3300  0.2258
    1MPD1    C514038   0.099   0.240  16.372  0.1671 -0.2357  0.0146
    1MPD1     H14039   4.672   0.290  16.725 -2.1228 -0.4815 -1.4618
    1MPD1    H114040   0.194   0.421  16.410 -1.9971  0.1974 -2.4000
    1MPD1    H214041   4.716   0.073  16.346  1.8014  0.7327 -0.6420
    1MPD1    H314042   0.161   0.213  16.287 -0.0595  1.3842 -0.6620
    1MPD1     N14043   0.113   0.472  16.655  0.5853 -0.2106  0.2486
    1MPD1    H514044   0.194   0.521  16.617 -0.3831  0.4252 -0.9572
    1MPD1    N114045   4.579   0.089  16.571 -0.0621 -0.1649  0.5446
    1MPD1    H614046   4.492   0.134  16.542  0.0913 -1.3343 -1.7752
    1MPD1    H714047   4.564   0.077  16.671 -0.1984 -1.5328  0.3696
    2MPD1     C14048   0.226   1.145  17.502  0.3657  0.7876 -0.4843
    2MPD1    C114049   0.307   1.173  17.396 -0.6923 -0.4839  0.0777
    2MPD1    C214050   0.293   1.105  17.274  0.4633 -0.6040 -0.5705
    2MPD1    C314051   0.203   0.998  17.277  0.1885  0.0141 -0.0687
    2MPD1    C414052   0.126   0.973  17.380 -0.0707  0.0999  0.1362
    2MPD1    C514053   0.131   1.052  17.494 -0.8182  0.0233 -0.4578
    2MPD1     H14054   0.366   1.117  17.195 -1.8913  1.8922 -2.3943
    2MPD1    H114055   0.041   0.907  17.377  0.2863 -0.4097  1.4479
    2MPD1    H214056   0.241   1.200  17.595 -0.0565  2.2313 -1.2671
    2MPD1    H314057   0.063   1.032  17.576 -0.8457  1.1206 -0.2074
    2MPD1     N14058   0.194   0.925  17.160  0.1789  0.7534 -0.5784
    2MPD1    H514059   0.260   0.943  17.085 -0.0097  0.6446 -0.7681
    2MPD1    N114060   0.414   1.259  17.412  0.1571  0.1312  0.1125
    2MPD1    H614061   0.425   1.311  17.325 -1.9831  2.7091  1.3525
    2MPD1    H714062   0.394   1.320  17.491  1.5976  0.2538  0.3740
    3TMC3    C114063   0.187   0.727  17.029 -0.2666 -0.6604  0.2244
    3TMC3    C214064   0.318   0.725  17.015  0.4788  0.3692  0.0917
    3TMC3    C314065   0.366   0.661  16.901 -1.3313 -0.4871 -1.1307
    3TMC3    C414066   0.099   0.674  16.942 -0.0712 -0.3028 -0.1151
    3TMC3    C514067   0.154   0.602  16.836 -0.0913 -0.4066 -0.3049
    3TMC3    C614068   0.286   0.593  16.822 -0.6609  0.3223  0.4154
    3TMC3     C14069   0.124   0.815  17.133 -0.7962  1.0164 -0.3028
    3TMC3     O14070   0.011   0.784  17.170 -0.4789  0.4154 -1.1533
    3TMC3     H14071   0.381   0.758  17.096 -0.7241  0.4211  1.0089
    3TMC3    H114072   4.735   0.698  16.956  0.2182  2.0833 -2.0445
    3TMC3    H214073   0.320   0.556  16.726  1.0396 -0.0404  1.1624
    3TMC3    C714074   0.055   0.519  16.770  0.1576  0.8326 -0.0181
    3TMC3    C814075   0.496   0.697  16.840  0.1156 -0.1736  0.1619
    3TMC3    O114076   4.687   0.496  16.830 -0.3099 -0.3086  0.2130
    3TMC3    O214077   0.513   0.688  16.721 -0.0069 -0.1863  0.0520
    4MPD1     C14078   0.987   0.817  16.875 -0.2431 -0.5726  0.0092
    4MPD1    C114079   0.940   0.814  17.003 -0.7487  0.4626  0.4511
    4MPD1    C214080   0.800   0.796  17.012  0.3238  1.3908 -0.6707
    4MPD1    C314081   0.717   0.786  16.908 -0.3988 -0.4830 -0.4797
    4MPD1    C414082   0.772   0.804  16.783 -0.5065  0.5195  0.8663
    4MPD1    C514083   0.907   0.818  16.765  0.2275  0.0169 -0.4984
    4MPD1     H14084   0.767   0.772  17.112 -1.4134  1.0895 -1.3198
    4MPD1    H114085   0.714   0.802  16.691  0.0788 -0.9657  0.5229
    4MPD1    H214086   1.092   0.825  16.850 -0.9737 -0.1625 -2.8431
    4MPD1    H314087   0.943   0.828  16.663 -1.1927 -2.0447 -1.1942
    4MPD1     N14088   0.581   0.752  16.934 -0.1810  0.3199 -0.1587
    4MPD1    H514089   0.554   0.763  17.031  1.1668  3.3104 -0.1067
    4MPD1    N114090   1.032   0.789  17.109 -0.2108  0.0458  0.0637
    4MPD1    H614091   1.114   0.849  17.103 -0.4727  0.3422 -0.5769
    4MPD1    H714092   0.987   0.816  17.196  2.0803 -0.1090  1.2965
    1TCq1    O114093   0.771   0.668  10.674 -0.8100 -0.4809  0.1870
    1TCq1    C114094   0.752   0.577  10.777  0.0428 -0.3292  0.0005
    1TCq1    O214095   0.774   0.456  10.776  0.4815  0.0128  0.2105
    1TCq1    C214096   0.743   0.657  10.897 -0.1741  0.8703  0.4363
    1TCq1    C314097   0.683   0.776  10.903 -0.2347  0.0392 -0.0188
    1TCq1    C414098   0.647   0.831  11.025  0.1602 -0.5971 -0.3164
    1TCq1    C514099   0.693   0.779  11.140  0.6370 -0.1809  0.1697
    1TCq1    C614100   0.753   0.652  11.136 -0.0202  0.3676 -0.0935
    1TCq1    C714101   0.765   0.586  11.012 -0.5314 -0.3943 -0.6040
    1TCq1    C814102   0.812   0.585  11.252  0.6661 -0.1533 -0.1863
    1TCq1    O414103   0.863   0.473  11.235  0.0292  0.7760 -0.0992
    1TCq1    C914104   0.600   0.965  11.030 -0.3429  0.1946 -0.1641
    1TCq1    O514105   0.643   1.050  10.944 -0.2319 -0.2279 -0.1418
    1TCq1    O614106   0.504   0.988  11.110  0.3516  0.5490 -0.4539
    1TCq1    H114107   0.749   0.758  10.705 -1.1661 -0.3602 -0.4200
    1TCq1    H214108   0.622   0.814  10.821 -1.1444 -0.3228  0.4891
    1TCq1    H314109   0.677   0.832  11.233 -0.0753 -0.7241  0.3563
    1TCq1    H414110   0.814   0.489  11.007 -0.1449 -0.1570 -1.4260
    2MPD1     C14111   1.058   0.625  11.688  0.2262 -0.8040 -0.6292
    2MPD1    C114112   0.948   0.711  11.696 -0.4601  0.6153  0.3132
    2MPD1    C214113   0.851   0.705  11.596 -0.2083  0.7943  0.2557
    2MPD1    C314114   0.878   0.630  11.485  0.4981  0.5220 -0.0591
    2MPD1    C414115   0.983   0.547  11.482 -0.0105 -0.0500 -0.1042
    2MPD1    C514116   1.079   0.544  11.583  0.7892 -0.2006  0.7594
    2MPD1     H14117   0.762   0.765  11.612  1.3685  3.2951 -0.3547
    2MPD1    H114118   1.018   0.497  11.393  2.2496 -0.5792  1.0802
    2MPD1    H214119   1.131   0.642  11.767 -0.9073  0.4235  0.1561
    2MPD1    H314120   1.168   0.489  11.559  1.5529  0.8073  1.2829
    2MPD1     N14121   0.797   0.658  11.370 -0.0257  0.2603 -0.0450
    2MPD1    H514122   0.718   0.722  11.370  0.1258  0.4475 -0.7273
    2MPD1    N114123   0.936   0.796  11.811  0.1851 -0.4706 -0.1505
    2MPD1    H614124   1.029   0.820  11.843 -0.6955  2.7504  0.0481
    2MPD1    H714125   0.877   0.877  11.789 -1.4946 -1.9189 -0.9941
    1TMC1    C114126   3.691   1.472   0.689 -0.3854  0.9548 -0.2476
    1TMC1    C214127   3.592   1.549   0.743 -0.3120  0.4557  0.2651
    1TMC1    C314128   3.578   1.552   0.883 -1.0331 -0.0875  0.8079
    1TMC1    C414129   3.789   1.411   0.761 -0.8285  0.1387 -0.5584
    1TMC1    C514130   3.765   1.416   0.896 -0.5389  0.5871 -0.2916
    1TMC1    C614131   3.664   1.483   0.963 -0.0221 -0.1104  0.0853
    1TMC1     C14132   3.691   1.462   0.543  0.1445 -0.0011  0.5095
    1TMC1     O14133   3.633   1.544   0.474 -0.0634  0.0665 -0.5612
    1TMC1     H14134   3.522   1.612   0.688 -0.8340 -0.7604 -0.4883
    1TMC1    H114135   3.862   1.341   0.723 -1.5093 -1.8446  1.8316
    1TMC1    H214136   3.664   1.513   1.067  0.3684 -0.0395  0.0647
    1TMC1    C714137   3.867   1.350   0.973  1.1732  0.1925  0.3127
    1TMC1    C814138   3.494   1.650   0.950 -0.4484 -0.0505 -0.2784
    1TMC1    O114139   3.976   1.326   0.926  0.0279  0.3977  0.1576
    1TMC1    O214140   3.492   1.675   1.069 -0.1544 -0.6170  0.3808
    1TMC1    O314141   3.850   1.395   1.101 -0.6449  0.2641  0.2312
    1TMC1    H314142   3.759   1.387   1.137 -0.4590  0.3862  0.7402
    1TMC1    O514143   3.407   1.704   0.863 -0.2832 -0.1745  0.6857
    1TMC1    H514144   3.413   1.675   0.770  0.2123 -0.6059  0.8522
    2MPD1     C14145   3.825   1.232   0.101  0.7127 -0.0710 -0.3987
    2MPD1    C114146   3.868   1.153   0.208 -0.6584 -0.3896  0.3810
    2MPD1    C214147   3.838   1.202   0.334  0.1588  0.0623 -0.3899
    2MPD1    C314148   3.781   1.324   0.359 -0.8526  0.0151 -0.4805
    2MPD1    C414149   3.738   1.406   0.256  0.3551 -0.2890 -0.0189
    2MPD1    C514150   3.763   1.355   0.131 -0.3441 -0.5925 -0.7976
    2MPD1     H14151   3.885   1.146   0.414  0.0081  1.8900  0.9468
    2MPD1    H114152   3.693   1.504   0.264 -1.0373 -1.0146  1.1518
    2MPD1    H214153   3.832   1.193   0.001 -0.8479 -0.3400 -0.4049
    2MPD1    H314154   3.730   1.408   0.042 -0.8713  0.7404  0.2019
    2MPD1     N14155   3.761   1.352   0.496 -0.0309 -0.1707 -0.5927
    2MPD1    H514156   3.789   1.278   0.560  1.2303 -0.4839 -1.4950
    2MPD1    N114157   3.928   1.030   0.193  0.4323  0.1574  0.4976
    2MPD1    H614158   3.960   1.010   0.098 -4.5019  0.8310 -1.3016
    2MPD1    H714159   4.011   1.023   0.251  0.2994 -1.2050  0.5087
    1MPD1     C14160   2.619   0.074  11.326 -0.0523  0.0136 -0.1398
    1MPD1    C114161   2.681   4.730  11.424 -0.5289  0.0803 -0.5604
    1MPD1    C214162   2.810   0.017  11.466  0.5478  0.6640  0.2606
    1MPD1    C314163   2.880   0.119  11.406  1.2527 -0.4064 -0.1876
    1MPD1    C414164   2.828   0.192  11.304  0.0252 -0.4416  0.0634
    1MPD1    C514165   2.698   0.170  11.263 -0.2435  0.3556 -0.5313
    1MPD1     H14166   2.840   4.705  11.555  0.9722  0.9939  0.3095
    1MPD1    H114167   2.875   0.265  11.238 -0.8452 -0.5005 -0.6301
    1MPD1    H214168   2.513   0.063  11.308 -0.2946 -0.5510  1.6440
    1MPD1    H314169   2.661   0.228  11.179  1.4305  0.7290 -0.9975
    1MPD1     N14170   3.008   0.150  11.461 -0.1538 -0.3675 -0.7651
    1MPD1    H514171   3.036   0.091  11.539  1.0656 -0.3280 -1.1784
    1MPD1    N114172   2.600   4.644  11.503 -0.2446 -0.9545 -0.5832
    1MPD1    H614173   2.650   4.568  11.549 -0.5868 -1.0482 -0.3592
    1MPD1    H714174   2.516   4.606  11.459 -1.7209  0.5679  0.9112
    2MPD1     C14175   1.729   1.112  11.794  0.4632 -0.8616 -0.9709
    2MPD1    C114176   1.726   1.125  11.653 -0.3664 -0.2101 -0.0809
    2MPD1    C214177   1.809   1.051  11.574 -0.5342 -0.0848 -0.5594
    2MPD1    C314178   1.918   0.992  11.634  0.5438 -0.4170  0.3598
    2MPD1    C414179   1.931   0.999  11.771  0.0147  0.1770  0.7028
    2MPD1    C514180   1.833   1.054  11.848 -0.1027  0.5654 -0.2318
    2MPD1     H14181   1.800   1.064  11.467 -0.5437  0.0119 -0.5469
    2MPD1    H114182   2.014   0.952  11.822 -0.4525 -0.5156  0.8250
    2MPD1    H214183   1.649   1.152  11.855  0.8771 -0.5019 -0.6664
    2MPD1    H314184   1.855   1.053  11.954 -0.9675  1.7158 -0.0473
    2MPD1     N14185   2.026   0.933  11.567  0.5982  0.1830  0.2265
    2MPD1    H514186   2.093   0.900  11.636 -0.3949 -1.0200  0.5939
    2MPD1    N114187   1.608   1.191  11.611  0.2612 -0.0520 -0.1727
    2MPD1    H614188   1.609   1.223  11.514 -0.0527 -1.3564 -0.6094
    2MPD1    H714189   1.558   1.257  11.670 -0.2758 -0.6362  0.0243
    3MPD1     C14190   2.155   0.458  10.699  0.4100 -0.3563 -0.3158
    3MPD1    C114191   2.066   0.429  10.801  0.0722 -0.5623  0.2681
    3MPD1    C214192   2.098   0.482  10.925  0.7064  0.2827  0.0525
    3MPD1    C314193   2.205   0.566  10.942  0.2924  0.4702  0.0222
    3MPD1    C414194   2.285   0.589  10.839 -0.2137 -0.2917  0.2105
    3MPD1    C514195   2.261   0.541  10.714  0.1568 -0.4518 -0.0797
    3MPD1     H14196   2.031   0.472  11.009  1.1274  0.9435  0.4704
    3MPD1    H114197   2.371   0.655  10.832 -1.1429  0.7928 -1.0743
    3MPD1    H214198   2.146   0.401  10.607 -1.3291  1.1510 -1.0789
    3MPD1    H314199   2.318   0.573  10.628 -0.2726  0.3468 -0.0667
    3MPD1     N14200   2.227   0.627  11.071 -0.8268 -0.1066 -0.1890
    3MPD1    H514201   2.155   0.612  11.141 -1.2985 -1.3943 -0.9458
    3MPD1    N114202   1.961   0.339  10.776 -0.8475  0.2286 -0.2963
    3MPD1    H614203   1.891   0.357  10.848  0.6941  3.4263  0.3834
    3MPD1    H714204   1.916   0.368  10.689  0.3234  0.2915 -0.8734
    4MPD2     C14205   3.021   0.670  11.916  0.4757  0.6311 -0.4816
    4MPD2    C114206   3.129   0.684  11.831 -0.5364  0.1664  0.1193
    4MPD2    C214207   3.168   0.815  11.785  0.2011  0.1689  0.5927
    4MPD2    C314208   3.097   0.928  11.832  0.8436 -0.1375  0.4935
    4MPD2    C414209   2.988   0.909  11.912 -0.1034  0.0558 -0.8884
    4MPD2    C514210   2.956   0.789  11.952 -0.7836 -1.0617 -0.2114
    4MPD2     H14211   3.252   0.822  11.718  0.3637 -2.9839  0.4706
    4MPD2    H114212   2.936   0.996  11.949  0.7965  0.4901 -0.6521
    4MPD2    H214213   2.985   0.570  11.937 -0.0412  1.3688  2.0671
    4MPD2    H314214   2.864   0.765  12.005  0.0752 -2.1055  0.8271
    4MPD2     N14215   3.128   1.071  11.791  0.6567 -0.3304  0.3394
    4MPD2    H514216   3.058   1.140  11.815  0.5340 -0.1832 -0.4540
    4MPD2    N114217   3.200   0.569  11.773 -0.5657 -0.3037 -0.7836
    4MPD2    H714218   3.279   0.595  11.716  0.5110  1.0227  1.3149
    5TMC3    C114219   3.275   0.353  11.730  0.2354 -0.3278  0.4658
    5TMC3    C214220   3.202   0.268  11.639 -0.0994  0.5420  0.3121
    5TMC3    C314221   3.214   0.277  11.507 -0.8965  0.0222 -0.2506
    5TMC3    C414222   3.375   0.426  11.671  0.5612  0.1372  0.3049
    5TMC3    C514223   3.386   0.433  11.536 -0.7471  0.0173 -0.3333
    5TMC3    C614224   3.314   0.355  11.453  0.2127 -0.1019  0.2428
    5TMC3     C14225   3.184   0.437  11.804 -0.6625 -0.4335 -0.0966
    5TMC3     O14226   3.084   0.380  11.849 -0.3467  0.3202 -0.3059
    5TMC3     H14227   3.117   0.219  11.685  0.4308 -0.4017  0.2963
    5TMC3    H114228   3.430   0.497  11.733 -0.7439  0.5449  1.0073
    5TMC3    H214229   3.322   0.366  11.346  1.7359  2.3781  0.6057
    5TMC3    C714230   3.416   0.571  11.492  0.2710  0.7213 -0.1082
    5TMC3    C814231   3.098   0.250  11.419  0.7645 -0.1861 -0.1876
    5TMC3    O114232   3.430   0.652  11.584  0.1302 -0.4066  0.0542
    5TMC3    O214233   3.086   0.329  11.327  0.2847  0.1350 -0.5870
    6TMC3    C114234   2.170   0.881  11.388 -1.2128  0.5928 -0.2784
    6TMC3    C214235   2.187   0.795  11.284  0.2937 -0.0913 -0.1649
    6TMC3    C314236   2.313   0.786  11.229 -0.0423  0.6863 -0.6683
    6TMC3    C414237   2.271   0.960  11.433  0.1350  0.1365 -0.2627
    6TMC3    C514238   2.385   0.960  11.362  0.7859  0.1793  0.2659
    6TMC3    C614239   2.404   0.879  11.260 -0.1346 -0.1066 -0.6601
    6TMC3     C14240   2.039   0.914  11.434 -0.5329  0.0372  0.7442
    6TMC3     O14241   1.958   0.922  11.343  0.4115  0.0034  0.2428
    6TMC3     H14242   2.103   0.739  11.245  1.4402 -2.2213  0.4478
    6TMC3    H114243   2.261   1.023  11.520  0.5255 -0.4443  0.2030
    6TMC3    H214244   2.500   0.877  11.210 -0.7298 -0.6421 -1.7704
    6TMC3    C714245   2.488   1.058  11.386 -0.2632  0.6194  0.1015
    6TMC3    C814246   2.331   0.711  11.105 -0.3744 -0.3389  0.0757
    6TMC3    O114247   2.601   1.031  11.350 -0.8123 -0.6287  0.2738
    6TMC3    O214248   2.437   0.722  11.044  0.5171  0.3329 -0.2495
    7MPD2     C14249   3.395   0.942  11.154  0.2064  0.1831 -0.1668
    7MPD2    C114250   3.374   0.946  11.292 -0.5788  0.1008  1.1017
    7MPD2    C214251   3.380   0.824  11.353  0.0230 -0.4158 -0.0610
    7MPD2    C314252   3.417   0.707  11.291  0.5602  0.6590  0.2436
    7MPD2    C414253   3.429   0.711  11.153 -0.1980  0.2810  0.1302
    7MPD2    C514254   3.422   0.824  11.079  0.2642 -0.1514  0.1589
    7MPD2     H14255   3.359   0.822  11.459  0.3038 -1.9372 -0.0332
    7MPD2    H114256   3.450   0.617  11.104  0.6459 -0.4813  1.9357
    7MPD2    H214257   3.380   1.028  11.091  0.0589  1.1706  1.2308
    7MPD2    H314258   3.442   0.828  10.972 -2.2692  0.8618 -0.2645
    7MPD2     N14259   3.414   0.584  11.355  0.3303  0.0267  0.0254
    7MPD2    H514260   3.419   0.498  11.300  0.6876  0.4967 -0.6804
    7MPD2    N114261   3.354   1.062  11.374  0.0488 -0.6125  0.4921
    7MPD2    H714262   3.342   1.044  11.473  1.9162 -3.7151  0.1332
    8TMC3    C114263   3.284   1.277  11.435 -0.8244 -0.5920 -0.0658
    8TMC3    C214264   3.159   1.318  11.412 -0.2423  1.1279  0.6064
    8TMC3    C314265   3.072   1.321  11.519  0.1598 -0.9803 -0.0024
    8TMC3    C414266   3.329   1.234  11.552 -0.1232  0.2044  0.3877
    8TMC3    C514267   3.242   1.231  11.660  0.2710  0.2327 -0.0657
    8TMC3    C614268   3.115   1.291  11.646  0.5234 -0.2083 -0.0974
    8TMC3     C14269   3.319   1.188  11.326 -0.5379  0.0188 -0.2300
    8TMC3     O14270   3.296   1.221  11.213  0.2855  0.4695 -0.1919
    8TMC3     H14271   3.123   1.334  11.311  1.2950  2.3482  0.2509
    8TMC3    H114272   3.429   1.195  11.561  0.4279  1.2881 -0.9887
    8TMC3    H214273   3.045   1.289  11.728  1.1998 -2.5684  0.4217
    8TMC3    C714274   3.243   1.106  11.733  0.3801 -0.0864  0.1693
    8TMC3    C814275   2.931   1.334  11.489  0.7048  0.5333  0.1655
    8TMC3    O114276   3.338   1.040  11.701  0.1646 -0.8953  0.1839
    8TMC3    O214277   2.895   1.328  11.373 -0.3583 -0.1154  0.2287
    9MPD2     C14278   2.645   1.427  11.701 -0.2350 -0.1989  0.2454
    9MPD2    C114279   2.713   1.359  11.602  0.2071 -0.6861 -0.0881
    9MPD2    C214280   2.644   1.280  11.511 -0.0082 -0.3173  0.0543
    9MPD2    C314281   2.507   1.277  11.510 -0.1939  0.8783  0.7175
    9MPD2    C414282   2.438   1.366  11.593 -0.3479 -0.0824 -0.2037
    9MPD2    C514283   2.508   1.434  11.688  0.5972 -0.5387  0.2981
    9MPD2     H14284   2.705   1.208  11.456 -2.5379 -1.3058 -1.4865
    9MPD2    H114285   2.333   1.352  11.617 -0.4340  0.7721 -0.0718
    9MPD2    H214286   2.695   1.493  11.772 -0.3511  1.7034 -1.4203
    9MPD2    H314287   2.441   1.485  11.756  0.0351 -2.2928  1.0631
    9MPD2     N14288   2.435   1.167  11.452 -0.4967 -0.0122  0.5277
    9MPD2    H514289   2.335   1.166  11.469 -1.0186  0.4062 -2.4979
    9MPD2    N114290   2.854   1.370  11.591  0.5850 -0.8609 -0.6959
    9MPD2    H714291   2.898   1.422  11.666  2.3266 -2.8187 -0.3629
    1MPD1     C14292   2.669   3.877  15.657 -0.0824  0.0068  0.0275
    1MPD1    C114293   2.662   3.819  15.533  0.2037 -0.6997 -0.0068
    1MPD1    C214294   2.595   3.698  15.525 -0.7493 -0.1486 -0.0642
    1MPD1    C314295   2.538   3.637  15.630  0.2828 -0.4369 -0.1913
    1MPD1    C414296   2.536   3.707  15.748 -0.4360 -0.2311  0.0510
    1MPD1    C514297   2.609   3.815  15.765 -0.0661 -0.4412 -0.0916
    1MPD1     H14298   2.584   3.650  15.429  1.6001 -1.2502  0.2173
    1MPD1    H114299   2.484   3.665  15.834  0.3363 -2.0232 -0.3511
    1MPD1    H214300   2.727   3.967  15.673 -0.5771  0.3023  0.1579
    1MPD1    H314301   2.602   3.865  15.861  0.4186 -2.8935  1.2039
    1MPD1     N14302   2.451   3.519  15.631  0.3760 -0.7629  0.4599
    1MPD1    H514303   2.386   3.507  15.709 -0.0904 -1.8328 -0.1013
    1MPD1    N114304   2.698   3.893  15.419 -0.3996 -0.2062 -0.3811
    1MPD1    H614305   2.712   3.828  15.343 -1.9711 -1.0085  0.0196
    1MPD1    H714306   2.776   3.957  15.437 -1.2175  1.0863 -1.5141
    2TMC2    C114307   2.428   3.061  15.523 -0.2478  0.1687 -0.0915
    2TMC2    C214308   2.340   3.035  15.623 -0.1846  0.4957 -0.2765
    2TMC2    C314309   2.285   3.144  15.692 -0.2858  0.1117 -0.2043
    2TMC2    C414310   2.459   3.192  15.489 -0.0306  0.0636 -0.0872
    2TMC2    C514311   2.411   3.294  15.558 -0.1250 -0.0093  0.6715
    2TMC2    C614312   2.318   3.273  15.662  0.0986 -0.2153  0.2668
    2TMC2     C14313   2.459   2.955  15.436 -0.0539  0.3432 -0.1224
    2TMC2     O14314   2.443   2.838  15.464  0.0008  0.2913 -0.1675
    2TMC2     H14315   2.304   2.935  15.642  0.3918  0.9477  3.2026
    2TMC2    H114316   2.535   3.218  15.417 -0.1073 -0.6162 -0.4197
    2TMC2    H214317   2.283   3.364  15.710  0.8991  0.5042 -0.4901
    2TMC2    C714318   2.484   3.421  15.542 -0.2856 -0.3821 -0.2873
    2TMC2    C814319   2.219   3.128  15.820  0.0823 -0.1565 -0.2290
    2TMC2    O114320   2.570   3.417  15.457 -0.1331 -0.0549 -0.1580
    2TMC2    O214321   2.215   3.027  15.894  0.2037 -0.5250 -0.1123
    2TMC2    O514322   2.126   3.228  15.819  0.0850 -0.3724 -0.4302
    2TMC2    H514323   2.101   3.280  15.740  2.2288 -0.1972 -0.9875
    3MPD1     C14324   2.690   2.810  14.995 -0.1090 -0.4927 -0.5138
    3MPD1    C114325   2.660   2.944  14.977 -0.0617 -0.1725  0.3317
    3MPD1    C214326   2.597   3.005  15.085  0.2159  0.1680  0.2456
    3MPD1    C314327   2.560   2.935  15.207  0.4624 -0.7684 -0.8268
    3MPD1    C414328   2.588   2.803  15.211  0.3812 -0.7949 -0.3048
    3MPD1    C514329   2.667   2.747  15.115 -0.2505  0.1273  0.8225
    3MPD1     H14330   2.573   3.111  15.084 -0.2876  0.0632  0.8216
    3MPD1    H114331   2.559   2.738  15.292 -0.2153 -0.9575 -0.6509
    3MPD1    H214332   2.760   2.765  14.925  1.0228  0.4171  0.0450
    3MPD1    H314333   2.702   2.647  15.139 -0.5455 -0.2137 -0.1840
    3MPD1     N14334   2.496   3.004  15.311  0.1823  0.3317 -0.1366
    3MPD1    H514335   2.472   3.102  15.300  2.5447  0.7332 -1.7284
    3MPD1    N114336   2.712   3.015  14.873  0.4622 -0.5264  0.2595
    3MPD1    H614337   2.708   2.965  14.784 -0.2088  2.3985 -1.3761
    3MPD1    H714338   2.654   3.097  14.858  2.7944  1.3966  1.7390
    1TMC1    C114339   0.698   3.010  13.212  0.2523  0.0506  0.3182
    1TMC1    C214340   0.718   2.908  13.301  0.9550 -0.8125  0.2530
    1TMC1    C314341   0.631   2.802  13.297 -0.0381 -0.6079  0.1810
    1TMC1    C414342   0.613   2.999  13.105 -0.2749  0.2277 -0.3785
    1TMC1    C514343   0.536   2.882  13.097 -0.2656 -0.0436 -0.6767
    1TMC1    C614344   0.548   2.782  13.193  0.1795 -0.3497 -0.1638
    1TMC1     C14345   0.747   3.143  13.246  0.7285 -0.3947 -0.1602
    1TMC1     O14346   0.700   3.237  13.185 -0.6207  0.6211  0.5046
    1TMC1     H14347   0.772   2.912  13.396  1.6246 -0.4768 -0.1420
    1TMC1    H114348   0.612   3.086  13.040  0.4522  0.7407  0.2917
    1TMC1    H214349   0.480   2.697  13.193 -0.4955  0.1865  1.9148
    1TMC1    C714350   0.457   2.857  12.982 -0.1424 -0.3074 -0.3543
    1TMC1    C814351   0.612   2.736  13.424  0.7723  0.2852  0.0504
    1TMC1    O114352   0.410   2.750  12.950  0.5666 -0.0918  0.0783
    1TMC1    O214353   0.703   2.719  13.502  0.3208  0.2039  0.2685
    1TMC1    O314354   0.399   2.973  12.954 -0.2444  0.6397  0.1409
    1TMC1    H314355   0.427   3.057  12.998  2.9704 -0.3803  0.0956
    1TMC1    O514356   0.482   2.746  13.451 -0.4084 -0.3625  0.1806
    1TMC1    H514357   0.429   2.807  13.397 -1.1108  0.0780  1.3810
    2MPD2     C14358   0.865   3.398  13.371 -0.1197 -0.4730  0.1979
    2MPD2    C114359   0.908   3.265  13.398  0.2507  0.2204 -0.3684
    2MPD2    C214360   1.007   3.245  13.500  0.5543  0.3223  0.0591
    2MPD2    C314361   1.064   3.354  13.562 -0.4559 -0.1999 -0.2843
    2MPD2    C414362   1.015   3.480  13.530  0.1260 -0.7490 -0.3152
    2MPD2    C514363   0.918   3.504  13.434 -0.0831  0.0214  0.8243
    2MPD2     H14364   1.036   3.148  13.539 -1.9750  1.6266  5.0652
    2MPD2    H114365   1.067   3.567  13.569 -0.5809  0.5022 -2.1630
    2MPD2    H214366   0.797   3.425  13.290 -1.2002  0.6009  1.4700
    2MPD2    H314367   0.880   3.605  13.421  1.8312  0.5502 -0.5963
    2MPD2     N14368   1.167   3.338  13.660 -0.1863 -0.0773  0.6719
    2MPD2    H514369   1.188   3.239  13.674  1.7121  0.0772 -1.1243
    2MPD2    N114370   0.851   3.147  13.337 -0.6139 -0.3053  0.3309
    2MPD2    H714371   0.900   3.067  13.377 -0.0951 -0.4401 -0.5775
    3TCq1    O114372   1.608   3.458  14.181  0.5888  0.1098 -0.6745
    3TCq1    C114373   1.517   3.510  14.097  0.9448  0.3058  0.5188
    3TCq1    O214374   1.481   3.629  14.087 -0.2638  0.0511 -0.3348
    3TCq1    C214375   1.471   3.404  14.006 -0.0226 -0.3841  0.4084
    3TCq1    C314376   1.551   3.304  13.962  0.2680  0.2516 -0.3442
    3TCq1    C414377   1.537   3.258  13.830  0.1648  0.7823 -0.4006
    3TCq1    C514378   1.421   3.280  13.764 -0.4039  0.6278 -0.3927
    3TCq1    C614379   1.331   3.368  13.821 -0.2289  0.1962 -0.5874
    3TCq1    C714380   1.366   3.438  13.932  0.2151  0.5725 -0.4150
    3TCq1    C814381   1.217   3.427  13.755  0.4411  0.1658 -0.2211
    3TCq1    O414382   1.178   3.542  13.772  0.6799 -0.3479  0.0320
    3TCq1    C914383   1.641   3.175  13.774 -0.3539 -0.1700 -0.9117
    3TCq1    O514384   1.738   3.134  13.846 -0.0998  0.0187 -0.0022
    3TCq1    O614385   1.619   3.128  13.659  0.2417  0.0992 -0.4529
    3TCq1    H114386   1.601   3.361  14.172  1.5186 -0.1059  0.8614
    3TCq1    H214387   1.647   3.276  14.004 -0.1831  0.5986  0.8988
    3TCq1    H314388   1.414   3.245  13.661 -1.0587  0.8925 -0.4357
    3TCq1    H414389   1.295   3.510  13.973  1.1436  0.9315  0.5501
    1MPD2     C14390   0.714   4.522  14.894 -0.6990 -1.0430 -0.0377
    1MPD2    C114391   0.614   4.422  14.875  0.1563 -0.5411 -0.4469
    1MPD2    C214392   0.639   4.293  14.928  0.1814  0.2339 -0.4579
    1MPD2    C314393   0.761   4.258  14.980  0.1304  0.4223 -0.2061
    1MPD2    C414394   0.856   4.358  14.995  0.1408  0.4454  1.1944
    1MPD2    C514395   0.836   4.484  14.948  0.4469 -0.1638  0.0697
    1MPD2     H14396   0.567   4.214  14.914  0.0302  0.3168 -0.1333
    1MPD2    H114397   0.951   4.330  15.037  0.3978  0.6571  0.7597
    1MPD2    H214398   0.705   4.624  14.856 -0.7337 -1.4293 -1.0677
    1MPD2    H314399   0.917   4.554  14.960  0.4486 -0.1891  0.2043
    1MPD2     N14400   0.775   4.127  15.026 -0.2381 -0.4773  0.5621
    1MPD2    H514401   0.700   4.066  14.996 -0.3787 -0.1111  0.1755
    1MPD2    N114402   0.484   4.459  14.831  0.2053 -0.5963  0.1798
    1MPD2    H714403   0.454   4.555  14.836  1.4411 -0.1835 -0.3210
    2TMC3    C114404   0.247   4.449  14.850  0.4026 -0.1056  0.3917
    2TMC3    C214405   0.179   4.371  14.936 -1.1415  0.2466  0.7152
    2TMC3    C314406   0.042   4.346  14.918  0.3416  0.4844 -0.0640
    2TMC3    C414407   0.183   4.507  14.747 -0.0806 -0.0650  0.2556
    2TMC3    C514408   0.045   4.496  14.737 -0.5436 -0.1200  0.2045
    2TMC3    C614409   4.710   4.416  14.817  1.0277  0.6888  0.7302
    2TMC3     C14410   0.375   4.379  14.822  0.5725 -0.6629  0.0339
    2TMC3     O14411   0.370   4.259  14.811 -0.2353  0.4738  0.0115
    2TMC3     H14412   0.242   4.322  15.010  0.5999  1.4475  0.0281
    2TMC3    H114413   0.242   4.556  14.671  0.8456 -1.3431  0.1470
    2TMC3    H214414   4.606   4.392  14.797  1.1346 -0.0734  1.0678
    2TMC3    C714415   4.709   4.590  14.650 -0.2950  0.3884 -0.2446
    2TMC3    C814416   4.732   4.209  14.942 -0.6487 -0.5073 -0.0760
    2TMC3    O114417   4.592   4.576  14.628 -0.6310  0.2401 -0.1221
    2TMC3    O214418   4.612   4.183  14.949 -0.2394  0.4270 -0.3638
    3TCq1    O114419   0.529   0.820  14.171  0.9194 -0.3598  0.7030
    3TCq1    C114420   0.587   0.754  14.275  0.4110 -0.7223 -0.0497
    3TCq1    O214421   0.702   0.780  14.312  0.1596  1.7670  0.4175
    3TCq1    C214422   0.486   0.683  14.355 -0.3631  0.2195  0.5248
    3TCq1    C314423   0.498   0.687  14.495  1.2715 -0.1155 -0.2650
    3TCq1    C414424   0.398   0.634  14.569  0.2952  0.0007 -0.8062
    3TCq1    C514425   0.289   0.578  14.514  0.6438  0.3300  0.2163
    3TCq1    C614426   0.275   0.577  14.375  0.8260  0.6349 -0.4385
    3TCq1    C714427   0.371   0.633  14.300  0.4465 -0.0322  0.0607
    3TCq1    C814428   0.188   0.474  14.322 -0.2778 -0.2940  0.6000
    3TCq1    O414429   0.132   0.495  14.218  0.2412  0.1570 -0.1993
    3TCq1    C914430   0.409   0.636  14.716 -0.1066  0.1481 -0.3548
    3TCq1    O514431   0.507   0.695  14.771  0.2801  0.2609  0.6087
    3TCq1    O614432   0.333   0.548  14.772  0.7382 -0.1329  0.3477
    3TCq1    H114433   0.431   0.817  14.160  1.0231  0.5724 -0.4666
    3TCq1    H214434   0.575   0.748  14.539  0.3964  1.5767 -1.0846
    3TCq1    H314435   0.209   0.541  14.576 -1.0155  0.8268 -1.6218
    3TCq1    H414436   0.367   0.631  14.191 -0.4848 -0.0643  0.0916
    4MPD2     C14437   4.718   0.257  14.342  0.2195 -0.0430  0.2851
    4MPD2    C114438   0.094   0.267  14.413  0.0304 -0.4111  0.0129
    4MPD2    C214439   0.106   0.166  14.512  0.5133  0.3425  0.2447
    4MPD2    C314440   0.017   0.059  14.530  0.1899  0.6886 -0.0825
    4MPD2    C414441   4.658   0.052  14.440  0.0663 -0.0698  0.2453
    4MPD2    C514442   4.628   0.153  14.349 -0.3168  0.2320 -0.0445
    4MPD2     H14443   0.183   0.191  14.583  0.2387 -2.7913  1.6101
    4MPD2    H114444   4.595   4.704  14.440 -0.6814  0.4569 -0.1299
    4MPD2    H214445   4.701   0.326  14.261  1.6072 -0.5603 -0.4489
    4MPD2    H314446   4.542   0.144  14.284 -1.0121  1.6591  0.6909
    4MPD2     N14447   0.050   4.696  14.621 -0.4854  0.1048  0.5508
    4MPD2    H514448   0.141   4.695  14.666 -0.2602 -2.6978  0.0074
    4MPD2    N114449   0.180   0.373  14.415  0.0627  0.2796 -0.5898
    4MPD2    H714450   0.254   0.368  14.484 -0.4900  0.9565  0.0479
    5TMC2    C114451   0.657   3.806  15.095  0.2181  0.2705  0.6188
    5TMC2    C214452   0.654   3.779  15.227 -0.0632  0.2810 -0.1802
    5TMC2    C314453   0.728   3.848  15.313 -0.3196  0.6946 -0.1782
    5TMC2    C414454   0.762   3.882  15.049 -0.4933 -0.0106  0.4337
    5TMC2    C514455   0.849   3.941  15.134  0.7013 -0.5236 -0.5767
    5TMC2    C614456   0.828   3.925  15.263 -0.4093  0.2721  0.6671
    5TMC2     C14457   0.533   3.860  15.040 -0.0135 -0.0069 -0.0035
    5TMC2     O14458   0.549   3.966  14.980 -0.1986  0.3350  0.4219
    5TMC2     H14459   0.593   3.697  15.263 -0.9673  0.6143 -0.9499
    5TMC2    H114460   0.765   3.910  14.944  0.5964 -0.3598  0.3679
    5TMC2    H214461   0.871   3.999  15.330  0.2369  1.0993 -0.6595
    5TMC2    C714462   0.880   4.079  15.105  0.3870  0.3148 -0.2107
    5TMC2    C814463   0.743   3.793  15.444 -0.0420  0.1706 -0.4571
    5TMC2    O114464   0.960   4.143  15.172  0.1601 -0.1709  0.5425
    5TMC2    O214465   0.651   3.724  15.491 -0.7820  0.9451 -0.5377
    5TMC2    O514466   0.874   3.760  15.454  0.0367  0.0033  0.0744
    5TMC2    H514467   0.935   3.809  15.395 -0.0620 -0.0989 -0.1144
    6MPD2     C14468   0.020   3.913  14.985  0.2269 -0.4278  0.2248
    6MPD2    C114469   0.126   3.996  14.960 -0.0697  0.5193  0.3995
    6MPD2    C214470   0.260   3.960  14.984  0.1820 -0.0920 -0.8018
    6MPD2    C314471   0.290   3.832  15.025 -0.4249 -0.2285 -0.9880
    6MPD2    C414472   0.182   3.746  15.042 -0.0704  0.1689 -0.1326
    6MPD2    C514473   0.049   3.788  15.021  0.3951  0.1867 -0.6370
    6MPD2     H14474   0.332   4.037  14.960  0.2104 -0.1984 -1.0646
    6MPD2    H114475   0.184   3.646  15.083  1.6819  0.8097  1.3590
    6MPD2    H214476   4.658   3.950  14.982 -0.5436 -2.5546  0.5086
    6MPD2    H314477   4.705   3.723  15.042 -0.4795  0.2237 -3.9943
    6MPD2     N14478   0.423   3.790  15.062  0.8136 -0.2133 -0.0969
    6MPD2    H514479   0.433   3.711  15.125 -1.2137  0.1080  0.6501
    6MPD2    N114480   0.108   4.134  14.946  0.6101 -0.4525 -0.1800
    6MPD2    H714481   0.192   4.187  14.924  0.0443  0.1000 -1.0407
  945NH4     N114482   1.204   1.428  14.370 -0.0066  0.2910  0.7756
  945NH4     H214483   1.285   1.485  14.338 -0.4518 -0.1852 -1.2494
  945NH4     H314484   1.134   1.412  14.294 -2.2024  3.6459  2.0892
  945NH4     H414485   1.162   1.467  14.456  1.7785  0.6586  1.4632
  945NH4     H514486   1.241   1.334  14.394 -0.2892  0.1254  0.5694
  946SOD     NA14487   0.810   1.181  10.913 -0.3348  0.2082 -0.2162
  947SOD     NA14488   0.393   0.106  14.942  0.1841  0.7845  0.3471
  948SOD     NA14489   0.914   2.329  11.167 -0.1914 -0.0347  0.0242
  949SOD     NA14490   1.866   2.109  17.298  0.2671  0.0133  0.0708
  950SOD     NA14491   4.619   4.205   0.427 -0.2841  0.2637  0.4687
  951SOD     NA14492   1.569   2.030   9.327  0.1435 -0.0055  0.2096
  952SOD     NA14493   0.442   2.483  12.180  0.1805  0.2481  0.2657
  953SOL     OW14494   0.202   0.185   6.559  0.1147  0.1460  0.2126
  953SOL    HW114495   0.108   0.165   6.552  0.1425 -0.6320  2.0206
  953SOL    HW214496   0.230   0.176   6.468  1.7495 -0.2746  0.7672
  954SOL     OW14497   2.833   1.785   4.025  0.4318 -0.2130 -0.2659
  954SOL    HW114498   2.836   1.739   4.109 -0.4218 -2.0006 -1.2102
  954SOL    HW214499   2.927   1.799   4.013  0.4505  0.7142  0.9733
  955SOL     OW14500   3.948   4.459   7.498 -0.3004  0.5702  0.3459
  955SOL    HW114501   3.973   4.432   7.586 -0.1266 -0.4735 -0.0275
  955SOL    HW214502   3.895   4.383   7.474 -0.0466  0.4723  0.0991
  956SOL     OW14503   3.437   1.211   8.524  0.1786  0.5211 -0.3475
  956SOL    HW114504   3.494   1.137   8.541  0.0215  0.5607  0.3363
  956SOL    HW214505   3.491   1.282   8.557  0.4529  0.7685 -1.3128
  957SOL     OW14506   3.947   4.644   9.240 -0.1798 -0.3869 -0.2746
  957SOL    HW114507   3.887   4.576   9.271 -0.0774 -0.2198  0.2933
  957SOL    HW214508   4.035   4.605   9.250 -0.0080  0.3826  1.2499
  958SOL     OW14509   0.054   3.561  11.789 -0.3015  0.1193  0.4923
  958SOL    HW114510   0.112   3.601  11.724 -1.1716  0.2576 -0.2084
  958SOL    HW214511   0.002   3.640  11.807  2.4494  2.1474 -0.4751
  959SOL     OW14512   3.350   3.080   2.615  0.0084 -0.3077 -0.1527
  959SOL    HW114513   3.412   3.118   2.677  0.3648 -1.6569  0.3131
  959SOL    HW214514   3.399   3.104   2.536  0.8642  1.1414  0.8265
  960SOL     OW14515   3.075   3.103   6.240  0.1941 -0.0176 -0.1828
  960SOL    HW114516   3.135   3.170   6.274 -1.5515  1.3005  0.2732
  960SOL    HW214517   3.026   3.083   6.319 -0.1152  1.0888 -0.1005
  961SOL     OW14518   3.888   0.061  16.716 -0.4779  0.3039 -0.1959
  961SOL    HW114519   3.807   0.113  16.715 -0.0021  1.0577  0.5574
  961SOL    HW214520   3.904   0.075  16.809 -0.2886  0.4942 -0.2559
  962SOL     OW14521   3.257   3.850   8.474  0.5042 -0.1119  0.8419
  962SOL    HW114522   3.197   3.778   8.450 -0.0004  0.7439 -0.4807
  962SOL    HW214523   3.235   3.845   8.567  0.7686  2.5546  1.0214
  963SOL     OW14524   0.649   3.093   9.521 -0.1229  0.1270 -1.0597
  963SOL    HW114525   0.674   3.010   9.481  2.3368  0.6525 -0.5938
  963SOL    HW214526   0.723   3.142   9.485 -0.6893  1.9399  0.2313
  964SOL     OW14527   1.778   0.557   2.435 -0.0491 -0.5263 -0.3932
  964SOL    HW114528   1.738   0.501   2.369 -0.7890  1.0658 -1.2854
  964SOL    HW214529   1.710   0.546   2.502 -1.1065  0.9077 -1.2266
  965SOL     OW14530   0.898   1.886   5.793  0.0035  0.3705 -0.5231
  965SOL    HW114531   0.980   1.852   5.829 -0.2316 -0.5064 -0.8147
  965SOL    HW214532   0.919   1.978   5.809 -0.6193  1.2300 -4.7150
  966SOL     OW14533   3.506   1.927   2.377 -0.0059 -0.2158 -0.0629
  966SOL    HW114534   3.569   1.913   2.447  0.5459  0.3532 -0.4482
  966SOL    HW214535   3.435   1.966   2.428 -0.8776 -2.5912  0.5669
  967SOL     OW14536   2.088   0.623   4.422 -0.6946  0.3162  0.3653
  967SOL    HW114537   1.996   0.597   4.416 -0.2421 -1.3199  0.3697
  967SOL    HW214538   2.098   0.663   4.336  1.5799 -1.7698 -0.3577
  968SOL     OW14539   2.352   1.832   3.343 -0.5872  0.3279  0.5966
  968SOL    HW114540   2.423   1.775   3.371 -0.6826 -0.3522 -0.5779
  968SOL    HW214541   2.325   1.788   3.262 -0.9556 -0.9776  1.4291
  969SOL     OW14542   2.604   1.514  14.749  0.3537 -0.1029 -0.0300
  969SOL    HW114543   2.559   1.564  14.681 -1.3154 -3.1449 -1.1220
  969SOL    HW214544   2.598   1.578  14.820 -0.1046  0.0775 -0.2289
  970SOL     OW14545   2.768   1.465  11.194  0.0672 -0.9197  0.1213
  970SOL    HW114546   2.750   1.552  11.230  1.1331 -0.7156  0.1703
  970SOL    HW214547   2.804   1.412  11.265  1.5070  1.0297  0.8520
  971SOL     OW14548   0.093   1.344  15.964 -0.0957  0.0971 -0.0331
  971SOL    HW114549   0.046   1.316  15.885  2.3864 -0.1211 -1.4189
  971SOL    HW214550   0.089   1.439  15.950  2.9015  0.0878 -0.8622
  972SOL     OW14551   1.735   3.747   5.283  0.4855  0.0255  0.0846
  972SOL    HW114552   1.760   3.839   5.286 -0.0427  0.2367 -1.6864
  972SOL    HW214553   1.812   3.714   5.237  1.7339  0.1019  2.1011
  973SOL     OW14554   2.793   0.419   1.296  0.0978 -0.5082  0.2935
  973SOL    HW114555   2.881   0.385   1.284 -1.0244 -3.2947 -0.1398
  973SOL    HW214556   2.772   0.419   1.203  1.8655 -0.1263 -0.0881
  974SOL     OW14557   0.761   0.873  13.970 -0.5405 -0.0573 -0.0213
  974SOL    HW114558   0.699   0.867  14.043 -2.9753  1.0126 -1.9770
  974SOL    HW214559   0.829   0.925  14.011 -0.1844  0.1206 -0.8432
  975SOL     OW14560   4.468   0.240   6.741 -0.3934 -0.3713 -0.5031
  975SOL    HW114561   4.385   0.250   6.787  0.1528 -0.2931  0.4649
  975SOL    HW214562   4.481   0.325   6.701  1.5532 -0.4215 -0.0104
  976SOL     OW14563   2.342   3.213   4.614 -0.3632 -0.5880 -0.1620
  976SOL    HW114564   2.321   3.306   4.621  1.3088 -0.4346  3.0296
  976SOL    HW214565   2.361   3.195   4.706 -1.7877 -1.0786  0.0464
  977SOL     OW14566   2.840   3.841   7.556 -0.4054 -1.2815 -0.2135
  977SOL    HW114567   2.761   3.798   7.524  0.9948 -1.4176 -3.5741
  977SOL    HW214568   2.889   3.765   7.589  1.5499  0.0068 -0.1370
  978SOL     OW14569   2.794   2.295   7.983  0.2118 -0.8642  0.5873
  978SOL    HW114570   2.827   2.277   8.070  0.3533 -2.1957  0.2621
  978SOL    HW214571   2.717   2.347   8.005 -0.4771 -0.7174 -2.1675
  979SOL     OW14572   0.777   3.459   9.549  0.1537 -0.3391 -0.3694
  979SOL    HW114573   0.818   3.373   9.559 -0.8869 -0.4530  3.1205
  979SOL    HW214574   0.824   3.526   9.599 -0.8049  1.6517 -2.1487
  980SOL     OW14575   2.917   2.733   3.136  0.0607 -0.2138 -0.0352
  980SOL    HW114576   2.892   2.666   3.071 -0.0943  0.0213 -0.2201
  980SOL    HW214577   2.917   2.681   3.216 -0.8870 -0.7948 -0.4019
  981SOL     OW14578   1.681   2.217  17.378 -0.7277  0.8054 -0.5883
  981SOL    HW114579   1.694   2.261  17.462 -2.6648 -0.1317  0.2168
  981SOL    HW214580   1.585   2.211  17.375 -0.7731  1.5808 -0.9782
  982SOL     OW14581   3.760   4.357   1.947  0.0853  0.1313  0.5762
  982SOL    HW114582   3.706   4.433   1.928 -0.2815 -0.2546  0.0814
  982SOL    HW214583   3.842   4.386   1.908 -0.8079  2.5369  0.5095
  983SOL     OW14584   2.551   1.861   8.362  0.5852 -0.1725  0.1092
  983SOL    HW114585   2.482   1.812   8.318 -0.1036 -0.5569  1.6286
  983SOL    HW214586   2.622   1.797   8.375  0.1572 -0.7108 -0.2067
  984SOL     OW14587   1.181   3.199   8.605 -1.0876 -1.3108  0.2104
  984SOL    HW114588   1.208   3.108   8.594  1.8286 -0.5010  0.4523
  984SOL    HW214589   1.191   3.220   8.698 -0.6278 -0.2395 -0.0817
  985SOL     OW14590   3.380   1.157   4.197 -0.5149  0.4000  0.0223
  985SOL    HW114591   3.319   1.132   4.266  0.7064 -0.9105  0.6165
  985SOL    HW214592   3.404   1.071   4.161  0.9985  0.9339 -0.2731
  986SOL     OW14593   1.190   1.442   2.078  0.3842 -0.1540  0.0369
  986SOL    HW114594   1.163   1.360   2.118 -0.1822  1.4914  3.0091
  986SOL    HW214595   1.140   1.507   2.128 -1.9224 -0.1744 -2.2381
  987SOL     OW14596   2.078   4.118   6.642 -0.1754 -0.4663 -0.5472
  987SOL    HW114597   2.102   4.199   6.596  1.6987 -0.0847  1.0633
  987SOL    HW214598   2.147   4.059   6.611 -0.3846 -1.7144  1.3831
  988SOL     OW14599   4.014   2.196   4.045 -0.1486 -0.0596  0.0538
  988SOL    HW114600   4.025   2.259   4.116 -4.6437  1.2675 -0.4200
  988SOL    HW214601   3.919   2.187   4.038 -0.1017  0.5472 -1.2903
  989SOL     OW14602   3.777   1.193   8.330  0.3639  0.1554  0.4826
  989SOL    HW114603   3.698   1.194   8.276 -0.5912  0.3027  1.8636
  989SOL    HW214604   3.789   1.284   8.357  0.9120 -0.4455  2.2635
  990SOL     OW14605   4.710   2.242   8.912  0.1110  0.0401 -0.0937
  990SOL    HW114606   0.057   2.213   8.939 -0.1389  0.1244  0.8044
  990SOL    HW214607   4.655   2.172   8.947 -0.6363  0.9753  0.5879
  991SOL     OW14608   0.049   2.283   5.983 -0.0935 -0.0972  0.3851
  991SOL    HW114609   0.005   2.213   6.032  1.3381 -0.5557  1.0159
  991SOL    HW214610   4.719   2.324   5.933  0.5717  2.6281  1.6607
  992SOL     OW14611   1.425   3.406   5.846  0.0337  0.3756  0.1641
  992SOL    HW114612   1.428   3.475   5.911  1.2787  2.8236 -2.4781
  992SOL    HW214613   1.353   3.356   5.883 -0.3317  2.0674  1.7456
  993SOL     OW14614   3.024   4.231   9.573  0.4025  0.0884 -0.2577
  993SOL    HW114615   2.984   4.258   9.491 -1.8022  0.3632  0.9099
  993SOL    HW214616   2.942   4.229   9.622  1.2539  0.9891  1.2174
  994SOL     OW14617   3.646   3.582  17.242 -0.0937 -0.1419  0.5015
  994SOL    HW114618   3.654   3.624  17.327  2.0843 -1.8296  1.1569
  994SOL    HW214619   3.733   3.604  17.208 -0.7362  0.4292 -0.7886
  995SOL     OW14620   1.949   4.602   0.642  0.1369 -0.6681  0.4606
  995SOL    HW114621   2.024   4.647   0.681 -0.2911 -1.2376  1.9331
  995SOL    HW214622   1.893   4.677   0.618 -1.6053 -2.5370 -1.2865
  996SOL     OW14623   3.374   2.355   6.622 -0.4276  0.2897 -0.5508
  996SOL    HW114624   3.365   2.377   6.715 -1.2497 -1.6780 -0.1747
  996SOL    HW214625   3.319   2.276   6.622 -1.3103  0.9137 -1.9474
  997SOL     OW14626   2.026   2.932  13.435  0.7745 -0.3244 -0.7876
  997SOL    HW114627   1.960   2.980  13.484  0.6414 -1.6204  0.2895
  997SOL    HW214628   2.048   2.875  13.508 -1.2507 -0.7912 -0.5381
  998SOL     OW14629   2.813   3.234   5.289 -0.1475 -0.5135 -0.5509
  998SOL    HW114630   2.850   3.250   5.376 -1.1742 -1.2348  0.0151
  998SOL    HW214631   2.882   3.184   5.247  0.0091 -0.1789 -0.6903
  999SOL     OW14632   3.934   0.345   9.459 -0.1694  0.3734 -0.0154
  999SOL    HW114633   3.894   0.258   9.466 -2.5577  1.2970 -2.3169
  999SOL    HW214634   3.978   0.355   9.543  1.9869  0.2757 -1.1340
 1000SOL     OW14635   3.722   2.871   9.017 -0.0404 -0.1895 -0.3238
 1000SOL    HW114636   3.630   2.859   8.995  0.0025  0.2761 -0.7694
 1000SOL    HW214637   3.720   2.909   9.105 -2.8323 -1.7047  0.2478
 1001SOL     OW14638   1.221   3.222   5.847 -0.2297  0.0875  0.5611
 1001SOL    HW114639   1.157   3.194   5.912  0.4195 -1.6486  0.4334
 1001SOL    HW214640   1.228   3.159   5.775  0.7977  0.3887  0.3969
 1002SOL     OW14641   4.596   4.275   0.213  0.3034  0.1694  0.0124
 1002SOL    HW114642   4.507   4.301   0.191 -0.1393 -0.5309  0.9828
 1002SOL    HW214643   4.621   4.225   0.136 -1.4001 -0.7220  0.0371
 1003SOL     OW14644   2.421   3.024   3.847  0.4010  0.6834 -0.3199
 1003SOL    HW114645   2.422   3.078   3.927  0.3082 -0.1988  0.2776
 1003SOL    HW214646   2.378   3.080   3.782  0.5637 -0.9943 -1.8478
 1004SOL     OW14647   2.641   3.027   9.095  0.9137 -0.0362  0.3138
 1004SOL    HW114648   2.669   3.089   9.162 -1.0301  1.1487  0.0505
 1004SOL    HW214649   2.691   2.949   9.119 -1.2197 -1.6448 -0.4287
 1005SOL     OW14650   0.023   1.995   2.589 -0.6301 -0.4030 -0.2956
 1005SOL    HW114651   0.002   2.000   2.682  5.0543  2.1707  0.8588
 1005SOL    HW214652   0.080   2.069   2.569 -0.0984 -1.1423 -1.5165
 1006SOL     OW14653   4.729   3.787   0.082 -0.0555  0.5365  0.0681
 1006SOL    HW114654   0.029   3.840   0.013  0.0874 -1.7647 -1.5983
 1006SOL    HW214655   4.649   3.751   0.045  0.4599 -0.8636  0.3052
 1007SOL     OW14656   3.342   3.264  16.878  0.1970  0.5757  0.4995
 1007SOL    HW114657   3.380   3.330  16.937  2.0886 -2.5761  2.7761
 1007SOL    HW214658   3.337   3.315  16.797  1.1687 -0.6313 -0.3262
 1008SOL     OW14659   3.316   2.139   3.662 -0.1318  0.4113  0.0438
 1008SOL    HW114660   3.229   2.180   3.663 -0.8329 -1.0569 -0.9201
 1008SOL    HW214661   3.305   2.077   3.734  0.7005  0.5509  0.2914
 1009SOL     OW14662   4.404   3.055   6.071 -0.5301  0.1495 -0.0824
 1009SOL    HW114663   4.352   3.029   5.995  1.2883  0.3508 -1.3853
 1009SOL    HW214664   4.409   2.968   6.111 -0.8910 -0.8051 -2.1177
 1010SOL     OW14665   3.672   0.569   3.242 -0.1821  0.0330 -0.0436
 1010SOL    HW114666   3.767   0.571   3.240 -0.1834  1.4774  1.4504
 1010SOL    HW214667   3.646   0.604   3.327  2.9441  2.2305 -0.0234
 1011SOL     OW14668   1.655   3.532   9.794 -0.4569 -0.2320  0.0430
 1011SOL    HW114669   1.691   3.532   9.706  1.4737 -1.0516  0.8369
 1011SOL    HW214670   1.675   3.443   9.822  1.2837 -0.2023 -1.1580
 1012SOL     OW14671   3.708   3.182  13.017  0.3636  0.5601  0.4165
 1012SOL    HW114672   3.680   3.274  13.019 -0.2522  0.3965 -1.4902
 1012SOL    HW214673   3.759   3.178  12.936 -2.5181 -1.4412 -1.2643
 1013SOL     OW14674   1.074   2.839  12.208 -0.2357  0.2229  0.4279
 1013SOL    HW114675   1.129   2.828  12.286  0.8420 -1.2815 -0.5360
 1013SOL    HW214676   1.141   2.873  12.149 -0.8846  0.7553 -0.0033
 1014SOL     OW14677   4.203   3.338  14.686  0.2856  0.7701 -0.5325
 1014SOL    HW114678   4.247   3.253  14.677 -0.1837  0.4388  0.3215
 1014SOL    HW214679   4.122   3.301  14.722 -0.6243  2.4199 -0.9025
 1015SOL     OW14680   2.135   0.979   3.576 -0.2587 -0.6838  0.3981
 1015SOL    HW114681   2.046   1.013   3.561 -0.6694 -1.1038  1.8816
 1015SOL    HW214682   2.159   1.021   3.659 -1.2638  0.2212  0.2275
 1016SOL     OW14683   4.323   3.613   6.742 -0.0802 -0.1526  0.0602
 1016SOL    HW114684   4.406   3.636   6.784 -0.8770  2.9693 -0.0741
 1016SOL    HW214685   4.349   3.563   6.665  0.7666 -0.8600  0.7982
 1017SOL     OW14686   3.855   2.689   3.036  0.3158 -0.4068 -0.2530
 1017SOL    HW114687   3.803   2.658   3.110  0.9743  0.5065  0.6095
 1017SOL    HW214688   3.795   2.702   2.964  0.3303  0.6782 -0.0693
 1018SOL     OW14689   4.232   0.758   1.555  0.7552 -0.1390 -0.0170
 1018SOL    HW114690   4.189   0.782   1.473 -1.3272 -3.0304  0.2366
 1018SOL    HW214691   4.292   0.832   1.567  2.1006 -1.3521  0.7732
 1019SOL     OW14692   4.282   3.374   9.973 -0.1860 -0.1594 -0.0268
 1019SOL    HW114693   4.277   3.432  10.049 -0.0779 -1.7792  1.2066
 1019SOL    HW214694   4.221   3.417   9.913  0.7934  1.7165  0.3129
 1020SOL     OW14695   0.836   2.690  12.283  0.3047 -0.3213  0.4195
 1020SOL    HW114696   0.871   2.744  12.354 -1.5341 -1.1412  1.9772
 1020SOL    HW214697   0.910   2.684  12.223 -1.3101  0.6394 -1.6530
 1021SOL     OW14698   0.676   1.045   6.921 -0.2113  0.7728 -0.0746
 1021SOL    HW114699   0.582   1.059   6.930 -0.0688  1.3862  0.4001
 1021SOL    HW214700   0.695   1.117   6.861 -4.1711 -0.8020 -3.2895
 1022SOL     OW14701   1.870   2.075   4.294  0.0608  0.0476 -0.1827
 1022SOL    HW114702   1.877   1.981   4.280 -0.8373 -0.2899  1.7233
 1022SOL    HW214703   1.806   2.090   4.224  2.0933 -2.0416 -2.4736
 1023SOL     OW14704   3.955   1.124   8.946 -0.5979 -0.2532 -0.4420
 1023SOL    HW114705   3.987   1.188   9.010 -0.8058  0.7669 -1.3437
 1023SOL    HW214706   3.884   1.080   8.993 -0.3075 -0.3937 -0.1343
 1024SOL     OW14707   0.298   2.021   4.690 -0.6096 -0.0008  0.2700
 1024SOL    HW114708   0.265   1.951   4.635 -1.7871  1.0725 -0.3894
 1024SOL    HW214709   0.213   2.046   4.727 -0.7411  2.1257 -1.4491
 1025SOL     OW14710   2.253   2.449   7.147  0.4428  0.2669 -0.0636
 1025SOL    HW114711   2.346   2.428   7.156  0.0153 -1.2792  0.6498
 1025SOL    HW214712   2.244   2.534   7.190 -1.5094 -0.7260  1.4529
 1026SOL     OW14713   3.112   0.381   3.060 -0.0997 -0.6046  0.2665
 1026SOL    HW114714   3.105   0.391   2.966 -1.1625  0.7935  0.4999
 1026SOL    HW214715   3.030   0.412   3.098  0.8570 -1.2374  2.9294
 1027SOL     OW14716   3.030   1.840   7.300 -0.1279  0.5909 -0.0397
 1027SOL    HW114717   2.978   1.920   7.294 -0.7254  0.2172  0.2310
 1027SOL    HW214718   3.120   1.872   7.311  0.6154 -1.4716 -0.1982
 1028SOL     OW14719   0.836   2.137  11.087  0.4047  0.1576 -0.5115
 1028SOL    HW114720   0.914   2.124  11.034 -0.1876 -0.7427 -1.1676
 1028SOL    HW214721   0.832   2.048  11.121  2.6574 -0.4507 -1.8553
 1029SOL     OW14722   1.458   3.796   1.263 -0.3029 -0.1383  0.0389
 1029SOL    HW114723   1.540   3.787   1.311  0.8089  1.5676 -1.5456
 1029SOL    HW214724   1.407   3.835   1.334 -0.6677 -0.6187  0.0429
 1030SOL     OW14725   1.507   3.251  10.893 -0.0291 -0.2790 -0.0942
 1030SOL    HW114726   1.525   3.265  10.986 -0.7730 -1.3873  0.2167
 1030SOL    HW214727   1.593   3.267  10.856  0.1486 -1.3941 -0.1673
 1031SOL     OW14728   0.355   1.847  12.843  0.1717 -0.2272 -0.7130
 1031SOL    HW114729   0.384   1.850  12.935  0.5227  1.3561 -0.8806
 1031SOL    HW214730   0.260   1.847  12.856 -0.0361 -1.6584 -2.2657
 1032SOL     OW14731   1.478   4.048   8.077 -0.5855  0.3444  0.1169
 1032SOL    HW114732   1.459   4.110   8.148  2.7500 -0.4824  1.7586
 1032SOL    HW214733   1.525   3.985   8.132  1.2866  1.4434 -0.2155
 1033SOL     OW14734   3.353   0.404   8.340 -0.3666 -0.4309 -0.8890
 1033SOL    HW114735   3.355   0.402   8.436  5.1474  1.8680 -0.9644
 1033SOL    HW214736   3.374   0.313   8.321  0.9716 -0.4259  0.5765
 1034SOL     OW14737   3.721   3.600   8.766 -0.1227  0.3824 -0.3802
 1034SOL    HW114738   3.801   3.551   8.750 -0.0882  1.0437 -2.2274
 1034SOL    HW214739   3.755   3.689   8.770 -0.6874  0.5212  1.2386
 1035SOL     OW14740   4.465   0.677   3.644  0.0926 -0.2371  0.6659
 1035SOL    HW114741   4.530   0.713   3.584  0.0062 -1.4266 -0.1442
 1035SOL    HW214742   4.469   0.744   3.712  0.3763  0.6905 -0.2590
 1036SOL     OW14743   4.592   3.854   8.892  0.0143  0.5368 -0.2188
 1036SOL    HW114744   4.683   3.857   8.923  0.0878 -0.3728 -0.3317
 1036SOL    HW214745   4.596   3.853   8.796 -0.5915  0.5219 -0.2435
 1037SOL     OW14746   4.368   1.981   7.117  0.0226 -0.1748 -0.2660
 1037SOL    HW114747   4.339   1.895   7.147  0.1444 -0.5180 -1.1112
 1037SOL    HW214748   4.343   2.039   7.188  2.0602 -1.9751  1.9111
 1038SOL     OW14749   2.244   3.308   6.164  0.6838 -0.4922 -0.1438
 1038SOL    HW114750   2.260   3.261   6.083 -1.3389  1.5868 -1.7593
 1038SOL    HW214751   2.268   3.400   6.147  0.5738 -0.1508  1.5212
 1039SOL     OW14752   2.063   2.159   3.044 -0.0566 -0.2659  0.3548
 1039SOL    HW114753   2.060   2.096   3.117 -1.3904 -3.7853 -2.7474
 1039SOL    HW214754   1.986   2.212   3.064 -2.4598 -3.1827 -1.1535
 1040SOL     OW14755   2.159   4.264  14.647 -0.0201  0.7748  0.3376
 1040SOL    HW114756   2.121   4.302  14.568 -0.0210 -0.3059 -0.1787
 1040SOL    HW214757   2.161   4.341  14.705  2.3354  0.0019  1.2577
 1041SOL     OW14758   1.980   1.452   6.216  0.3008 -0.0690  0.0219
 1041SOL    HW114759   1.887   1.450   6.191  0.3360 -0.0788 -0.1095
 1041SOL    HW214760   2.026   1.441   6.133  0.3491  2.2949 -0.2697
 1042SOL     OW14761   2.845   4.578   4.789 -0.2791  0.1376 -0.0005
 1042SOL    HW114762   2.920   4.591   4.846 -0.8415  0.2240  0.7205
 1042SOL    HW214763   2.879   4.613   4.706 -3.0321  0.8787 -0.8306
 1043SOL     OW14764   0.566   1.840  13.434 -0.1442  0.0632 -0.0384
 1043SOL    HW114765   0.530   1.912  13.383 -0.5248 -0.7396 -0.8887
 1043SOL    HW214766   0.617   1.788  13.373  1.1916 -0.0740  1.1846
 1044SOL     OW14767   2.680   3.218  11.491 -0.0226 -0.2610 -0.9482
 1044SOL    HW114768   2.607   3.269  11.525  0.2386 -0.0440 -0.7129
 1044SOL    HW214769   2.709   3.169  11.569 -0.6401  0.6465 -0.1530
 1045SOL     OW14770   3.231   2.375   2.772  0.0096 -0.0017  0.6984
 1045SOL    HW114771   3.266   2.285   2.775  2.7329  1.0250 -0.3766
 1045SOL    HW214772   3.252   2.401   2.861 -1.1506 -0.0754  0.9966
 1046SOL     OW14773   2.130   2.896  10.203  0.3449 -0.1490  0.3069
 1046SOL    HW114774   2.057   2.954  10.184  1.1070  0.0839 -1.9275
 1046SOL    HW214775   2.105   2.829  10.139  0.6018  0.0486 -0.0037
 1047SOL     OW14776   1.751   4.025   3.510  0.4793 -0.2370  0.7405
 1047SOL    HW114777   1.734   4.049   3.419 -1.2492 -1.9257  0.6085
 1047SOL    HW214778   1.755   4.113   3.547 -3.3627  0.9235 -1.6402
 1048SOL     OW14779   2.403   1.469   7.089  0.3732 -0.4528  0.1371
 1048SOL    HW114780   2.357   1.421   7.020  2.5399 -2.2988 -0.0281
 1048SOL    HW214781   2.345   1.544   7.099 -0.0534 -0.7058 -0.4489
 1049SOL     OW14782   4.322   2.431  12.102  0.5553  0.4041 -0.0971
 1049SOL    HW114783   4.311   2.336  12.093 -3.7213  0.9357 -0.0264
 1049SOL    HW214784   4.259   2.461  12.038  0.5869 -0.5679 -0.5892
 1050SOL     OW14785   2.793   2.156   0.264 -0.3688 -0.2947 -0.3472
 1050SOL    HW114786   2.731   2.219   0.300  0.8853  0.7643 -0.0175
 1050SOL    HW214787   2.776   2.078   0.316  0.0531 -0.9253 -1.1489
 1051SOL     OW14788   1.417   1.183   3.661 -0.1330 -0.4664  0.0419
 1051SOL    HW114789   1.383   1.135   3.736  0.3747  0.7588  1.0403
 1051SOL    HW214790   1.361   1.258   3.680 -0.3388 -0.2923 -1.2027
 1052SOL     OW14791   0.929   3.529   0.854  0.5471  0.4324  0.2021
 1052SOL    HW114792   0.947   3.621   0.834  0.9430 -0.1649 -2.1941
 1052SOL    HW214793   0.982   3.473   0.799 -1.4352 -0.7024 -0.5416
 1053SOL     OW14794   2.281   0.599   2.662  0.2335  0.1651  0.2500
 1053SOL    HW114795   2.221   0.527   2.678  1.4522 -1.3109 -1.8911
 1053SOL    HW214796   2.226   0.676   2.645  1.9428  1.7630  1.8095
 1054SOL     OW14797   3.815   1.589   1.541 -0.0731  0.5459 -0.3108
 1054SOL    HW114798   3.841   1.543   1.621  2.4674  1.1432 -0.7806
 1054SOL    HW214799   3.722   1.567   1.546  0.4525 -1.4428  0.7152
 1055SOL     OW14800   3.266   1.079  13.958 -0.2678 -0.0101 -0.4217
 1055SOL    HW114801   3.263   1.164  14.002  0.3619 -0.1765 -0.0629
 1055SOL    HW214802   3.185   1.086  13.907  0.7857  1.4702 -1.8950
 1056SOL     OW14803   1.805   2.300   2.174 -0.1769  0.1776 -0.4485
 1056SOL    HW114804   1.823   2.394   2.183 -0.7683  0.2170  0.2998
 1056SOL    HW214805   1.819   2.286   2.080  0.3156  0.3085 -0.3929
 1057SOL     OW14806   4.171   2.160   2.372  0.0543 -0.1318  0.3648
 1057SOL    HW114807   4.114   2.235   2.359 -0.8873 -0.8228  0.4986
 1057SOL    HW214808   4.120   2.110   2.436 -0.1000  0.6888  0.8807
 1058SOL     OW14809   1.479   4.714   9.536 -1.1255  0.9033  0.1047
 1058SOL    HW114810   1.533   4.661   9.594  0.4872  1.6163 -0.7407
 1058SOL    HW214811   1.545   0.037   9.510  3.3283 -2.2344  3.8267
 1059SOL     OW14812   3.327   3.526  11.275 -0.2455 -0.1773  0.0729
 1059SOL    HW114813   3.286   3.458  11.328  2.7955 -0.7170  1.7270
 1059SOL    HW214814   3.372   3.472  11.210 -2.6574 -1.4928 -0.5314
 1060SOL     OW14815   0.291   3.442   9.777  0.1363  0.3725 -0.3463
 1060SOL    HW114816   0.232   3.509   9.743  0.4829  0.4896 -0.7182
 1060SOL    HW214817   0.301   3.385   9.701  0.9691  0.1185 -0.0499
 1061SOL     OW14818   1.621   3.177  17.032  0.4114  0.5420 -0.0675
 1061SOL    HW114819   1.700   3.229  17.017  0.1453  0.5837 -1.2608
 1061SOL    HW214820   1.644   3.099  16.981 -2.0134  2.0843 -3.4739
 1062SOL     OW14821   3.838   2.165   1.282  0.3679 -0.3055 -0.4664
 1062SOL    HW114822   3.812   2.257   1.288 -0.0281 -0.5654  1.5686
 1062SOL    HW214823   3.924   2.167   1.324  0.4343 -3.0205 -0.4434
 1063SOL     OW14824   3.398   1.565   7.177 -0.1086 -0.0093  0.3555
 1063SOL    HW114825   3.330   1.581   7.243 -3.6011 -2.2940 -2.6605
 1063SOL    HW214826   3.476   1.558   7.233  0.5649  2.0739 -0.3562
 1064SOL     OW14827   1.783   3.457   4.305  0.9630  0.5193 -0.2300
 1064SOL    HW114828   1.756   3.459   4.213 -0.5924 -3.1898  0.1912
 1064SOL    HW214829   1.868   3.502   4.305  0.3428  1.6891  2.4252
 1065SOL     OW14830   2.074   1.936   5.111 -0.4822  0.0309 -0.6449
 1065SOL    HW114831   2.165   1.911   5.127 -0.3276  0.1145 -1.3871
 1065SOL    HW214832   2.089   2.012   5.055 -0.9094  0.9572  0.5047
 1066SOL     OW14833   2.124   3.350   3.998 -0.0751  0.3582  0.9759
 1066SOL    HW114834   2.163   3.314   3.918 -2.2042  3.0599 -1.2672
 1066SOL    HW214835   2.085   3.430   3.964 -1.0032 -0.4419  0.1752
 1067SOL     OW14836   1.317   3.306  17.667 -0.2010  0.2081 -0.3896
 1067SOL    HW114837   1.233   3.264  17.647  0.2828  0.4463 -2.9239
 1067SOL    HW214838   1.365   3.229  17.698 -2.0164 -0.5166  0.6089
 1068SOL     OW14839   3.974   1.887   2.026 -0.2670 -0.1480 -0.2420
 1068SOL    HW114840   3.894   1.868   1.977  0.1314 -2.1829 -0.0772
 1068SOL    HW214841   3.957   1.827   2.099  0.1771 -1.8607 -1.5497
 1069SOL     OW14842   0.222   0.257  11.688 -0.5151  0.0724 -0.0967
 1069SOL    HW114843   0.262   0.333  11.730  0.3855 -1.9427  2.6383
 1069SOL    HW214844   0.128   0.256  11.709  0.3465  0.5154  3.6938
 1070SOL     OW14845   2.535   2.101   7.426  0.1958  0.0362  0.2769
 1070SOL    HW114846   2.556   2.190   7.398 -2.7108  0.3434 -0.9342
 1070SOL    HW214847   2.497   2.072   7.343  2.9035 -2.3401 -0.1403
 1071SOL     OW14848   1.619   1.677   9.212  0.3098 -0.3092 -0.0513
 1071SOL    HW114849   1.604   1.704   9.121  1.3350 -1.6240 -0.6094
 1071SOL    HW214850   1.530   1.654   9.237  0.9811 -2.4149  0.3463
 1072SOL     OW14851   3.720   0.233   3.704  0.4168  0.5053  0.5954
 1072SOL    HW114852   3.642   0.180   3.687  1.3773 -0.8593  0.4380
 1072SOL    HW214853   3.680   0.313   3.740  1.7089  1.0257  0.8695
 1073SOL     OW14854   4.179   0.064   7.817 -0.7866 -0.1841 -0.8317
 1073SOL    HW114855   4.102   0.041   7.869 -1.3430  0.3620 -1.4128
 1073SOL    HW214856   4.156   0.047   7.726  0.3719 -3.0485 -0.5997
 1074SOL     OW14857   1.076   1.483  12.266 -0.2965 -0.4302 -0.6599
 1074SOL    HW114858   1.097   1.531  12.187  1.5243 -0.8535 -0.4366
 1074SOL    HW214859   0.989   1.455  12.238 -1.5595  1.2109  1.6412
 1075SOL     OW14860   2.316   3.145   5.476  0.5967 -0.5371  0.0147
 1075SOL    HW114861   2.389   3.203   5.458  1.2688 -0.7872  1.9258
 1075SOL    HW214862   2.359   3.061   5.495  1.1372  0.3458  2.6881
 1076SOL     OW14863   0.570   0.426  12.953 -0.3745 -0.2433  0.0652
 1076SOL    HW114864   0.580   0.507  12.902  1.2643  0.4415  1.4368
 1076SOL    HW214865   0.491   0.385  12.919 -0.7940 -0.2693  1.0921
 1077SOL     OW14866   0.546   4.440  14.249 -0.2679 -0.6970  0.5671
 1077SOL    HW114867   0.574   4.357  14.287  2.7603  0.2337  0.3927
 1077SOL    HW214868   0.494   4.479  14.319  1.6693 -0.6250  1.9715
 1078SOL     OW14869   0.929   1.720   2.868 -0.1530 -0.4803  0.2774
 1078SOL    HW114870   0.969   1.702   2.954 -1.6429 -0.9601  0.8568
 1078SOL    HW214871   0.895   1.635   2.844 -2.7251  1.1892 -1.9275
 1079SOL     OW14872   0.489   2.358  11.982 -0.5298  0.7075 -0.1412
 1079SOL    HW114873   0.495   2.269  12.015  1.6848  0.9986  0.2566
 1079SOL    HW214874   0.564   2.365  11.923 -0.6957 -0.2237 -0.4570
 1080SOL     OW14875   2.374   0.424   7.628 -0.1692 -0.0457  0.0482
 1080SOL    HW114876   2.346   0.495   7.686 -1.2455  0.5029 -1.1657
 1080SOL    HW214877   2.469   0.418   7.637 -0.1578  0.6505  0.3769
 1081SOL     OW14878   0.466   2.701  13.767 -0.4091 -0.0068  0.1024
 1081SOL    HW114879   0.434   2.615  13.739 -0.5875  0.2918 -0.6237
 1081SOL    HW214880   0.481   2.754  13.689 -0.5468 -1.8458 -1.1736
 1082SOL     OW14881   3.635   2.924  13.104  0.6850  0.2698 -0.1061
 1082SOL    HW114882   3.637   3.018  13.084  0.3092  0.7443  2.0794
 1082SOL    HW214883   3.560   2.887  13.058  0.8069 -2.4856  1.9094
 1083SOL     OW14884   1.386   3.059   0.129 -0.1158 -0.2850 -0.3556
 1083SOL    HW114885   1.436   2.983   0.158  0.3397  0.0057 -0.3760
 1083SOL    HW214886   1.447   3.097   0.065 -0.5662 -0.2892 -0.7910
 1084SOL     OW14887   4.035   1.083  14.949 -0.2431  0.7251  0.6811
 1084SOL    HW114888   4.104   1.036  14.903 -0.1906  0.2826  1.2084
 1084SOL    HW214889   4.051   1.166  14.905 -2.1400  1.6592  1.7488
 1085SOL     OW14890   2.480   1.093   4.323  0.1353  0.3509 -0.1016
 1085SOL    HW114891   2.488   1.021   4.386 -0.7526 -0.4965 -0.9482
 1085SOL    HW214892   2.449   1.173   4.366  2.9992  0.9056  0.8993
 1086SOL     OW14893   1.790   0.432   7.311  0.0731  0.6970 -0.3435
 1086SOL    HW114894   1.783   0.357   7.370  1.0226  0.3485 -0.6665
 1086SOL    HW214895   1.702   0.418   7.274 -1.2837  3.8936  1.7390
 1087SOL     OW14896   3.348   2.652  14.144 -0.0524 -0.2803 -0.2304
 1087SOL    HW114897   3.264   2.696  14.142  0.1710 -0.0652 -4.4250
 1087SOL    HW214898   3.410   2.726  14.150 -3.1848  2.0786  2.6248
 1088SOL     OW14899   1.064   2.162   6.480 -0.5234  0.1682  0.1126
 1088SOL    HW114900   1.065   2.216   6.400  1.8560 -0.4919 -0.2999
 1088SOL    HW214901   1.126   2.216   6.529  0.3297  0.7277 -1.5757
 1089SOL     OW14902   0.829   3.055   0.016  0.2147  0.7733 -0.7089
 1089SOL    HW114903   0.735   3.063   0.001 -0.0522 -0.8988  0.0574
 1089SOL    HW214904   0.838   3.037   0.110  1.0740  1.6812 -0.6073
 1090SOL     OW14905   3.225   1.331   5.629  0.2920 -0.7646 -0.1728
 1090SOL    HW114906   3.195   1.304   5.715  2.3934 -0.1311  0.7709
 1090SOL    HW214907   3.216   1.251   5.578  1.5793  0.9692 -3.1222
 1091SOL     OW14908   4.543   0.239   1.472 -0.0159  0.0813 -0.7267
 1091SOL    HW114909   4.572   0.289   1.549 -3.0240 -0.6034  0.8607
 1091SOL    HW214910   4.542   0.152   1.512 -1.2748  0.1231 -0.6624
 1092SOL     OW14911   3.696   2.770   4.629 -0.1605 -0.6390  0.0134
 1092SOL    HW114912   3.602   2.756   4.623 -0.2612  0.0285  0.0684
 1092SOL    HW214913   3.721   2.684   4.663  3.6259  0.6591  0.5084
 1093SOL     OW14914   4.649   4.444   7.747 -0.5077 -0.5072  0.0166
 1093SOL    HW114915   4.638   4.472   7.838  0.0898  0.9284 -0.3462
 1093SOL    HW214916   4.559   4.461   7.718 -0.3414  0.1762 -0.1045
 1094SOL     OW14917   3.129   0.212   4.688  0.5540 -0.2839  0.0416
 1094SOL    HW114918   3.093   0.265   4.759  1.2999  0.2097  0.0566
 1094SOL    HW214919   3.178   0.156   4.748 -1.9485 -1.3606  1.0932
 1095SOL     OW14920   2.142   2.089   4.165 -0.1736 -0.5551  0.1353
 1095SOL    HW114921   2.182   2.137   4.237 -0.8737 -0.6734  0.6025
 1095SOL    HW214922   2.052   2.111   4.190 -0.0034 -1.1684  1.2867
 1096SOL     OW14923   0.808   0.576   1.905  0.7822 -0.3036  0.2426
 1096SOL    HW114924   0.747   0.525   1.851  2.0718 -1.6585  0.0798
 1096SOL    HW214925   0.763   0.661   1.907  0.2450 -0.6490  2.3391
 1097SOL     OW14926   3.587   1.427   8.648  0.0934 -0.2226 -0.2494
 1097SOL    HW114927   3.658   1.405   8.708 -0.0859  0.8528  0.3526
 1097SOL    HW214928   3.543   1.491   8.704 -1.1113 -1.0597 -0.2291
 1098SOL     OW14929   4.457   0.707   7.274 -0.2091 -0.2306  0.4503
 1098SOL    HW114930   4.443   0.620   7.239  2.9151 -0.7915  0.6072
 1098SOL    HW214931   4.426   0.700   7.365 -0.6272  1.6273  0.4604
 1099SOL     OW14932   1.927   3.709   8.710 -0.0390  0.0869 -0.1368
 1099SOL    HW114933   1.992   3.756   8.763  0.6120 -0.9422 -0.0288
 1099SOL    HW214934   1.854   3.771   8.703  0.7036  1.1230  1.1989
 1100SOL     OW14935   0.395   2.375   7.290  0.4375  0.4934  0.2122
 1100SOL    HW114936   0.315   2.423   7.268 -0.4925 -1.0272  0.2804
 1100SOL    HW214937   0.353   2.289   7.299 -0.4861  0.9157 -0.0587
 1101SOL     OW14938   1.335   1.570  15.922 -0.2891  0.4109 -0.0314
 1101SOL    HW114939   1.346   1.637  15.989 -0.7565  0.5278 -0.0700
 1101SOL    HW214940   1.242   1.555  15.939 -0.2473  0.8689  0.6043
 1102SOL     OW14941   3.451   0.518   5.644  0.4075  0.0019 -0.5682
 1102SOL    HW114942   3.392   0.503   5.570  1.2996 -1.1823 -1.0308
 1102SOL    HW214943   3.494   0.436   5.666 -2.4689 -2.0381 -2.5153
 1103SOL     OW14944   1.569   1.688   3.470 -0.0366  0.9854  0.2817
 1103SOL    HW114945   1.534   1.603   3.446 -0.0099  1.1656 -0.3922
 1103SOL    HW214946   1.574   1.730   3.384  0.3072  0.0914 -0.1363
 1104SOL     OW14947   0.784   3.948  17.504 -0.6158 -0.4805  0.7650
 1104SOL    HW114948   0.847   3.918  17.569 -0.8896  0.7127  1.5771
 1104SOL    HW214949   0.808   4.040  17.515 -2.7857  0.5022 -2.9196
 1105SOL     OW14950   1.973   1.238   5.265 -0.3727  0.1381 -0.2774
 1105SOL    HW114951   2.023   1.188   5.330 -0.0343  2.0560  0.9376
 1105SOL    HW214952   1.918   1.293   5.322  0.7306  1.9111 -0.9233
 1106SOL     OW14953   4.571   0.231  12.027  0.6704 -0.2702 -0.4194
 1106SOL    HW114954   4.591   0.148  11.985 -0.3833  0.9488 -3.3590
 1106SOL    HW214955   4.475   0.227  12.023  0.8131 -1.8799 -1.7991
 1107SOL     OW14956   3.145   2.853  14.087 -0.5880  0.2288 -0.8879
 1107SOL    HW114957   3.127   2.880  14.177  1.6542 -0.1070 -0.3452
 1107SOL    HW214958   3.188   2.934  14.057 -2.7985  2.4216  1.8245
 1108SOL     OW14959   2.031   2.025   0.107  0.3473 -0.1631  0.5039
 1108SOL    HW114960   1.991   2.097   0.057  1.2106  0.2246  0.3774
 1108SOL    HW214961   1.950   1.981   0.134  1.1403 -1.9702 -0.1281
 1109SOL     OW14962   3.616   3.528   1.104  0.0462  0.2019 -0.3551
 1109SOL    HW114963   3.697   3.499   1.062  0.6274  0.7920  0.3636
 1109SOL    HW214964   3.568   3.550   1.025  0.9449 -0.1831 -1.0042
 1110SOL     OW14965   1.813   2.516   1.778 -0.2627  0.1976  0.8170
 1110SOL    HW114966   1.887   2.485   1.830  1.1513  2.7442  0.2834
 1110SOL    HW214967   1.756   2.559   1.842 -1.1007  0.9276 -0.4179
 1111SOL     OW14968   3.706   2.182   4.886 -0.8064  0.1781 -0.3776
 1111SOL    HW114969   3.655   2.132   4.950  4.3809 -2.1782  1.8642
 1111SOL    HW214970   3.636   2.237   4.850 -0.9562  0.6049  0.5536
 1112SOL     OW14971   0.311   3.613   8.360  0.5632 -0.2375  0.5999
 1112SOL    HW114972   0.360   3.530   8.361 -1.8849 -1.7118 -0.7921
 1112SOL    HW214973   0.265   3.615   8.276  1.8418  1.2702 -0.0487
 1113SOL     OW14974   2.038   1.216   7.132 -0.7731 -0.1507  0.0131
 1113SOL    HW114975   2.018   1.159   7.207  0.2744 -0.9006 -0.2856
 1113SOL    HW214976   2.004   1.302   7.156 -0.0710  0.1363 -0.0513
 1114SOL     OW14977   2.551   3.213  11.956 -0.3283  0.1974 -0.0228
 1114SOL    HW114978   2.598   3.290  11.925 -0.5133  0.4929  0.4315
 1114SOL    HW214979   2.493   3.197  11.881 -1.3058 -1.6193  1.1206
 1115SOL     OW14980   1.582   2.722   7.029  0.4167  0.1562 -0.2447
 1115SOL    HW114981   1.629   2.664   7.090 -0.4476 -0.0687  0.2144
 1115SOL    HW214982   1.655   2.779   7.006 -0.1416  0.5252 -1.0696
 1116SOL     OW14983   3.030   1.166   8.282 -0.5803 -0.3878  0.3199
 1116SOL    HW114984   3.099   1.232   8.280 -1.1047  0.1596  0.1612
 1116SOL    HW214985   3.081   1.088   8.261  1.1766  0.9529 -0.4590
 1117SOL     OW14986   3.482   0.224   2.543  0.2048 -0.0856  0.0836
 1117SOL    HW114987   3.431   0.241   2.623 -1.0859 -0.3742 -0.6789
 1117SOL    HW214988   3.492   0.312   2.509 -0.7031  0.0575  0.1883
 1118SOL     OW14989   4.037   0.233   1.673  0.0335 -0.3962 -0.1858
 1118SOL    HW114990   3.988   0.281   1.740 -0.6067 -0.6973 -0.4345
 1118SOL    HW214991   4.071   0.157   1.720  0.0607 -0.0552  0.3491
 1119SOL     OW14992   3.748   3.118   4.674 -0.3456 -0.3051 -0.4653
 1119SOL    HW114993   3.717   3.181   4.608 -0.5148 -0.5301 -0.5992
 1119SOL    HW214994   3.666   3.087   4.713  0.5468 -1.9407  0.0719
 1120SOL     OW14995   3.454   1.544   1.967  0.1990  0.3392  0.0751
 1120SOL    HW114996   3.526   1.485   1.991  0.1152  0.7296  1.2798
 1120SOL    HW214997   3.474   1.626   2.013  1.3977  0.2321 -0.2742
 1121SOL     OW14998   0.852   0.071   6.731 -0.0153 -0.0389 -0.5452
 1121SOL    HW114999   0.894   0.157   6.729 -2.1126  0.9816 -0.7761
 1121SOL    HW215000   0.777   0.083   6.672 -0.9283 -2.0925  0.1971
 1122SOL     OW15001   2.984   2.434   1.266 -0.7011 -0.7365 -0.5625
 1122SOL    HW115002   3.043   2.488   1.214 -0.2510 -1.1669 -0.5028
 1122SOL    HW215003   2.910   2.438   1.206 -0.5110  0.2434 -0.7178
 1123SOL     OW15004   2.333   4.160   2.182  0.0792  0.2526 -0.0004
 1123SOL    HW115005   2.359   4.070   2.165  2.0449  0.5676  1.2749
 1123SOL    HW215006   2.288   4.147   2.265 -1.3067 -1.3528 -1.0149
 1124SOL     OW15007   2.089   2.589   6.325 -0.0822 -0.6883  0.2358
 1124SOL    HW115008   2.097   2.680   6.298  0.2248 -1.0446 -0.8877
 1124SOL    HW215009   2.006   2.599   6.373 -0.5430  2.8063 -1.3039
 1125SOL     OW15010   0.077   0.548  14.788  0.2248 -0.2486 -0.5472
 1125SOL    HW115011   0.061   0.642  14.783  0.1492 -0.1764  0.9502
 1125SOL    HW215012   0.172   0.543  14.778  0.2260 -2.9964  0.8452
 1126SOL     OW15013   3.208   0.294   8.799  0.2034  0.4680 -0.2993
 1126SOL    HW115014   3.296   0.258   8.811 -0.0355  0.1692  0.5865
 1126SOL    HW215015   3.156   0.228   8.753  2.0004 -0.8019 -0.5092
 1127SOL     OW15016   4.099   4.109   4.120 -0.1004 -0.1046 -0.1762
 1127SOL    HW115017   4.103   4.140   4.030  0.4099  1.6634  0.4507
 1127SOL    HW215018   4.045   4.173   4.166  1.0893  0.5759  0.2711
 1128SOL     OW15019   3.415   1.664   2.582  0.0114  0.6377  0.3545
 1128SOL    HW115020   3.462   1.643   2.502 -1.3527 -0.8286 -0.0704
 1128SOL    HW215021   3.444   1.597   2.644  1.7298  1.1133  0.0544
 1129SOL     OW15022   4.284   3.644  10.488 -0.2409  0.0266 -0.2977
 1129SOL    HW115023   4.375   3.673  10.480 -0.4483 -0.1795 -3.3406
 1129SOL    HW215024   4.265   3.647  10.582  0.4638 -2.0454 -0.0893
 1130SOL     OW15025   0.892   3.153   3.751  0.6512 -0.6676  0.1039
 1130SOL    HW115026   0.921   3.227   3.804  0.4507  1.2607 -2.4719
 1130SOL    HW215027   0.942   3.185   3.676 -3.0845  3.5792 -0.5862
 1131SOL     OW15028   0.874   0.786   8.982  0.1817 -0.3689 -0.0451
 1131SOL    HW115029   0.904   0.723   8.917 -2.6976 -0.3732 -1.3775
 1131SOL    HW215030   0.833   0.727   9.045 -0.1647  0.5864  0.6204
 1132SOL     OW15031   1.119   4.533  17.142 -0.5971 -0.8554 -0.0674
 1132SOL    HW115032   1.120   4.571  17.230 -3.2881 -1.4532  0.2242
 1132SOL    HW215033   1.097   4.607  17.085 -0.4275 -1.1092 -0.4625
 1133SOL     OW15034   3.286   2.568   6.467  0.1119 -0.3284  0.1195
 1133SOL    HW115035   3.320   2.512   6.537 -1.2143 -2.0760 -0.6531
 1133SOL    HW215036   3.339   2.542   6.392  1.2691  2.4872 -0.0416
 1134SOL     OW15037   2.157   1.270   4.403 -0.6921 -0.3766 -0.2361
 1134SOL    HW115038   2.085   1.283   4.340 -0.8467  0.1313  0.0443
 1134SOL    HW215039   2.135   1.181   4.429 -1.0994 -0.7408 -1.8197
 1135SOL     OW15040   1.079   3.758  13.867 -0.1915  0.1238  0.0652
 1135SOL    HW115041   1.137   3.786  13.939  0.0608  1.1602 -0.5485
 1135SOL    HW215042   1.128   3.684  13.831 -0.4615 -1.0560  2.1062
 1136SOL     OW15043   0.060   4.411  17.751 -0.1923  0.1887 -0.5634
 1136SOL    HW115044   0.129   4.477  17.756 -1.1601  1.1979 -0.3847
 1136SOL    HW215045   0.086   4.360   0.068  0.4647  1.8916  0.3579
 1137SOL     OW15046   1.810   2.740   9.670 -0.1393 -0.2834  0.4776
 1137SOL    HW115047   1.774   2.796   9.601 -0.8852 -0.5782  0.6245
 1137SOL    HW215048   1.845   2.805   9.731  0.8812 -1.0334  0.6776
 1138SOL     OW15049   3.967   0.030   3.027 -0.5188  0.1402 -0.4289
 1138SOL    HW115050   3.887   0.008   3.076 -0.7325  0.0525 -0.8158
 1138SOL    HW215051   4.023   0.047   3.102  2.3522  0.8509 -2.7517
 1139SOL     OW15052   4.619   1.581  14.161 -0.0283 -0.1617  0.5582
 1139SOL    HW115053   4.572   1.608  14.240 -2.8601 -0.3324 -1.0468
 1139SOL    HW215054   4.547   1.534  14.117 -1.5438  1.4215  1.3680
 1140SOL     OW15055   4.309   2.172  13.799  0.1539 -0.1933  0.2454
 1140SOL    HW115056   4.362   2.207  13.870 -1.2511  0.0589  1.1852
 1140SOL    HW215057   4.356   2.220  13.731 -0.3613  1.8907  1.3488
 1141SOL     OW15058   2.680   1.364  13.265  0.3848  0.4691  0.8233
 1141SOL    HW115059   2.643   1.448  13.290  0.5196  0.6619  0.3686
 1141SOL    HW215060   2.644   1.308  13.334 -0.3949 -3.4620 -2.7894
 1142SOL     OW15061   2.257   3.519   1.232  0.1530 -0.7851  0.0797
 1142SOL    HW115062   2.211   3.520   1.316  1.9271  0.7706  1.0569
 1142SOL    HW215063   2.303   3.603   1.232 -1.1803 -0.0572 -2.6192
 1143SOL     OW15064   4.498   1.798   2.939 -0.3650 -0.5096  0.0852
 1143SOL    HW115065   4.525   1.718   2.984  1.2914  1.2621  2.2318
 1143SOL    HW215066   4.460   1.843   3.014  0.0306 -0.4408  0.2458
 1144SOL     OW15067   3.894   2.161  11.749  0.1075  0.1764 -0.0043
 1144SOL    HW115068   3.809   2.161  11.793  0.5751 -3.5304  0.9239
 1144SOL    HW215069   3.927   2.240  11.791  2.7955 -0.3454 -1.1502
 1145SOL     OW15070   2.507   2.020   7.174 -0.2482 -0.1661 -0.7300
 1145SOL    HW115071   2.456   1.983   7.101 -0.4690  1.1292 -1.2354
 1145SOL    HW215072   2.559   2.084   7.126  0.0273 -0.2450 -0.5331
 1146SOL     OW15073   1.982   2.441   5.868  0.2263  0.0189  0.2476
 1146SOL    HW115074   2.020   2.397   5.943  4.0703  1.2591 -0.9699
 1146SOL    HW215075   2.038   2.517   5.884 -0.4227  0.3746  0.7973
 1147SOL     OW15076   3.639   0.008   8.954 -0.2835  0.0003 -0.1878
 1147SOL    HW115077   3.684   4.667   8.933 -1.3639 -1.1845  2.1114
 1147SOL    HW215078   3.667   0.037   9.041  3.1387 -1.4178 -0.8025
 1148SOL     OW15079   3.519   0.323   8.554  0.0891  0.1698 -0.4071
 1148SOL    HW115080   3.536   0.296   8.644 -3.8145 -0.6748  0.0714
 1148SOL    HW215081   3.499   0.246   8.500 -1.2298 -0.5647  1.1239
 1149SOL     OW15082   1.216   2.815   8.981  0.1242  0.0661  0.3455
 1149SOL    HW115083   1.285   2.828   8.916 -0.2350  1.7480  0.2811
 1149SOL    HW215084   1.260   2.860   9.053  1.5427 -0.0682 -0.4486
 1150SOL     OW15085   3.958   1.791   3.365 -0.5188  0.1019 -0.1803
 1150SOL    HW115086   4.044   1.831   3.373  0.0017 -0.2125 -3.9673
 1150SOL    HW215087   3.929   1.784   3.455  0.8997 -2.4023  0.0881
 1151SOL     OW15088   1.414   2.277   9.679  0.4914  0.0804  0.1310
 1151SOL    HW115089   1.372   2.269   9.766 -1.2794 -3.6074 -1.0719
 1151SOL    HW215090   1.497   2.315   9.705  0.8852  0.4189 -1.6698
 1152SOL     OW15091   3.954   1.653   4.720 -0.1815  0.2669  0.0964
 1152SOL    HW115092   4.018   1.649   4.650 -0.6068 -1.9838 -0.1503
 1152SOL    HW215093   3.897   1.580   4.695  0.4800 -0.3793  0.4817
 1153SOL     OW15094   1.551   3.243   5.065 -0.1321 -0.4489  0.5152
 1153SOL    HW115095   1.611   3.289   5.006  0.6674 -0.1413  1.5626
 1153SOL    HW215096   1.503   3.186   5.006  1.7290 -0.5300 -0.9130
 1154SOL     OW15097   2.842   4.403   2.909  0.1700  0.2541  0.4315
 1154SOL    HW115098   2.912   4.346   2.880  0.2963 -0.4456  2.1264
 1154SOL    HW215099   2.889   4.478   2.947 -0.5820  1.2785 -0.6328
 1155SOL     OW15100   4.636   2.663   3.546 -0.3763 -0.3749  0.2326
 1155SOL    HW115101   4.606   2.576   3.573  0.1560  0.0652  2.2704
 1155SOL    HW215102   4.702   2.640   3.482  0.0859  0.0910  0.5403
 1156SOL     OW15103   2.436   1.628   5.558  0.0764 -0.0199  0.4674
 1156SOL    HW115104   2.388   1.708   5.540  1.6577  0.8440  0.0532
 1156SOL    HW215105   2.514   1.639   5.503 -1.3856 -0.1199 -1.5952
 1157SOL     OW15106   2.282   3.241   6.621 -0.4388 -0.2764 -0.3681
 1157SOL    HW115107   2.210   3.299   6.596 -0.6283  0.1626  1.2215
 1157SOL    HW215108   2.308   3.221   6.530  1.2348  1.1495 -0.2042
 1158SOL     OW15109   1.729   3.099   8.995  0.3002 -0.5190 -0.3810
 1158SOL    HW115110   1.823   3.098   9.015  0.0513 -1.6673  0.6624
 1158SOL    HW215111   1.738   3.080   8.901 -0.6921 -0.5658 -0.4615
 1159SOL     OW15112   2.409   2.872   7.288 -0.2207  0.6382 -0.3456
 1159SOL    HW115113   2.387   2.783   7.315 -0.5836  0.7364 -0.3110
 1159SOL    HW215114   2.322   2.895   7.255 -1.4230 -0.0499  2.3451
 1160SOL     OW15115   3.998   0.378   5.860 -0.0889 -0.3363  0.3887
 1160SOL    HW115116   3.932   0.423   5.913 -0.0061 -0.5572  0.6802
 1160SOL    HW215117   3.968   0.287   5.858 -1.6595  0.2062 -0.8887
 1161SOL     OW15118   1.088   3.625   3.582  0.0790 -0.1463  0.0112
 1161SOL    HW115119   1.178   3.601   3.560 -0.1792  0.5172 -1.8073
 1161SOL    HW215120   1.073   3.700   3.523 -1.2644 -1.0223 -0.7640
 1162SOL     OW15121   4.559   4.163   2.230 -0.0338  0.2419 -0.0271
 1162SOL    HW115122   4.627   4.221   2.197 -0.6397 -0.4739 -2.4975
 1162SOL    HW215123   4.598   4.125   2.309  1.4170  0.0550 -0.8521
 1163SOL     OW15124   4.441   1.938   7.445 -0.0883  0.3967  0.2873
 1163SOL    HW115125   4.377   1.870   7.467  1.1807 -0.6203  0.8674
 1163SOL    HW215126   4.504   1.912   7.512 -0.3576  0.4977  0.5786
 1164SOL     OW15127   4.063   0.352  11.481 -0.3164 -0.0405 -0.0360
 1164SOL    HW115128   4.157   0.347  11.461 -0.6433  1.8085 -2.0550
 1164SOL    HW215129   4.020   0.321  11.401  0.6034 -2.7445  0.5220
 1165SOL     OW15130   0.576   1.740   3.859  0.1516  0.6681  0.0315
 1165SOL    HW115131   0.573   1.819   3.912 -1.7556  1.4532 -1.2213
 1165SOL    HW215132   0.623   1.676   3.912 -1.0195  1.7656  2.4097
 1166SOL     OW15133   1.037   4.525   6.986 -0.3320 -0.6131  0.0506
 1166SOL    HW115134   0.958   4.577   6.968 -2.1285 -3.6694 -0.9683
 1166SOL    HW215135   1.098   4.543   6.914 -1.8902  0.6775 -0.9684
 1167SOL     OW15136   2.556   4.284   1.742 -0.7722  0.2978 -0.4997
 1167SOL    HW115137   2.496   4.356   1.722 -1.8521 -0.2050  0.9838
 1167SOL    HW215138   2.574   4.307   1.833  2.3931 -1.6998 -0.6217
 1168SOL     OW15139   3.822   1.324   3.734  0.5805 -0.7482 -0.8259
 1168SOL    HW115140   3.758   1.262   3.700 -0.5917 -0.8715  1.6445
 1168SOL    HW215141   3.869   1.354   3.656 -1.0367  0.8833 -1.1653
 1169SOL     OW15142   4.343   1.231   4.227 -0.4984  0.0365  0.1110
 1169SOL    HW115143   4.299   1.292   4.287 -1.1934  0.8560 -1.2331
 1169SOL    HW215144   4.274   1.169   4.201  0.3658 -0.4139 -1.0865
 1170SOL     OW15145   3.621   4.507  13.210 -0.0185 -0.7219 -0.1137
 1170SOL    HW115146   3.607   4.592  13.168  1.0138  0.0514  1.1024
 1170SOL    HW215147   3.534   4.467  13.205 -0.2153 -0.6254  2.3373
 1171SOL     OW15148   0.250   1.076   5.391  0.7756 -0.0769  0.1547
 1171SOL    HW115149   0.158   1.061   5.367  0.6003  3.8366 -1.5759
 1171SOL    HW215150   0.273   1.157   5.347  0.8437  0.2724  0.8365
 1172SOL     OW15151   4.137   2.554  10.467  0.4280 -0.6103  0.6280
 1172SOL    HW115152   4.100   2.569  10.379  1.7817  0.2576  0.2234
 1172SOL    HW215153   4.203   2.621  10.480 -1.8793  1.6164  0.8519
 1173SOL     OW15154   3.063   3.485  12.196  0.1862 -0.5053  0.2527
 1173SOL    HW115155   3.107   3.567  12.219 -1.9994  0.6505  0.3006
 1173SOL    HW215156   2.982   3.489  12.245 -0.6089 -2.9620 -0.8720
 1174SOL     OW15157   2.680   2.594   7.301  0.2844  0.6194  0.0947
 1174SOL    HW115158   2.609   2.603   7.365  0.5138 -1.2439  0.6119
 1174SOL    HW215159   2.631   2.585   7.219 -0.3520  0.6942  0.4642
 1175SOL     OW15160   4.276   0.147   0.986  0.2234  0.0923  0.7860
 1175SOL    HW115161   4.199   0.173   1.038  1.1393  2.8046  0.8154
 1175SOL    HW215162   4.301   0.231   0.947  0.4621 -0.4853 -0.2838
 1176SOL     OW15163   4.642   3.523   8.018 -0.1121  0.0438 -0.1538
 1176SOL    HW115164   4.687   3.589   8.071 -1.9824  0.9863  0.2457
 1176SOL    HW215165   4.687   3.441   8.037  0.6828  1.1358  2.7910
 1177SOL     OW15166   1.929   4.707  12.094  0.2241 -0.7524  0.0421
 1177SOL    HW115167   1.998   0.033  12.097  0.5057 -1.1469  2.4429
 1177SOL    HW215168   1.972   4.636  12.142  0.2492 -1.4695 -1.0548
 1178SOL     OW15169   1.320   0.710  15.167 -0.1461  0.4574  0.5082
 1178SOL    HW115170   1.305   0.656  15.245 -1.0166  0.0589  0.0591
 1178SOL    HW215171   1.249   0.676  15.112  0.0298  0.0083  0.5533
 1179SOL     OW15172   2.677   2.355   5.755 -0.2051  0.0563 -0.1532
 1179SOL    HW115173   2.761   2.308   5.751  0.0405  0.3695  1.2278
 1179SOL    HW215174   2.672   2.387   5.665 -2.1867  1.3151  0.4125
 1180SOL     OW15175   1.548   2.153   4.488  0.0668  0.2891  0.1386
 1180SOL    HW115176   1.588   2.192   4.411 -3.5367 -0.9580 -2.3818
 1180SOL    HW215177   1.556   2.062   4.457  0.5977  0.1972  0.5588
 1181SOL     OW15178   0.504   4.597   2.836  0.0092  0.1346 -0.6194
 1181SOL    HW115179   0.500   4.569   2.744  2.3821 -0.1350 -0.6532
 1181SOL    HW215180   0.424   4.650   2.830  1.5236  2.5258  0.2317
 1182SOL     OW15181   1.891   1.830   6.108  0.3252  0.5548 -0.4511
 1182SOL    HW115182   1.932   1.744   6.098 -0.6976 -0.0637  0.5865
 1182SOL    HW215183   1.949   1.863   6.176 -0.7958  0.2446  0.6587
 1183SOL     OW15184   3.954   0.220   6.956  0.1870  0.2856 -0.2864
 1183SOL    HW115185   4.048   0.233   6.943  0.5971 -2.4738 -0.0805
 1183SOL    HW215186   3.929   0.166   6.881  0.2225  0.4088 -0.3876
 1184SOL     OW15187   1.434   1.639   4.354  0.0565 -0.5032 -0.2639
 1184SOL    HW115188   1.454   1.548   4.333  1.3186 -0.1302 -0.6527
 1184SOL    HW215189   1.436   1.625   4.448  0.1884 -0.5392 -0.2724
 1185SOL     OW15190   4.138   1.690  17.332  0.5004 -0.6077  0.9456
 1185SOL    HW115191   4.104   1.607  17.366  1.6380 -1.6980 -0.5824
 1185SOL    HW215192   4.229   1.666  17.314 -0.0033 -0.9837 -1.1383
 1186SOL     OW15193   2.363   2.580  15.412 -0.3291  0.1879  0.0051
 1186SOL    HW115194   2.269   2.597  15.421 -0.5278  0.0445 -1.7979
 1186SOL    HW215195   2.393   2.669  15.393  0.2980  0.2525  1.2765
 1187SOL     OW15196   2.078   1.826   2.583 -0.0484 -0.1601  0.0196
 1187SOL    HW115197   2.051   1.905   2.631  0.1707 -1.8698  2.9845
 1187SOL    HW215198   2.146   1.793   2.642  0.8058  1.3334 -0.1184
 1188SOL     OW15199   3.548   4.264  13.620  0.1234 -0.0095 -0.0994
 1188SOL    HW115200   3.576   4.238  13.532 -0.9525 -0.0591 -0.4360
 1188SOL    HW215201   3.629   4.281  13.667  0.8914 -0.0476 -1.4082
 1189SOL     OW15202   2.792   1.808   9.065  0.3947 -0.7483 -0.7934
 1189SOL    HW115203   2.845   1.730   9.083  1.4157 -0.4580 -2.6167
 1189SOL    HW215204   2.752   1.830   9.150  1.5272 -1.6618 -0.0172
 1190SOL     OW15205   4.352   2.168   2.898  0.6118  0.2418 -0.2087
 1190SOL    HW115206   4.412   2.243   2.901  0.8401  0.0504  0.0019
 1190SOL    HW215207   4.323   2.168   2.989  2.0994 -1.0756  0.2564
 1191SOL     OW15208   2.724   4.021  12.789  0.1217  0.2958 -0.4466
 1191SOL    HW115209   2.750   4.035  12.880 -0.3112  0.1908 -0.3070
 1191SOL    HW215210   2.640   3.978  12.802  0.9080 -1.2116 -0.3069
 1192SOL     OW15211   3.985   2.500   4.721  0.5718 -0.4506 -0.1265
 1192SOL    HW115212   3.898   2.462   4.734  1.3679 -1.9534  0.9011
 1192SOL    HW215213   3.973   2.559   4.647  1.7247 -0.4682 -0.3306
 1193SOL     OW15214   2.051   4.161   4.587 -0.2929 -0.6348 -0.5056
 1193SOL    HW115215   2.110   4.120   4.523 -0.4558  0.9045 -1.6293
 1193SOL    HW215216   2.023   4.236   4.535 -1.2681 -2.8693 -3.1824
 1194SOL     OW15217   4.563   2.453   5.590  0.3760 -0.1456 -0.2560
 1194SOL    HW115218   4.511   2.382   5.628 -0.3094  1.1609  1.2198
 1194SOL    HW215219   4.650   2.416   5.605 -0.0849 -0.2621  2.1725
 1195SOL     OW15220   3.498   0.798   3.431 -0.3957  0.1741 -0.2142
 1195SOL    HW115221   3.474   0.881   3.472  0.5520  1.9804 -3.3750
 1195SOL    HW215222   3.459   0.810   3.345  0.7396  0.9624 -0.6192
 1196SOL     OW15223   1.733   2.849   5.620  0.8883 -0.4419  0.2924
 1196SOL    HW115224   1.749   2.782   5.554 -0.2557 -0.0467 -0.3888
 1196SOL    HW215225   1.750   2.792   5.695  1.2505 -1.6219 -0.6829
 1197SOL     OW15226   3.633   2.321   2.066 -0.0697 -0.0046 -0.1071
 1197SOL    HW115227   3.639   2.257   2.137  0.8314 -1.4832 -1.5111
 1197SOL    HW215228   3.666   2.273   1.990 -2.0144 -2.4140  0.5700
 1198SOL     OW15229   4.339   4.635   2.736 -0.0560 -0.2398 -0.2635
 1198SOL    HW115230   4.265   4.624   2.676 -0.4910 -0.8456  0.3817
 1198SOL    HW215231   4.313   4.713   2.784 -0.2687  1.1137 -2.5796
 1199SOL     OW15232   3.256   3.947   4.898  0.0920 -0.1840  0.0351
 1199SOL    HW115233   3.242   4.035   4.931 -0.1956  0.6702 -2.3724
 1199SOL    HW215234   3.167   3.927   4.866 -0.7702 -1.3018  3.1075
 1200SOL     OW15235   4.490   2.391   5.949 -0.0949  0.1074 -0.0638
 1200SOL    HW115236   4.420   2.386   6.014  0.3009  3.2213  0.6151
 1200SOL    HW215237   4.511   2.483   5.935 -0.9036  0.4829  1.1682
 1201SOL     OW15238   2.624   2.371   6.029  0.3425 -0.1445  0.3494
 1201SOL    HW115239   2.641   2.285   6.066 -0.8222 -0.8120 -0.6964
 1201SOL    HW215240   2.639   2.351   5.937 -1.7161 -0.4136  0.0793
 1202SOL     OW15241   1.832   0.765   3.081  0.4506 -0.3570 -0.1236
 1202SOL    HW115242   1.746   0.732   3.055  0.2705  0.9512 -1.1951
 1202SOL    HW215243   1.833   0.840   3.022  1.0587  0.4175  0.8882
 1203SOL     OW15244   0.994   1.801   4.458 -0.2797 -0.0505 -0.1754
 1203SOL    HW115245   0.939   1.753   4.520  0.3260  0.4432  0.7383
 1203SOL    HW215246   1.030   1.869   4.514  0.6522  0.9219 -1.9555
 1204SOL     OW15247   1.787   0.081  11.150 -0.1309  0.0954 -0.1359
 1204SOL    HW115248   1.700   0.060  11.184 -0.0723 -1.7159 -1.1108
 1204SOL    HW215249   1.798   4.735  11.110  0.0543  0.2676 -0.4631
 1205SOL     OW15250   4.014   0.595   2.318  0.1586 -0.2793  0.1829
 1205SOL    HW115251   3.957   0.520   2.337  0.1662 -0.0392  1.1620
 1205SOL    HW215252   4.025   0.633   2.405 -2.2268 -0.1727  0.4230
 1206SOL     OW15253   3.463   3.708   3.026 -0.2701  0.1279  0.1769
 1206SOL    HW115254   3.449   3.703   2.932  3.0252  0.3727 -0.3279
 1206SOL    HW215255   3.549   3.668   3.039 -0.1183  0.2889 -0.3258
 1207SOL     OW15256   3.940   3.272  16.167 -0.2926 -0.0094 -0.5613
 1207SOL    HW115257   3.888   3.198  16.199  3.1861 -2.0950  0.2762
 1207SOL    HW215258   4.025   3.230  16.156  0.3510  1.4187 -1.0520
 1208SOL     OW15259   2.112   2.597  13.332  0.1063  0.0177 -0.1277
 1208SOL    HW115260   2.091   2.507  13.307  1.4891 -0.4954  0.5107
 1208SOL    HW215261   2.191   2.603  13.279  0.1039 -0.4388 -0.1866
 1209SOL     OW15262   2.349   3.427   5.935 -0.3848 -0.6581  0.1958
 1209SOL    HW115263   2.275   3.430   5.874  0.1670 -0.2115 -0.4554
 1209SOL    HW215264   2.375   3.519   5.926  0.6139 -1.0184 -0.6141
 1210SOL     OW15265   3.883   1.307   6.617  0.0531  0.4028 -0.2657
 1210SOL    HW115266   3.802   1.269   6.584  1.0431 -1.2480 -0.7907
 1210SOL    HW215267   3.845   1.375   6.672  0.1144  0.8459 -0.7695
 1211SOL     OW15268   1.908   2.922   6.080  0.4718  0.1750 -0.0470
 1211SOL    HW115269   1.872   2.945   5.994  1.8304 -0.3064 -0.7496
 1211SOL    HW215270   1.906   3.008   6.122  1.2080 -0.1074  0.5616
 1212SOL     OW15271   2.873   1.054   6.978  0.0481  0.6868  0.6283
 1212SOL    HW115272   2.778   1.067   6.976  0.0658  1.0835  2.1975
 1212SOL    HW215273   2.901   1.137   7.017  0.9257  0.5623  0.2577
 1213SOL     OW15274   0.681   4.422   2.376 -0.2457 -0.5163 -0.1113
 1213SOL    HW115275   0.769   4.397   2.347  0.3393  1.0387  0.3422
 1213SOL    HW215276   0.705   4.484   2.445  0.3287 -1.2246  0.3166
 1214SOL     OW15277   4.253   1.665   6.932 -0.1495  0.5466  0.0299
 1214SOL    HW115278   4.167   1.627   6.915  0.5232 -0.9598  0.0273
 1214SOL    HW215279   4.230   1.694   7.021  2.1654  0.0353  0.7812
 1215SOL     OW15280   2.796   3.099  11.976 -0.1667  1.0349 -0.0644
 1215SOL    HW115281   2.707   3.135  11.973 -0.2712  0.8731  0.8845
 1215SOL    HW215282   2.801   3.070  12.068 -0.3914 -0.2071 -0.4475
 1216SOL     OW15283   0.210   3.821   7.521 -0.6436 -0.5992  0.4327
 1216SOL    HW115284   0.121   3.830   7.554 -0.4355  1.6999  0.3246
 1216SOL    HW215285   0.197   3.740   7.471 -0.1616 -1.7892  2.2163
 1217SOL     OW15286   0.109   3.287  17.657 -0.1191  0.7847  0.5670
 1217SOL    HW115287   0.108   3.212  17.716  1.6193  1.3910  1.3495
 1217SOL    HW215288   0.169   3.269  17.585 -0.9911  0.1544 -0.0158
 1218SOL     OW15289   1.307   4.111   5.045 -0.0598  0.7184  0.9664
 1218SOL    HW115290   1.344   4.130   4.959 -2.2026 -3.0026 -0.7259
 1218SOL    HW215291   1.389   4.105   5.094 -0.7036  1.5214  2.1506
 1219SOL     OW15292   1.688   4.671   3.277 -0.2369  0.1733  0.5221
 1219SOL    HW115293   1.741   4.686   3.198 -1.1200  2.2060  0.3369
 1219SOL    HW215294   1.647   4.589   3.251 -0.1866 -0.2620  1.7982
 1220SOL     OW15295   1.954   0.263   6.876  0.0657  0.1913 -0.1246
 1220SOL    HW115296   1.933   0.312   6.955 -1.0577  1.2242 -1.0683
 1220SOL    HW215297   2.020   0.318   6.833 -3.5346  3.9914 -0.6985
 1221SOL     OW15298   2.352   2.422   5.039  0.4851 -0.2516 -0.0414
 1221SOL    HW115299   2.256   2.418   5.037  0.4503  0.7436 -0.1311
 1221SOL    HW215300   2.364   2.342   5.091  0.2553 -0.1881  0.1085
 1222SOL     OW15301   4.431   3.974   6.869 -0.1911 -1.2265 -0.1895
 1222SOL    HW115302   4.354   4.030   6.878 -0.7796 -2.0329 -0.2235
 1222SOL    HW215303   4.491   4.047   6.855 -0.2334 -0.8313  1.6914
 1223SOL     OW15304   0.696   0.835   5.775 -0.2820 -0.3594 -0.2875
 1223SOL    HW115305   0.645   0.759   5.745 -0.3290 -0.4171 -0.0611
 1223SOL    HW215306   0.621   0.890   5.797  1.0371  1.1016  0.4508
 1224SOL     OW15307   0.651   1.359  17.273 -0.4639 -0.4284  0.4545
 1224SOL    HW115308   0.574   1.413  17.253  0.0769  0.4631  0.8024
 1224SOL    HW215309   0.629   1.271  17.241 -2.7001  0.2975 -0.0651
 1225SOL     OW15310   1.205   2.813   2.450  0.1555  0.4741  0.2337
 1225SOL    HW115311   1.210   2.891   2.505 -2.3373  1.0166 -0.3201
 1225SOL    HW215312   1.114   2.817   2.420 -0.5933 -0.9369  2.2580
 1226SOL     OW15313   4.018   0.480   2.075  0.2057  0.0493 -0.4719
 1226SOL    HW115314   4.020   0.516   2.164  1.4673  1.4612 -1.0650
 1226SOL    HW215315   4.087   0.528   2.030 -2.7447  4.2823 -0.4331
 1227SOL     OW15316   3.441   4.146   3.358  0.5322  0.2898 -0.1284
 1227SOL    HW115317   3.469   4.068   3.310 -0.9026 -0.9951  1.0994
 1227SOL    HW215318   3.406   4.194   3.283  1.0662  0.4802 -0.2547
 1228SOL     OW15319   2.367   0.631  16.854 -0.4358  0.0921  0.2431
 1228SOL    HW115320   2.417   0.604  16.931  0.5063  0.1911 -0.3450
 1228SOL    HW215321   2.300   0.562  16.854 -0.8832  0.5079  1.6815
 1229SOL     OW15322   4.645   0.182   4.359 -0.3739  0.6108 -0.0340
 1229SOL    HW115323   4.622   0.244   4.290  0.7033  2.7620  1.5600
 1229SOL    HW215324   4.702   0.233   4.416 -0.8006 -0.3330  1.2226
 1230SOL     OW15325   2.329   2.520   5.517  0.0460  0.2382  0.2103
 1230SOL    HW115326   2.339   2.429   5.487 -1.1933 -0.3706  1.6405
 1230SOL    HW215327   2.254   2.550   5.465 -0.2474 -0.2162  0.3666
 1231SOL     OW15328   3.853   2.843  10.427  0.4107  0.0253 -0.1859
 1231SOL    HW115329   3.906   2.915  10.392 -2.5282  2.6343  0.7903
 1231SOL    HW215330   3.762   2.855  10.402 -0.2105  2.0261  2.9432
 1232SOL     OW15331   3.133   3.695   3.788  0.1524  0.3905 -0.2967
 1232SOL    HW115332   3.049   3.649   3.782  0.7334 -0.8428  1.0399
 1232SOL    HW215333   3.098   3.777   3.753 -1.0146  0.3460  0.7761
 1233SOL     OW15334   3.998   0.193   4.174  0.3133 -0.4810  0.8214
 1233SOL    HW115335   4.022   0.270   4.122  2.1555  1.2438  4.1730
 1233SOL    HW215336   3.945   0.140   4.116 -2.0993  0.4498  2.1845
 1234SOL     OW15337   4.054   3.341   6.019  0.2180 -0.5483  0.2513
 1234SOL    HW115338   3.989   3.403   6.052  1.2254 -0.0613  1.3268
 1234SOL    HW215339   4.072   3.282   6.092  0.8113  1.7946  1.9759
 1235SOL     OW15340   2.971   3.684   4.644  0.1775 -1.0237  0.3261
 1235SOL    HW115341   2.914   3.607   4.635 -0.3702 -0.7490  1.3488
 1235SOL    HW215342   3.027   3.672   4.568  0.7370  0.9573  0.4171
 1236SOL     OW15343   2.785   0.098   6.680  0.2532  0.4084  0.0383
 1236SOL    HW115344   2.865   0.151   6.672  0.2165  0.5644  0.7094
 1236SOL    HW215345   2.741   0.155   6.744  0.0126 -0.2619  0.4646
 1237SOL     OW15346   2.900   3.191   0.005  0.4242 -0.0061  0.1860
 1237SOL    HW115347   2.906   3.176   0.099 -0.2926  2.6083  0.6522
 1237SOL    HW215348   2.813   3.227  17.747  1.0317 -0.0127 -2.7341
 1238SOL     OW15349   4.451   3.369   2.049 -0.5128 -0.2159 -0.1666
 1238SOL    HW115350   4.466   3.274   2.053  2.5340  0.1991 -1.5374
 1238SOL    HW215351   4.493   3.410   2.124  1.8683  0.1061 -1.6641
 1239SOL     OW15352   2.728   2.978  17.249  0.2217 -0.1105  0.4811
 1239SOL    HW115353   2.812   2.951  17.213 -0.3095  0.3966 -1.1353
 1239SOL    HW215354   2.689   2.977  17.162 -0.8615  0.0182  0.9590
 1240SOL     OW15355   4.465   0.280  14.034 -0.2015 -0.1525 -0.3095
 1240SOL    HW115356   4.406   0.351  14.009  0.5332 -0.4172 -2.8871
 1240SOL    HW215357   4.538   0.341  14.038  3.0689 -4.0087 -0.5300
 1241SOL     OW15358   0.710   1.304  11.966  0.6397 -0.2928 -0.2116
 1241SOL    HW115359   0.650   1.268  12.031 -1.1136  3.4512  0.2215
 1241SOL    HW215360   0.699   1.245  11.891 -0.2338  0.2742 -0.5331
 1242SOL     OW15361   0.828   1.396   7.734 -0.2864 -0.5209  0.1666
 1242SOL    HW115362   0.809   1.306   7.708 -1.5607 -0.0493 -0.5228
 1242SOL    HW215363   0.744   1.441   7.723  0.0748  0.0815 -0.1393
 1243SOL     OW15364   4.452   1.716  10.408  0.2909  0.0321  0.2192
 1243SOL    HW115365   4.482   1.699  10.497 -1.3299  0.3232  0.8226
 1243SOL    HW215366   4.383   1.781  10.422  0.2332  0.0320 -0.0659
 1244SOL     OW15367   2.057   4.076   2.058 -0.5165 -0.5297  0.3570
 1244SOL    HW115368   2.109   4.131   2.000 -0.7988  1.0291  1.5713
 1244SOL    HW215369   2.127   4.013   2.077  1.0169  1.1257  0.1908
 1245SOL     OW15370   3.418   3.196   1.375  0.1358 -0.0684  0.1490
 1245SOL    HW115371   3.435   3.106   1.400  0.0609 -0.2765 -0.5308
 1245SOL    HW215372   3.434   3.244   1.456 -2.1683  0.6071  0.2135
 1246SOL     OW15373   3.526   1.426  14.448 -0.3591 -0.0558  0.0376
 1246SOL    HW115374   3.507   1.340  14.487  0.8039 -0.2865  0.0722
 1246SOL    HW215375   3.612   1.414  14.409  0.2335  0.3704  1.2114
 1247SOL     OW15376   1.015   1.570   5.626  0.8188  0.0913  0.4431
 1247SOL    HW115377   1.070   1.570   5.705 -0.9478  1.2589  1.6957
 1247SOL    HW215378   0.937   1.584   5.680 -0.4633  1.2174 -1.6920
 1248SOL     OW15379   4.670   0.046   0.261 -0.0613  0.0935  0.0418
 1248SOL    HW115380   4.718   0.063   0.342 -1.8500 -0.2822  1.1861
 1248SOL    HW215381   0.002   0.014   0.208 -0.1125 -1.1252  0.7113
 1249SOL     OW15382   1.554   4.473   0.903  0.3103 -0.0419  0.3845
 1249SOL    HW115383   1.626   4.431   0.951 -0.7611 -1.2678  0.9321
 1249SOL    HW215384   1.589   4.474   0.814  0.6195 -0.4930  0.5010
 1250SOL     OW15385   2.940   0.141   4.031 -0.2500  0.2214  0.0310
 1250SOL    HW115386   3.029   0.157   4.061  0.3183  0.2553 -1.6909
 1250SOL    HW215387   2.956   0.082   3.957 -0.7307  0.0402  0.0712
 1251SOL     OW15388   4.297   3.777  17.401  0.1790 -0.0502  0.3053
 1251SOL    HW115389   4.310   3.691  17.441 -3.1095 -0.7779 -0.1887
 1251SOL    HW215390   4.314   3.755  17.309  3.2151 -1.5330  1.2136
 1252SOL     OW15391   3.473   4.474   9.041 -0.4333 -0.2560 -0.0239
 1252SOL    HW115392   3.465   4.461   9.136  0.2481 -0.6340 -0.0179
 1252SOL    HW215393   3.397   4.527   9.020 -2.9172 -3.3812  1.1386
 1253SOL     OW15394   3.978   2.904   5.874  0.2412  0.0783  0.1374
 1253SOL    HW115395   3.927   2.969   5.922  1.5869  0.3492  1.1875
 1253SOL    HW215396   4.012   2.854   5.948 -0.3894 -1.2353 -0.4565
 1254SOL     OW15397   3.667   1.995   6.915  0.1423  0.0358 -0.5405
 1254SOL    HW115398   3.756   1.985   6.946 -0.4894  1.5521  1.6895
 1254SOL    HW215399   3.682   2.000   6.820  0.7765  0.3520 -0.4182
 1255SOL     OW15400   3.872   2.443   2.155  0.0937 -0.9294 -0.2163
 1255SOL    HW115401   3.804   2.471   2.094  0.3579  1.9607  0.8129
 1255SOL    HW215402   3.870   2.349   2.134 -0.0631 -1.2321  1.1801
 1256SOL     OW15403   0.278   4.199   4.898 -0.2965 -0.1213  0.0593
 1256SOL    HW115404   0.373   4.192   4.888  0.1294 -0.7205  4.3335
 1256SOL    HW215405   0.265   4.107   4.919 -0.6710  0.0205  0.4427
 1257SOL     OW15406   3.007   2.766   3.957 -0.0578  0.3353  0.1219
 1257SOL    HW115407   2.990   2.713   4.034 -1.5101  0.7747  0.0892
 1257SOL    HW215408   2.937   2.758   3.892 -0.0508  3.8502 -0.3428
 1258SOL     OW15409   3.803   0.547   3.948 -0.5742  0.2965 -0.1696
 1258SOL    HW115410   3.781   0.533   4.040  1.9804 -0.5033  0.3291
 1258SOL    HW215411   3.745   0.487   3.901 -1.4230  0.6906  0.3714
 1259SOL     OW15412   0.006   0.776   8.990  0.1287  0.0534  0.1274
 1259SOL    HW115413   0.036   0.686   8.980  1.2877  0.2995  1.3789
 1259SOL    HW215414   0.085   0.818   9.024  0.5709 -0.3446 -0.4083
 1260SOL     OW15415   3.625   2.527   9.115  0.1054  0.2875 -0.3846
 1260SOL    HW115416   3.617   2.591   9.186  2.5646  1.5612 -1.2614
 1260SOL    HW215417   3.530   2.515   9.104 -0.0921  1.6266 -0.0951
 1261SOL     OW15418   4.651   2.661   9.290 -0.3541  0.3815 -0.1381
 1261SOL    HW115419   4.718   2.730   9.284  0.9301 -0.7509  1.2493
 1261SOL    HW215420   4.693   2.602   9.227  1.2697 -0.0868  1.4020
 1262SOL     OW15421   0.343   3.595   0.692 -0.1100 -0.6452  0.4006
 1262SOL    HW115422   0.248   3.580   0.692 -0.3501  0.8763  1.3827
 1262SOL    HW215423   0.356   3.642   0.609  2.7772 -3.5633 -0.8200
 1263SOL     OW15424   4.337   1.883   1.485 -0.4090 -0.1620 -0.2216
 1263SOL    HW115425   4.379   1.932   1.556 -0.9471  0.7757 -0.5587
 1263SOL    HW215426   4.407   1.818   1.475  1.1021  1.7555 -2.1030
 1264SOL     OW15427   2.404   3.605  14.378  0.1851 -0.2584 -0.1944
 1264SOL    HW115428   2.462   3.559  14.317  0.3812 -0.4267  0.1201
 1264SOL    HW215429   2.338   3.631  14.314  0.3770  0.3068 -0.1631
 1265SOL     OW15430   4.558   0.509   5.392  0.2197  0.2951  0.3158
 1265SOL    HW115431   4.653   0.502   5.385  0.3808  1.0111  1.6839
 1265SOL    HW215432   4.549   0.531   5.485  0.8492 -0.4497  0.5528
 1266SOL     OW15433   1.075   1.450   9.261  0.1358  0.6724  0.8582
 1266SOL    HW115434   1.047   1.541   9.267 -2.9871 -0.3842  2.3066
 1266SOL    HW215435   0.996   1.395   9.256  1.2328 -0.8311 -0.0756
 1267SOL     OW15436   0.495   4.229   6.435  0.5452  1.1080 -0.1579
 1267SOL    HW115437   0.508   4.155   6.494 -0.9258 -1.1420 -2.6629
 1267SOL    HW215438   0.402   4.249   6.445  0.2990 -0.0833 -0.0660
 1268SOL     OW15439   2.068   4.386   1.679  0.0846  0.0905 -0.1443
 1268SOL    HW115440   2.018   4.400   1.759 -0.7041  1.2632 -0.8434
 1268SOL    HW215441   2.101   4.473   1.660 -0.9837  0.4238 -0.5143
 1269SOL     OW15442   1.708   3.477  15.744  0.4057  0.1778  0.1370
 1269SOL    HW115443   1.669   3.542  15.802 -0.4303 -0.3266  0.1461
 1269SOL    HW215444   1.652   3.483  15.667 -0.9039 -2.4854  0.8757
 1270SOL     OW15445   1.124   0.840   6.084 -0.5112  0.3411  0.3698
 1270SOL    HW115446   1.160   0.752   6.095  0.7840  0.6372 -1.5944
 1270SOL    HW215447   1.117   0.877   6.171 -2.2945 -2.3209  1.3858
 1271SOL     OW15448   3.272   4.126   2.052 -0.5503  0.1137  0.6602
 1271SOL    HW115449   3.289   4.055   2.113 -0.3412  0.1889  0.6895
 1271SOL    HW215450   3.301   4.088   1.969  0.3124  0.6587  0.7109
 1272SOL     OW15451   0.651   1.302  16.027  0.5798 -0.3570 -0.4126
 1272SOL    HW115452   0.710   1.366  15.986 -1.7899  1.5288 -0.9016
 1272SOL    HW215453   0.578   1.306  15.965  1.1524 -2.4342 -1.2267
 1273SOL     OW15454   1.486   4.575  17.331  0.0649  0.2347 -0.2158
 1273SOL    HW115455   1.492   4.497  17.276 -0.0982 -0.9749  1.4538
 1273SOL    HW215456   1.471   4.638  17.261  0.3492 -1.3971 -1.7595
 1274SOL     OW15457   1.534   2.684   3.044 -0.1121 -0.4850 -0.2305
 1274SOL    HW115458   1.570   2.767   3.075  0.2517 -0.8621  0.3519
 1274SOL    HW215459   1.500   2.708   2.958 -1.1823  0.4944  0.4774
 1275SOL     OW15460   2.325   0.483   5.003  0.1334 -0.6332  0.3741
 1275SOL    HW115461   2.336   0.561   5.057 -1.1745  1.0150 -1.7022
 1275SOL    HW215462   2.298   0.521   4.919  0.3532 -0.1282  0.5314
 1276SOL     OW15463   2.775   2.353   2.070 -0.4202 -0.3779 -0.4276
 1276SOL    HW115464   2.842   2.416   2.045 -0.2219 -0.9450 -1.3503
 1276SOL    HW215465   2.809   2.279   2.019 -0.0907 -0.6157  0.1369
 1277SOL     OW15466   2.583   3.214  12.232 -0.2825  0.1481 -0.3815
 1277SOL    HW115467   2.504   3.265  12.248 -0.6708 -0.8653  0.9763
 1277SOL    HW215468   2.569   3.196  12.140  1.2324 -0.2245 -0.5444
 1278SOL     OW15469   0.988   4.503   5.310  0.0973 -0.1886 -0.7145
 1278SOL    HW115470   1.055   4.556   5.268 -0.3274  1.0543  0.1671
 1278SOL    HW215471   1.040   4.424   5.326 -0.9166 -0.9945 -1.4767
 1279SOL     OW15472   0.932   1.914   7.993 -0.1211 -0.2183  0.0534
 1279SOL    HW115473   0.870   1.952   8.055  0.7096  1.0298  0.1018
 1279SOL    HW215474   0.897   1.825   7.984 -0.2211 -0.1994  0.2537
 1280SOL     OW15475   4.642   1.462   6.609 -0.4812 -0.7638 -0.5355
 1280SOL    HW115476   4.582   1.437   6.679 -0.2225  1.3257  0.4430
 1280SOL    HW215477   4.724   1.437   6.652 -0.5571  0.3080  0.2235
 1281SOL     OW15478   4.286   3.793   7.840  0.1271  0.4980 -0.5386
 1281SOL    HW115479   4.232   3.855   7.790  0.6926  0.1613 -1.5625
 1281SOL    HW215480   4.265   3.811   7.932  2.6123 -0.4066  0.2120
 1282SOL     OW15481   0.262   1.669  13.297  0.3157 -0.1867  0.2729
 1282SOL    HW115482   0.295   1.680  13.208  2.0152  1.8955  1.1389
 1282SOL    HW215483   0.185   1.725  13.296  0.6155  0.3217  3.1736
 1283SOL     OW15484   0.147   4.135   4.122  0.4357 -0.0377 -0.2948
 1283SOL    HW115485   0.231   4.102   4.090  0.8310  2.1896 -1.6250
 1283SOL    HW215486   0.147   4.216   4.070 -0.3283 -0.2618 -0.6380
 1284SOL     OW15487   1.078   4.212   8.169  0.3036 -0.1716 -0.3325
 1284SOL    HW115488   1.123   4.281   8.218  0.3253 -0.1582 -0.3711
 1284SOL    HW215489   0.999   4.254   8.137  0.9466 -0.5715 -2.4438
 1285SOL     OW15490   3.831   4.736   8.319  0.6487  0.4278  0.2675
 1285SOL    HW115491   3.791   4.727   8.405 -1.8613 -0.2411 -0.9647
 1285SOL    HW215492   3.917   4.695   8.326  0.8285  0.6055 -0.8668
 1286SOL     OW15493   0.009   1.185   2.855 -0.2419  0.2182 -0.0343
 1286SOL    HW115494   0.054   1.180   2.771 -3.1459 -0.2125 -1.5432
 1286SOL    HW215495   4.669   1.235   2.843 -1.1031 -0.5518  2.5135
 1287SOL     OW15496   1.889   3.514   8.960  0.5492 -0.1162  0.1178
 1287SOL    HW115497   1.933   3.563   9.029  0.3157 -2.0512  1.6467
 1287SOL    HW215498   1.852   3.588   8.911  1.3594  0.4074  0.3051
 1288SOL     OW15499   3.268   2.606   7.857 -0.8056  0.1959  0.4216
 1288SOL    HW115500   3.239   2.587   7.768  2.9582  0.9041 -0.9535
 1288SOL    HW215501   3.287   2.699   7.846  1.2835 -0.0217  2.1435
 1289SOL     OW15502   4.319   0.555   1.841  0.3823  1.0859 -0.0940
 1289SOL    HW115503   4.323   0.518   1.929  1.3641 -1.7547 -1.3383
 1289SOL    HW215504   4.396   0.517   1.799 -0.8599  0.0966 -1.4935
 1290SOL     OW15505   1.513   0.192   7.572  0.8862  0.5146 -0.4267
 1290SOL    HW115506   1.514   0.138   7.651 -1.0688  1.1814  0.0570
 1290SOL    HW215507   1.431   0.149   7.545  1.2159 -0.6493  0.4147
 1291SOL     OW15508   0.469   4.230   0.201  0.1377 -0.3441 -0.0344
 1291SOL    HW115509   0.477   4.323   0.179 -1.9926 -0.8409 -2.9449
 1291SOL    HW215510   0.406   4.208   0.132  1.2747  0.8913 -1.4839
 1292SOL     OW15511   3.364   2.736   2.300  0.4245 -0.1909  0.1149
 1292SOL    HW115512   3.344   2.789   2.377  0.4633 -2.5302  1.7278
 1292SOL    HW215513   3.287   2.679   2.295  1.2779 -0.9906 -4.2675
 1293SOL     OW15514   1.927   1.268   5.007 -0.2962  0.1416  0.1916
 1293SOL    HW115515   1.845   1.220   4.991  0.4155 -0.7716 -0.7445
 1293SOL    HW215516   1.953   1.238   5.094  0.2522  1.0946  0.3534
 1294SOL     OW15517   1.995   0.185   0.336 -0.3245  0.4788 -0.2690
 1294SOL    HW115518   1.964   0.258   0.284  0.3835 -1.3883 -3.3567
 1294SOL    HW215519   1.968   0.209   0.424  0.6499 -0.3407  0.2577
 1295SOL     OW15520   1.752   2.912  13.049  0.1483 -0.0788 -0.1006
 1295SOL    HW115521   1.809   2.986  13.068 -0.0827  0.0487  0.1050
 1295SOL    HW215522   1.675   2.926  13.105 -0.5009 -3.1292 -0.2219
 1296SOL     OW15523   3.423   1.178  10.259 -0.0069 -0.4808 -0.2731
 1296SOL    HW115524   3.507   1.210  10.291 -0.8074 -0.6534  2.0123
 1296SOL    HW215525   3.364   1.253  10.267 -0.4037 -0.8767  0.5952
 1297SOL     OW15526   4.631   4.355   2.648  0.2034 -0.9659  0.0892
 1297SOL    HW115527   4.572   4.291   2.609 -1.3816  0.5150  0.0610
 1297SOL    HW215528   4.577   4.434   2.640 -0.7829 -1.7741 -1.2648
 1298SOL     OW15529   3.710   2.414   0.618 -0.1511  0.0252 -0.5396
 1298SOL    HW115530   3.740   2.502   0.642  1.2146 -0.6428  0.1863
 1298SOL    HW215531   3.777   2.355   0.652 -0.1651  0.3741  0.0995
 1299SOL     OW15532   1.988   0.866   5.662  0.1087 -0.2395  0.1596
 1299SOL    HW115533   1.996   0.878   5.756 -0.0346 -2.3301  0.4403
 1299SOL    HW215534   1.920   0.799   5.670 -1.0191  0.7614 -1.0010
 1300SOL     OW15535   0.431   1.653   2.336 -0.9583  0.5885  0.1569
 1300SOL    HW115536   0.421   1.713   2.409  1.8564 -0.6928  1.5976
 1300SOL    HW215537   0.429   1.708   2.258 -2.4522 -0.4778 -0.5636
 1301SOL     OW15538   0.022   1.344   8.688 -0.3055  0.1108 -0.5660
 1301SOL    HW115539   0.077   1.339   8.767 -1.3036  0.2552  0.1422
 1301SOL    HW215540   0.018   1.253   8.660 -1.4652 -0.0734  0.2038
 1302SOL     OW15541   0.936   2.758   5.637  0.6218  0.2937 -0.0672
 1302SOL    HW115542   0.843   2.753   5.613  0.3402 -0.6935  1.2328
 1302SOL    HW215543   0.975   2.758   5.550 -0.7925 -0.6834 -0.6977
 1303SOL     OW15544   1.990   1.543   2.234  0.0781 -0.1919  0.2711
 1303SOL    HW115545   1.942   1.615   2.276  0.1460  0.2114 -0.3433
 1303SOL    HW215546   2.067   1.534   2.290 -0.3453 -2.6294  0.4483
 1304SOL     OW15547   2.060   2.142   4.886 -0.4748 -0.6788  0.4212
 1304SOL    HW115548   2.146   2.124   4.849 -0.0879  3.3309 -0.5778
 1304SOL    HW215549   1.996   2.090   4.836  0.4089 -1.4951  0.1402
 1305SOL     OW15550   0.652   4.043  12.469  0.2356 -0.0250  0.2308
 1305SOL    HW115551   0.680   3.961  12.428  0.9530 -0.9806  2.6455
 1305SOL    HW215552   0.606   4.004  12.544  0.7101  1.7197  1.4233
 1306SOL     OW15553   1.626   1.716  16.520  0.5797 -0.5856  0.2906
 1306SOL    HW115554   1.671   1.793  16.555  2.2725 -1.1521 -0.6316
 1306SOL    HW215555   1.544   1.738  16.565  0.6640 -0.1063  0.2118
 1307SOL     OW15556   2.526   2.927   9.560  0.5163  0.1993  0.3573
 1307SOL    HW115557   2.489   2.897   9.643 -0.1134 -1.4258 -0.5103
 1307SOL    HW215558   2.618   2.945   9.578  0.9701 -0.4684 -1.2906
 1308SOL     OW15559   4.561   1.283  12.872  0.0845 -0.0882 -0.1157
 1308SOL    HW115560   4.606   1.283  12.787 -0.4638 -0.0247 -0.4098
 1308SOL    HW215561   4.638   1.291  12.928  0.1474 -1.2318 -0.0330
 1309SOL     OW15562   2.377   4.420   8.292 -0.4470 -0.0786 -0.4464
 1309SOL    HW115563   2.326   4.367   8.231 -2.0581 -1.2410  1.9117
 1309SOL    HW215564   2.457   4.369   8.288 -0.9809 -1.0104  0.6279
 1310SOL     OW15565   2.994   4.571  17.014  0.6062  0.0848 -0.0634
 1310SOL    HW115566   3.020   4.616  17.094  2.4115 -0.0125 -0.5922
 1310SOL    HW215567   2.948   4.640  16.966  0.3264 -1.7452 -2.3877
 1311SOL     OW15568   3.964   4.080  14.027  0.3755 -0.2205 -0.0650
 1311SOL    HW115569   4.004   4.017  13.966  0.0443 -0.0811 -0.4270
 1311SOL    HW215570   4.032   4.129  14.074  1.0296 -1.1243 -0.0601
 1312SOL     OW15571   3.441   1.084   9.039  0.1407  0.0069  0.4571
 1312SOL    HW115572   3.425   1.176   9.018 -1.6846 -0.1580  1.1156
 1312SOL    HW215573   3.425   1.090   9.133 -0.9686  1.9814  0.1350
 1313SOL     OW15574   3.801   4.033   9.307  0.3812  0.0565  0.2511
 1313SOL    HW115575   3.784   4.113   9.356 -2.3150 -2.5908  3.6817
 1313SOL    HW215576   3.784   3.961   9.369  1.1404 -1.8332 -1.7344
 1314SOL     OW15577   2.452   4.336   9.448  0.5715 -0.6991  0.0940
 1314SOL    HW115578   2.439   4.279   9.524 -0.5568 -0.8668 -0.2201
 1314SOL    HW215579   2.383   4.317   9.385  1.5707 -1.5958 -0.7159
 1315SOL     OW15580   3.321   1.697   4.214  0.1351 -0.0985 -0.6939
 1315SOL    HW115581   3.398   1.708   4.159 -0.6260  0.9960 -1.5389
 1315SOL    HW215582   3.327   1.604   4.236 -0.2319  0.5290  2.0460
 1316SOL     OW15583   3.042   3.349  14.775  0.4548  0.0529  0.1556
 1316SOL    HW115584   3.044   3.345  14.870 -1.0912 -0.6047  0.1504
 1316SOL    HW215585   3.028   3.256  14.757  3.4332 -0.1187 -1.3158
 1317SOL     OW15586   4.415   3.508   6.225  0.3048  0.4172 -0.0321
 1317SOL    HW115587   4.500   3.545   6.200  1.1767  0.4266  2.8852
 1317SOL    HW215588   4.429   3.414   6.214 -0.4589  0.2629  0.3335
 1318SOL     OW15589   3.709   0.764   1.156 -0.2284 -0.5191  0.0159
 1318SOL    HW115590   3.711   0.731   1.246 -0.0585  0.2035  0.2851
 1318SOL    HW215591   3.794   0.808   1.151 -0.2839 -0.4953 -0.7092
 1319SOL     OW15592   2.335   4.171  14.273  0.0760  0.1915 -0.1636
 1319SOL    HW115593   2.246   4.205  14.271 -0.3389 -0.9985 -1.9418
 1319SOL    HW215594   2.376   4.219  14.200  2.3629 -0.0902  0.9214
 1320SOL     OW15595   1.464   4.446  11.070  0.2232  0.0223  0.1400
 1320SOL    HW115596   1.409   4.523  11.086 -1.1490 -1.2075  1.3206
 1320SOL    HW215597   1.499   4.466  10.983 -0.5059  2.1226  0.3370
 1321SOL     OW15598   0.338   1.751   3.387  0.7062  0.3562 -0.3367
 1321SOL    HW115599   0.419   1.741   3.436  1.7001  3.0664 -1.4432
 1321SOL    HW215600   0.331   1.846   3.384 -0.1724  0.3086  0.2861
 1322SOL     OW15601   1.344   2.506   0.189 -0.0427 -0.0217  0.6703
 1322SOL    HW115602   1.425   2.477   0.148 -1.0374  0.1348 -1.3867
 1322SOL    HW215603   1.369   2.560   0.264  0.8648 -0.3669  0.6105
 1323SOL     OW15604   1.943   4.079  11.376  0.3675  0.6835 -0.3384
 1323SOL    HW115605   1.989   4.124  11.448  0.2265 -1.4357  1.0878
 1323SOL    HW215606   1.871   4.031  11.417  0.8222  0.9617  0.7790
 1324SOL     OW15607   3.378   0.702  17.035 -0.5955 -0.4899  0.3159
 1324SOL    HW115608   3.340   0.725  16.950 -0.9220  0.1104  0.6190
 1324SOL    HW215609   3.447   0.639  17.013  0.5414  1.0619 -0.5720
 1325SOL     OW15610   4.170   2.884   8.203  0.0366  0.5790 -0.1489
 1325SOL    HW115611   4.087   2.913   8.241 -0.4273 -1.1313  0.1027
 1325SOL    HW215612   4.188   2.961   8.148 -0.4481  0.2202 -0.8083
 1326SOL     OW15613   1.565   4.005   6.866 -0.1028  0.7595 -0.3202
 1326SOL    HW115614   1.550   4.068   6.796 -2.1322  1.3540  0.6371
 1326SOL    HW215615   1.651   3.971   6.842 -0.2986 -0.1002  0.1867
 1327SOL     OW15616   0.557   2.667  12.093 -0.0297  0.2791  0.3444
 1327SOL    HW115617   0.637   2.708  12.126  0.1724 -0.2275  0.4860
 1327SOL    HW215618   0.524   2.743  12.046 -0.8836  0.8028  1.7750
 1328SOL     OW15619   3.714   1.489   9.491  0.4788 -1.3065  0.1122
 1328SOL    HW115620   3.713   1.567   9.546 -0.9116 -0.6723 -0.7997
 1328SOL    HW215621   3.641   1.447   9.538 -0.1446 -0.9221 -0.5192
 1329SOL     OW15622   1.422   1.260   4.072 -0.7148 -0.0587 -0.5789
 1329SOL    HW115623   1.336   1.298   4.052 -1.3261 -1.0885  0.1354
 1329SOL    HW215624   1.471   1.272   3.990  1.8475  0.3612  1.0004
 1330SOL     OW15625   0.385   2.290   5.584 -0.1256  0.4191  0.0629
 1330SOL    HW115626   0.329   2.251   5.651 -0.3517 -1.9382 -1.5255
 1330SOL    HW215627   0.313   2.286   5.520  1.4304 -0.9169 -1.5774
 1331SOL     OW15628   2.439   2.890   3.312 -0.1239  0.0005  0.7024
 1331SOL    HW115629   2.474   2.979   3.311 -0.3151  0.0882  1.7869
 1331SOL    HW215630   2.471   2.844   3.234 -1.2986  0.9527 -0.3485
 1332SOL     OW15631   1.759   0.114   3.717  0.4597  0.1550  0.2865
 1332SOL    HW115632   1.839   0.128   3.767 -0.2803 -1.2837  1.8776
 1332SOL    HW215633   1.787   0.092   3.628  0.0935  1.1865 -0.0805
 1333SOL     OW15634   0.611   1.672   1.029 -0.5705 -0.4279 -0.1918
 1333SOL    HW115635   0.531   1.721   1.044  1.0961  1.5248  2.3146
 1333SOL    HW215636   0.664   1.698   1.104 -1.7778  1.6248 -0.0608
 1334SOL     OW15637   1.682   0.934   0.921 -0.3498  0.7335  0.1284
 1334SOL    HW115638   1.689   0.984   1.002  0.4794 -0.2088  0.6398
 1334SOL    HW215639   1.587   0.943   0.916 -0.6515 -2.5405 -0.1668
 1335SOL     OW15640   4.264   2.286   6.592 -0.0071 -0.4353  0.0603
 1335SOL    HW115641   4.262   2.380   6.607  2.1855 -0.2268 -0.9879
 1335SOL    HW215642   4.180   2.255   6.625 -0.4145  0.0332 -0.5454
 1336SOL     OW15643   2.607   0.607   7.740 -0.8422  0.4065  0.1073
 1336SOL    HW115644   2.611   0.528   7.686  0.7946  1.1278 -0.8004
 1336SOL    HW215645   2.634   0.673   7.676  0.2832 -0.8995 -0.7620
 1337SOL     OW15646   3.741   3.660   0.840  0.4161  0.3416 -0.0187
 1337SOL    HW115647   3.812   3.720   0.818 -0.2152  0.1455 -2.7114
 1337SOL    HW215648   3.697   3.651   0.755  1.1266 -1.8499 -0.1568
 1338SOL     OW15649   3.856   0.565  11.217 -0.1831 -0.3156  0.2599
 1338SOL    HW115650   3.889   0.653  11.198 -0.2285 -0.5894 -1.1462
 1338SOL    HW215651   3.849   0.590  11.309 -2.1370 -0.8527  0.2459
 1339SOL     OW15652   4.353   1.463  14.338  0.6977  0.5907  0.1601
 1339SOL    HW115653   4.433   1.503  14.373  1.3770  2.1960 -3.2180
 1339SOL    HW215654   4.336   1.535  14.277 -0.7858  1.5895  1.7080
 1340SOL     OW15655   2.632   3.901   6.554 -1.1045 -0.0220  0.1360
 1340SOL    HW115656   2.571   3.902   6.628  1.1554  0.9765  1.9652
 1340SOL    HW215657   2.653   3.994   6.557 -1.3213  0.0085  0.7090
 1341SOL     OW15658   0.415   1.959  14.051 -0.2344 -0.2890  0.1209
 1341SOL    HW115659   0.406   1.897  13.978  3.2019 -2.1423  1.2687
 1341SOL    HW215660   0.350   2.027  14.035  0.2864  0.3067  0.5497
 1342SOL     OW15661   3.321   1.611  13.202  0.6239  0.4754  0.3065
 1342SOL    HW115662   3.317   1.674  13.274  1.0960  0.0618  0.6920
 1342SOL    HW215663   3.414   1.589  13.204  0.1220 -1.8976 -1.8523
 1343SOL     OW15664   0.270   0.483   2.452  0.0316 -1.0062  0.6190
 1343SOL    HW115665   0.182   0.457   2.481 -1.6084  1.7577 -1.9275
 1343SOL    HW215666   0.295   0.558   2.505  1.3107 -0.8148 -0.2610
 1344SOL     OW15667   1.037   2.319   2.042  0.2185 -0.1532  0.0333
 1344SOL    HW115668   1.020   2.271   2.123  1.9868  0.9792  1.0894
 1344SOL    HW215669   1.023   2.408   2.074 -1.1490  0.5563 -2.5244
 1345SOL     OW15670   2.194   3.446   2.022 -0.8027  0.0638  0.1003
 1345SOL    HW115671   2.109   3.410   1.996 -0.3452 -1.8457  1.2068
 1345SOL    HW215672   2.250   3.425   1.947  0.7946  0.9173  1.0738
 1346SOL     OW15673   3.125   2.585   1.095 -0.3238 -0.7019 -0.2119
 1346SOL    HW115674   3.212   2.624   1.090 -1.1085  1.1958  0.8765
 1346SOL    HW215675   3.080   2.638   1.030  0.4213  1.6981  1.2057
 1347SOL     OW15676   4.461   4.076   9.243  0.1320 -0.1669 -0.0016
 1347SOL    HW115677   4.541   4.121   9.214  0.8368 -0.7870  1.0114
 1347SOL    HW215678   4.394   4.132   9.204 -1.1843 -1.1414  0.8845
 1348SOL     OW15679   3.368   3.387   4.408  0.0078  0.7178  0.1634
 1348SOL    HW115680   3.302   3.365   4.474 -2.7270  0.3641 -2.7139
 1348SOL    HW215681   3.399   3.469   4.447 -0.0175  0.6805  0.2624
 1349SOL     OW15682   2.848   3.795   0.971  0.7072 -0.5618 -0.2830
 1349SOL    HW115683   2.791   3.761   1.039  0.3125  1.7763  0.5157
 1349SOL    HW215684   2.935   3.781   1.008  0.4772  2.3469  1.3308
 1350SOL     OW15685   2.357   3.390   2.969 -0.6581  0.0969 -0.3947
 1350SOL    HW115686   2.380   3.374   2.877 -2.7621 -1.9408 -0.5640
 1350SOL    HW215687   2.269   3.353   2.962 -0.6283  0.0818 -0.7126
 1351SOL     OW15688   0.168   4.282   0.241 -0.2362 -0.0072 -0.0179
 1351SOL    HW115689   0.144   4.190   0.249 -1.0650  0.0816 -1.5510
 1351SOL    HW215690   0.141   4.332   0.318 -0.4445  1.1574 -0.8656
 1352SOL     OW15691   3.560   3.515   0.608  0.7255  0.0379 -0.4665
 1352SOL    HW115692   3.527   3.501   0.696 -0.0978  0.1343 -0.7603
 1352SOL    HW215693   3.615   3.437   0.605  0.1464 -0.3579 -0.6458
 1353SOL     OW15694   2.892   3.592   3.680  0.4823  0.5701  0.2045
 1353SOL    HW115695   2.811   3.641   3.692 -1.0922 -2.4635  1.6505
 1353SOL    HW215696   2.915   3.601   3.587  2.2634  3.2642  0.8867
 1354SOL     OW15697   3.322   0.284   3.821  0.2430  0.2255  0.3543
 1354SOL    HW115698   3.389   0.239   3.771  0.5807  2.3095 -1.0503
 1354SOL    HW215699   3.245   0.243   3.782 -0.1725  0.7500  0.6147
 1355SOL     OW15700   1.798   1.513   5.672 -0.4593  0.1239  0.1551
 1355SOL    HW115701   1.722   1.571   5.665  0.0438  0.5328 -2.0621
 1355SOL    HW215702   1.769   1.455   5.742 -0.4105 -1.0504 -0.7962
 1356SOL     OW15703   0.487   4.316   0.734  0.1160 -0.3488 -0.7397
 1356SOL    HW115704   0.413   4.367   0.767 -0.3707 -0.5183 -1.5724
 1356SOL    HW215705   0.559   4.374   0.760  0.0834 -0.4282 -0.4684
 1357SOL     OW15706   1.813   1.461   9.759 -0.2214  0.2732 -0.4590
 1357SOL    HW115707   1.804   1.554   9.777 -0.7756  0.1891 -0.2723
 1357SOL    HW215708   1.778   1.456   9.670 -0.4194 -1.3813 -0.3042
 1358SOL     OW15709   4.247   0.534   2.653  0.1329 -0.1496  0.7345
 1358SOL    HW115710   4.292   0.602   2.603 -1.7878  1.0386  0.6277
 1358SOL    HW215711   4.252   0.579   2.737 -1.9118 -1.0589  1.3639
 1359SOL     OW15712   0.649   2.318   2.975 -0.2857  0.2038  0.4285
 1359SOL    HW115713   0.636   2.333   3.069 -0.5925  0.1918  0.3898
 1359SOL    HW215714   0.670   2.224   2.972  0.3738  0.4152 -1.1158
 1360SOL     OW15715   1.149   0.644   3.829  0.7206  0.0443 -0.8733
 1360SOL    HW115716   1.145   0.647   3.925  0.9601 -0.5965 -0.8442
 1360SOL    HW215717   1.237   0.677   3.812  1.5453  0.1521  3.5597
 1361SOL     OW15718   2.785   4.122  17.572 -0.4487 -0.3255  0.2315
 1361SOL    HW115719   2.841   4.088  17.642  0.0158  2.5768  1.2663
 1361SOL    HW215720   2.727   4.183  17.619 -0.0013  0.8491 -0.7508
 1362SOL     OW15721   0.325   1.883   8.379  0.3956  0.2341  0.1834
 1362SOL    HW115722   0.287   1.818   8.438  1.2035 -0.2728  0.1453
 1362SOL    HW215723   0.361   1.949   8.438  2.3717 -1.1607  0.5137
 1363SOL     OW15724   4.223   2.320  10.620 -0.3871 -0.2605 -0.3949
 1363SOL    HW115725   4.130   2.298  10.627 -0.0573 -1.4783  0.2600
 1363SOL    HW215726   4.223   2.382  10.547  1.8984 -1.2425 -1.2380
 1364SOL     OW15727   2.966   3.337   7.561 -0.4941 -0.1911 -0.8963
 1364SOL    HW115728   3.017   3.344   7.481  2.3744  1.3052  1.0595
 1364SOL    HW215729   2.892   3.293   7.519  0.2485 -2.0078 -0.2963
 1365SOL     OW15730   0.344   2.959  13.338 -0.4652  0.5586 -0.0982
 1365SOL    HW115731   0.335   3.030  13.402 -0.9499 -0.1377  0.5940
 1365SOL    HW215732   0.275   2.978  13.275 -0.6044 -3.8991 -1.2691
 1366SOL     OW15733   4.282   0.741   8.052 -0.0260 -0.5715  0.4097
 1366SOL    HW115734   4.201   0.757   8.101 -0.2060  3.8814 -1.3401
 1366SOL    HW215735   4.339   0.692   8.112  1.1613  0.3132 -0.0129
 1367SOL     OW15736   4.066   3.540   2.003 -0.4155  0.3792  0.1769
 1367SOL    HW115737   4.048   3.633   2.011 -2.1570 -0.0672  1.4934
 1367SOL    HW215738   4.161   3.548   2.004 -0.3229 -0.4602 -0.8066
 1368SOL     OW15739   2.096   1.476   5.964 -0.0560 -0.2807 -0.0663
 1368SOL    HW115740   2.108   1.413   5.893 -0.7130 -0.8958  0.3712
 1368SOL    HW215741   2.088   1.549   5.903  1.4540  0.2007  0.3240
 1369SOL     OW15742   2.235   2.335   0.629 -0.4072  0.1933  0.2286
 1369SOL    HW115743   2.245   2.255   0.577 -2.3404  0.3630 -0.4032
 1369SOL    HW215744   2.320   2.346   0.670  0.5248  1.3894 -2.0592
 1370SOL     OW15745   0.189   3.660  14.313  0.2557 -0.4096  0.1228
 1370SOL    HW115746   0.241   3.597  14.364 -0.2033 -2.0096 -1.3635
 1370SOL    HW215747   0.105   3.644  14.355  0.5372  4.3840  2.5104
 1371SOL     OW15748   3.536   4.502   4.460 -0.5417  0.6370 -0.2330
 1371SOL    HW115749   3.552   4.574   4.398 -1.4130  1.1929  0.1887
 1371SOL    HW215750   3.543   4.419   4.413  1.3077  0.2849  0.6893
 1372SOL     OW15751   3.005   3.880  13.893 -0.0433 -0.3224  0.1698
 1372SOL    HW115752   2.924   3.878  13.944  1.1149 -0.5236  1.9889
 1372SOL    HW215753   3.078   3.877  13.955 -0.3799 -0.0569  0.5733
 1373SOL     OW15754   0.839   2.040   4.936 -0.3043  0.1238 -0.3475
 1373SOL    HW115755   0.835   1.996   5.021  0.4945 -0.5726 -0.6610
 1373SOL    HW215756   0.891   2.118   4.954  0.8582 -0.8486  0.5246
 1374SOL     OW15757   0.248   0.001   8.804 -0.3139  0.5950  0.7856
 1374SOL    HW115758   0.231   4.653   8.836  0.2511  0.5603  0.9783
 1374SOL    HW215759   0.330   0.016   8.851  1.0398 -1.2646 -0.9854
 1375SOL     OW15760   1.083   3.637   6.574  0.3169  0.1065 -0.3970
 1375SOL    HW115761   1.077   3.665   6.483 -0.3622  0.7573 -0.1451
 1375SOL    HW215762   1.152   3.695   6.607  1.0512 -0.6753 -0.5447
 1376SOL     OW15763   3.254   3.836   5.322 -0.0106 -0.1909 -0.0924
 1376SOL    HW115764   3.342   3.811   5.349 -0.8182 -0.7556  2.0357
 1376SOL    HW215765   3.240   3.767   5.257 -0.1736 -0.4400  0.2051
 1377SOL     OW15766   2.715   4.537   3.924 -0.3262  0.1194 -0.4441
 1377SOL    HW115767   2.631   4.545   3.970 -1.2807  1.5976 -2.4606
 1377SOL    HW215768   2.723   4.445   3.898  1.8157  0.1475  0.1108
 1378SOL     OW15769   1.080   1.253  16.287 -0.7283  0.4809 -0.0441
 1378SOL    HW115770   1.113   1.195  16.219 -1.4441  1.0347 -0.8592
 1378SOL    HW215771   1.157   1.305  16.309  0.7320 -0.5215 -2.8525
 1379SOL     OW15772   2.185   3.845   4.668  0.2310 -0.3834  0.5542
 1379SOL    HW115773   2.188   3.868   4.575 -2.6124 -0.0551  0.5401
 1379SOL    HW215774   2.092   3.844   4.688  0.2246 -1.5844  0.4518
 1380SOL     OW15775   4.559   3.604  10.002  0.2387 -0.4077 -0.3918
 1380SOL    HW115776   4.653   3.611  10.019  0.1162  2.3364 -0.7382
 1380SOL    HW215777   4.529   3.627  10.090  0.7914 -1.7601  0.1444
 1381SOL     OW15778   2.988   2.075   9.137  0.0175 -0.2980  0.1811
 1381SOL    HW115779   2.908   2.041   9.176  0.3566 -1.1030  0.1807
 1381SOL    HW215780   3.019   2.122   9.215 -0.7474  0.3157  0.1135
 1382SOL     OW15781   2.425   2.119   6.871  0.9676 -0.3242  0.2459
 1382SOL    HW115782   2.415   2.025   6.858  0.3246 -0.2594  0.2780
 1382SOL    HW215783   2.336   2.152   6.864  0.1058 -2.7294 -0.0044
 1383SOL     OW15784   1.809   1.874   5.099 -0.6587 -0.1602 -0.1537
 1383SOL    HW115785   1.830   1.841   5.186  1.8532 -0.9574 -1.0600
 1383SOL    HW215786   1.902   1.889   5.080 -1.3540  0.4143 -3.0839
 1384SOL     OW15787   3.721   0.037   1.887 -0.6684 -0.2417  0.5367
 1384SOL    HW115788   3.812   0.036   1.915  0.6694 -3.2620 -3.9423
 1384SOL    HW215789   3.732   0.040   1.792 -1.4119  1.6432  0.4996
 1385SOL     OW15790   4.471   0.529   6.715 -0.3138 -0.1103 -0.3213
 1385SOL    HW115791   4.496   0.621   6.718 -0.5339 -0.1193  1.6559
 1385SOL    HW215792   4.551   0.503   6.669  0.0415  1.6406 -0.6785
 1386SOL     OW15793   2.879   0.244   4.832 -0.0042  0.4386 -0.3208
 1386SOL    HW115794   2.868   0.231   4.926 -0.9419  1.5602 -0.2812
 1386SOL    HW215795   2.791   0.225   4.799 -0.2814  3.5300 -1.3658
 1387SOL     OW15796   0.319   1.812  16.151  0.2667 -0.0515 -0.2766
 1387SOL    HW115797   0.252   1.744  16.160 -0.7061  0.8400 -0.9020
 1387SOL    HW215798   0.363   1.811  16.236  0.7938 -0.3532 -0.5528
 1388SOL     OW15799   3.112   3.388   7.295 -0.1557  0.2181  0.0193
 1388SOL    HW115800   3.151   3.301   7.288 -0.4534  0.1038 -0.2359
 1388SOL    HW215801   3.091   3.409   7.204 -0.1510 -0.5083 -0.1523
 1389SOL     OW15802   2.845   2.109   8.803 -0.2013 -0.4245 -0.4053
 1389SOL    HW115803   2.787   2.104   8.878  4.9930  0.6466  3.6475
 1389SOL    HW215804   2.806   2.042   8.746  0.0728 -0.2187 -0.8354
 1390SOL     OW15805   3.716   4.561  16.666  0.7005 -0.2632  0.1090
 1390SOL    HW115806   3.767   4.641  16.673  0.5448 -0.1047 -0.6265
 1390SOL    HW215807   3.783   4.493  16.673 -0.8270 -1.9047 -1.0928
 1391SOL     OW15808   3.338   2.706   1.746  0.2528  0.3354  0.0710
 1391SOL    HW115809   3.390   2.757   1.683 -0.6440  0.4414 -0.5802
 1391SOL    HW215810   3.282   2.646   1.696  2.4694 -0.9137 -0.9526
 1392SOL     OW15811   2.287   2.939   3.030  0.3931 -0.6002 -0.5167
 1392SOL    HW115812   2.219   2.993   3.070  1.0266 -1.5464  1.8321
 1392SOL    HW215813   2.360   3.000   3.034 -0.6297  0.4945  1.6663
 1393SOL     OW15814   0.584   3.877   0.221  0.3981 -0.0974  0.2694
 1393SOL    HW115815   0.646   3.934   0.176  1.0550 -1.8235 -1.0009
 1393SOL    HW215816   0.532   3.835   0.152  0.8675  0.6618 -0.5536
 1394SOL     OW15817   3.827   4.421   9.362  0.1488 -0.2013  0.3073
 1394SOL    HW115818   3.781   4.467   9.432  0.3540  2.2849 -1.1896
 1394SOL    HW215819   3.760   4.354   9.355 -1.1574  0.8441  2.8870
 1395SOL     OW15820   2.225   0.235   6.546  0.1024  0.1919  0.1569
 1395SOL    HW115821   2.237   0.197   6.459  0.6413  0.4881  0.1068
 1395SOL    HW215822   2.317   0.237   6.572 -0.1513 -1.8572  1.2431
 1396SOL     OW15823   0.083   0.370  10.551  0.9671 -0.2285 -0.0621
 1396SOL    HW115824   0.105   0.439  10.490 -0.7503  1.1054  0.8163
 1396SOL    HW215825   0.164   0.321  10.542  1.5273  0.3435  1.9380
 1397SOL     OW15826   3.176   1.476   2.262 -0.3089  0.5254 -0.7712
 1397SOL    HW115827   3.108   1.465   2.196 -1.8801  0.1575  0.9080
 1397SOL    HW215828   3.145   1.418   2.332  0.2081  1.0153 -0.1271
 1398SOL     OW15829   4.642   0.285   0.716  0.3766 -0.2031 -0.2059
 1398SOL    HW115830   4.619   0.193   0.702  1.4062 -0.7523  1.7556
 1398SOL    HW215831   4.639   0.299   0.810 -1.8126 -2.5915  0.0665
 1399SOL     OW15832   2.403   0.941   2.089 -0.1237 -0.2270 -0.0560
 1399SOL    HW115833   2.307   0.937   2.088 -0.2217  1.7794  1.1199
 1399SOL    HW215834   2.425   0.848   2.095  1.4887  0.2616  1.6560
 1400SOL     OW15835   1.897   3.702  16.605 -0.1217  0.3001 -0.3397
 1400SOL    HW115836   1.834   3.763  16.567 -1.6015  0.3977  2.2331
 1400SOL    HW215837   1.960   3.691  16.534  1.2968  2.1982  0.6272
 1401SOL     OW15838   3.934   2.340  17.511  0.0751  0.2185  0.2225
 1401SOL    HW115839   3.906   2.406  17.574 -1.9727 -0.1212 -0.3434
 1401SOL    HW215840   3.856   2.284  17.511  0.7114 -0.6711  0.4546
 1402SOL     OW15841   1.414   3.032   2.888 -0.4640  0.0221 -0.2518
 1402SOL    HW115842   1.430   3.011   2.980 -2.1487  0.1308  0.0638
 1402SOL    HW215843   1.420   2.943   2.854  3.4644  1.1380 -2.4053
 1403SOL     OW15844   1.606   1.652   4.070 -0.5673 -0.5499 -0.0176
 1403SOL    HW115845   1.664   1.698   4.130  0.8767 -3.0011  0.4580
 1403SOL    HW215846   1.647   1.566   4.069  2.7875  1.0260 -1.0391
 1404SOL     OW15847   3.232   0.573   1.858 -0.4943 -0.3062  0.0320
 1404SOL    HW115848   3.262   0.518   1.786 -0.0038 -0.1410  0.1134
 1404SOL    HW215849   3.171   0.517   1.905 -0.7158 -1.6427 -1.8468
 1405SOL     OW15850   1.455   1.602   5.102  0.4715  0.1013 -0.1905
 1405SOL    HW115851   1.535   1.614   5.154  1.2807  0.6911 -1.5688
 1405SOL    HW215852   1.474   1.518   5.059  2.1695 -0.1305  1.0231
 1406SOL     OW15853   0.755   0.844   9.627 -0.0264  0.4044  0.2997
 1406SOL    HW115854   0.735   0.936   9.614  2.9926  1.3577  2.5741
 1406SOL    HW215855   0.832   0.865   9.680 -0.8842  0.4147  1.5465
 1407SOL     OW15856   4.011   1.446   5.971  0.4695 -0.2359 -0.1677
 1407SOL    HW115857   4.005   1.365   6.022  2.1083 -0.5877 -0.5182
 1407SOL    HW215858   4.041   1.423   5.883  2.6970  1.8194  0.0483
 1408SOL     OW15859   0.110   1.380   1.535  0.0468 -0.0416 -0.5534
 1408SOL    HW115860   0.018   1.405   1.537  0.3542  1.0492  0.3524
 1408SOL    HW215861   0.157   1.463   1.530  0.7497 -0.3836  0.2232
 1409SOL     OW15862   4.298   1.198   1.933  0.1394  0.1387 -0.0396
 1409SOL    HW115863   4.326   1.275   1.982 -0.3911  0.4389 -0.2083
 1409SOL    HW215864   4.277   1.236   1.848  0.1182  1.1576  0.4174
 1410SOL     OW15865   1.229   0.918   3.393 -0.4893  0.0370 -0.0828
 1410SOL    HW115866   1.289   0.865   3.445  0.4732  0.5395 -0.6887
 1410SOL    HW215867   1.292   0.967   3.339 -0.4125  0.8967  0.7822
 1411SOL     OW15868   4.621   4.530   6.402 -0.0960  0.0908 -0.1977
 1411SOL    HW115869   4.527   4.511   6.402  0.0992 -0.8609  0.5899
 1411SOL    HW215870   4.628   4.598   6.335 -2.4256  0.0272 -0.5353
 1412SOL     OW15871   2.124   0.157  12.032  0.1671 -0.1146  0.4014
 1412SOL    HW115872   2.073   0.237  12.035  0.5111  0.0801  1.1975
 1412SOL    HW215873   2.213   0.191  12.042  0.0052  0.6175 -0.7323
 1413SOL     OW15874   4.304   0.448   2.358  0.2952  0.6849 -0.8449
 1413SOL    HW115875   4.385   0.438   2.408 -2.4656 -1.5841  3.1763
 1413SOL    HW215876   4.251   0.511   2.407 -0.4955 -1.6360  1.3021
 1414SOL     OW15877   1.154   0.405  17.740 -0.5015  0.3771 -0.2915
 1414SOL    HW115878   1.101   0.327  17.759  2.0258 -1.0299  0.9495
 1414SOL    HW215879   1.183   0.429   0.068 -3.1992 -0.8836  0.9391
 1415SOL     OW15880   2.977   3.822   9.033 -0.1060 -0.1056  0.1898
 1415SOL    HW115881   3.066   3.792   9.015  0.2229  0.6580  0.5711
 1415SOL    HW215882   2.974   3.837   9.127  2.1817  0.3231  0.1953
 1416SOL     OW15883   3.122   0.767   1.629 -0.5505  0.3182  0.6487
 1416SOL    HW115884   3.050   0.741   1.685 -0.3571 -2.7645 -0.5714
 1416SOL    HW215885   3.189   0.723   1.681 -1.5731 -0.6277  1.1616
 1417SOL     OW15886   3.601   0.229   2.299 -0.0799  0.8661 -0.2976
 1417SOL    HW115887   3.573   0.209   2.388  2.9299 -1.7632  0.0499
 1417SOL    HW215888   3.549   0.158   2.261 -0.2673  1.7728 -1.7678
 1418SOL     OW15889   0.837   1.689  17.455 -0.0655 -0.9001 -0.1220
 1418SOL    HW115890   0.779   1.752  17.499  2.7443  1.4940  0.1830
 1418SOL    HW215891   0.908   1.753  17.445  0.5979 -1.3740  1.6087
 1419SOL     OW15892   0.925   2.843   4.085  0.3823 -0.0705  0.0724
 1419SOL    HW115893   1.013   2.879   4.076 -0.0775  0.3389 -2.6844
 1419SOL    HW215894   0.880   2.896   4.020 -1.5705 -0.1075  1.4062
 1420SOL     OW15895   0.873   4.286   6.700  0.2319  0.1439 -0.1378
 1420SOL    HW115896   0.842   4.202   6.666  1.8092 -1.1305  1.5808
 1420SOL    HW215897   0.961   4.294   6.661 -0.9315 -0.2103 -2.8661
 1421SOL     OW15898   0.089   4.643   5.907  0.3457 -0.1515  0.3870
 1421SOL    HW115899   0.097   4.732   5.942 -0.7513 -0.2444  0.8935
 1421SOL    HW215900   0.179   4.614   5.917  0.2812 -0.3357  0.4383
 1422SOL     OW15901   0.069   0.693   6.997  0.6803 -0.4346  0.3407
 1422SOL    HW115902   0.131   0.757   7.031  0.5291  0.6869 -1.4853
 1422SOL    HW215903   0.042   0.736   6.916 -0.9728 -1.7468  0.1803
 1423SOL     OW15904   1.122   3.143   8.954  0.5319 -0.3273  0.0202
 1423SOL    HW115905   1.208   3.109   8.925  0.7646  1.3622 -1.2453
 1423SOL    HW215906   1.146   3.235   8.945  1.3287 -0.3544  1.8682
 1424SOL     OW15907   0.407   0.718   7.037  0.2200  0.3439  0.5146
 1424SOL    HW115908   0.344   0.766   7.091  0.1172  0.6106  0.1581
 1424SOL    HW215909   0.435   0.644   7.090 -0.8859 -0.1040  0.4785
 1425SOL     OW15910   3.446   3.222   1.955  0.3329 -0.6949  0.4140
 1425SOL    HW115911   3.426   3.148   2.013 -2.3582  0.5058  1.0191
 1425SOL    HW215912   3.452   3.297   2.014 -2.0862 -0.6439  0.5966
 1426SOL     OW15913   4.080   4.053  11.225 -0.5487  0.4341 -0.6902
 1426SOL    HW115914   4.091   4.133  11.277 -0.5525 -0.6877  1.0301
 1426SOL    HW215915   3.986   4.039  11.236 -0.7628  2.6743  0.2862
 1427SOL     OW15916   0.350   0.854   8.277 -0.4793  0.4846 -0.3476
 1427SOL    HW115917   0.415   0.822   8.341 -1.1074  0.0165  0.0501
 1427SOL    HW215918   0.358   0.949   8.289  2.4503  0.2799 -0.6241
 1428SOL     OW15919   2.815   0.598   9.934 -0.7382  0.5667 -0.1149
 1428SOL    HW115920   2.882   0.530   9.940 -2.3054 -1.1417 -2.1854
 1428SOL    HW215921   2.855   0.672   9.888  1.0736 -0.4152 -0.1009
 1429SOL     OW15922   3.348   2.463  10.448  0.4466  0.2538  0.2162
 1429SOL    HW115923   3.324   2.371  10.455 -1.7196  0.9463  1.8495
 1429SOL    HW215924   3.361   2.483  10.541  0.1594 -1.4491  0.6201
 1430SOL     OW15925   1.938   2.725   8.010  1.0858 -0.3701 -0.4155
 1430SOL    HW115926   1.894   2.659   7.956 -0.5796  0.4601 -0.0871
 1430SOL    HW215927   1.870   2.772   8.059  1.4460 -0.9934  0.6863
 1431SOL     OW15928   4.098   1.091   4.211 -0.2701  0.1305 -0.3875
 1431SOL    HW115929   4.067   1.132   4.131 -2.0332  0.6244  0.5404
 1431SOL    HW215930   4.020   1.073   4.265  0.6218 -0.4651  0.7016
 1432SOL     OW15931   3.861   2.341   8.494  0.0672 -0.0607  0.3199
 1432SOL    HW115932   3.954   2.325   8.510  0.2344  0.1298 -0.4744
 1432SOL    HW215933   3.817   2.266   8.533  1.1612 -0.1665  1.3749
 1433SOL     OW15934   2.911   4.586   2.622 -0.0769  0.7601  0.4803
 1433SOL    HW115935   2.883   4.494   2.624 -0.1294  0.7568 -0.1589
 1433SOL    HW215936   2.868   4.628   2.696 -1.4932  0.0418  0.0667
 1434SOL     OW15937   2.692   4.205   6.135 -0.1943 -0.4097 -0.6791
 1434SOL    HW115938   2.771   4.169   6.095 -0.2279  0.7695 -1.8025
 1434SOL    HW215939   2.630   4.233   6.068  1.6880  2.4392 -1.2622
 1435SOL     OW15940   2.937   4.223  16.321  0.0203 -0.0486 -0.3137
 1435SOL    HW115941   2.906   4.311  16.296  0.0042  0.2566  0.8142
 1435SOL    HW215942   2.856   4.178  16.298 -1.6641  2.4673  0.6524
 1436SOL     OW15943   2.722   3.181  11.241 -0.3988 -0.2686 -0.3972
 1436SOL    HW115944   2.815   3.188  11.262 -0.3282 -0.8491 -0.5355
 1436SOL    HW215945   2.680   3.237  11.306  3.0962  1.3952  0.4388
 1437SOL     OW15946   2.030   2.034  16.002 -0.1471  0.4897  0.0897
 1437SOL    HW115947   2.052   1.967  15.937  2.6445  0.9599  0.5465
 1437SOL    HW215948   1.961   1.989  16.050 -1.0026  1.1439 -0.5092
 1438SOL     OW15949   2.554   0.932   7.757 -0.2804 -1.2020  0.5100
 1438SOL    HW115950   2.463   0.946   7.731  0.4813 -0.8075 -1.8737
 1438SOL    HW215951   2.577   1.019   7.790 -2.2884 -0.9689  1.3454
 1439SOL     OW15952   0.760   2.447  16.133  0.2830 -0.6488 -0.3768
 1439SOL    HW115953   0.742   2.405  16.217 -0.0793 -1.1357 -0.7036
 1439SOL    HW215954   0.855   2.431  16.129  0.3094 -0.5656 -0.1324
 1440SOL     OW15955   4.334   1.718   2.666  0.1016 -0.8425 -0.2467
 1440SOL    HW115956   4.357   1.745   2.755  1.0716 -0.2136 -0.6989
 1440SOL    HW215957   4.411   1.746   2.617 -0.3461 -0.5247 -0.7763
 1441SOL     OW15958   4.064   1.264   8.160 -0.3471 -0.0199  0.1881
 1441SOL    HW115959   3.978   1.305   8.160 -1.0050 -1.4352 -0.8365
 1441SOL    HW215960   4.119   1.334   8.196  0.5879  0.5740 -2.3787
 1442SOL     OW15961   1.696   1.994   0.795 -0.4532  0.0682 -0.1491
 1442SOL    HW115962   1.708   1.922   0.732  1.6535 -0.5188  0.9499
 1442SOL    HW215963   1.603   2.009   0.777 -0.1778  0.4088 -1.2996
 1443SOL     OW15964   0.400   2.752   3.510 -0.0182  0.6536  0.1825
 1443SOL    HW115965   0.373   2.844   3.503  1.7402  1.1406 -0.3500
 1443SOL    HW215966   0.463   2.757   3.582  0.8243  0.6621 -0.5560
 1444SOL     OW15967   2.053   2.939   7.376 -0.3639  0.1302 -0.3845
 1444SOL    HW115968   1.961   2.954   7.396 -1.0964 -3.1289 -1.3528
 1444SOL    HW215969   2.087   3.023   7.406 -0.1815 -0.3439  0.7331
 1445SOL     OW15970   1.723   1.061   4.239 -0.0866 -0.6697 -0.2824
 1445SOL    HW115971   1.634   1.056   4.274 -0.0655 -0.0779 -0.1530
 1445SOL    HW215972   1.707   1.011   4.160 -1.3744 -1.7771  0.6718
 1446SOL     OW15973   3.469   3.559  13.277 -0.4450  0.3589  0.0642
 1446SOL    HW115974   3.501   3.564  13.187 -0.9703 -0.0065 -0.1396
 1446SOL    HW215975   3.538   3.604  13.326  0.0465 -0.6263  0.2762
 1447SOL     OW15976   3.039   1.808  13.222  0.3086 -0.7540 -0.2777
 1447SOL    HW115977   3.116   1.857  13.252 -1.4880  1.3261  0.9699
 1447SOL    HW215978   3.000   1.880  13.172 -1.5694 -0.7436  1.1954
 1448SOL     OW15979   3.153   0.803   5.826 -0.1241 -0.1880 -0.2658
 1448SOL    HW115980   3.110   0.811   5.911  1.7086  0.0058  0.6332
 1448SOL    HW215981   3.095   0.742   5.780 -3.2833  2.7358 -0.1643
 1449SOL     OW15982   3.488   1.195   0.914  0.5801 -0.2540  0.8083
 1449SOL    HW115983   3.503   1.187   0.820  0.9481  2.8503  0.5914
 1449SOL    HW215984   3.437   1.276   0.912 -0.0808 -0.7345 -1.1287
 1450SOL     OW15985   4.482   0.609   5.820  0.1593 -0.7440  0.4497
 1450SOL    HW115986   4.436   0.531   5.791  1.8074 -1.0087 -1.4654
 1450SOL    HW215987   4.569   0.570   5.811 -0.0755 -1.0019 -0.7186
 1451SOL     OW15988   1.424   0.445   7.517  0.8762  0.3461  0.0438
 1451SOL    HW115989   1.391   0.457   7.428 -0.5654  0.8295  0.6548
 1451SOL    HW215990   1.454   0.354   7.510  0.0075  0.1213 -0.8879
 1452SOL     OW15991   3.114   4.192   9.011  0.0111 -0.3706 -1.0464
 1452SOL    HW115992   3.042   4.162   9.066  1.0552 -0.4040  0.3069
 1452SOL    HW215993   3.078   4.249   8.943  0.2382  0.1296 -0.7555
 1453SOL     OW15994   1.573   0.807  10.817 -0.1460  0.8803 -0.1621
 1453SOL    HW115995   1.644   0.757  10.857 -0.8123  0.0357 -0.0364
 1453SOL    HW215996   1.604   0.803  10.727  0.2181 -1.3456  0.0733
 1454SOL     OW15997   1.570   1.516   8.064  0.1113 -0.6898  0.5224
 1454SOL    HW115998   1.517   1.516   8.144 -0.0912 -1.0128  0.3862
 1454SOL    HW215999   1.516   1.582   8.019  0.9414  0.5097  1.2712
 1455SOL     OW16000   0.891   2.764  11.428 -0.0771  0.3104  0.7337
 1455SOL    HW116001   0.910   2.847  11.385 -2.7914  0.1289 -0.8714
 1455SOL    HW216002   0.949   2.777  11.503  1.8874  1.0967 -0.9319
 1456SOL     OW16003   2.295   0.347  10.029  0.5971 -0.7779  0.1277
 1456SOL    HW116004   2.310   0.306  10.114  0.6502  2.5727  1.7477
 1456SOL    HW216005   2.279   0.438  10.055  0.9581 -1.2729  2.1031
 1457SOL     OW16006   4.375   3.124   9.475 -0.1501 -0.4543  0.2881
 1457SOL    HW116007   4.319   3.169   9.537 -3.0010 -1.4524 -1.5418
 1457SOL    HW216008   4.401   3.197   9.418  1.3729 -0.6431  0.7363
 1458SOL     OW16009   2.116   0.319   4.273 -0.3874 -0.1199 -0.3471
 1458SOL    HW116010   2.161   0.234   4.277  0.3033  0.3418  2.0079
 1458SOL    HW216011   2.113   0.336   4.367 -1.3353 -0.5859 -0.2894
 1459SOL     OW16012   4.527   2.468   0.390  0.0232 -0.0263  0.4552
 1459SOL    HW116013   4.619   2.493   0.382  0.1309  0.0219  1.8693
 1459SOL    HW216014   4.523   2.384   0.343  1.6424  0.2319 -0.1223
 1460SOL     OW16015   2.722   0.359   5.399 -0.1443 -0.0495  0.2122
 1460SOL    HW116016   2.655   0.339   5.333  0.4482  0.0941 -0.4404
 1460SOL    HW216017   2.781   0.416   5.349 -0.7330 -0.1627 -0.6242
 1461SOL     OW16018   2.509   1.068   5.961  0.1447 -0.5959 -0.2224
 1461SOL    HW116019   2.505   0.973   5.951  1.1604 -0.7706  1.0107
 1461SOL    HW216020   2.553   1.080   6.046 -1.8273 -1.0093  0.8515
 1462SOL     OW16021   1.187   3.888   9.831  0.3145 -0.6639 -0.1970
 1462SOL    HW116022   1.271   3.849   9.805  0.8548  0.2922  0.1260
 1462SOL    HW216023   1.173   3.843   9.914  0.1982  0.5505  0.4322
 1463SOL     OW16024   2.331   3.600   3.981  0.2086 -0.2940  0.2975
 1463SOL    HW116025   2.412   3.602   4.033 -0.2976 -0.0098  1.0827
 1463SOL    HW216026   2.264   3.577   4.046 -0.4067 -1.2160 -0.6768
 1464SOL     OW16027   3.941   3.581   4.752 -0.1217 -0.0464 -0.2763
 1464SOL    HW116028   3.870   3.530   4.791 -1.4146  1.6253 -0.4644
 1464SOL    HW216029   3.881   3.644   4.714  0.6219  0.5592 -0.4562
 1465SOL     OW16030   0.446   1.457  16.207  0.4505 -0.2295  0.9073
 1465SOL    HW116031   0.531   1.435  16.168  1.2717  0.8763  2.1107
 1465SOL    HW216032   0.404   1.373  16.188  0.9708 -0.1380 -0.6450
 1466SOL     OW16033   1.156   0.682   0.953 -0.2974 -0.0987 -0.0589
 1466SOL    HW116034   1.216   0.626   0.903  0.4854  0.6052  0.0976
 1466SOL    HW216035   1.067   0.656   0.930 -1.0397 -0.5178  3.3730
 1467SOL     OW16036   0.042   3.020   1.466 -0.2547  0.6711 -0.1756
 1467SOL    HW116037   0.060   3.103   1.511  1.5570 -0.3948  1.0717
 1467SOL    HW216038   4.708   3.038   1.409 -0.2881  0.8208 -0.0864
 1468SOL     OW16039   0.217   4.737  12.628 -0.2647 -0.6292  0.1151
 1468SOL    HW116040   0.181   0.069  12.578 -0.2610 -0.7369 -0.0429
 1468SOL    HW216041   0.298   4.709  12.585  0.4033 -0.5271  1.2901
 1469SOL     OW16042   2.846   2.333   4.055 -0.6855 -0.3292  0.2453
 1469SOL    HW116043   2.908   2.342   3.983 -2.1456 -0.5134 -1.0131
 1469SOL    HW216044   2.766   2.371   4.019 -0.4728  0.2135  0.3372
 1470SOL     OW16045   4.190   3.920   7.599 -0.2912  0.1982  0.0012
 1470SOL    HW116046   4.099   3.893   7.591  0.0987 -0.2143 -3.1847
 1470SOL    HW216047   4.223   3.914   7.509 -1.9218 -0.9594 -0.5087
 1471SOL     OW16048   2.562   0.894   2.726 -0.0135  0.1064 -0.3707
 1471SOL    HW116049   2.475   0.858   2.711  0.4159 -1.1446  0.1274
 1471SOL    HW216050   2.546   0.969   2.783 -4.7357 -0.1409 -1.3900
 1472SOL     OW16051   3.383   2.328  11.159 -0.6444 -0.0871 -0.6312
 1472SOL    HW116052   3.440   2.252  11.160  1.4735  1.4975 -0.5941
 1472SOL    HW216053   3.306   2.308  11.105 -0.2155  2.9517 -2.3706
 1473SOL     OW16054   4.514   2.741   7.879  0.2453  0.1229 -0.9316
 1473SOL    HW116055   4.606   2.765   7.885  0.4676 -0.5260 -1.7918
 1473SOL    HW216056   4.483   2.771   7.965 -2.3858 -2.7796 -0.8615
 1474SOL     OW16057   0.961   0.715   5.640  0.9646  0.3632  0.7112
 1474SOL    HW116058   0.900   0.657   5.684  0.2069  0.9339  0.4103
 1474SOL    HW216059   0.923   0.802   5.651 -1.1305 -0.7848  2.4337
 1475SOL     OW16060   3.227   2.242   4.816 -0.0611  0.2351  0.1574
 1475SOL    HW116061   3.143   2.283   4.796 -1.0273 -2.0838 -0.6758
 1475SOL    HW216062   3.272   2.308   4.867  0.0296 -0.0199  0.4090
 1476SOL     OW16063   1.748   3.110  10.596  0.4449  0.0835  0.3870
 1476SOL    HW116064   1.762   3.144  10.685  1.3803  0.6009  0.0456
 1476SOL    HW216065   1.806   3.034  10.600  0.1127 -0.1491  0.8738
 1477SOL     OW16066   1.437   3.054   1.794  0.2769 -0.0565  0.1743
 1477SOL    HW116067   1.472   2.969   1.819  1.3117  0.1480 -0.5779
 1477SOL    HW216068   1.508   3.113   1.820  0.3484  0.0796 -0.3276
 1478SOL     OW16069   0.435   2.484   3.434  0.2633  0.2588 -0.4960
 1478SOL    HW116070   0.405   2.456   3.520 -1.3839  3.7693  0.0719
 1478SOL    HW216071   0.422   2.579   3.440  1.1666  0.5195 -2.4796
 1479SOL     OW16072   1.578   1.699   8.921 -0.8252 -0.0766 -0.5674
 1479SOL    HW116073   1.556   1.785   8.885 -1.1394  0.3210  0.5606
 1479SOL    HW216074   1.665   1.685   8.882 -1.0932  0.8840 -1.5239
 1480SOL     OW16075   1.847   3.186   8.120  0.5642 -0.3697  0.0030
 1480SOL    HW116076   1.832   3.170   8.214 -2.1285 -1.7454 -0.6403
 1480SOL    HW216077   1.761   3.158   8.088  0.1764 -1.7490  2.2214
 1481SOL     OW16078   2.723   1.826  11.619  0.4224  0.2374  0.0201
 1481SOL    HW116079   2.718   1.744  11.570 -1.0900 -0.5860  1.5973
 1481SOL    HW216080   2.646   1.822  11.676  1.8410  0.4517  1.9488
 1482SOL     OW16081   1.168   2.385  16.459  0.6799  0.1187  0.4189
 1482SOL    HW116082   1.089   2.411  16.507  0.6480  1.3739 -0.3119
 1482SOL    HW216083   1.188   2.464  16.409  0.1777 -0.9335 -1.4329
 1483SOL     OW16084   2.014   3.145   0.480 -0.2582 -0.3845 -0.3194
 1483SOL    HW116085   1.946   3.188   0.532 -0.2448 -1.9150  0.9281
 1483SOL    HW216086   2.093   3.192   0.505  0.0619 -0.8064 -0.5460
 1484SOL     OW16087   0.178   3.152   2.105  0.3024  1.0113  0.3248
 1484SOL    HW116088   0.195   3.061   2.129 -1.3659 -0.0380 -2.4709
 1484SOL    HW216089   0.265   3.190   2.120 -1.7859  4.9143  2.2448
 1485SOL     OW16090   0.653   2.659   4.315 -0.3274 -0.9752  0.1207
 1485SOL    HW116091   0.748   2.672   4.326 -0.5102 -0.6366  1.2378
 1485SOL    HW216092   0.640   2.705   4.232 -2.2906 -1.5949  0.1032
 1486SOL     OW16093   0.213   4.609   8.145 -0.2048 -0.1796 -0.0122
 1486SOL    HW116094   0.180   4.591   8.057 -0.3474 -0.4571  0.0972
 1486SOL    HW216095   0.127   4.626   8.184 -0.3059  1.9969 -1.1849
 1487SOL     OW16096   1.071   3.679   4.256 -0.0890  0.4093  0.3584
 1487SOL    HW116097   1.156   3.661   4.296 -0.2183  0.3503  0.6026
 1487SOL    HW216098   1.099   3.736   4.184  1.5016  0.1790  0.7938
 1488SOL     OW16099   3.266   2.841   3.347 -0.2836  0.3379  0.2163
 1488SOL    HW116100   3.217   2.761   3.329 -1.4697  1.0698  0.1447
 1488SOL    HW216101   3.201   2.907   3.323 -2.0868 -1.2003  0.8720
 1489SOL     OW16102   1.123   2.188  14.124  0.2247 -0.4903 -0.6778
 1489SOL    HW116103   1.089   2.241  14.052  0.7328  0.4266 -0.2436
 1489SOL    HW216104   1.085   2.244  14.192  1.3804 -1.0727  0.4496
 1490SOL     OW16105   3.583   2.727   2.064 -0.3159 -0.2964  0.0546
 1490SOL    HW116106   3.542   2.645   2.091 -1.8152 -0.0728 -1.4963
 1490SOL    HW216107   3.645   2.693   1.999  0.9874  2.9123 -0.3719
 1491SOL     OW16108   1.836   4.376   8.525 -0.2460 -0.5347 -0.0245
 1491SOL    HW116109   1.757   4.371   8.579 -0.1403  0.7225  0.2500
 1491SOL    HW216110   1.790   4.387   8.442 -1.1091 -0.8972  0.4071
 1492SOL     OW16111   0.919   3.823   8.822 -0.3443 -0.5696 -0.0076
 1492SOL    HW116112   0.864   3.867   8.886  0.6617 -1.0537  1.1844
 1492SOL    HW216113   0.893   3.878   8.747 -0.0146 -0.7489 -0.2530
 1493SOL     OW16114   0.965   2.932   6.358 -0.6640  0.4276  0.0520
 1493SOL    HW116115   1.030   2.919   6.289  0.6481 -0.9138  1.5452
 1493SOL    HW216116   0.941   3.022   6.339 -2.5954 -0.1849 -0.3757
 1494SOL     OW16117   4.704   4.702   1.077  0.0837  0.1465 -0.3009
 1494SOL    HW116118   4.727   0.054   1.091  1.2042 -0.3657  1.2997
 1494SOL    HW216119   4.695   4.667   1.166  3.8062 -0.3927 -0.1334
 1495SOL     OW16120   0.364   4.090   3.932 -0.2640  0.3663 -0.5194
 1495SOL    HW116121   0.361   4.184   3.913 -0.6008  0.9869  2.5885
 1495SOL    HW216122   0.458   4.075   3.937 -0.1009  0.9422 -2.0311
 1496SOL     OW16123   2.113   4.636   5.067 -0.1974  0.0398  0.4419
 1496SOL    HW116124   2.105   4.706   5.002  1.3650 -1.7041 -1.6382
 1496SOL    HW216125   2.206   4.619   5.052 -0.3325 -1.4512  1.2579
 1497SOL     OW16126   3.793   0.632  11.509  0.0182  0.0282 -0.1488
 1497SOL    HW116127   3.747   0.570  11.565  1.4649 -1.0530 -0.1228
 1497SOL    HW216128   3.761   0.712  11.550 -2.5544 -0.8596 -0.4321
 1498SOL     OW16129   2.968   3.121   9.451  0.0383 -0.0197  0.2635
 1498SOL    HW116130   2.976   3.188   9.384  1.2767  1.5533  1.9756
 1498SOL    HW216131   2.975   3.041   9.399  0.0175 -0.0476  0.3032
 1499SOL     OW16132   4.682   2.755   6.830 -0.5933 -0.1641 -0.1803
 1499SOL    HW116133   4.675   2.819   6.760 -0.3255 -0.1478 -0.1926
 1499SOL    HW216134   4.620   2.774   6.900 -1.5213  3.1565 -1.9448
 1500SOL     OW16135   2.631   0.316   1.985  0.4130 -0.2788  0.6581
 1500SOL    HW116136   2.620   0.409   1.963  1.6368 -0.6430 -1.4934
 1500SOL    HW216137   2.604   0.311   2.077  0.8691  0.3890  0.8325
 1501SOL     OW16138   0.458   2.784   3.182  0.1551  0.3983  0.1919
 1501SOL    HW116139   0.547   2.773   3.148 -0.2831  1.7696 -1.4173
 1501SOL    HW216140   0.416   2.739   3.108  0.8381 -1.3683  0.8678
 1502SOL     OW16141   0.902   1.889  13.864  0.3090  0.2655  0.0365
 1502SOL    HW116142   0.883   1.978  13.834 -2.3690  0.1868  1.4514
 1502SOL    HW216143   0.853   1.904  13.945 -0.1872 -1.2209  0.0144
 1503SOL     OW16144   1.010   0.431   3.431  0.2032 -0.4974  0.3053
 1503SOL    HW116145   0.976   0.453   3.518 -0.0013 -1.6738  0.5255
 1503SOL    HW216146   1.005   0.515   3.387  0.7232  0.6217  2.3627
 1504SOL     OW16147   0.518   3.235  11.832  0.2083  0.4964  0.3119
 1504SOL    HW116148   0.512   3.146  11.796 -0.1347  0.3416  0.7487
 1504SOL    HW216149   0.572   3.278  11.766  0.3187 -0.6990 -0.3774
 1505SOL     OW16150   1.771   2.560   4.946  0.3629  0.1639 -0.0659
 1505SOL    HW116151   1.842   2.553   4.882  0.4847  0.6321  0.0202
 1505SOL    HW216152   1.719   2.632   4.910 -0.1054 -0.5107 -0.7492
 1506SOL     OW16153   2.950   4.044   5.993  0.1716 -0.2568  0.4253
 1506SOL    HW116154   3.034   4.003   5.972  1.7960  2.2191  2.1186
 1506SOL    HW216155   2.981   4.132   6.014  0.2806  0.3078 -2.0073
 1507SOL     OW16156   1.792   1.459   4.064 -0.2917 -0.4751 -0.1751
 1507SOL    HW116157   1.852   1.502   4.125 -0.4777 -1.2183  0.5225
 1507SOL    HW216158   1.858   1.450   3.995  0.3727 -0.3472  0.4496
 1508SOL     OW16159   0.313   4.731   9.178  0.5129  0.4042  0.2580
 1508SOL    HW116160   0.229   4.727   9.223 -0.0250  1.3120 -0.6558
 1508SOL    HW216161   0.294   4.670   9.106  1.2286  1.4859 -0.8648
 1509SOL     OW16162   0.341   4.718   7.514  0.5020  0.6101 -0.0832
 1509SOL    HW116163   0.379   4.649   7.569 -1.6157 -2.9949 -3.1635
 1509SOL    HW216164   0.347   4.676   7.429  1.2829  0.4875  0.0292
 1510SOL     OW16165   1.315   3.858  17.644  0.3643 -0.0813 -0.1662
 1510SOL    HW116166   1.400   3.827  17.613  0.8916  1.3794 -0.1413
 1510SOL    HW216167   1.266   3.779  17.621  1.1014 -0.9509  1.2411
 1511SOL     OW16168   3.092   3.436   2.263 -0.1403 -0.0532 -0.4250
 1511SOL    HW116169   3.181   3.437   2.299  0.0445  0.8816 -0.9257
 1511SOL    HW216170   3.119   3.413   2.174 -0.8230  0.4119 -0.7441
 1512SOL     OW16171   0.865   1.425  17.526  0.6096 -0.2906  0.6309
 1512SOL    HW116172   0.864   1.513  17.489 -0.2489  0.3922  2.2648
 1512SOL    HW216173   0.794   1.384  17.477  1.6853  1.3299 -2.2562
 1513SOL     OW16174   3.059   1.132  11.032 -0.3563 -0.2808  0.4296
 1513SOL    HW116175   2.998   1.129  11.105 -0.3271 -1.6029  0.4001
 1513SOL    HW216176   3.047   1.052  10.982  1.6604  1.1113 -2.2790
 1514SOL     OW16177   1.076   4.211   7.882 -0.2413 -0.2315  0.6556
 1514SOL    HW116178   1.092   4.244   7.970  0.0163  0.5536  0.3089
 1514SOL    HW216179   1.115   4.123   7.877  0.4497  0.2182 -1.7527
 1515SOL     OW16180   3.757   4.231  11.110  0.4997 -0.4163  0.5721
 1515SOL    HW116181   3.720   4.214  11.196  2.2484  0.6544  1.5360
 1515SOL    HW216182   3.823   4.300  11.119  0.9007 -0.5159 -1.4664
 1516SOL     OW16183   0.236   3.838   2.765 -0.0565  0.5831 -0.3609
 1516SOL    HW116184   0.171   3.907   2.783 -0.0300  0.3931  0.4564
 1516SOL    HW216185   0.291   3.849   2.842 -1.0460 -2.4465  0.7607
 1517SOL     OW16186   2.463   3.230  13.476  0.4015 -0.3715 -0.2099
 1517SOL    HW116187   2.486   3.137  13.473  1.0089 -0.2692  1.0999
 1517SOL    HW216188   2.526   3.264  13.539 -0.1562  1.0993 -0.4467
 1518SOL     OW16189   3.599   4.484   2.706 -0.2105  0.2166 -0.2583
 1518SOL    HW116190   3.615   4.391   2.694 -0.7933 -0.0400  0.9974
 1518SOL    HW216191   3.515   4.491   2.660  0.2108 -1.1258 -1.2241
 1519SOL     OW16192   3.535   2.190   5.621 -0.5637 -0.2906 -0.2376
 1519SOL    HW116193   3.476   2.161   5.551 -1.4365  0.4518  0.1899
 1519SOL    HW216194   3.541   2.285   5.612  0.5928 -0.2879  0.6090
 1520SOL     OW16195   1.008   3.033   9.286 -0.4651 -0.0123  0.0448
 1520SOL    HW116196   0.954   3.009   9.210  0.3747  0.4775 -0.7132
 1520SOL    HW216197   0.999   3.128   9.296 -1.9017 -0.0795 -0.4966
 1521SOL     OW16198   0.170   0.751   6.531 -0.1550  0.3673 -0.5513
 1521SOL    HW116199   0.220   0.674   6.557 -0.4913  1.3804  3.1336
 1521SOL    HW216200   0.158   0.797   6.615 -1.3245 -0.5018 -0.2449
 1522SOL     OW16201   1.743   1.172   6.121  0.1475  0.3450  0.2156
 1522SOL    HW116202   1.730   1.266   6.139  1.7177 -0.1501  4.0115
 1522SOL    HW216203   1.829   1.146   6.153  0.2381  2.5603  1.8138
 1523SOL     OW16204   4.081   2.980  16.626 -0.0930  0.6738  0.0148
 1523SOL    HW116205   4.132   2.941  16.697  2.3465 -0.9800 -2.6179
 1523SOL    HW216206   3.994   2.983  16.666 -0.0756 -2.6936  0.2952
 1524SOL     OW16207   2.151   0.780  10.462 -0.4072  0.5383 -0.2361
 1524SOL    HW116208   2.058   0.800  10.454 -0.3950  1.0016  0.7948
 1524SOL    HW216209   2.152   0.698  10.413 -2.1307  1.4941 -1.8480
 1525SOL     OW16210   1.315   2.040  14.994 -0.2867 -0.1944 -0.3877
 1525SOL    HW116211   1.401   2.056  14.955 -0.4460  1.6833  0.0390
 1525SOL    HW216212   1.354   2.013  15.077 -0.6835  1.1994  0.2435
 1526SOL     OW16213   1.810   2.532   6.469  0.0720 -0.2768  0.0977
 1526SOL    HW116214   1.805   2.472   6.394  0.4484 -0.5598  0.2975
 1526SOL    HW216215   1.783   2.479   6.544 -0.3333  0.5522  0.5356
 1527SOL     OW16216   1.497   2.929   3.560  0.2602 -0.4357 -0.4443
 1527SOL    HW116217   1.419   2.923   3.615 -0.3411  4.2523 -0.8233
 1527SOL    HW216218   1.506   3.024   3.563  0.1970 -0.4560  0.4103
 1528SOL     OW16219   3.568   0.100  12.907 -0.4533  0.2762 -0.3469
 1528SOL    HW116220   3.630   0.027  12.899  1.7378  2.1846 -0.5420
 1528SOL    HW216221   3.532   0.066  12.989 -0.6436  1.3193 -0.0039
 1529SOL     OW16222   1.223   0.790   2.118 -0.1093  0.0901 -0.4237
 1529SOL    HW116223   1.239   0.801   2.212  0.9247  0.0124 -0.5849
 1529SOL    HW216224   1.157   0.857   2.100 -1.0370 -0.2696  1.6982
 1530SOL     OW16225   2.737   1.950   9.317 -1.0326  0.0985 -0.1672
 1530SOL    HW116226   2.746   2.017   9.385  0.3648 -2.3744  2.1158
 1530SOL    HW216227   2.722   1.874   9.374 -0.7540  1.2715  1.4947
 1531SOL     OW16228   4.047   2.650   2.149 -0.1379  0.4555 -0.2817
 1531SOL    HW116229   4.018   2.698   2.226  1.1347  0.1578  0.3845
 1531SOL    HW216230   3.992   2.572   2.156 -0.6793  0.8491 -0.2433
 1532SOL     OW16231   4.518   3.643   7.785 -0.0758  0.0374  0.5223
 1532SOL    HW116232   4.447   3.695   7.824  0.7968 -0.2679  2.4847
 1532SOL    HW216233   4.566   3.618   7.864  2.6301  0.0584 -1.1143
 1533SOL     OW16234   2.082   4.635  12.351  0.2567  0.5023  0.4677
 1533SOL    HW116235   2.032   4.554  12.353  1.7458 -0.4239  0.3023
 1533SOL    HW216236   2.146   4.617  12.420 -0.2719  0.7014  1.0069
 1534SOL     OW16237   1.734   0.480   1.858  0.0197 -0.3725  0.6804
 1534SOL    HW116238   1.665   0.541   1.883  0.7460  1.7066 -2.2696
 1534SOL    HW216239   1.781   0.489   1.940 -1.4549  5.0700  0.9231
 1535SOL     OW16240   4.358   4.154   6.058  0.1329 -0.1829  0.0214
 1535SOL    HW116241   4.401   4.072   6.036  1.0174 -0.4945  2.9652
 1535SOL    HW216242   4.265   4.136   6.041  1.2289 -3.9898 -1.8407
 1536SOL     OW16243   3.114   2.161   1.042  0.4538 -0.9475 -0.0471
 1536SOL    HW116244   3.113   2.236   0.982 -0.8329 -0.0245  1.1343
 1536SOL    HW216245   3.027   2.127   1.021 -0.3417  1.1803 -0.1755
 1537SOL     OW16246   4.172   0.106   3.216 -0.3935  0.9748 -0.3871
 1537SOL    HW116247   4.266   0.116   3.206  0.3474 -3.8716  1.4918
 1537SOL    HW216248   4.148   0.171   3.282 -1.3993  1.5353 -1.2901
 1538SOL     OW16249   0.749   3.813   7.125  0.4525  0.3783  0.0313
 1538SOL    HW116250   0.695   3.736   7.109 -0.0068  1.0216 -1.5107
 1538SOL    HW216251   0.829   3.761   7.132  0.0197 -0.3801 -0.6882
 1539SOL     OW16252   3.063   2.837   3.552 -0.0690 -0.1297 -0.4847
 1539SOL    HW116253   3.089   2.914   3.503  1.8311  0.2632  1.1040
 1539SOL    HW216254   2.972   2.831   3.525 -0.4683  2.4075  0.3020
 1540SOL     OW16255   0.557   4.044   7.033  0.4670 -0.2015 -0.1741
 1540SOL    HW116256   0.619   3.976   7.059 -0.9127 -0.5544  2.1369
 1540SOL    HW216257   0.580   4.070   6.943 -1.8251 -0.4441 -0.8137
 1541SOL     OW16258   0.745   2.344  11.334 -0.2047 -0.4763 -0.5587
 1541SOL    HW116259   0.657   2.308  11.328  0.0276 -1.1482  0.0827
 1541SOL    HW216260   0.721   2.436  11.349 -1.0933 -1.0152  1.2583
 1542SOL     OW16261   2.463   2.811   4.040 -0.5091 -0.5391 -0.1525
 1542SOL    HW116262   2.403   2.886   4.042  1.0673  0.7407 -0.5938
 1542SOL    HW216263   2.489   2.806   3.948  1.2711  0.4683  0.2901
 1543SOL     OW16264   3.186   2.586   3.228  0.7604  0.4630  0.5233
 1543SOL    HW116265   3.157   2.657   3.171  1.9562 -0.6073 -1.4043
 1543SOL    HW216266   3.225   2.525   3.166 -1.1809  1.4082 -1.6160
 1544SOL     OW16267   1.115   0.248   1.662  0.1834  0.0490 -0.4946
 1544SOL    HW116268   1.132   0.268   1.570 -0.4407  0.3541 -0.5441
 1544SOL    HW216269   1.028   0.287   1.675  0.4396  0.6114 -0.4688
 1545SOL     OW16270   1.513   0.906   2.050  0.3403 -0.0636 -0.0390
 1545SOL    HW116271   1.602   0.931   2.076  0.1256 -1.6217  2.2098
 1545SOL    HW216272   1.483   0.981   1.998  0.1413  1.8665  2.8588
 1546SOL     OW16273   2.797   3.064   8.820 -0.1446  0.3166 -0.1853
 1546SOL    HW116274   2.747   3.067   8.902  0.4437 -1.9799  0.2831
 1546SOL    HW216275   2.775   3.154   8.797  0.7719  0.7448  0.6228
 1547SOL     OW16276   1.131   2.822   9.740 -0.3983  0.5848 -0.3190
 1547SOL    HW116277   1.078   2.852   9.666  0.8913 -2.1866 -2.3903
 1547SOL    HW216278   1.112   2.894   9.799  0.0765  0.5834 -0.1684
 1548SOL     OW16279   2.606   4.411   3.549  0.3566  0.5168 -0.5425
 1548SOL    HW116280   2.645   4.362   3.622 -1.3548 -1.4647 -0.9584
 1548SOL    HW216281   2.515   4.415   3.579  0.2101 -0.6211 -0.8435
 1549SOL     OW16282   3.092   0.582  13.485  0.3374 -0.0275 -0.5077
 1549SOL    HW116283   3.115   0.640  13.559 -0.6675  2.1822 -1.9152
 1549SOL    HW216284   3.159   0.609  13.423  1.8651 -0.0096  1.1684
 1550SOL     OW16285   3.327   0.872   5.546 -0.1849 -0.7575 -0.0507
 1550SOL    HW116286   3.334   0.807   5.616  0.6803  0.0516  0.6157
 1550SOL    HW216287   3.357   0.833   5.464  0.6933 -0.9570  0.3718
 1551SOL     OW16288   3.229   2.538  10.959 -0.4868 -0.1009  0.1561
 1551SOL    HW116289   3.284   2.610  10.931  0.7266 -0.4741  1.6253
 1551SOL    HW216290   3.278   2.462  10.928 -1.9296 -1.5106  1.2933
 1552SOL     OW16291   4.656   1.430   4.262  0.3168  0.4882  0.0860
 1552SOL    HW116292   4.622   1.397   4.179 -0.2465  0.2641  0.4066
 1552SOL    HW216293   4.625   1.520   4.268 -0.3949  0.3061 -0.9049
 1553SOL     OW16294   3.052   0.111   1.936 -0.0163 -0.4082 -0.3745
 1553SOL    HW116295   2.983   0.153   1.886 -1.6419  1.8273  3.7671
 1553SOL    HW216296   3.005   0.036   1.972 -0.3038 -0.1213 -0.1556
 1554SOL     OW16297   4.099   4.405  11.422 -0.0934  0.3027  0.0756
 1554SOL    HW116298   4.093   4.350  11.500  3.7863  0.6634  0.6360
 1554SOL    HW216299   4.077   4.488  11.464 -1.9914 -0.0758 -0.1723
 1555SOL     OW16300   0.814   1.335   9.200 -0.5821 -0.0957 -0.8119
 1555SOL    HW116301   0.821   1.242   9.178 -1.7869 -0.5282  0.6357
 1555SOL    HW216302   0.812   1.388   9.120  1.0734  0.8974 -0.2033
 1556SOL     OW16303   0.251   0.385   4.049 -0.5849 -0.0855  0.0347
 1556SOL    HW116304   0.342   0.394   4.075 -0.4343  1.4601 -1.0869
 1556SOL    HW216305   0.236   0.462   3.996 -0.4033  0.0298  0.1533
 1557SOL     OW16306   3.970   1.097   1.879  0.3432 -0.2314  1.0709
 1557SOL    HW116307   4.004   1.094   1.969  0.9122 -0.0897  0.8607
 1557SOL    HW216308   3.953   1.005   1.860  1.9193  0.7935 -5.1811
 1558SOL     OW16309   0.643   2.671  12.501 -0.2965 -0.0910  0.1889
 1558SOL    HW116310   0.647   2.764  12.521  1.2889 -0.2315  0.5538
 1558SOL    HW216311   0.701   2.652  12.427  0.6696  0.2834  0.8549
 1559SOL     OW16312   2.210   0.196   9.827 -0.0112 -0.6415 -0.7116
 1559SOL    HW116313   2.253   0.258   9.885  1.3947 -0.0104 -2.4098
 1559SOL    HW216314   2.160   0.147   9.892 -0.9494  2.1389  0.6640
 1560SOL     OW16315   2.886   0.164   4.539 -0.0768  0.1452 -0.6455
 1560SOL    HW116316   2.947   0.182   4.611 -1.0369  1.3287 -0.1120
 1560SOL    HW216317   2.866   0.072   4.552  0.6118  0.1842  0.7767
 1561SOL     OW16318   0.792   0.968   3.993  0.0865  0.3494  0.4167
 1561SOL    HW116319   0.857   1.010   4.049  1.8703  0.2815 -1.5989
 1561SOL    HW216320   0.834   0.983   3.908  0.5857 -0.4624  0.5274
 1562SOL     OW16321   3.004   2.031   4.228  0.2086 -0.1009  0.4608
 1562SOL    HW116322   3.032   2.008   4.317  0.2105  0.9384  0.7276
 1562SOL    HW216323   3.038   1.957   4.178 -2.0000 -0.0034 -1.1981
 1563SOL     OW16324   2.309   4.402  15.158 -0.2881 -0.0751 -0.1079
 1563SOL    HW116325   2.251   4.448  15.097 -1.6698 -0.8851  0.5933
 1563SOL    HW216326   2.384   4.389  15.100  1.7256  1.0608  2.2073
 1564SOL     OW16327   4.691   3.921  15.361  0.0894  0.1868  0.4900
 1564SOL    HW116328   4.671   3.847  15.419 -1.4021 -1.1081 -1.6350
 1564SOL    HW216329   4.725   3.885  15.279 -2.4323 -0.7457 -0.1663
 1565SOL     OW16330   1.280   2.134  12.184  0.1242  0.5722 -0.2205
 1565SOL    HW116331   1.314   2.050  12.154  0.4104  0.4185  0.5196
 1565SOL    HW216332   1.322   2.198  12.126  0.0755 -0.3717 -1.2901
 1566SOL     OW16333   4.202   0.326   7.619 -0.3450 -0.0327  0.0129
 1566SOL    HW116334   4.192   0.231   7.615 -0.9107  0.0744 -1.2942
 1566SOL    HW216335   4.263   0.331   7.692 -0.7822  0.9158  0.3223
 1567SOL     OW16336   1.061   3.470   1.366  0.1498 -0.0778  0.3042
 1567SOL    HW116337   1.144   3.515   1.351  1.0099 -1.3511  1.2656
 1567SOL    HW216338   1.030   3.513   1.446 -2.2618 -0.7252 -0.2880
 1568SOL     OW16339   0.141   1.142   1.950 -0.1668  0.1538 -0.2335
 1568SOL    HW116340   0.195   1.207   1.905 -0.4500  0.6213  0.0961
 1568SOL    HW216341   0.140   1.175   2.040  1.0099 -1.1178  0.2459
 1569SOL     OW16342   0.478   3.700   4.229 -0.2334  0.6203 -0.1962
 1569SOL    HW116343   0.571   3.676   4.220  0.6002  3.2232  1.5630
 1569SOL    HW216344   0.469   3.712   4.324  1.5995  0.1161  0.0364
 1570SOL     OW16345   1.385   3.668   4.823  0.0941 -0.4953  0.2644
 1570SOL    HW116346   1.309   3.727   4.820 -1.3448 -2.3294  0.1825
 1570SOL    HW216347   1.387   3.647   4.917 -0.6917  1.6422  0.7482
 1571SOL     OW16348   2.428   1.274   7.779  0.3793  0.1539 -0.1571
 1571SOL    HW116349   2.483   1.281   7.701  1.2518 -2.2560  0.2236
 1571SOL    HW216350   2.491   1.244   7.845 -1.1960  0.2655  1.4062
 1572SOL     OW16351   2.426   4.380   8.561  0.7600 -0.6633  0.0716
 1572SOL    HW116352   2.413   4.444   8.492 -0.3313 -1.3134 -0.3189
 1572SOL    HW216353   2.522   4.373   8.559  0.6851 -1.2916 -1.1947
 1573SOL     OW16354   2.879   0.573   2.734 -0.3105  0.3694  0.1404
 1573SOL    HW116355   2.860   0.490   2.690 -0.1562  2.2348 -3.4213
 1573SOL    HW216356   2.899   0.642   2.671 -0.7815  0.0888 -0.3125
 1574SOL     OW16357   3.897   1.247   9.461 -0.3052  0.0155 -0.7706
 1574SOL    HW116358   3.827   1.301   9.496 -1.7070 -1.2289 -1.6615
 1574SOL    HW216359   3.952   1.313   9.419 -0.6481  0.0931 -1.1004
 1575SOL     OW16360   0.340   4.033   9.229 -1.1035  0.5209  0.8845
 1575SOL    HW116361   0.393   3.973   9.177 -1.3234  0.1417  1.1014
 1575SOL    HW216362   0.300   3.962   9.278  2.0715 -0.9750  1.3174
 1576SOL     OW16363   0.471   3.167   8.325 -0.5615  0.1588 -0.3942
 1576SOL    HW116364   0.394   3.224   8.330 -2.6804 -2.6663 -0.4886
 1576SOL    HW216365   0.429   3.085   8.299 -2.6156  1.3275 -0.7706
 1577SOL     OW16366   0.813   0.085   0.919  0.1262  0.2925 -0.3262
 1577SOL    HW116367   0.838   0.007   0.869 -0.0250 -0.4694  0.7822
 1577SOL    HW216368   0.867   0.154   0.880  1.0768 -0.1222  0.2539
 1578SOL     OW16369   1.539   2.174  11.557  0.7785  0.6304 -0.5182
 1578SOL    HW116370   1.465   2.185  11.617  0.5733 -1.7963 -0.3102
 1578SOL    HW216371   1.602   2.129  11.613  0.7702  0.6473 -0.4949
 1579SOL     OW16372   1.974   4.041   3.122 -0.2430  0.3801  0.0264
 1579SOL    HW116373   1.973   3.982   3.047 -0.1343 -0.3315  0.5801
 1579SOL    HW216374   2.032   4.110   3.091 -1.5202  1.6982  0.6120
 1580SOL     OW16375   3.029   0.422   1.998  0.6937 -0.1611  0.9311
 1580SOL    HW116376   3.021   0.399   1.905 -1.1024  1.4817  0.6988
 1580SOL    HW216377   2.990   0.509   2.004 -1.9293 -1.3910  1.6157
 1581SOL     OW16378   4.671   2.865   5.980  0.0806 -0.4393  0.9349
 1581SOL    HW116379   4.720   2.946   5.995 -0.1331 -0.6154  2.6200
 1581SOL    HW216380   4.679   2.822   6.065  1.4788 -2.4680 -0.2384
 1582SOL     OW16381   2.577   0.845  13.014  0.0473  0.7481  0.2099
 1582SOL    HW116382   2.549   0.806  13.097  1.3975  0.7461  0.6588
 1582SOL    HW216383   2.542   0.778  12.956 -0.8014  0.4572  1.0549
 1583SOL     OW16384   0.079   2.375   8.714  0.4296 -0.0455  0.5321
 1583SOL    HW116385   0.004   2.370   8.656  0.9696 -0.2349 -0.1491
 1583SOL    HW216386   0.040   2.328   8.788 -1.2041  0.6383  0.0909
 1584SOL     OW16387   3.968   3.892   5.314  0.0939  0.1501  0.0900
 1584SOL    HW116388   4.050   3.937   5.336 -0.7854  2.2151 -0.8095
 1584SOL    HW216389   4.002   3.812   5.275 -0.6202 -0.2120  0.2201
 1585SOL     OW16390   1.712   2.699  11.047 -0.0667 -0.5157 -0.2312
 1585SOL    HW116391   1.799   2.695  11.006 -0.0761 -2.9326 -0.0169
 1585SOL    HW216392   1.677   2.780  11.009  2.5302  1.5365  1.7192
 1586SOL     OW16393   2.436   4.263   4.953  0.0681 -0.1962  1.1628
 1586SOL    HW116394   2.365   4.241   4.893  1.6400  0.8389 -1.0845
 1586SOL    HW216395   2.385   4.265   5.034 -1.1765 -1.7749  0.4112
 1587SOL     OW16396   1.476   4.566   6.984  0.1470 -0.6835 -0.1476
 1587SOL    HW116397   1.437   4.630   6.924 -0.1400 -0.1932  0.5603
 1587SOL    HW216398   1.413   4.554   7.055 -0.7448 -2.0697 -1.1391
 1588SOL     OW16399   3.455   1.481   8.390 -0.7785 -0.1610  0.2396
 1588SOL    HW116400   3.481   1.459   8.479  0.5504 -1.9648 -0.5925
 1588SOL    HW216401   3.446   1.576   8.394  0.2935 -0.1091  1.2402
 1589SOL     OW16402   0.364   1.786   4.831  0.2950 -0.0945  0.8503
 1589SOL    HW116403   0.388   1.851   4.897  3.3537  0.8185 -1.2076
 1589SOL    HW216404   0.339   1.837   4.754 -0.6870 -0.3392  1.0061
 1590SOL     OW16405   2.015   4.512  15.752  0.0155  0.1202  0.0014
 1590SOL    HW116406   2.014   4.580  15.819  0.1684  0.8094 -0.6887
 1590SOL    HW216407   2.040   4.564  15.675 -1.9293  0.8117 -0.1766
 1591SOL     OW16408   1.763   3.773   7.372  0.1486 -0.5181 -0.1482
 1591SOL    HW116409   1.695   3.837   7.352  0.0234 -0.8044 -0.6376
 1591SOL    HW216410   1.821   3.831   7.422 -0.7990 -0.3473  0.7441
 1592SOL     OW16411   1.393   3.946   1.507 -0.5031  0.0932  0.2548
 1592SOL    HW116412   1.482   3.973   1.531 -1.8240  5.6700 -1.2318
 1592SOL    HW216413   1.344   4.028   1.500  0.6578  0.5867 -2.0523
 1593SOL     OW16414   2.350   2.267   8.499  0.4197  0.8933 -0.2076
 1593SOL    HW116415   2.432   2.234   8.535  0.6150  1.9114  0.2946
 1593SOL    HW216416   2.361   2.254   8.404  0.1415 -3.0431  0.3007
 1594SOL     OW16417   3.327   2.592   9.756  0.3961  0.2968  0.2081
 1594SOL    HW116418   3.354   2.667   9.702  1.6632 -1.0129 -0.9504
 1594SOL    HW216419   3.376   2.520   9.718 -0.6381 -0.7682  0.9137
 1595SOL     OW16420   1.282   1.409   3.082 -0.0440  0.4616 -0.1653
 1595SOL    HW116421   1.300   1.487   3.029 -1.1703  1.1269  0.4245
 1595SOL    HW216422   1.339   1.355   3.028  0.5733  0.9612 -0.0109
 1596SOL     OW16423   2.040   1.327   4.776 -0.5257  0.5258 -0.0739
 1596SOL    HW116424   2.014   1.332   4.868  0.4520  0.9391  0.1808
 1596SOL    HW216425   1.985   1.258   4.740  1.3496 -0.5152 -0.9918
 1597SOL     OW16426   0.829   1.576   0.889  0.7218  0.2533 -0.3195
 1597SOL    HW116427   0.846   1.663   0.855 -2.3115  1.6188  1.6836
 1597SOL    HW216428   0.753   1.602   0.941  0.1139 -0.1158 -1.0270
 1598SOL     OW16429   1.968   4.447  16.964 -0.2905  0.0570 -0.0136
 1598SOL    HW116430   2.042   4.507  16.957  0.1816 -0.2753  2.1237
 1598SOL    HW216431   2.000   4.370  16.917  0.8845 -0.2195  1.2272
 1599SOL     OW16432   2.531   0.095  11.700  0.2531 -0.1757 -0.4241
 1599SOL    HW116433   2.556   0.076  11.609  0.6002 -1.4467 -0.0586
 1599SOL    HW216434   2.492   0.014  11.732  3.6760 -1.3629  0.7234
 1600SOL     OW16435   0.645   1.725   4.313  0.3537 -0.2836  1.0125
 1600SOL    HW116436   0.669   1.633   4.300  1.2856  0.3398 -1.5808
 1600SOL    HW216437   0.702   1.764   4.247 -0.6386  1.2306  1.0455
 1601SOL     OW16438   2.800   1.578  15.238  0.6683  0.0041  0.7730
 1601SOL    HW116439   2.824   1.628  15.160 -2.8046 -1.1714 -1.0523
 1601SOL    HW216440   2.883   1.533  15.251  1.4233  1.5800  1.3421
 1602SOL     OW16441   3.728   0.126  17.647  0.7492 -0.5264 -0.1056
 1602SOL    HW116442   3.649   0.118  17.699  0.8608 -0.5815  0.0565
 1602SOL    HW216443   3.793   0.138  17.716  1.3827 -1.7219 -0.4784
 1603SOL     OW16444   1.552   0.294   4.234 -0.5300  1.1316  0.1327
 1603SOL    HW116445   1.537   0.270   4.142 -0.1607 -0.5463  0.5044
 1603SOL    HW216446   1.518   0.216   4.279  1.5589 -0.5300 -1.1494
 1604SOL     OW16447   1.879   3.840   3.787 -0.6029  0.2393 -0.3488
 1604SOL    HW116448   1.846   3.837   3.697  3.9120 -1.1233 -1.9914
 1604SOL    HW216449   1.802   3.851   3.843  0.1401 -1.0988  0.9289
 1605SOL     OW16450   1.671   1.844   2.550 -0.1938  0.1791  0.2303
 1605SOL    HW116451   1.719   1.915   2.592  1.6105  0.0852 -1.6313
 1605SOL    HW216452   1.591   1.889   2.526  1.0608  1.4302 -1.6193
 1606SOL     OW16453   3.512   3.267   2.731 -0.2913  0.1324  0.4618
 1606SOL    HW116454   3.448   3.337   2.720 -1.3089 -0.8773 -0.0801
 1606SOL    HW216455   3.595   3.304   2.701 -1.2240 -0.3905 -2.7797
 1607SOL     OW16456   1.907   2.185   4.558  0.0883  0.0542  0.1371
 1607SOL    HW116457   1.877   2.163   4.470  0.3713  2.0147 -0.4364
 1607SOL    HW216458   1.875   2.116   4.616  0.4703  1.1867  1.6943
 1608SOL     OW16459   3.394   4.125   5.920  0.3683 -0.5762  0.5599
 1608SOL    HW116460   3.324   4.060   5.930 -0.3331 -0.3793 -3.0735
 1608SOL    HW216461   3.453   4.109   5.994 -0.4071 -0.3394  1.2259
 1609SOL     OW16462   3.956   2.827   4.655  0.0626 -0.0627  0.8428
 1609SOL    HW116463   3.966   2.735   4.632  1.4191  0.2481  0.2184
 1609SOL    HW216464   3.864   2.844   4.634 -0.3872 -3.3770  0.0622
 1610SOL     OW16465   2.730   1.009  11.069 -0.3210 -0.0239  0.3876
 1610SOL    HW116466   2.819   1.026  11.099  0.5177 -2.1154 -0.9573
 1610SOL    HW216467   2.676   1.074  11.114  0.9698  0.3851  1.3414
 1611SOL     OW16468   3.747   4.718   9.792 -0.1797  0.3741  0.7311
 1611SOL    HW116469   3.825   4.725   9.848  0.0011 -2.4313  0.8229
 1611SOL    HW216470   3.693   4.655   9.839 -0.7144 -0.5342 -1.1322
 1612SOL     OW16471   4.639   3.135   2.111 -0.3051 -0.1101  0.1801
 1612SOL    HW116472   4.734   3.133   2.102 -0.2275  1.5498  0.6459
 1612SOL    HW216473   4.616   3.065   2.050 -0.8502  0.5429 -0.3623
 1613SOL     OW16474   4.448   2.914  13.109  0.1291  0.1005  0.4586
 1613SOL    HW116475   4.454   2.830  13.063 -2.6238  0.0340  0.2186
 1613SOL    HW216476   4.490   2.894  13.192  0.6108 -2.5523 -0.3962
 1614SOL     OW16477   1.965   0.113   7.967 -0.4951 -0.5410 -0.1924
 1614SOL    HW116478   1.889   0.154   8.008  0.5382  1.4870 -0.3115
 1614SOL    HW216479   1.919   0.057   7.903  1.2481 -1.0937 -0.9640
 1615SOL     OW16480   1.116   2.105  11.849 -0.0036  0.1744  0.4195
 1615SOL    HW116481   1.122   2.048  11.925  1.3732  0.0824  0.2531
 1615SOL    HW216482   1.059   2.054  11.793  3.1067 -3.4490  0.5624
 1616SOL     OW16483   2.341   1.249   8.292 -0.1699  0.0483  0.1055
 1616SOL    HW116484   2.426   1.242   8.247  1.2143  0.4049  2.6488
 1616SOL    HW216485   2.319   1.156   8.292  1.0408 -0.2482  0.1775
 1617SOL     OW16486   2.718   2.920   3.172  0.0026  0.1302  0.1902
 1617SOL    HW116487   2.662   2.847   3.146 -1.3423  0.4166  2.3396
 1617SOL    HW216488   2.800   2.870   3.177 -0.7059 -0.8770  1.7974
 1618SOL     OW16489   4.497   0.731  13.946  0.1084  0.6533 -0.3808
 1618SOL    HW116490   4.589   0.716  13.928  0.3034  0.4672  0.7831
 1618SOL    HW216491   4.455   0.671  13.884 -2.5969  0.5305  1.5350
 1619SOL     OW16492   2.659   3.735   5.687 -0.3201  0.3273 -0.0451
 1619SOL    HW116493   2.568   3.713   5.706  0.0161 -1.7077 -0.7483
 1619SOL    HW216494   2.699   3.700   5.768 -2.2383 -3.0693 -0.5684
 1620SOL     OW16495   0.217   1.289   8.880  0.2656 -0.0346  0.1511
 1620SOL    HW116496   0.310   1.270   8.862 -0.2633 -1.8594 -0.6360
 1620SOL    HW216497   0.214   1.328   8.967 -0.7699 -0.2085  0.1896
 1621SOL     OW16498   3.064   4.202   2.864  0.0211 -0.4877  0.0293
 1621SOL    HW116499   3.149   4.176   2.901  0.3062  0.2258 -0.1287
 1621SOL    HW216500   3.031   4.119   2.830 -0.6725 -0.9317  1.7735
 1622SOL     OW16501   0.693   1.513   3.266  0.3192 -0.0851 -0.1289
 1622SOL    HW116502   0.740   1.429   3.261  0.2703 -0.0362 -1.5975
 1622SOL    HW216503   0.615   1.481   3.311 -1.9118  4.7777 -0.5850
 1623SOL     OW16504   0.781   4.064   3.151  0.1296  0.3678 -0.4114
 1623SOL    HW116505   0.761   4.041   3.060 -1.3171  1.1732 -0.2940
 1623SOL    HW216506   0.777   3.981   3.200 -1.2989 -0.6395 -2.2177
 1624SOL     OW16507   1.495   3.185  10.566  0.3346 -0.0791 -0.3908
 1624SOL    HW116508   1.582   3.154  10.592  0.5712  1.4683  0.6584
 1624SOL    HW216509   1.517   3.229  10.485 -1.0633 -2.8701 -2.2902
 1625SOL     OW16510   2.161   0.893  14.971  0.1742  0.0586 -0.2646
 1625SOL    HW116511   2.100   0.959  14.939 -0.2771  0.6998  1.9550
 1625SOL    HW216512   2.129   0.880  15.060 -0.1641  0.9780 -0.2586
 1626SOL     OW16513   1.884   3.405   9.244  0.5676  0.0967 -0.8708
 1626SOL    HW116514   1.951   3.473   9.241  0.0947  0.5725 -0.6740
 1626SOL    HW216515   1.842   3.418   9.159 -1.1895  0.4148  0.0397
 1627SOL     OW16516   4.732   0.469   4.780 -0.0910  0.0177  0.0319
 1627SOL    HW116517   4.691   0.550   4.808  0.8558  0.0434  1.3000
 1627SOL    HW216518   0.085   0.477   4.797  0.0644 -2.1997  0.2344
 1628SOL     OW16519   0.250   2.583   4.901 -0.2150  0.1085  0.2545
 1628SOL    HW116520   0.250   2.657   4.840  1.1648  0.4262  0.6389
 1628SOL    HW216521   0.310   2.524   4.856 -0.0434  1.5401 -1.4091
 1629SOL     OW16522   1.384   2.017   5.214  0.0053 -1.1301  0.4644
 1629SOL    HW116523   1.316   2.079   5.188  1.0313 -0.9588 -1.7953
 1629SOL    HW216524   1.384   2.004   5.309  1.9708  1.4786  0.8427
 1630SOL     OW16525   4.470   1.965  11.077  0.5992  0.0809  0.1441
 1630SOL    HW116526   4.424   2.049  11.067 -0.2481 -0.3331  0.5829
 1630SOL    HW216527   4.399   1.907  11.104  0.1772  0.1825 -0.7450
 1631SOL     OW16528   2.085   0.185  15.560  0.0954 -0.3248  0.3420
 1631SOL    HW116529   2.022   0.256  15.571 -2.1428 -2.0203 -1.6482
 1631SOL    HW216530   2.169   0.221  15.533 -0.0838  0.5761  0.9893
 1632SOL     OW16531   2.043   4.332  14.926 -0.2673  0.1050  0.1301
 1632SOL    HW116532   1.952   4.363  14.927 -0.5050 -0.5265 -1.0393
 1632SOL    HW216533   2.036   4.252  14.978 -1.5689  0.8194  1.0496
 1633SOL     OW16534   4.349   2.919  13.413  0.0288  0.7654 -0.1275
 1633SOL    HW116535   4.438   2.918  13.379  0.1248  2.2392  0.0987
 1633SOL    HW216536   4.290   2.951  13.346 -1.8983 -1.6225  0.3904
 1634SOL     OW16537   1.108   0.396   2.996  0.1367  0.1469 -0.7932
 1634SOL    HW116538   1.100   0.489   3.019  1.8232  0.4066 -1.2402
 1634SOL    HW216539   1.091   0.405   2.902 -3.0404  3.0086  0.0416
 1635SOL     OW16540   3.913   2.132  16.567 -0.0344  0.4507  0.3215
 1635SOL    HW116541   3.977   2.098  16.504  0.4003 -0.0691  1.0305
 1635SOL    HW216542   3.957   2.145  16.651  0.1087 -1.2337  0.5086
 1636SOL     OW16543   3.261   3.206   5.586  0.5807 -0.6649 -0.1152
 1636SOL    HW116544   3.283   3.160   5.667  1.8765 -0.6839 -0.4687
 1636SOL    HW216545   3.259   3.136   5.520 -0.5441  0.8221 -1.6704
 1637SOL     OW16546   3.515   2.003   7.415 -0.5883 -0.1295  0.7413
 1637SOL    HW116547   3.523   1.920   7.462 -0.6616  0.8389  2.4617
 1637SOL    HW216548   3.558   2.061   7.478  0.5712 -0.0417 -0.1410
 1638SOL     OW16549   2.387   1.425   6.211 -0.2240  0.0262  0.7116
 1638SOL    HW116550   2.427   1.511   6.227  0.2453  0.3719 -2.2979
 1638SOL    HW216551   2.387   1.416   6.116  0.9809  1.0001  0.6162
 1639SOL     OW16552   1.377   1.532   8.968  0.0975 -0.2038  0.0728
 1639SOL    HW116553   1.437   1.606   8.981 -0.5311  0.3199 -0.0194
 1639SOL    HW216554   1.392   1.508   8.876  0.9818 -0.0679  0.1761
 1640SOL     OW16555   1.817   0.825   6.692 -0.0498  0.2267 -0.2521
 1640SOL    HW116556   1.869   0.789   6.765 -0.4751  3.8390  1.8350
 1640SOL    HW216557   1.784   0.907   6.729 -0.4893  0.8762 -2.1259
 1641SOL     OW16558   1.492   0.981  17.530  0.1310  0.0172  0.0759
 1641SOL    HW116559   1.508   1.049  17.464  0.6771 -0.2744 -0.0895
 1641SOL    HW216560   1.538   1.021  17.603  1.8536 -0.3897 -0.7874
 1642SOL     OW16561   0.519   3.807   5.407  0.2037  0.3422 -0.5687
 1642SOL    HW116562   0.611   3.816   5.385  1.0538 -1.0392  2.4698
 1642SOL    HW216563   0.486   3.767   5.326  0.2912 -0.4595 -0.2079
 1643SOL     OW16564   4.491   1.039   9.478  0.3359  0.4205 -0.2939
 1643SOL    HW116565   4.507   0.971   9.413  0.8194  1.0630 -0.8410
 1643SOL    HW216566   4.525   1.123   9.449  2.4254 -0.2908  0.1375
 1644SOL     OW16567   0.235   2.865   8.818 -0.4493  0.2796 -0.2103
 1644SOL    HW116568   0.187   2.898   8.741  0.9060  2.9988  0.0932
 1644SOL    HW216569   0.304   2.931   8.822 -0.5461  0.2702  1.7145
 1645SOL     OW16570   3.652   3.869  11.728 -0.0638  0.1049 -0.2287
 1645SOL    HW116571   3.614   3.830  11.650 -0.3605  1.3572 -0.7037
 1645SOL    HW216572   3.668   3.795  11.787 -1.9675 -0.4528 -0.4218
 1646SOL     OW16573   1.621   3.903   4.350  0.7659  0.6092 -0.8564
 1646SOL    HW116574   1.616   3.951   4.433  2.2644 -0.8564  0.0711
 1646SOL    HW216575   1.612   3.814   4.384 -0.7932  0.5591 -1.3693
 1647SOL     OW16576   3.405   3.305  11.072 -0.2092  0.1317  0.4100
 1647SOL    HW116577   3.462   3.320  11.148  0.4379 -0.1776 -0.0032
 1647SOL    HW216578   3.467   3.317  11.000  0.2310  0.7174  0.8849
 1648SOL     OW16579   3.107   1.758  15.311  0.0199 -0.5410  0.6082
 1648SOL    HW116580   3.111   1.665  15.289  0.9671  0.1087 -1.9073
 1648SOL    HW216581   3.152   1.794  15.234 -0.5558 -0.8052  0.1489
 1649SOL     OW16582   3.682   2.121   1.878  0.1500 -0.4472 -0.7952
 1649SOL    HW116583   3.743   2.154   1.812  1.7694 -0.6253  0.6067
 1649SOL    HW216584   3.605   2.146   1.828 -0.0413  0.3982 -0.0813
 1650SOL     OW16585   0.210   0.140   8.485 -0.2036  0.5495  0.1809
 1650SOL    HW116586   0.229   0.189   8.404 -0.6573  0.6252  0.1209
 1650SOL    HW216587   0.157   0.209   8.526 -0.1196  0.1726  0.9172
 1651SOL     OW16588   0.573   4.090   8.526  0.1502 -0.3332 -0.6137
 1651SOL    HW116589   0.500   4.150   8.546 -0.8098 -2.0097  0.8652
 1651SOL    HW216590   0.528   4.009   8.548  0.6360 -0.6195 -0.6867
 1652SOL     OW16591   2.502   1.573  13.354 -0.7496 -0.1878  0.1287
 1652SOL    HW116592   2.438   1.634  13.318 -0.9323 -0.5959 -0.2332
 1652SOL    HW216593   2.446   1.497  13.339 -1.4421  0.8555 -2.6468
 1653SOL     OW16594   2.360   3.843  16.359  0.4437 -0.3489 -0.2566
 1653SOL    HW116595   2.391   3.926  16.324 -0.2079 -0.6560 -1.5719
 1653SOL    HW216596   2.443   3.797  16.368  1.2996  1.0808 -0.8876
 1654SOL     OW16597   0.848   1.657   8.076 -0.4319  0.1187  0.1821
 1654SOL    HW116598   0.866   1.691   8.164  0.1767  1.0863 -0.3115
 1654SOL    HW216599   0.823   1.565   8.081 -0.5759  0.1573  0.1593
 1655SOL     OW16600   3.424   0.411  12.892  0.4056  0.5197 -0.2747
 1655SOL    HW116601   3.518   0.424  12.900  0.3275  0.4641  0.7122
 1655SOL    HW216602   3.411   0.337  12.832 -2.2449 -0.6649  1.7720
 1656SOL     OW16603   3.054   0.462   0.907  0.2756  0.1051 -0.1581
 1656SOL    HW116604   3.065   0.553   0.935  0.6816 -0.5645  1.8573
 1656SOL    HW216605   3.031   0.462   0.814  0.1250  1.5727 -0.1153
 1657SOL     OW16606   1.838   4.239   1.601 -0.0476 -0.2465  0.3392
 1657SOL    HW116607   1.907   4.305   1.611  0.5351 -1.0066  1.3654
 1657SOL    HW216608   1.897   4.164   1.594  1.5243  0.9473  0.6591
 1658SOL     OW16609   2.744   0.382   5.880 -0.0156  0.5291  0.9661
 1658SOL    HW116610   2.734   0.456   5.940  0.5904  1.3959 -0.0086
 1658SOL    HW216611   2.654   0.348   5.881 -0.5061  1.8044  0.9099
 1659SOL     OW16612   3.050   0.790   4.689  0.1441 -0.0193 -0.1715
 1659SOL    HW116613   3.050   0.886   4.690 -1.4488 -0.0342  1.1257
 1659SOL    HW216614   3.012   0.783   4.776 -1.3312 -0.6985 -0.8655
 1660SOL     OW16615   4.591   3.945  11.093  0.2887  0.5940  0.0011
 1660SOL    HW116616   4.554   4.026  11.130  0.1978  0.0084  1.1974
 1660SOL    HW216617   4.513   3.891  11.084 -0.0692  0.7133  2.3850
 1661SOL     OW16618   2.796   0.843   4.121  0.2571 -0.1768  0.0340
 1661SOL    HW116619   2.870   0.810   4.172 -0.1401 -0.1190  0.6364
 1661SOL    HW216620   2.811   0.936   4.108 -0.9276  0.4698  3.5134
 1662SOL     OW16621   2.559   3.775  16.180  0.1948 -0.5112  0.0970
 1662SOL    HW116622   2.608   3.734  16.108 -0.9835 -0.8063 -0.5502
 1662SOL    HW216623   2.482   3.719  16.186 -1.6292  2.0553  0.4939
 1663SOL     OW16624   0.983   0.238   2.475  0.0456  0.3056 -0.1059
 1663SOL    HW116625   0.914   0.222   2.410  0.4211  0.1750 -0.4719
 1663SOL    HW216626   1.040   0.291   2.419  0.1726  2.8577  2.5027
 1664SOL     OW16627   3.956   0.333  11.728  0.1614  0.0697 -0.4459
 1664SOL    HW116628   3.986   0.327  11.637 -0.7921  0.1341 -0.7666
 1664SOL    HW216629   4.025   0.380  11.773  1.1630  0.8566 -2.7748
 1665SOL     OW16630   1.654   1.686   7.489  0.1665  0.4157 -0.3825
 1665SOL    HW116631   1.561   1.709   7.492  0.1005 -0.1059  1.3960
 1665SOL    HW216632   1.681   1.673   7.580 -1.3722  0.0125  0.0100
 1666SOL     OW16633   0.322   1.657   6.091  0.2606  0.0349 -0.3051
 1666SOL    HW116634   0.319   1.688   6.181  1.0007 -0.4147 -0.1270
 1666SOL    HW216635   0.293   1.566   6.095  2.1947 -0.4750  1.9821
 1667SOL     OW16636   0.939   1.762   6.223 -0.0600  0.6218 -0.1740
 1667SOL    HW116637   0.899   1.831   6.276  0.9881  0.3377  0.9862
 1667SOL    HW216638   1.014   1.739   6.278  0.6984 -0.0594 -1.4860
 1668SOL     OW16639   1.104   0.792   9.325  0.0174  0.2080 -0.0686
 1668SOL    HW116640   1.018   0.754   9.306  0.0580 -0.7029  1.5127
 1668SOL    HW216641   1.084   0.880   9.359 -0.0927  0.3258 -0.4445
 1669SOL     OW16642   3.204   1.651  10.127  0.6991  0.4693  0.2408
 1669SOL    HW116643   3.162   1.735  10.109  1.4800  1.1048  1.3442
 1669SOL    HW216644   3.277   1.653  10.065  0.2526 -0.2710 -0.2941
 1670SOL     OW16645   3.900   3.814   8.346  0.1346 -0.0740 -0.1084
 1670SOL    HW116646   3.806   3.794   8.340 -0.2227  1.4412  0.1216
 1670SOL    HW216647   3.886   3.904   8.377  0.6324  0.9781 -2.9349
 1671SOL     OW16648   2.551   1.161   8.841  0.1357  0.1320  0.0864
 1671SOL    HW116649   2.461   1.193   8.840  0.4164  0.9082 -0.6190
 1671SOL    HW216650   2.577   1.160   8.749  0.1609  0.2630  0.0917
 1672SOL     OW16651   4.675   2.108   1.188 -0.2055 -0.0384 -0.3113
 1672SOL    HW116652   4.627   2.027   1.169 -0.9469  1.0333 -3.0501
 1672SOL    HW216653   4.696   2.086   1.279  1.5978  0.2400 -0.6660
 1673SOL     OW16654   0.679   1.049  16.115 -0.9059  0.4602  0.1902
 1673SOL    HW116655   0.637   1.059  16.200  1.7364  1.3298  1.4161
 1673SOL    HW216656   0.666   1.134  16.073 -0.2126  0.1776 -0.6052
 1674SOL     OW16657   3.011   4.583   3.065  0.1145  0.2765  0.0841
 1674SOL    HW116658   2.946   4.539   3.120 -1.1341  3.4687  1.1396
 1674SOL    HW216659   3.000   4.676   3.085  0.5916  0.1169  1.1064
 1675SOL     OW16660   2.473   1.963   5.910 -0.0252 -0.3871 -0.4780
 1675SOL    HW116661   2.437   2.039   5.955  0.4379 -1.9275  2.5175
 1675SOL    HW216662   2.446   1.897   5.974 -1.5937 -0.1433 -0.9107
 1676SOL     OW16663   4.249   3.141   8.997  0.4131  0.0668 -0.1566
 1676SOL    HW116664   4.336   3.141   9.037 -0.1285  0.7897  1.0009
 1676SOL    HW216665   4.245   3.060   8.947  1.1702 -1.0871  1.6880
 1677SOL     OW16666   4.439   2.180   5.395  0.5066 -1.0211  0.0928
 1677SOL    HW116667   4.381   2.247   5.432  0.3387 -0.0846 -1.8612
 1677SOL    HW216668   4.432   2.114   5.464 -0.4210 -0.2866  0.6945
 1678SOL     OW16669   4.448   0.500   6.094 -0.0793  0.2249 -0.0163
 1678SOL    HW116670   4.453   0.573   6.032 -0.6644 -1.3848 -1.9718
 1678SOL    HW216671   4.352   0.495   6.099 -0.0680 -1.5253 -1.4226
 1679SOL     OW16672   1.835   1.384   5.432  0.0933  0.2189 -0.2016
 1679SOL    HW116673   1.863   1.459   5.484 -0.8306 -0.0565  0.6968
 1679SOL    HW216674   1.821   1.313   5.494  0.3654 -0.4749 -0.9307
 1680SOL     OW16675   1.587   0.511   2.238 -0.3707  0.7451 -0.4902
 1680SOL    HW116676   1.505   0.469   2.264  1.8633 -2.6119  1.1276
 1680SOL    HW216677   1.559   0.584   2.182 -1.7840  0.0447 -0.7141
 1681SOL     OW16678   1.239   4.015   2.727  0.2696 -0.1219  0.2088
 1681SOL    HW116679   1.308   3.992   2.666 -2.2080 -0.3734 -2.4638
 1681SOL    HW216680   1.215   3.930   2.764  0.1392  0.1788  0.8324
 1682SOL     OW16681   0.361   4.557   4.367 -1.0730 -0.3561 -0.4420
 1682SOL    HW116682   0.305   4.480   4.359 -2.5827  0.7375 -0.2780
 1682SOL    HW216683   0.319   4.622   4.311 -1.6959 -1.9053 -1.7384
 1683SOL     OW16684   3.732   2.300   7.311  0.3901  0.0299 -0.0101
 1683SOL    HW116685   3.704   2.391   7.303 -0.4909 -0.1480  1.0753
 1683SOL    HW216686   3.686   2.260   7.238 -2.3866  0.7702  1.3407
 1684SOL     OW16687   3.700   1.445  10.173 -0.0026  0.1519  0.4914
 1684SOL    HW116688   3.776   1.403  10.132 -0.5431 -0.8993  0.5743
 1684SOL    HW216689   3.690   1.399  10.256 -1.8290  0.9418  0.7033
 1685SOL     OW16690   0.243   1.153   7.729 -0.6494 -0.5790 -0.1511
 1685SOL    HW116691   0.244   1.149   7.825  1.3443 -3.1348 -0.2931
 1685SOL    HW216692   0.152   1.141   7.704 -0.6049  0.4566 -0.7885
 1686SOL     OW16693   0.487   0.254   6.806 -0.3722  0.1670 -0.0722
 1686SOL    HW116694   0.493   0.204   6.725 -0.8462 -1.6123  0.9806
 1686SOL    HW216695   0.410   0.211   6.843 -1.2896  1.0413 -0.9683
 1687SOL     OW16696   2.146   1.259  11.478  0.2264 -0.3829  0.2486
 1687SOL    HW116697   2.067   1.213  11.506 -0.3162 -0.0924 -0.8111
 1687SOL    HW216698   2.129   1.347  11.511  1.1247 -1.1425  2.7388
 1688SOL     OW16699   3.645   1.973   1.196  0.1604 -0.0222  0.1463
 1688SOL    HW116700   3.707   2.036   1.233  0.4894 -1.1938  1.5872
 1688SOL    HW216701   3.666   1.988   1.104 -1.8727 -2.9167 -0.7760
 1689SOL     OW16702   1.241   4.496  17.497  0.4974 -0.3239  0.5518
 1689SOL    HW116703   1.167   4.553  17.477  0.2289 -0.9505 -0.2271
 1689SOL    HW216704   1.312   4.500  17.433 -2.7857  1.4938 -3.0044
 1690SOL     OW16705   2.541   3.702  10.337 -0.6467 -0.4884 -0.0572
 1690SOL    HW116706   2.470   3.660  10.387  0.4785  0.9796  2.7965
 1690SOL    HW216707   2.534   3.645  10.261 -1.2260  0.0082 -0.3783
 1691SOL     OW16708   3.762   0.709   5.850  0.0670  0.1771  0.4825
 1691SOL    HW116709   3.668   0.714   5.864 -0.5403  1.5842 -4.0164
 1691SOL    HW216710   3.785   0.633   5.903  0.0205  0.4358  0.8698
 1692SOL     OW16711   1.841   3.394  16.966  0.1277 -0.0049 -0.1065
 1692SOL    HW116712   1.893   3.473  16.955 -0.7706  0.1573 -3.1365
 1692SOL    HW216713   1.760   3.424  16.924  0.5758  0.2954 -0.7478
 1693SOL     OW16714   4.472   4.167   3.416  0.2043  0.1462 -0.5162
 1693SOL    HW116715   4.425   4.251   3.415 -0.7212 -0.3519  0.3681
 1693SOL    HW216716   4.520   4.184   3.497 -0.3682  1.0091 -0.3570
 1694SOL     OW16717   2.860   1.579   2.617  0.2933 -0.1468  0.2926
 1694SOL    HW116718   2.865   1.674   2.603  0.1446  0.2448  2.9857
 1694SOL    HW216719   2.944   1.567   2.660  1.4495  0.6328 -1.7110
 1695SOL     OW16720   2.495   0.970   8.546  0.1391  0.5228 -0.1359
 1695SOL    HW116721   2.560   0.931   8.488  0.7687 -1.0509  1.6050
 1695SOL    HW216722   2.530   1.059   8.557 -0.4558  0.7242  0.1235
 1696SOL     OW16723   0.193   4.556   8.443  0.3309 -0.3195  0.4576
 1696SOL    HW116724   0.224   4.524   8.359 -0.6706  0.3468 -0.1668
 1696SOL    HW216725   0.268   4.598   8.485  0.4182 -0.3595  0.3397
 1697SOL     OW16726   3.304   4.554  13.732 -0.1119  0.9642  0.0698
 1697SOL    HW116727   3.306   4.572  13.826 -0.5923 -1.0026  0.4667
 1697SOL    HW216728   3.209   4.555  13.724  0.0971 -0.0610 -2.4191
 1698SOL     OW16729   3.011   1.581  11.752 -0.0117  0.5895  0.3876
 1698SOL    HW116730   2.936   1.617  11.801  1.0056  1.2231  1.4670
 1698SOL    HW216731   3.058   1.662  11.735  2.3745 -1.2067 -1.5205
 1699SOL     OW16732   2.324   2.668   2.568 -0.4046  0.0000 -0.1653
 1699SOL    HW116733   2.413   2.634   2.573  0.4233  1.5716 -4.0214
 1699SOL    HW216734   2.297   2.650   2.658  0.7815  2.1684  0.6019
 1700SOL     OW16735   4.622   1.658   2.320  0.1851  0.2328 -0.0046
 1700SOL    HW116736   4.618   1.661   2.415  1.4269  0.3704  0.0486
 1700SOL    HW216737   4.590   1.568   2.310  1.0959 -0.2909  1.8130
 1701SOL     OW16738   1.979   4.416   3.773  0.1368 -0.2358  0.0545
 1701SOL    HW116739   2.048   4.353   3.793  1.8495  1.9013  0.9658
 1701SOL    HW216740   1.981   4.466   3.855  1.4863  0.0906 -0.1782
 1702SOL     OW16741   0.778   3.606   8.951 -0.1922 -0.7379 -0.5530
 1702SOL    HW116742   0.850   3.652   8.993  0.2552 -0.7791 -1.2744
 1702SOL    HW216743   0.785   3.660   8.872  0.9690  0.6101  0.4936
 1703SOL     OW16744   2.454   1.963   7.968  0.1467 -0.2099 -0.1710
 1703SOL    HW116745   2.471   1.887   7.912 -0.0750  0.1747 -0.7542
 1703SOL    HW216746   2.377   2.003   7.928  1.4734  2.6602  0.2140
 1704SOL     OW16747   1.096   2.161   8.473 -0.2654  1.2027 -0.6711
 1704SOL    HW116748   1.048   2.151   8.391 -0.5507 -1.4672 -0.1494
 1704SOL    HW216749   1.185   2.183   8.444  0.5167  0.9357  1.5229
 1705SOL     OW16750   3.404   2.479   8.545 -0.3621 -0.0790 -0.2755
 1705SOL    HW116751   3.445   2.563   8.525  0.3782 -0.7453 -1.5874
 1705SOL    HW216752   3.386   2.447   8.456 -1.2424  0.9292 -0.4550
 1706SOL     OW16753   2.070   3.835  11.384  0.0762 -0.0181  0.2236
 1706SOL    HW116754   2.066   3.777  11.308 -0.3806  1.1386 -0.6270
 1706SOL    HW216755   2.015   3.908  11.357  0.1162  0.7102  2.1288
 1707SOL     OW16756   4.011   3.809   2.009  0.6739 -0.4043 -0.2105
 1707SOL    HW116757   3.956   3.854   1.945  0.7393 -0.9165 -0.6212
 1707SOL    HW216758   4.100   3.844   2.001  0.7970 -0.3154  1.5406
 1708SOL     OW16759   0.244   0.233   3.833  0.0189  0.2085  0.2164
 1708SOL    HW116760   0.159   0.203   3.865  0.9300 -2.7532 -0.1668
 1708SOL    HW216761   0.293   0.242   3.915 -0.3980  1.6894  0.2952
 1709SOL     OW16762   1.228   1.688   3.409  0.1290  0.3988 -0.0494
 1709SOL    HW116763   1.292   1.625   3.377  1.6778  1.9575 -0.0156
 1709SOL    HW216764   1.151   1.641   3.378 -0.1307  2.5608 -2.6782
 1710SOL     OW16765   4.282   0.742   8.462 -0.0157 -0.1004 -0.2538
 1710SOL    HW116766   4.360   0.694   8.437 -0.5255 -0.4734 -1.1070
 1710SOL    HW216767   4.307   0.785   8.544  0.5785 -1.2375  0.1546
 1711SOL     OW16768   2.313   0.720   1.645 -1.0534  0.0708 -0.1707
 1711SOL    HW116769   2.324   0.625   1.647  0.5752  0.2623  0.2298
 1711SOL    HW216770   2.391   0.744   1.595 -0.6629 -0.8245 -0.0000
 1712SOL     OW16771   3.132   1.979   4.730 -0.1459 -0.4731  0.2292
 1712SOL    HW116772   3.221   1.946   4.717 -0.5860 -0.8882 -1.8704
 1712SOL    HW216773   3.147   2.073   4.725  0.3256 -0.6149 -1.1486
 1713SOL     OW16774   4.544   2.448   2.652 -0.0585  0.1572 -0.1498
 1713SOL    HW116775   4.457   2.408   2.657  0.5316 -1.0059  0.5118
 1713SOL    HW216776   4.592   2.420   2.729  0.5255  0.3400 -0.4437
 1714SOL     OW16777   4.348   2.019  17.460  0.5092  0.1902  0.8141
 1714SOL    HW116778   4.402   2.001  17.537  1.0280 -0.0761  0.3863
 1714SOL    HW216779   4.289   2.088  17.492  1.2083  0.3013  1.8441
 1715SOL     OW16780   3.448   2.808   8.949  0.5632  0.1361 -0.1619
 1715SOL    HW116781   3.381   2.866   8.912  1.1062  0.7538 -0.1982
 1715SOL    HW216782   3.421   2.730   8.901  0.6006  0.7481 -1.2009
 1716SOL     OW16783   0.101   3.563   7.400  0.1441 -0.3291  0.9254
 1716SOL    HW116784   0.007   3.577   7.410 -0.0525 -2.1770  1.8273
 1716SOL    HW216785   0.114   3.484   7.453 -2.6068 -0.8284  0.8882
 1717SOL     OW16786   1.944   3.696  15.574  0.1186 -0.0018  0.5826
 1717SOL    HW116787   1.944   3.601  15.563  0.2341  0.0206  0.3829
 1717SOL    HW216788   2.025   3.718  15.619 -0.5302  0.2928  1.5871
 1718SOL     OW16789   3.430   2.756   9.576 -0.2830 -0.2631  0.0527
 1718SOL    HW116790   3.488   2.825   9.610 -1.5616  0.8097  0.0448
 1718SOL    HW216791   3.475   2.717   9.500  0.9630  0.2514  0.5168
 1719SOL     OW16792   0.881   2.465  10.987  0.0587 -0.0181 -0.1909
 1719SOL    HW116793   0.804   2.492  10.936  0.9360 -0.0212 -1.5142
 1719SOL    HW216794   0.928   2.548  10.987  1.8037 -0.9975 -2.4650
 1720SOL     OW16795   3.134   1.922   7.642  0.2609 -0.3241  0.7558
 1720SOL    HW116796   3.110   1.830   7.656  0.7657 -0.7287 -1.0391
 1720SOL    HW216797   3.050   1.963   7.665 -2.0042 -3.8704 -1.1389
 1721SOL     OW16798   2.849   3.958   2.619  0.6419  0.7348 -0.2378
 1721SOL    HW116799   2.855   3.878   2.670 -0.5507  1.2034  0.6286
 1721SOL    HW216800   2.803   4.016   2.680  1.6393  0.2675  0.9567
 1722SOL     OW16801   4.504   3.546   2.260 -0.1866 -0.4561  0.0319
 1722SOL    HW116802   4.553   3.492   2.323  0.8086  0.1726 -0.2058
 1722SOL    HW216803   4.443   3.595   2.315 -0.1923 -1.1662  0.6621
 1723SOL     OW16804   4.432   1.482   4.077 -0.0300  0.1223 -0.0877
 1723SOL    HW116805   4.400   1.568   4.103  0.7229  0.5689 -0.6520
 1723SOL    HW216806   4.354   1.430   4.098  1.2459 -0.4682  3.2120
 1724SOL     OW16807   3.548   1.031  15.202  0.1649  0.3004  0.2241
 1724SOL    HW116808   3.638   0.998  15.198 -0.6234 -1.8826  0.2744
 1724SOL    HW216809   3.510   0.972  15.268 -0.1187  0.8917  0.5849
 1725SOL     OW16810   1.696   0.557   6.834  0.5727 -0.4575  0.1779
 1725SOL    HW116811   1.619   0.598   6.874 -0.1277 -2.6436  1.0457
 1725SOL    HW216812   1.760   0.625   6.854  0.6921 -1.3692  2.9141
 1726SOL     OW16813   3.636   3.792   8.224 -0.6889 -0.2507 -0.0486
 1726SOL    HW116814   3.599   3.781   8.311 -1.5902 -0.8018 -0.4988
 1726SOL    HW216815   3.635   3.886   8.203  2.6115 -0.5562 -1.6738
 1727SOL     OW16816   4.374   4.247  15.095 -0.1301 -0.2852 -0.1916
 1727SOL    HW116817   4.323   4.238  15.014 -0.4617 -0.1159  0.0009
 1727SOL    HW216818   4.456   4.257  15.046 -0.1935  0.3138 -0.1756
 1728SOL     OW16819   1.295   3.054   4.559  0.2409 -0.1087  0.8976
 1728SOL    HW116820   1.260   3.136   4.525  0.6373 -0.3789 -0.1675
 1728SOL    HW216821   1.304   3.000   4.481  2.5051 -0.3077  1.3077
 1729SOL     OW16822   3.285   0.881   7.105  0.3682  0.3550 -0.0581
 1729SOL    HW116823   3.255   0.960   7.151  0.8710 -0.0592  0.9945
 1729SOL    HW216824   3.265   0.817   7.174  0.0443  0.1515 -0.3397
 1730SOL     OW16825   3.432   3.680   8.601  0.5489 -0.8092 -0.5776
 1730SOL    HW116826   3.388   3.663   8.518 -0.2528  1.7767 -0.6712
 1730SOL    HW216827   3.478   3.761   8.583  1.8091 -1.1650  1.0675
 1731SOL     OW16828   1.644   2.914   0.187 -0.6676  0.0989  0.4170
 1731SOL    HW116829   1.716   2.924   0.248  1.7707  2.0704 -2.7729
 1731SOL    HW216830   1.662   2.980   0.120  0.6008  1.6274  2.3101
 1732SOL     OW16831   1.029   4.579  16.809 -0.3421 -0.4340 -0.3787
 1732SOL    HW116832   1.121   4.560  16.794 -0.4747 -0.5371 -1.0485
 1732SOL    HW216833   0.994   4.490  16.804  0.4143 -0.7840  0.5791
 1733SOL     OW16834   3.966   1.262   1.669 -0.5703 -0.3813  0.3372
 1733SOL    HW116835   3.959   1.182   1.721  2.0492 -0.5484  0.4282
 1733SOL    HW216836   3.929   1.228   1.588  2.3653 -0.1522 -1.1021
 1734SOL     OW16837   3.157   3.969  11.710  0.2578  0.1926  0.3046
 1734SOL    HW116838   3.200   3.998  11.791  0.9187  1.6343 -0.5773
 1734SOL    HW216839   3.098   4.043  11.695  1.3610  1.1270  0.5432
 1735SOL     OW16840   3.853   3.174   1.410 -0.5366 -0.1564  0.1500
 1735SOL    HW116841   3.768   3.199   1.373 -1.1505  2.1957  3.1080
 1735SOL    HW216842   3.880   3.255   1.456  0.5510 -0.3220 -0.2002
 1736SOL     OW16843   2.792   0.445   1.021  0.7514  0.1013 -0.0691
 1736SOL    HW116844   2.775   0.368   0.966  0.4974  0.4151 -0.4323
 1736SOL    HW216845   2.880   0.459   0.985  1.0427 -1.2083  0.1211
 1737SOL     OW16846   3.075   2.511  10.677 -0.4661 -0.7653  0.5476
 1737SOL    HW116847   3.111   2.599  10.669 -1.7001 -0.1549  1.7187
 1737SOL    HW216848   3.125   2.489  10.755 -3.7641  0.6746  3.0676
 1738SOL     OW16849   3.041   0.639  16.949 -0.2530  0.1644  0.3294
 1738SOL    HW116850   3.080   0.585  16.880 -0.9648  0.0949 -0.0246
 1738SOL    HW216851   3.094   0.719  16.943 -3.0587  2.1924  2.4883
 1739SOL     OW16852   0.539   4.604  10.483  0.8861 -0.1794  0.5038
 1739SOL    HW116853   0.508   4.515  10.466 -0.3596  0.0841  1.4300
 1739SOL    HW216854   0.593   4.586  10.560  3.6456 -2.2264 -1.9034
 1740SOL     OW16855   1.454   1.573  14.476  0.0222  0.0610  0.2185
 1740SOL    HW116856   1.488   1.650  14.522 -0.7627 -0.0495  0.9755
 1740SOL    HW216857   1.516   1.505  14.502  0.7510  1.0686  1.1040
 1741SOL     OW16858   2.303   0.765   4.567  0.1250  0.5374  0.0572
 1741SOL    HW116859   2.245   0.714   4.510 -2.6763  1.6164  1.9386
 1741SOL    HW216860   2.255   0.791   4.646  1.8988 -1.4240  1.7843
 1742SOL     OW16861   4.094   0.055   6.745  0.7319  0.1116  0.5012
 1742SOL    HW116862   4.090   4.711   6.789 -0.0234 -0.2123 -0.1871
 1742SOL    HW216863   4.132   0.115   6.809 -0.6728 -0.5365  1.9424
 1743SOL     OW16864   2.173   4.115   8.857  0.1612 -0.3340 -0.9060
 1743SOL    HW116865   2.216   4.200   8.849  0.0793 -0.1469  0.7898
 1743SOL    HW216866   2.083   4.145   8.844 -0.3461 -1.1804  0.6308
 1744SOL     OW16867   2.770   1.823   4.740 -0.0322  0.1691 -0.5724
 1744SOL    HW116868   2.678   1.800   4.747 -0.2268  0.7709 -1.1744
 1744SOL    HW216869   2.765   1.917   4.728  2.7421  0.3620 -0.3414
 1745SOL     OW16870   2.296   4.352   8.816 -0.2016  0.1369  0.5674
 1745SOL    HW116871   2.371   4.372   8.871 -1.1175  1.4451  1.3610
 1745SOL    HW216872   2.328   4.379   8.730 -1.1489 -1.6479 -0.3617
 1746SOL     OW16873   0.949   1.056   4.192 -0.2480 -0.4980 -0.1075
 1746SOL    HW116874   0.882   1.074   4.257  0.8559  2.5491  0.1379
 1746SOL    HW216875   1.009   0.993   4.232  0.8066  1.1524  0.9008
 1747SOL     OW16876   0.035   2.008   9.139 -0.1983 -0.3280  0.1578
 1747SOL    HW116877   0.063   1.951   9.211  1.1731  0.0165 -0.0979
 1747SOL    HW216878   4.721   2.076   9.178 -0.0692  0.4252 -0.9607
 1748SOL     OW16879   1.724   3.288   9.884  0.0355  0.1298  0.1448
 1748SOL    HW116880   1.729   3.239   9.802 -1.1858  0.7859 -0.3252
 1748SOL    HW216881   1.660   3.226   9.922 -0.0297  1.3350  1.9832
 1749SOL     OW16882   3.814   1.234   1.424  0.1822  0.4223  0.2402
 1749SOL    HW116883   3.776   1.159   1.469 -0.7668  1.0279  0.4497
 1749SOL    HW216884   3.741   1.265   1.370 -0.2766 -1.6553 -0.2975
 1750SOL     OW16885   2.184   3.165   9.225 -0.2168 -0.7758  0.2408
 1750SOL    HW116886   2.250   3.116   9.275  0.7004 -1.3654 -1.5692
 1750SOL    HW216887   2.234   3.233   9.180 -0.8419  1.0502  2.2926
 1751SOL     OW16888   2.088   1.703   7.528 -0.1485 -0.3172 -0.2110
 1751SOL    HW116889   1.997   1.703   7.499 -0.5713  0.3251  1.1404
 1751SOL    HW216890   2.132   1.767   7.472  1.4041 -0.1157  1.2450
 1752SOL     OW16891   3.945   1.745   4.217 -0.0382  0.0247 -0.5129
 1752SOL    HW116892   3.998   1.799   4.276 -0.5509  0.0046 -0.0300
 1752SOL    HW216893   3.979   1.658   4.236 -1.8515 -0.9980 -1.9701
 1753SOL     OW16894   4.115   0.048  12.736  0.5498  0.1698 -0.1490
 1753SOL    HW116895   4.050   0.119  12.727 -3.1564 -3.2263 -0.1484
 1753SOL    HW216896   4.186   0.096  12.778  1.1329 -1.3948  0.6057
 1754SOL     OW16897   0.792   3.292   2.353  0.0686 -0.1760  0.6448
 1754SOL    HW116898   0.737   3.355   2.306  0.2379 -0.8590 -0.4837
 1754SOL    HW216899   0.753   3.282   2.440 -2.0777  1.2605 -0.1316
 1755SOL     OW16900   2.302   3.517   6.416 -0.1619 -0.2113 -0.7670
 1755SOL    HW116901   2.382   3.480   6.456  0.1966  2.9151  1.3771
 1755SOL    HW216902   2.302   3.601   6.461  2.0016 -0.0036 -1.1256
 1756SOL     OW16903   2.598   2.519   8.051  0.7257 -0.2121 -0.2193
 1756SOL    HW116904   2.652   2.594   8.028 -0.6162  0.4422 -1.1902
 1756SOL    HW216905   2.556   2.553   8.130 -0.2990 -2.0970  0.0600
 1757SOL     OW16906   4.487   0.027   0.883 -0.1187 -0.0099  0.8560
 1757SOL    HW116907   4.415   0.070   0.929  0.1088  0.4878  0.7406
 1757SOL    HW216908   4.540   4.727   0.951  0.8942 -2.0406 -1.1409
 1758SOL     OW16909   3.186   1.565   1.521  0.0904 -0.2184  0.0943
 1758SOL    HW116910   3.281   1.554   1.524  0.3021  0.7307 -2.9159
 1758SOL    HW216911   3.189   1.646   1.469 -0.0604 -0.2835 -0.0161
 1759SOL     OW16912   0.653   4.245  16.099  0.4837 -0.2751  0.2313
 1759SOL    HW116913   0.611   4.317  16.146  4.0748  1.8416  0.2120
 1759SOL    HW216914   0.672   4.294  16.019  1.2154 -0.8154  0.0688
 1760SOL     OW16915   4.408   4.136   7.323 -0.1170  0.2979 -0.1668
 1760SOL    HW116916   4.313   4.148   7.316 -0.2417 -0.7868 -0.2587
 1760SOL    HW216917   4.409   4.044   7.347 -2.1148 -0.1068 -1.5722
 1761SOL     OW16918   0.717   1.608  16.050  0.0182  0.0525  0.9788
 1761SOL    HW116919   0.737   1.701  16.062 -0.6883  0.2259  0.8380
 1761SOL    HW216920   0.782   1.550  16.088 -1.0808 -1.6546  0.2538
 1762SOL     OW16921   4.696   0.537   1.533  0.2348 -0.2248 -0.2502
 1762SOL    HW116922   4.706   0.630   1.555 -0.3185  0.7009 -3.8962
 1762SOL    HW216923   4.614   0.549   1.485  0.5327  1.1989 -0.4219
 1763SOL     OW16924   4.260   3.212   4.671 -0.4304  0.9078 -0.2696
 1763SOL    HW116925   4.195   3.206   4.742  2.0869 -2.0895  1.7756
 1763SOL    HW216926   4.224   3.140   4.620 -0.7339  2.3551 -2.0803
 1764SOL     OW16927   4.630   2.397  14.655  0.0669 -0.5929  0.1614
 1764SOL    HW116928   4.572   2.329  14.620 -0.6926  0.5040 -0.7297
 1764SOL    HW216929   4.582   2.446  14.722  0.9986  0.7971 -0.1976
 1765SOL     OW16930   1.360   3.755   2.833 -0.0855  0.2314  0.1671
 1765SOL    HW116931   1.287   3.696   2.817 -0.3435  0.6464 -0.1937
 1765SOL    HW216932   1.438   3.706   2.806  0.6302  1.5973 -0.2403
 1766SOL     OW16933   0.621   2.829   3.731  0.2327 -0.3708  0.7016
 1766SOL    HW116934   0.637   2.903   3.673  0.2918 -0.9007  0.0322
 1766SOL    HW216935   0.644   2.871   3.814  0.7777  2.6002 -0.9476
 1767SOL     OW16936   4.129   0.701  10.515  0.4623 -0.3215 -0.0733
 1767SOL    HW116937   4.144   0.651  10.595 -0.4294  1.2573  1.0778
 1767SOL    HW216938   4.138   0.637  10.445  0.0078 -0.8908  0.3836
 1768SOL     OW16939   3.749   0.479   5.412 -0.5196  0.0378  0.0976
 1768SOL    HW116940   3.750   0.405   5.473  0.4484  0.5594  0.7292
 1768SOL    HW216941   3.684   0.450   5.348 -0.1575  1.2673 -0.8202
 1769SOL     OW16942   0.020   3.482  12.847  0.4468  0.3459 -0.7052
 1769SOL    HW116943   0.034   3.443  12.760 -1.2226  1.4349 -1.4477
 1769SOL    HW216944   4.670   3.463  12.870  1.7716 -2.0964  2.5573
 1770SOL     OW16945   4.183   1.680   7.189 -0.0377 -0.1819 -0.2496
 1770SOL    HW116946   4.107   1.640   7.231  0.4546  2.1916  2.8618
 1770SOL    HW216947   4.250   1.639   7.244 -1.1703 -1.3288  0.2603
 1771SOL     OW16948   3.162   4.233   7.777 -0.0218 -0.3834 -0.4086
 1771SOL    HW116949   3.228   4.229   7.708 -0.5032 -2.7295 -0.7412
 1771SOL    HW216950   3.133   4.144   7.796 -2.6755  0.4020 -0.7065
 1772SOL     OW16951   1.012   3.577  15.199 -0.0311 -0.3572  0.5582
 1772SOL    HW116952   1.053   3.630  15.131  0.1617 -2.3368 -0.8745
 1772SOL    HW216953   0.923   3.570  15.164  0.1158  0.4624  0.0148
 1773SOL     OW16954   3.772   3.223   8.804  1.0096 -0.5615 -0.7514
 1773SOL    HW116955   3.843   3.246   8.744  2.3108  1.2322  1.4681
 1773SOL    HW216956   3.821   3.193   8.881  0.4495  0.5487  0.0417
 1774SOL     OW16957   1.193   2.517  11.445  0.1147 -0.4639  0.0994
 1774SOL    HW116958   1.162   2.469  11.522  3.1091 -0.9176  0.9980
 1774SOL    HW216959   1.277   2.474  11.427  0.5166  0.5580 -0.4263
 1775SOL     OW16960   1.344   3.995  10.093 -0.3134 -0.0614 -0.4092
 1775SOL    HW116961   1.248   4.000  10.096 -0.4531 -2.5553 -0.8201
 1775SOL    HW216962   1.359   3.901  10.094  1.4509  0.2516  1.2969
 1776SOL     OW16963   1.694   1.032  14.311 -0.4305 -1.0729 -0.2245
 1776SOL    HW116964   1.637   1.000  14.381  0.0149  0.0975  0.6677
 1776SOL    HW216965   1.671   1.124  14.296 -0.0311 -0.6589  1.6380
 1777SOL     OW16966   0.085   0.209  12.454  0.5676  0.1903  0.0025
 1777SOL    HW116967   0.057   0.279  12.395 -0.2798 -1.6753 -1.8019
 1777SOL    HW216968   0.078   0.126  12.406  3.0103  1.4592 -2.5460
 1778SOL     OW16969   0.327   3.805   5.835 -0.0328 -0.2742  0.0783
 1778SOL    HW116970   0.262   3.750   5.792 -1.0592  0.3995  0.7652
 1778SOL    HW216971   0.378   3.844   5.764 -1.2742  0.5771 -0.3662
 1779SOL     OW16972   1.015   1.294   7.355  0.0890  0.2791  0.8860
 1779SOL    HW116973   0.985   1.291   7.264  3.2534 -1.4117 -0.0783
 1779SOL    HW216974   1.021   1.201   7.377  0.2398  0.3204  1.0165
 1780SOL     OW16975   1.958   1.322   3.898 -0.2375 -0.0289  0.0596
 1780SOL    HW116976   2.046   1.343   3.866  0.5533 -0.3008  2.0449
 1780SOL    HW216977   1.907   1.333   3.817 -0.6395  1.4335  0.5037
 1781SOL     OW16978   3.290   3.917   2.218 -0.5450 -0.6499 -0.3608
 1781SOL    HW116979   3.218   3.855   2.221  1.2398 -2.7324 -0.5594
 1781SOL    HW216980   3.348   3.868   2.276  0.1359 -3.4033 -3.3621
 1782SOL     OW16981   0.042   0.475  13.402  0.1703  0.7358 -0.0544
 1782SOL    HW116982   0.016   0.384  13.389  1.4401  0.5566 -1.3564
 1782SOL    HW216983   0.031   0.462  13.496  1.6370  0.4525  0.0726
 1783SOL     OW16984   2.974   3.287   0.436 -0.2832 -0.1415  0.3222
 1783SOL    HW116985   2.932   3.373   0.427 -1.5081 -1.0040 -2.3526
 1783SOL    HW216986   3.064   3.316   0.422 -0.7414  0.8216 -0.6485
 1784SOL     OW16987   4.262   3.541   8.836 -0.8202 -1.1053 -0.4547
 1784SOL    HW116988   4.333   3.545   8.900 -1.5067  1.1441  0.1942
 1784SOL    HW216989   4.276   3.622   8.786 -0.2353 -0.4686  0.7141
 1785SOL     OW16990   2.019   0.604  13.590  0.3681  0.2006  0.0704
 1785SOL    HW116991   2.045   0.694  13.612  1.0645 -0.0260  0.1798
 1785SOL    HW216992   2.092   0.548  13.614 -0.8322 -1.2007  0.4555
 1786SOL     OW16993   1.062   2.612   7.648  0.1816  0.1386  0.2404
 1786SOL    HW116994   1.117   2.577   7.717  1.6141  2.7090  0.4143
 1786SOL    HW216995   0.983   2.635   7.697 -0.5838 -2.3510  0.1727
 1787SOL     OW16996   0.637   3.905   9.415  0.3633 -0.2589 -0.7705
 1787SOL    HW116997   0.724   3.935   9.442  0.3584 -1.0204  0.0910
 1787SOL    HW216998   0.587   3.930   9.493  1.4400  2.5319 -0.9629
 1788SOL     OW16999   2.277   4.209   8.174  0.1698  0.3303  0.5155
 1788SOL    HW117000   2.303   4.149   8.103  1.2268  1.0804  0.2687
 1788SOL    HW217001   2.189   4.231   8.143 -1.2654 -3.6215  1.7707
 1789SOL     OW17002   0.652   3.220   8.014 -0.4607 -0.5242  0.0057
 1789SOL    HW117003   0.669   3.154   8.082  1.2374  0.3313  0.4137
 1789SOL    HW217004   0.658   3.161   7.939 -0.5739 -0.5621  0.0273
 1790SOL     OW17005   1.334   0.066   5.757  0.6789 -0.1816 -0.0303
 1790SOL    HW117006   1.357   0.029   5.672 -0.4387 -0.8283 -0.0627
 1790SOL    HW217007   1.265   0.130   5.740  0.1771 -0.9671 -0.9458
 1791SOL     OW17008   3.876   0.092   9.550 -0.2405  0.1744 -0.2560
 1791SOL    HW117009   3.823   0.047   9.615  0.8448 -0.7759 -0.0305
 1791SOL    HW217010   3.962   0.050   9.557  0.3631  1.3009 -0.8006
 1792SOL     OW17011   3.125   0.793   4.123  0.4932  0.1969 -0.6435
 1792SOL    HW117012   3.097   0.720   4.068  1.0811  1.4609 -2.6264
 1792SOL    HW217013   3.134   0.745   4.206  1.5110 -2.0760 -2.0739
 1793SOL     OW17014   0.134   2.620   6.312 -0.2757 -0.1424 -0.5455
 1793SOL    HW117015   0.148   2.591   6.222  0.9158  0.2789 -0.5029
 1793SOL    HW217016   0.156   2.541   6.362  0.0159  0.1159 -0.2631
 1794SOL     OW17017   0.179   4.694   4.613  0.3216  0.0153  0.3914
 1794SOL    HW117018   0.174   4.645   4.531 -0.2972  0.4173  0.1891
 1794SOL    HW217019   0.113   0.023   4.607  1.0542  0.6408 -0.3848
 1795SOL     OW17020   3.484   4.636  16.223  0.0360  0.7752 -0.2758
 1795SOL    HW117021   3.471   4.712  16.278 -1.9760  0.2258 -0.0192
 1795SOL    HW217022   3.515   4.577  16.291  1.6897  1.3037 -0.5688
 1796SOL     OW17023   3.473   0.933   8.145 -0.1790 -0.9046  0.3224
 1796SOL    HW117024   3.564   0.903   8.155  1.0919  2.4024 -1.3299
 1796SOL    HW217025   3.448   0.899   8.059 -2.3949  0.4761  0.4042
 1797SOL     OW17026   1.222   0.957   2.420 -0.0383  0.3931 -0.1983
 1797SOL    HW117027   1.229   1.052   2.414  3.2853  0.0384 -2.1368
 1797SOL    HW217028   1.131   0.949   2.450  0.5197 -0.4910  1.2382
 1798SOL     OW17029   0.120   3.300  11.966  0.1299  0.1697 -0.1331
 1798SOL    HW117030   0.186   3.303  11.897 -1.3560  0.7279 -1.5310
 1798SOL    HW217031   0.134   3.214  12.005 -0.3596  0.3567  0.4652
 1799SOL     OW17032   2.300   1.923   0.108 -0.0626 -0.1885  0.1305
 1799SOL    HW117033   2.207   1.941   0.093 -0.0814  0.2085  0.7539
 1799SOL    HW217034   2.331   2.008   0.078  0.4250 -0.1145  0.8627
 1800SOL     OW17035   0.706   1.281   4.152  0.1504 -0.1603 -0.0875
 1800SOL    HW117036   0.774   1.283   4.084  0.8618  1.3968  0.6541
 1800SOL    HW217037   0.757   1.331   4.216 -0.8984  1.2398 -0.3577
 1801SOL     OW17038   2.831   2.605   7.708 -0.5456 -0.1490 -0.7145
 1801SOL    HW117039   2.750   2.628   7.754 -1.1721 -0.8948 -1.4325
 1801SOL    HW217040   2.857   2.689   7.672 -0.7302  0.7093  1.1645
 1802SOL     OW17041   0.568   0.143   9.165 -0.6463 -0.3793  0.0828
 1802SOL    HW117042   0.558   0.133   9.260  1.2551  0.1305  0.3296
 1802SOL    HW217043   0.610   0.061   9.140 -1.9204 -0.3762 -2.1135
 1803SOL     OW17044   3.051   2.875   9.006  0.2901 -0.7462 -0.5694
 1803SOL    HW117045   2.963   2.885   8.968  0.0857  0.7266  0.2627
 1803SOL    HW217046   3.099   2.913   8.933 -2.4714  0.8728 -1.5622
 1804SOL     OW17047   1.118   2.492   8.528 -0.0941  0.4753 -0.5952
 1804SOL    HW117048   1.104   2.433   8.602  0.0294  0.3327 -0.6876
 1804SOL    HW217049   1.204   2.459   8.505 -0.1801 -0.2991  0.2138
 1805SOL     OW17050   4.542   0.855   6.477 -0.0735  0.7124  0.2930
 1805SOL    HW117051   4.482   0.853   6.402  2.2229 -0.2976 -1.5117
 1805SOL    HW217052   4.483   0.847   6.552  0.3597 -2.4012  0.3074
 1806SOL     OW17053   3.717   0.672   6.846 -0.1822  0.9491  0.0255
 1806SOL    HW117054   3.642   0.708   6.893 -0.2600 -0.5718  1.0540
 1806SOL    HW217055   3.704   0.724   6.766  1.9611  2.5180  0.6986
 1807SOL     OW17056   4.460   2.533  11.847  0.3508 -0.4183  0.1697
 1807SOL    HW117057   4.459   2.459  11.908  0.6109 -0.8472 -0.3412
 1807SOL    HW217058   4.554   2.532  11.831  0.4310 -0.2173  0.6406
 1808SOL     OW17059   0.114   2.306  14.530 -0.3523  0.0561 -0.5310
 1808SOL    HW117060   0.050   2.358  14.580  1.7579 -0.1525  2.3812
 1808SOL    HW217061   0.192   2.361  14.524 -0.7408  0.5919 -0.6875
 1809SOL     OW17062   0.396   4.151   9.504 -0.2815 -0.0390  0.2022
 1809SOL    HW117063   0.303   4.142   9.524 -0.3935 -2.7722 -1.5114
 1809SOL    HW217064   0.394   4.199   9.421 -1.9137  0.2626  0.4305
 1810SOL     OW17065   2.717   1.381  15.465 -0.4796  0.3165 -0.7741
 1810SOL    HW117066   2.623   1.365  15.472  0.0630 -2.5056  0.0091
 1810SOL    HW217067   2.721   1.441  15.390  0.0501 -1.6055 -2.2647
 1811SOL     OW17068   1.656   0.080  17.574  0.2998 -0.0776  0.0660
 1811SOL    HW117069   1.590   0.036  17.521  0.2599  1.7537 -1.4423
 1811SOL    HW217070   1.676   0.157  17.519  1.3743 -0.0278  0.5148
 1812SOL     OW17071   0.713   1.001  10.694  0.1702 -0.0474  0.1139
 1812SOL    HW117072   0.672   1.071  10.643  1.3859 -0.0570 -0.8748
 1812SOL    HW217073   0.679   1.028  10.780  0.7983  0.6835  0.1330
 1813SOL     OW17074   2.085   4.687   4.416 -0.6123 -0.3707 -0.6388
 1813SOL    HW117075   2.117   0.024   4.371  0.2511  0.2451  1.0478
 1813SOL    HW217076   2.034   4.723   4.488 -0.7235  0.7787 -1.2965
 1814SOL     OW17077   3.372   0.620   4.328  0.1222 -0.0803 -0.4237
 1814SOL    HW117078   3.367   0.653   4.417  0.0397  1.1007 -0.8579
 1814SOL    HW217079   3.462   0.590   4.315 -0.3345 -1.0590 -1.3236
 1815SOL     OW17080   1.513   1.692   7.793  0.6331  0.4385  0.2359
 1815SOL    HW117081   1.529   1.777   7.833  1.6728 -0.4055  1.6029
 1815SOL    HW217082   1.444   1.709   7.728 -1.6594  2.8731  3.3370
 1816SOL     OW17083   2.710   0.854   0.201  0.8746  0.3311 -0.5259
 1816SOL    HW117084   2.776   0.911   0.163  0.6026  0.5763 -0.6311
 1816SOL    HW217085   2.697   0.781   0.140 -0.1246 -0.4793  0.6481
 1817SOL     OW17086   2.932   4.234   8.439 -0.0642  0.1241 -0.3920
 1817SOL    HW117087   2.931   4.160   8.378  0.1990  0.0427 -0.2981
 1817SOL    HW217088   2.964   4.299   8.376 -0.9500  3.0675  2.1762
 1818SOL     OW17089   1.043   2.158   2.273  0.2494  0.4156  0.5522
 1818SOL    HW117090   1.047   2.063   2.282  0.7445  0.2576 -1.1756
 1818SOL    HW217091   0.956   2.179   2.308 -0.6550  0.3891 -1.6588
 1819SOL     OW17092   4.123   1.212   7.905 -0.1348 -0.7851  0.2152
 1819SOL    HW117093   4.029   1.213   7.888 -1.0604  0.3753  5.4723
 1819SOL    HW217094   4.114   1.221   8.000  1.0208  0.2314  0.2320
 1820SOL     OW17095   0.223   0.154  15.713  0.0902  0.2828 -0.1786
 1820SOL    HW117096   0.259   0.204  15.640  1.2691 -0.7231 -0.2914
 1820SOL    HW217097   0.243   0.070  15.671 -1.3275 -1.5269  2.7236
 1821SOL     OW17098   2.567   0.904   6.403 -0.4975  0.5898 -0.3885
 1821SOL    HW117099   2.482   0.861   6.415  0.4253 -0.7907  1.2373
 1821SOL    HW217100   2.579   0.950   6.486 -3.2335 -0.1641  0.4340
 1822SOL     OW17101   1.704   2.476  15.311  0.2751 -0.1147  0.5081
 1822SOL    HW117102   1.747   2.528  15.243 -1.2252 -0.4062 -0.6830
 1822SOL    HW217103   1.725   2.531  15.386  0.3146 -0.0428  0.4440
 1823SOL     OW17104   1.674   0.984   4.682  0.1209 -0.6753  0.4259
 1823SOL    HW117105   1.682   0.968   4.588 -1.1127  1.7741 -0.1008
 1823SOL    HW217106   1.592   1.032   4.690  0.7569  1.0818 -3.5368
 1824SOL     OW17107   1.908   2.942  13.809 -0.0440  0.0356  0.3607
 1824SOL    HW117108   1.838   3.007  13.802 -1.6145 -1.6046  0.6674
 1824SOL    HW217109   1.889   2.896  13.728  2.1263 -0.4015  0.0960
 1825SOL     OW17110   0.720   2.813   3.072  0.0084 -0.6704  0.6050
 1825SOL    HW117111   0.801   2.849   3.036  0.6444 -2.2232  0.4913
 1825SOL    HW217112   0.726   2.839   3.164 -0.6436  1.7602 -0.0226
 1826SOL     OW17113   3.163   0.253  12.641 -0.4253  0.5395  0.7424
 1826SOL    HW117114   3.119   0.221  12.719 -1.0861  1.2234  0.6518
 1826SOL    HW217115   3.251   0.237  12.675 -1.0381  0.4029  2.2143
 1827SOL     OW17116   4.071   1.073   4.719  0.0372 -0.3777  0.4148
 1827SOL    HW117117   4.079   1.073   4.624  1.4025  0.3462  0.5360
 1827SOL    HW217118   4.063   1.167   4.739  0.3337 -0.0779 -0.8853
 1828SOL     OW17119   1.590   0.372   7.011  0.4585  0.0241  0.4909
 1828SOL    HW117120   1.639   0.414   6.940 -1.8635 -0.6074 -1.5142
 1828SOL    HW217121   1.518   0.435   7.010  0.4223 -0.0219  0.1491
 1829SOL     OW17122   2.829   0.159   5.533 -0.4236 -0.2782 -1.1488
 1829SOL    HW117123   2.778   0.220   5.479  0.9677  0.8611 -1.1659
 1829SOL    HW217124   2.907   0.145   5.480 -0.1751  1.3095 -1.2040
 1830SOL     OW17125   2.946   2.676  13.957  0.0590  0.0673 -0.0041
 1830SOL    HW117126   2.955   2.586  13.990 -0.9493  0.0613  0.2774
 1830SOL    HW217127   3.013   2.730  13.998 -0.8765  0.2447  1.3290
 1831SOL     OW17128   0.566   3.485   9.908  0.2481 -0.7727 -0.5011
 1831SOL    HW117129   0.580   3.418   9.841  0.1021 -1.8014  0.4902
 1831SOL    HW217130   0.473   3.503   9.894 -0.2011 -2.4673  0.4199
 1832SOL     OW17131   3.344   1.447   4.302 -0.5243  0.1193  0.4369
 1832SOL    HW117132   3.287   1.427   4.377 -0.4946  3.2236  1.2989
 1832SOL    HW217133   3.416   1.384   4.303 -0.4268  0.2275  0.2629
 1833SOL     OW17134   0.592   4.514   8.433  0.6264 -0.6529 -0.0733
 1833SOL    HW117135   0.522   4.560   8.479  0.3076 -0.6500 -0.5594
 1833SOL    HW217136   0.571   4.557   8.350 -0.1331  1.4034  1.1824
 1834SOL     OW17137   3.413   2.737   8.173  0.1036  0.2869  0.1823
 1834SOL    HW117138   3.326   2.699   8.185 -0.1016  1.0543  1.0688
 1834SOL    HW217139   3.394   2.830   8.182 -0.0799  0.2373  0.3115
 1835SOL     OW17140   4.284   2.126   4.044  0.5546  0.0735  0.1926
 1835SOL    HW117141   4.190   2.142   4.047  0.5496  0.4213 -1.7743
 1835SOL    HW217142   4.316   2.184   4.113 -1.5899  1.2358  0.1798
 1836SOL     OW17143   1.754   2.705  15.883  0.4458  0.3863 -0.0235
 1836SOL    HW117144   1.832   2.747  15.919  0.6286  1.1825 -1.3669
 1836SOL    HW217145   1.788   2.672  15.800 -2.6700 -2.6699 -0.1142
 1837SOL     OW17146   0.195   1.054   5.022  0.1346  0.0684 -0.1464
 1837SOL    HW117147   0.142   1.110   5.079  0.1339 -0.8564  0.7434
 1837SOL    HW217148   0.255   1.119   4.985 -0.9456  0.9845 -0.3039
 1838SOL     OW17149   3.137   1.405   3.914  0.0521 -0.0954  0.2517
 1838SOL    HW117150   3.129   1.396   3.819 -2.2326 -0.7522  0.4877
 1838SOL    HW217151   3.203   1.338   3.934  0.8417  0.2466 -1.2384
 1839SOL     OW17152   1.504   4.067  10.305  0.4035 -0.1330  0.0616
 1839SOL    HW117153   1.446   4.033  10.237 -1.2124 -1.2670  2.0159
 1839SOL    HW217154   1.537   3.994  10.357  1.0636  1.1970  1.5085
 1840SOL     OW17155   0.020   0.821   6.304 -0.1221 -0.0199 -0.2088
 1840SOL    HW117156   4.680   0.837   6.352  1.7185  0.5343  2.6971
 1840SOL    HW217157   0.073   0.769   6.365  0.1022 -1.5903 -1.7353
 1841SOL     OW17158   4.266   3.226   1.585  0.1465  0.8152 -0.1179
 1841SOL    HW117159   4.277   3.184   1.671  0.0976  0.3395 -0.3498
 1841SOL    HW217160   4.292   3.313   1.617  0.3623  0.5516  0.4359
 1842SOL     OW17161   2.955   3.741  16.071 -0.4907 -0.3711 -1.0938
 1842SOL    HW117162   2.939   3.803  16.143  0.4702 -2.3384  0.8079
 1842SOL    HW217163   2.866   3.710  16.053 -0.0261 -0.6131 -2.9481
 1843SOL     OW17164   4.719   4.512   7.404  0.3865  0.2158 -0.5473
 1843SOL    HW117165   4.723   4.539   7.496  1.6067 -0.4198 -0.4216
 1843SOL    HW217166   0.057   4.458   7.413  0.3092  0.6952  3.2969
 1844SOL     OW17167   0.266   0.778  13.812 -0.0899  0.6381  0.0914
 1844SOL    HW117168   0.341   0.832  13.787 -0.8788  1.8155  0.2490
 1844SOL    HW217169   0.196   0.817  13.759 -0.3204 -1.9018 -1.4548
 1845SOL     OW17170   3.101   3.979  16.234 -0.3160  0.5143 -0.4904
 1845SOL    HW117171   3.077   4.067  16.262  0.0468  0.8377 -1.2138
 1845SOL    HW217172   3.097   3.924  16.312 -2.0942  1.2229 -0.0633
 1846SOL     OW17173   1.383   0.773  10.995  0.2807 -0.2801 -0.1567
 1846SOL    HW117174   1.437   0.815  10.928  0.2147 -1.4265 -0.9176
 1846SOL    HW217175   1.457   0.735  11.042  0.2390 -2.2339 -1.6607
 1847SOL     OW17176   0.983   2.620   1.874  0.3550  0.0724 -0.0336
 1847SOL    HW117177   1.023   2.535   1.857 -2.7235 -0.9086 -2.3852
 1847SOL    HW217178   0.990   2.642   1.781  0.7105  1.1718  0.2560
 1848SOL     OW17179   2.777   1.428   5.600 -0.1219  0.9234 -0.2950
 1848SOL    HW117180   2.712   1.495   5.577 -0.3467  0.0859 -2.0393
 1848SOL    HW217181   2.720   1.353   5.616  0.9399  0.0935 -0.4315
 1849SOL     OW17182   4.452   0.072   3.241  0.3525  0.7747 -0.0616
 1849SOL    HW117183   4.474   4.720   3.256 -0.3986  0.3780 -1.3570
 1849SOL    HW217184   4.502   0.104   3.316 -0.7814 -2.8111  2.2439
 1850SOL     OW17185   0.419   1.129  13.298  0.4373  0.1834  0.1511
 1850SOL    HW117186   0.325   1.148  13.304  0.3546 -0.1056 -0.1639
 1850SOL    HW217187   0.451   1.215  13.273 -1.0054  0.7904  0.4164
 1851SOL     OW17188   3.818   2.001   8.947 -0.1652 -0.2197  0.4499
 1851SOL    HW117189   3.912   1.989   8.957 -0.2598  0.1687  1.8181
 1851SOL    HW217190   3.826   2.094   8.924  0.0889 -0.5556 -0.8465
 1852SOL     OW17191   0.503   3.459  15.459 -0.5122  0.1082  0.0065
 1852SOL    HW117192   0.494   3.466  15.555 -2.2104 -2.1711  0.0152
 1852SOL    HW217193   0.530   3.546  15.431  1.8477 -0.3161  0.9580
 1853SOL     OW17194   3.811   1.873   1.480 -0.6209  0.1464 -0.6461
 1853SOL    HW117195   3.841   1.804   1.540  1.2444  1.8654  0.4272
 1853SOL    HW217196   3.894   1.901   1.441  0.4914  0.0829  1.6680
 1854SOL     OW17197   1.994   1.255   4.176 -0.7197  0.0683  0.9024
 1854SOL    HW117198   1.966   1.302   4.098 -3.9425 -0.4016  1.7702
 1854SOL    HW217199   2.014   1.174   4.128 -0.2083 -0.3491  1.8147
 1855SOL     OW17200   0.143   2.995  11.994 -0.2180  0.2590 -0.2221
 1855SOL    HW117201   0.097   2.912  11.980  0.1236 -0.2822  1.9327
 1855SOL    HW217202   0.227   2.973  11.954 -0.6350  0.4787 -1.2067
 1856SOL     OW17203   4.653   0.247   3.416 -0.7309 -0.0435 -0.4738
 1856SOL    HW117204   4.571   0.263   3.461 -1.9347 -1.3855 -2.1822
 1856SOL    HW217205   4.708   0.240   3.494 -2.4107 -0.4798  0.6616
 1857SOL     OW17206   3.964   0.244   3.804 -0.3124 -0.1276  0.4857
 1857SOL    HW117207   3.977   0.152   3.826  0.0179 -0.1318  0.2580
 1857SOL    HW217208   3.871   0.243   3.779  0.1038 -3.1744 -0.9838
 1858SOL     OW17209   2.775   3.706   6.469 -0.2073 -0.1950  0.6180
 1858SOL    HW117210   2.734   3.784   6.506 -0.2789  0.4069 -0.7612
 1858SOL    HW217211   2.717   3.632   6.490 -3.4684  1.8631 -1.2372
 1859SOL     OW17212   1.927   3.311   1.978  0.5139 -0.1532  0.2139
 1859SOL    HW117213   1.925   3.278   2.068  2.3940 -0.5253  0.1237
 1859SOL    HW217214   1.891   3.237   1.929  2.0731 -1.1686  0.5987
 1860SOL     OW17215   1.436   2.166   9.943  0.4980  0.2628  0.1250
 1860SOL    HW117216   1.412   2.117  10.022  0.9927  0.6248  0.4994
 1860SOL    HW217217   1.475   2.246   9.979 -3.6454  2.5976 -0.6023
 1861SOL     OW17218   2.179   1.371   3.641  0.6836 -0.9118 -0.2795
 1861SOL    HW117219   2.266   1.412   3.641 -0.2194  0.9854 -0.5230
 1861SOL    HW217220   2.154   1.386   3.550 -1.5869 -1.5154  0.2427
 1862SOL     OW17221   1.541   4.303   9.492  0.2866 -0.1483 -0.2487
 1862SOL    HW117222   1.561   4.363   9.421  1.1032  0.1586  0.2453
 1862SOL    HW217223   1.542   4.213   9.458  0.2823  0.4537 -1.8503
 1863SOL     OW17224   1.987   1.387   8.364  0.1632 -0.0713  0.0062
 1863SOL    HW117225   2.014   1.376   8.273  1.4387  0.0472  0.3654
 1863SOL    HW217226   1.920   1.455   8.356 -0.0373 -0.4411 -1.3459
 1864SOL     OW17227   3.850   2.234   7.897 -0.4257 -0.2279  0.3554
 1864SOL    HW117228   3.942   2.261   7.899 -0.6399  0.4137  1.8982
 1864SOL    HW217229   3.824   2.263   7.809 -1.0531 -1.5112  0.1289
 1865SOL     OW17230   4.004   2.321   4.387  0.1041  0.7507 -0.3480
 1865SOL    HW117231   3.949   2.398   4.396 -1.7552 -0.7387  1.0807
 1865SOL    HW217232   4.086   2.370   4.378  1.2277 -1.1292 -0.5400
 1866SOL     OW17233   1.425   3.690   1.541  0.0476  0.0856 -0.0220
 1866SOL    HW117234   1.413   3.784   1.535  2.1377  0.2083 -2.0825
 1866SOL    HW217235   1.517   3.689   1.567  0.7910 -3.3592 -2.8437
 1867SOL     OW17236   3.929   3.456   9.709 -0.2652  0.3514 -0.3738
 1867SOL    HW117237   3.965   3.542   9.729 -0.8510  0.3040  0.8755
 1867SOL    HW217238   3.935   3.441   9.614 -2.6911  0.9510 -0.6423
 1868SOL     OW17239   4.632   1.315   9.398 -0.4168 -0.1051 -0.3695
 1868SOL    HW117240   4.660   1.396   9.441 -1.3404  0.0762 -0.0996
 1868SOL    HW217241   4.708   1.257   9.399 -1.5114 -1.5356  1.1026
 1869SOL     OW17242   1.094   0.558   2.394 -0.1005  0.3031  0.3296
 1869SOL    HW117243   1.036   0.587   2.464 -1.6430  1.4989 -1.4595
 1869SOL    HW217244   1.031   0.575   2.324  0.1720  1.1365  0.2913
 1870SOL     OW17245   0.590   0.609   7.626  0.3971  0.0685  0.1064
 1870SOL    HW117246   0.588   0.687   7.682 -0.1809  0.8597 -1.0238
 1870SOL    HW217247   0.541   0.649   7.554  0.2384 -0.5607 -0.1380
 1871SOL     OW17248   1.215   4.133   4.059  0.5130  0.0399 -0.2188
 1871SOL    HW117249   1.213   4.223   4.026  0.4356  1.0511  2.5891
 1871SOL    HW217250   1.305   4.121   4.089 -0.2146 -0.2096  1.8273
 1872SOL     OW17251   2.857   4.072   9.784 -0.4814 -0.2615 -0.5619
 1872SOL    HW117252   2.850   4.148   9.841  0.5278 -1.8572  1.6982
 1872SOL    HW217253   2.782   4.077   9.725 -1.2098  3.4300  0.7062
 1873SOL     OW17254   0.404   1.005   2.845 -0.1250  1.0468  0.0434
 1873SOL    HW117255   0.392   0.938   2.912  0.1667  1.4257  0.4702
 1873SOL    HW217256   0.461   1.070   2.885  2.3868 -0.8540 -0.4757
 1874SOL     OW17257   0.475   1.520   1.799  0.1933 -0.3183 -0.0357
 1874SOL    HW117258   0.552   1.575   1.812  1.1518 -2.0043  1.4690
 1874SOL    HW217259   0.510   1.437   1.764  0.0724  0.8081 -2.7990
 1875SOL     OW17260   3.497   1.749   7.521 -0.2532  0.3538 -0.4837
 1875SOL    HW117261   3.514   1.691   7.447  1.6461  0.9183 -0.4792
 1875SOL    HW217262   3.409   1.717   7.541 -0.5118  1.7345  0.6099
 1876SOL     OW17263   3.627   3.787   9.274 -0.2624  0.1532  0.0492
 1876SOL    HW117264   3.563   3.716   9.267  0.6814 -0.5673 -1.4002
 1876SOL    HW217265   3.581   3.855   9.225 -1.3261  0.4943  1.5156
 1877SOL     OW17266   3.700   4.054   3.952 -0.1553  0.1492  0.3953
 1877SOL    HW117267   3.785   4.055   3.908 -0.5528 -1.1783 -0.4081
 1877SOL    HW217268   3.640   4.064   3.878  3.1052 -1.2359 -2.4365
 1878SOL     OW17269   0.990   0.580  15.769 -0.0152  0.3675 -0.1349
 1878SOL    HW117270   1.053   0.507  15.771 -0.4726 -0.0006  0.8671
 1878SOL    HW217271   0.939   0.558  15.692 -1.1423 -2.7312  1.4865
 1879SOL     OW17272   0.649   4.190   8.108  0.3957 -0.4578  0.0359
 1879SOL    HW117273   0.685   4.148   8.186  0.0239  0.1441  0.5293
 1879SOL    HW217274   0.610   4.122   8.053 -2.1281  1.2162 -0.2258
 1880SOL     OW17275   4.520   4.125  15.393  0.0149  0.4026 -0.5871
 1880SOL    HW117276   4.475   4.120  15.309 -0.8123 -0.0323 -0.1086
 1880SOL    HW217277   4.577   4.048  15.384 -1.5522 -0.8128 -0.0727
 1881SOL     OW17278   0.995   1.588   3.319  0.1859  0.0352  0.1271
 1881SOL    HW117279   0.906   1.560   3.341 -0.9929  1.8382 -2.4201
 1881SOL    HW217280   1.008   1.567   3.227  0.5464  2.2540 -0.3237
 1882SOL     OW17281   0.228   1.040  16.013  0.2821 -0.1161  0.0411
 1882SOL    HW117282   0.144   0.996  16.023  0.0138  0.0512 -1.3962
 1882SOL    HW217283   0.296   0.977  15.989  1.2452  0.6962  0.6566
 1883SOL     OW17284   1.943   3.798   4.809 -0.1359  0.4474 -0.0424
 1883SOL    HW117285   1.915   3.714   4.845  0.6267 -0.2193 -0.9929
 1883SOL    HW217286   1.881   3.859   4.848  0.5871  0.8625  0.4375
 1884SOL     OW17287   3.795   4.580   4.554 -0.3352 -0.4927  0.2379
 1884SOL    HW117288   3.707   4.543   4.543 -1.3514  1.3707  2.0853
 1884SOL    HW217289   3.802   4.592   4.648 -1.1829  1.1253  0.1000
 1885SOL     OW17290   0.780   2.634   8.712  0.5893  0.0085  0.2625
 1885SOL    HW117291   0.799   2.660   8.622  1.1086 -0.1483  0.3269
 1885SOL    HW217292   0.817   2.713   8.753  1.4840 -1.0179  1.4388
 1886SOL     OW17293   2.605   2.472   3.949 -0.3298  0.7160  0.2745
 1886SOL    HW117294   2.546   2.451   3.877  0.8351 -1.6200  0.0245
 1886SOL    HW217295   2.544   2.489   4.021 -2.4009  0.9808 -1.5448
 1887SOL     OW17296   2.411   1.082   5.414 -0.5858  0.3789 -0.5103
 1887SOL    HW117297   2.341   1.072   5.478 -1.2983  0.4050 -1.2855
 1887SOL    HW217298   2.374   1.016   5.356 -0.4021  1.1202 -1.4732
 1888SOL     OW17299   2.851   4.280   1.870 -0.3525 -0.8326 -0.8381
 1888SOL    HW117300   2.908   4.204   1.872  0.2469 -0.3248  0.9573
 1888SOL    HW217301   2.806   4.267   1.953  0.0245 -0.2283 -0.5477
 1889SOL     OW17302   1.050   1.043  13.430  0.2983  0.0455  0.3086
 1889SOL    HW117303   1.032   0.952  13.454  0.0536  0.4426  1.6331
 1889SOL    HW217304   1.057   1.045  13.335 -0.3376  0.1178  0.2690
 1890SOL     OW17305   4.551   0.941   8.922  0.4759 -0.3852  0.1972
 1890SOL    HW117306   4.610   0.871   8.951  1.1241  0.0859 -0.0028
 1890SOL    HW217307   4.614   1.013   8.920 -1.0586  0.9347 -0.0676
 1891SOL     OW17308   1.732   1.360   3.707 -0.1520  0.4579  0.2803
 1891SOL    HW117309   1.684   1.353   3.625  1.1526  1.1900 -0.5363
 1891SOL    HW217310   1.714   1.452   3.728  1.4194  1.0869 -1.1698
 1892SOL     OW17311   1.244   0.526   8.237 -0.0790 -0.4908 -0.6167
 1892SOL    HW117312   1.222   0.566   8.153 -0.9028  1.6646  0.6168
 1892SOL    HW217313   1.322   0.476   8.211  0.7619  0.7926 -0.5960
 1893SOL     OW17314   0.447   2.477  15.810  0.2478 -0.1242  0.0908
 1893SOL    HW117315   0.542   2.477  15.814  0.4423  2.4808 -4.1609
 1893SOL    HW217316   0.428   2.549  15.870  1.0718  1.2221 -1.2674
 1894SOL     OW17317   2.457   2.097   0.282 -0.1058 -0.3349  0.0579
 1894SOL    HW117318   2.505   2.163   0.332  1.8660  0.0976 -2.3826
 1894SOL    HW217319   2.515   2.026   0.310  0.8808  0.5601  0.2815
 1895SOL     OW17320   1.434   1.147   1.030 -0.5099  0.1007 -0.1065
 1895SOL    HW117321   1.350   1.192   1.023 -0.5008  0.3463  1.3192
 1895SOL    HW217322   1.460   1.177   0.943 -2.5460  0.8674 -0.4531
 1896SOL     OW17323   2.093   3.873   9.106 -0.4837  0.0988 -0.2662
 1896SOL    HW117324   2.088   3.840   9.016  1.6941 -3.0560  0.7493
 1896SOL    HW217325   2.167   3.930   9.083  1.9300 -3.0604 -0.3049
 1897SOL     OW17326   4.295   2.946   5.831 -0.2924 -0.1975 -0.0355
 1897SOL    HW117327   4.249   3.009   5.776 -0.3747  1.9029  2.4792
 1897SOL    HW217328   4.223   2.910   5.882 -2.1779 -0.4957 -2.8748
 1898SOL     OW17329   1.663   2.294   8.408 -0.4890 -0.3893 -0.6613
 1898SOL    HW117330   1.611   2.294   8.328 -2.6295  0.6499  0.7179
 1898SOL    HW217331   1.741   2.338   8.376 -0.7807  0.0548 -0.7677
 1899SOL     OW17332   2.325   0.430   3.077  0.0812 -0.2199 -0.3903
 1899SOL    HW117333   2.315   0.514   3.031 -0.3009 -1.3351 -2.3117
 1899SOL    HW217334   2.266   0.447   3.150  0.0476 -2.1076  0.0061
 1900SOL     OW17335   4.181   2.564   7.145 -0.0829 -0.6188  0.1250
 1900SOL    HW117336   4.147   2.508   7.076  0.7695  1.0298 -1.6345
 1900SOL    HW217337   4.252   2.514   7.185  0.1150  0.2333  0.8403
 1901SOL     OW17338   4.645   4.028   8.440  0.0127 -0.0196 -0.3101
 1901SOL    HW117339   4.657   3.968   8.513 -0.5285 -1.2402 -1.2325
 1901SOL    HW217340   4.721   4.085   8.426 -0.2325  0.9873  2.4954
 1902SOL     OW17341   3.446   0.402  12.394  0.3077  0.6482 -0.7604
 1902SOL    HW117342   3.430   0.349  12.316 -2.5955 -2.1473  1.7610
 1902SOL    HW217343   3.359   0.441  12.395  0.2243  0.3413  2.4800
 1903SOL     OW17344   1.022   1.764   7.199 -0.3885 -0.0919 -0.7121
 1903SOL    HW117345   1.016   1.853   7.163  1.5067  1.3351  2.5277
 1903SOL    HW217346   1.102   1.729   7.160 -0.4728 -1.0814  0.0188
 1904SOL     OW17347   0.310   0.217  11.037  0.0178  0.7171  0.7591
 1904SOL    HW117348   0.222   0.191  11.011  0.4635  0.0308 -0.0574
 1904SOL    HW217349   0.354   0.200  10.953  0.0425 -1.2394  1.1700
 1905SOL     OW17350   2.278   4.636   6.206 -0.6940  0.1255  0.1623
 1905SOL    HW117351   2.338   4.562   6.204 -0.7087  0.1252 -0.2274
 1905SOL    HW217352   2.195   4.588   6.213  0.3173 -1.8688 -1.7570
 1906SOL     OW17353   4.722   0.608   8.385  0.2019  0.4070  0.5212
 1906SOL    HW117354   0.041   0.630   8.313  0.7389 -0.0843  0.8209
 1906SOL    HW217355   4.718   0.514   8.369  0.0604  0.8627 -2.2328
 1907SOL     OW17356   3.596   1.811  15.146 -0.6466  0.2578 -0.3712
 1907SOL    HW117357   3.592   1.826  15.240 -2.0512 -1.1089 -0.2101
 1907SOL    HW217358   3.599   1.715  15.148 -1.6887  0.2543  1.2959
 1908SOL     OW17359   0.498   4.583  13.376  0.5661  0.1074 -0.0368
 1908SOL    HW117360   0.555   4.657  13.396  1.3940 -0.7365  0.7440
 1908SOL    HW217361   0.421   4.623  13.337  0.7404 -1.0557 -1.5872
 1909SOL     OW17362   0.349   0.245   9.038 -0.1369 -0.1753 -0.5086
 1909SOL    HW117363   0.429   0.209   9.074  0.0286  0.7496  0.0482
 1909SOL    HW217364   0.294   0.183   9.086  0.2234 -0.2979 -0.2630
 1910SOL     OW17365   2.462   2.330  12.851  0.0558 -0.0524  0.6490
 1910SOL    HW117366   2.509   2.253  12.818  0.3717  0.5445 -0.3092
 1910SOL    HW217367   2.525   2.368  12.912  0.3720 -0.3315  0.4961
 1911SOL     OW17368   0.352   1.368  16.577 -0.0793 -0.2691  0.0032
 1911SOL    HW117369   0.327   1.386  16.667 -1.5678 -1.4330 -0.1896
 1911SOL    HW217370   0.369   1.456  16.542 -0.3681 -0.7344 -1.2977
 1912SOL     OW17371   1.141   4.309   1.491  0.5297  0.0283 -0.1938
 1912SOL    HW117372   1.225   4.298   1.536  1.2935  0.5621 -1.4757
 1912SOL    HW217373   1.088   4.285   1.567  3.3537 -0.4437  1.6286
 1913SOL     OW17374   0.207   1.594  16.283 -0.0707  0.4823  0.5028
 1913SOL    HW117375   0.157   1.514  16.303 -1.2229  1.2894  0.8946
 1913SOL    HW217376   0.283   1.546  16.251  0.3380  0.8813  0.8812
 1914SOL     OW17377   0.360   4.570   2.183  0.6181  0.0363  0.3049
 1914SOL    HW117378   0.450   4.591   2.156  0.8998  0.4470  1.5560
 1914SOL    HW217379   0.344   4.494   2.128 -1.0780  0.5639  0.0912
 1915SOL     OW17380   0.419   1.577   3.700  0.0095  0.2651 -0.2124
 1915SOL    HW117381   0.488   1.529   3.653  1.3183  2.5761 -0.6786
 1915SOL    HW217382   0.481   1.635   3.744 -0.1579 -0.8340  1.4421
 1916SOL     OW17383   0.627   3.854  12.716  0.5095 -0.0725 -0.1343
 1916SOL    HW117384   0.713   3.811  12.717  0.0123 -1.0937 -1.2311
 1916SOL    HW217385   0.617   3.861  12.811  1.9631 -0.6178  0.0676
 1917SOL     OW17386   4.546   3.859   8.622  0.2245 -0.7063 -0.0384
 1917SOL    HW117387   4.562   3.779   8.573  2.0494 -1.4237  1.7478
 1917SOL    HW217388   4.464   3.838   8.666  0.5002 -2.1374 -0.2110
 1918SOL     OW17389   0.184   4.340   5.127  0.9063  0.0930  0.0600
 1918SOL    HW117390   0.259   4.351   5.186  0.0398  1.5447  0.8973
 1918SOL    HW217391   0.222   4.330   5.040  0.4325 -1.2357  0.0025
 1919SOL     OW17392   1.153   0.950   7.643  0.2685  0.1610  0.1552
 1919SOL    HW117393   1.173   0.918   7.731  1.7897 -2.6488 -1.2101
 1919SOL    HW217394   1.221   1.015   7.629  0.9930 -0.1848  2.0692
 1920SOL     OW17395   2.870   2.131  15.263  0.0910 -0.2611 -0.2071
 1920SOL    HW117396   2.810   2.154  15.192 -1.1943 -0.6893  0.7232
 1920SOL    HW217397   2.817   2.061  15.302  1.6927  0.4227  3.1609
 1921SOL     OW17398   0.422   4.700   4.741 -0.3896 -0.2356  0.1353
 1921SOL    HW117399   0.328   4.693   4.721 -0.3226 -1.8168  0.3608
 1921SOL    HW217400   0.440   0.041   4.695  1.2849 -0.1240  0.9987
 1922SOL     OW17401   0.702   2.270  11.789 -0.1976 -0.8591 -0.3396
 1922SOL    HW117402   0.687   2.180  11.761  1.5212 -0.9198 -1.0562
 1922SOL    HW217403   0.767   2.252  11.857 -0.6387  1.1784  0.6324
 1923SOL     OW17404   1.009   3.733   7.385  0.0521  0.4113  0.3649
 1923SOL    HW117405   0.992   3.697   7.298  2.4301  2.5087 -0.9514
 1923SOL    HW217406   0.942   3.691   7.440 -1.2339  0.0922 -1.4460
 1924SOL     OW17407   3.616   0.552   1.663  0.1841 -0.1790 -0.3349
 1924SOL    HW117408   3.627   0.576   1.755 -3.0912  1.7553 -0.4452
 1924SOL    HW217409   3.542   0.491   1.662  2.5373 -3.1070  2.6621
 1925SOL     OW17410   0.063   1.633   7.998  0.1838 -0.2737 -0.4015
 1925SOL    HW117411   0.086   1.719   8.033  1.3984 -0.4327 -0.7861
 1925SOL    HW217412   4.713   1.645   7.971  0.8273 -1.8386 -3.2294
 1926SOL     OW17413   1.476   4.270   6.745 -0.3999  0.3681 -0.4864
 1926SOL    HW117414   1.545   4.297   6.683  0.0830  2.5430  0.9991
 1926SOL    HW217415   1.514   4.295   6.829 -1.2440 -3.1826  0.9096
 1927SOL     OW17416   2.394   3.565   7.748 -0.4179 -0.2975 -0.1091
 1927SOL    HW117417   2.411   3.610   7.665 -2.9006 -0.2938 -0.6148
 1927SOL    HW217418   2.444   3.484   7.736 -1.2886 -0.6704 -1.2917
 1928SOL     OW17419   3.456   1.369   7.389  0.4616 -0.2007 -0.1102
 1928SOL    HW117420   3.510   1.376   7.468 -0.0205 -4.8135  0.6401
 1928SOL    HW217421   3.516   1.324   7.330 -1.2678 -1.5624 -0.8597
 1929SOL     OW17422   3.260   0.599   3.607 -0.8757  0.3736 -0.1483
 1929SOL    HW117423   3.257   0.568   3.697 -1.7488 -2.1665 -1.0595
 1929SOL    HW217424   3.316   0.677   3.610 -1.5853  0.9192 -0.9103
 1930SOL     OW17425   2.446   4.170  12.745  0.3930  0.2492 -0.2547
 1930SOL    HW117426   2.450   4.092  12.801  0.3215 -2.2319 -3.7471
 1930SOL    HW217427   2.442   4.127  12.660 -1.1663 -1.3907  0.6365
 1931SOL     OW17428   0.169   4.031   3.735 -0.1624  0.2680 -0.0074
 1931SOL    HW117429   0.228   4.040   3.810  1.2093 -0.1144 -1.0433
 1931SOL    HW217430   0.137   3.944   3.756 -0.2459  0.0262 -1.1623
 1932SOL     OW17431   1.738   1.598  10.475  0.5222 -0.1749 -0.0032
 1932SOL    HW117432   1.734   1.632  10.564  3.4053  1.1941 -0.4164
 1932SOL    HW217433   1.831   1.608  10.456  0.0847 -0.1425 -2.1373
 1933SOL     OW17434   1.432   2.701   3.419  0.4142  0.4156  0.5352
 1933SOL    HW117435   1.434   2.789   3.457 -1.8259  0.1667  1.2004
 1933SOL    HW217436   1.508   2.704   3.360 -0.4675 -3.7203 -0.8031
 1934SOL     OW17437   0.125   3.960   5.118  1.0558  0.0583 -0.0212
 1934SOL    HW117438   0.137   3.925   5.030 -0.3176 -1.1107  0.2473
 1934SOL    HW217439   0.089   3.882   5.159 -0.8281  1.0375  0.1749
 1935SOL     OW17440   1.744   3.935   4.950 -0.0762 -0.5435 -0.0053
 1935SOL    HW117441   1.765   4.002   5.015 -0.6837  1.0281 -1.4665
 1935SOL    HW217442   1.650   3.939   4.967  0.0029 -1.0371  0.5734
 1936SOL     OW17443   4.355   3.456   3.792 -0.1078 -0.1457  0.0926
 1936SOL    HW117444   4.281   3.515   3.784 -0.4628 -0.6311 -0.2076
 1936SOL    HW217445   4.311   3.383   3.834  1.4853 -1.5068 -0.5849
 1937SOL     OW17446   2.065   1.970   3.806 -0.0639  0.5217  0.4465
 1937SOL    HW117447   2.066   2.055   3.851 -2.5780  2.6847 -3.6002
 1937SOL    HW217448   2.121   1.997   3.732 -0.3310 -0.2378 -0.0270
 1938SOL     OW17449   1.528   1.399   0.278  0.4782 -0.0567 -0.0762
 1938SOL    HW117450   1.481   1.324   0.242 -0.4690  0.3881  0.2214
 1938SOL    HW217451   1.621   1.386   0.259  0.5899  0.8306 -0.1478
 1939SOL     OW17452   0.126   3.830  17.565  0.7754  0.2428  0.5057
 1939SOL    HW117453   0.164   3.742  17.569 -3.3695 -1.5840 -0.3066
 1939SOL    HW217454   0.189   3.877  17.511  1.4083  0.3189  1.2990
 1940SOL     OW17455   1.299   0.149   1.363  0.6462 -0.0495  0.4547
 1940SOL    HW117456   1.236   0.218   1.384  1.6357  1.1466 -0.4700
 1940SOL    HW217457   1.262   0.127   1.278 -0.5867  1.9077  0.4763
 1941SOL     OW17458   2.846   3.331   3.785  0.4838  0.3357  0.0081
 1941SOL    HW117459   2.913   3.345   3.852 -1.5396  0.9591  1.8997
 1941SOL    HW217460   2.846   3.414   3.737  1.1299  0.5959  0.4634
 1942SOL     OW17461   3.120   4.725   2.689  0.2475 -0.2362  0.1328
 1942SOL    HW117462   3.172   4.654   2.727  2.1140  0.2103 -1.6045
 1942SOL    HW217463   3.048   4.676   2.650  0.6449 -0.6484 -0.0868
 1943SOL     OW17464   0.990   1.514  13.693  0.4990  0.3500 -0.1953
 1943SOL    HW117465   0.943   1.430  13.683 -0.8948  1.4264 -2.7431
 1943SOL    HW217466   1.023   1.528  13.604  1.2148 -1.8386 -0.2725
 1944SOL     OW17467   3.389   3.701   7.129  0.4384 -0.3623 -0.0414
 1944SOL    HW117468   3.301   3.674   7.104  0.0024  0.9588  0.0988
 1944SOL    HW217469   3.390   3.794   7.109 -3.3138 -0.7614 -2.1847
 1945SOL     OW17470   0.317   0.230  15.151 -0.4250 -0.5039 -0.2288
 1945SOL    HW117471   0.231   0.269  15.131 -0.5610 -0.0048  1.3349
 1945SOL    HW217472   0.372   0.306  15.136  0.5408 -0.8311  1.6646
 1946SOL     OW17473   1.220   0.535   7.323 -0.3632  0.1997 -0.1251
 1946SOL    HW117474   1.133   0.561   7.290 -0.6028 -0.8012 -0.2583
 1946SOL    HW217475   1.216   0.570   7.413 -0.0988 -0.4165  0.1205
 1947SOL     OW17476   3.260   2.475  11.831  0.0460 -0.0540  0.5095
 1947SOL    HW117477   3.338   2.524  11.805  0.1441 -1.1577 -1.2421
 1947SOL    HW217478   3.294   2.426  11.905  0.1195 -0.3124  0.3036
 1948SOL     OW17479   3.403   0.635   6.283  0.0181  0.3490 -0.2043
 1948SOL    HW117480   3.446   0.653   6.200 -1.0423  2.8216 -0.2301
 1948SOL    HW217481   3.326   0.583   6.259 -0.8863  2.0118 -0.8848
 1949SOL     OW17482   3.791   3.861   9.563 -0.5858 -0.1665  0.4755
 1949SOL    HW117483   3.737   3.900   9.631 -0.3493 -2.1329  1.7896
 1949SOL    HW217484   3.731   3.800   9.520  0.1586 -0.2203 -0.4829
 1950SOL     OW17485   1.192   2.061   9.274  0.2330  0.2942 -0.0261
 1950SOL    HW117486   1.266   2.092   9.326  2.3822 -0.7404 -2.4916
 1950SOL    HW217487   1.144   2.138   9.242  2.4257  2.4878  1.9627
 1951SOL     OW17488   4.009   4.733   5.388 -0.2019  0.1613  0.2630
 1951SOL    HW117489   3.989   4.640   5.390  0.3920  0.0431  1.1580
 1951SOL    HW217490   4.031   0.009   5.480  0.2121  0.0077  0.1918
 1952SOL     OW17491   2.097   0.811   6.257  0.3545  0.1732 -0.3702
 1952SOL    HW117492   2.059   0.735   6.215  1.5288 -0.5089 -0.1897
 1952SOL    HW217493   2.066   0.791   6.345 -3.4643 -0.1362 -1.8126
 1953SOL     OW17494   0.950   1.277  15.539  0.1590  0.2293  0.0244
 1953SOL    HW117495   0.915   1.188  15.538 -0.4884  0.4698  1.7270
 1953SOL    HW217496   0.988   1.285  15.451  0.6944 -0.9694  0.1427
 1954SOL     OW17497   4.060   4.193   3.527 -0.4750  0.0620  0.4951
 1954SOL    HW117498   4.153   4.207   3.546 -0.1378 -0.0649 -1.0949
 1954SOL    HW217499   4.050   4.099   3.545 -0.6855  0.3196  1.7460
 1955SOL     OW17500   0.991   0.126   6.228  0.4474  0.5678 -0.3848
 1955SOL    HW117501   0.947   0.113   6.144  1.8083 -2.1701 -0.6982
 1955SOL    HW217502   1.033   0.211   6.217 -2.0498  1.4805 -2.6163
 1956SOL     OW17503   3.722   2.361   6.900  0.1394  0.4511 -0.1157
 1956SOL    HW117504   3.797   2.313   6.865  0.2237  0.3965  0.1385
 1956SOL    HW217505   3.688   2.395   6.817 -0.3879 -1.2754 -0.6000
 1957SOL     OW17506   1.880   1.844   8.628  0.1472 -0.1177  0.0047
 1957SOL    HW117507   1.975   1.861   8.631  0.2118 -0.4393 -0.1519
 1957SOL    HW217508   1.880   1.771   8.690 -0.2034  0.3272  0.5264
 1958SOL     OW17509   2.465   4.347  12.967 -0.4391 -0.2541  0.8268
 1958SOL    HW117510   2.458   4.291  12.889  1.3604  2.4449 -1.2560
 1958SOL    HW217511   2.475   4.432  12.925 -1.7290  0.1283  1.3181
 1959SOL     OW17512   2.419   3.729   1.336  0.7539  0.5829  0.0121
 1959SOL    HW117513   2.506   3.714   1.372 -0.1858 -2.8433  0.8936
 1959SOL    HW217514   2.392   3.785   1.409  0.9758  0.5234  0.1410
 1960SOL     OW17515   4.225   4.673   3.686  0.2597 -0.0163  0.2088
 1960SOL    HW117516   4.137   4.665   3.724  1.0554 -2.4381  1.5125
 1960SOL    HW217517   4.202   4.627   3.605  1.2578  1.3632 -0.8698
 1961SOL     OW17518   0.510   0.393   7.841  0.7046 -0.0690  0.2311
 1961SOL    HW117519   0.521   0.343   7.759 -1.5368 -1.5029  0.8291
 1961SOL    HW217520   0.597   0.382   7.880  2.6633  0.4920 -3.9252
 1962SOL     OW17521   1.901   4.464  10.384  0.4985  0.1592  0.1567
 1962SOL    HW117522   1.942   4.428  10.462  0.2480  1.0865  0.7120
 1962SOL    HW217523   1.818   4.495  10.419 -0.3457 -2.6721  0.6430
 1963SOL     OW17524   4.182   3.838  11.368  0.1086 -0.3378  0.6676
 1963SOL    HW117525   4.163   3.875  11.282 -0.7783 -1.5214  0.3533
 1963SOL    HW217526   4.128   3.896  11.422  0.2199  0.0118  0.4035
 1964SOL     OW17527   4.298   3.828   8.748  0.6439  0.2119  0.2534
 1964SOL    HW117528   4.232   3.857   8.686 -1.8171  3.3554  4.3013
 1964SOL    HW217529   4.313   3.912   8.793  1.1140  1.0471 -1.4856
 1965SOL     OW17530   2.246   4.106   4.775 -0.7687  0.3419  0.1163
 1965SOL    HW117531   2.244   4.018   4.737 -0.9832  1.3300 -2.1771
 1965SOL    HW217532   2.174   4.148   4.728 -0.9428 -1.6095 -1.3798
 1966SOL     OW17533   2.154   2.213   6.837  0.0803 -0.8743 -0.5099
 1966SOL    HW117534   2.113   2.134   6.871 -0.3101 -0.3706  0.1935
 1966SOL    HW217535   2.116   2.267   6.906  1.0437 -0.8718  0.0189
 1967SOL     OW17536   2.462   4.071  11.740 -0.0507 -0.3777 -0.0141
 1967SOL    HW117537   2.446   4.038  11.651 -1.6903  0.3994 -0.0047
 1967SOL    HW217538   2.531   4.009  11.763  1.5850  1.1765 -0.7090
 1968SOL     OW17539   0.806   0.864   9.358 -0.6340 -0.1096  0.2188
 1968SOL    HW117540   0.861   0.940   9.342  0.9920 -0.8846  2.0826
 1968SOL    HW217541   0.811   0.829   9.447 -0.9474  0.8975  0.6223
 1969SOL     OW17542   3.437   1.116   9.306  0.1373  0.0433  0.0189
 1969SOL    HW117543   3.423   1.023   9.324  1.9022 -0.0623  0.8188
 1969SOL    HW217544   3.477   1.137   9.390 -1.5937  0.3507  0.7600
 1970SOL     OW17545   3.292   1.260   6.442 -0.3434  0.2492  0.1883
 1970SOL    HW117546   3.374   1.240   6.489  0.5208  2.1895 -0.4732
 1970SOL    HW217547   3.246   1.179   6.423 -1.4707  1.3876 -1.8926
 1971SOL     OW17548   3.719   0.046   9.273 -0.3209  0.4704 -0.1385
 1971SOL    HW117549   3.800   0.015   9.231 -0.5218 -1.0219  0.5973
 1971SOL    HW217550   3.746   0.059   9.364  0.3707 -2.9332  0.1214
 1972SOL     OW17551   2.031   3.614   8.041  0.1755 -0.2671 -0.4773
 1972SOL    HW117552   2.072   3.645   8.122 -1.6394  2.3249 -0.5499
 1972SOL    HW217553   1.946   3.582   8.072  0.2495  0.0227  0.0344
 1973SOL     OW17554   2.074   3.703  13.586  0.1756 -0.5099  0.2628
 1973SOL    HW117555   2.159   3.663  13.601  0.4231 -0.4893 -1.0428
 1973SOL    HW217556   2.089   3.788  13.627  0.9495 -0.4946 -0.0533
 1974SOL     OW17557   1.541   1.160   5.364 -0.1652  0.0110  0.2051
 1974SOL    HW117558   1.602   1.098   5.326 -0.8381 -0.5856  0.1110
 1974SOL    HW217559   1.480   1.107   5.414 -0.8109  0.7742  0.2393
 1975SOL     OW17560   1.930   1.746  14.613 -0.2683  0.3750  0.3945
 1975SOL    HW117561   1.852   1.708  14.653  0.9237  1.9058  4.2552
 1975SOL    HW217562   1.967   1.791  14.690  0.1454  2.2349 -0.9079
 1976SOL     OW17563   0.749   1.117   2.119  0.3574 -0.5337  0.0157
 1976SOL    HW117564   0.775   1.045   2.061 -0.7031 -1.4667  0.7069
 1976SOL    HW217565   0.662   1.142   2.089  0.7700  0.1078 -0.6655
 1977SOL     OW17566   1.740   1.614   7.110 -0.2829 -0.5741 -0.1341
 1977SOL    HW117567   1.795   1.692   7.112 -0.6105 -0.3778  0.9761
 1977SOL    HW217568   1.654   1.647   7.134 -1.1500 -0.8388 -2.8520
 1978SOL     OW17569   4.611   0.836   3.478  0.2380 -1.2126  0.6007
 1978SOL    HW117570   4.703   0.809   3.471  0.4247 -0.0636 -1.3393
 1978SOL    HW217571   4.618   0.912   3.535  2.5215 -0.5379 -0.5903
 1979SOL     OW17572   2.653   3.867   7.228 -0.4483  0.1791  0.1434
 1979SOL    HW117573   2.692   3.940   7.180  2.3785 -2.5602 -1.6940
 1979SOL    HW217574   2.574   3.910   7.262 -0.4759 -0.3124  0.7051
 1980SOL     OW17575   2.270   2.163   4.536  0.2382 -0.6515 -0.2613
 1980SOL    HW117576   2.220   2.224   4.591  1.1991 -1.1998  1.2037
 1980SOL    HW217577   2.323   2.227   4.490 -0.4881 -1.0257 -1.6270
 1981SOL     OW17578   2.054   2.351   8.017 -0.1756  0.3250 -0.3427
 1981SOL    HW117579   2.005   2.411   7.961 -4.7401 -2.3839  0.6539
 1981SOL    HW217580   2.113   2.410   8.064 -1.9758  1.3124  0.7089
 1982SOL     OW17581   2.436   1.989  10.025  0.6987 -0.4886 -0.1729
 1982SOL    HW117582   2.530   1.985  10.045  0.5018  0.9372  1.0969
 1982SOL    HW217583   2.442   1.974   9.931 -3.1525 -2.1342 -0.1539
 1983SOL     OW17584   3.548   3.336   8.020 -0.1828 -0.2750 -0.1561
 1983SOL    HW117585   3.558   3.302   8.109 -1.4231  0.5170  0.2853
 1983SOL    HW217586   3.576   3.427   8.018  1.3303 -0.7596 -0.8852
 1984SOL     OW17587   4.059   1.781   6.679  0.5557 -0.3286  0.7928
 1984SOL    HW117588   4.090   1.710   6.735 -0.4725 -3.0529 -2.0891
 1984SOL    HW217589   4.094   1.758   6.593  0.3545  3.0561 -0.2008
 1985SOL     OW17590   1.384   2.129  15.261  0.0297  0.4564 -0.1677
 1985SOL    HW117591   1.473   2.102  15.241 -0.2355  0.2365 -1.0612
 1985SOL    HW217592   1.398   2.222  15.240  2.3687 -0.1352 -1.1814
 1986SOL     OW17593   0.478   2.729   6.856 -1.0880 -0.1843  0.4388
 1986SOL    HW117594   0.419   2.767   6.922  1.2623  0.9312  1.9180
 1986SOL    HW217595   0.413   2.710   6.790 -0.1061 -0.9165 -0.3219
 1987SOL     OW17596   1.006   4.195  12.550 -0.1091  0.3718 -0.2475
 1987SOL    HW117597   1.016   4.290  12.552 -0.6537  0.4254  0.1320
 1987SOL    HW217598   0.920   4.182  12.510 -0.0827 -1.8978  0.3997
 1988SOL     OW17599   3.531   3.171  12.155 -0.4020  0.2730  0.4976
 1988SOL    HW117600   3.594   3.159  12.084  0.5109  2.0323  0.9979
 1988SOL    HW217601   3.451   3.139  12.113 -0.2026 -1.1001  1.1909
 1989SOL     OW17602   1.579   0.237   7.248 -0.1620 -0.0046 -0.0435
 1989SOL    HW117603   1.484   0.236   7.260 -0.4488  1.5710 -2.0223
 1989SOL    HW217604   1.577   0.274   7.159  0.1798 -0.7378 -0.3535
 1990SOL     OW17605   3.109   1.929   8.504 -0.2011  0.0128 -0.4682
 1990SOL    HW117606   3.154   1.857   8.548  0.2053  1.2924  1.2593
 1990SOL    HW217607   3.175   1.998   8.506 -1.0462  0.7254  2.7690
 1991SOL     OW17608   3.287   2.022   2.487  0.1310 -0.3730 -0.1103
 1991SOL    HW117609   3.246   1.941   2.517 -1.2370 -0.1803 -1.4782
 1991SOL    HW217610   3.254   2.044   2.400 -0.3201  1.2450  0.4605
 1992SOL     OW17611   3.777   3.184   2.900 -0.4643  0.1305 -0.1062
 1992SOL    HW117612   3.693   3.148   2.930 -1.8737  2.3636 -1.4417
 1992SOL    HW217613   3.769   3.275   2.927 -0.5808 -0.6195  2.4825
 1993SOL     OW17614   2.546   0.934   4.530 -0.1168  0.3107 -0.7212
 1993SOL    HW117615   2.595   0.857   4.501  1.5975  0.6678  1.2651
 1993SOL    HW217616   2.475   0.890   4.577  0.5304 -0.1985 -0.2348
 1994SOL     OW17617   0.453   1.753  17.390  0.0715 -0.1182  0.5620
 1994SOL    HW117618   0.374   1.783  17.434  0.6396  0.5617  1.1174
 1994SOL    HW217619   0.521   1.787  17.448  1.1623 -4.1298  1.6264
 1995SOL     OW17620   3.191   1.651   8.268  0.3885 -0.3634  0.4883
 1995SOL    HW117621   3.152   1.723   8.218  2.0519 -1.0148 -1.7490
 1995SOL    HW217622   3.242   1.695   8.336  0.1211 -0.1836  0.5699
 1996SOL     OW17623   1.853   2.531   0.048  0.3933  0.2883 -0.2162
 1996SOL    HW117624   1.784   2.594   0.067  1.5130  0.7707  2.2337
 1996SOL    HW217625   1.871   2.499   0.136  0.6078 -1.0425 -0.7516
 1997SOL     OW17626   3.274   3.753   9.733  0.0989 -0.0615 -0.9061
 1997SOL    HW117627   3.205   3.703   9.776 -0.9670  2.2250  0.0223
 1997SOL    HW217628   3.229   3.834   9.710  0.5829  0.6086  0.4839
 1998SOL     OW17629   1.662   1.527   6.706 -0.6503  0.0555 -0.0579
 1998SOL    HW117630   1.588   1.483   6.747  0.8365  0.2081  2.8022
 1998SOL    HW217631   1.638   1.617   6.729  0.1646  0.9950 -2.8944
 1999SOL     OW17632   1.578   4.668   2.655 -0.1701  0.5769  0.5907
 1999SOL    HW117633   1.594   4.624   2.738 -0.3502 -1.1437 -0.2822
 1999SOL    HW217634   1.656   4.723   2.657  0.0299  0.3409 -1.1398
 2000SOL     OW17635   3.965   2.894   9.254 -0.1450 -0.2305 -0.2721
 2000SOL    HW117636   4.003   2.839   9.185  2.3951  0.1851  0.7914
 2000SOL    HW217637   4.051   2.910   9.293 -0.4840  1.7915 -0.3918
 2001SOL     OW17638   1.727   2.082  11.738  0.1384  0.5417 -0.3547
 2001SOL    HW117639   1.790   2.032  11.687  0.3464 -0.9796  1.3811
 2001SOL    HW217640   1.780   2.151  11.779  2.0578 -0.8923 -0.4449
 2002SOL     OW17641   3.986   0.821  12.802 -0.1771  0.1104  0.0711
 2002SOL    HW117642   3.921   0.885  12.774 -0.0321  0.0437 -0.4260
 2002SOL    HW217643   4.060   0.869  12.841 -0.5295  1.8150 -1.3385
 2003SOL     OW17644   4.450   0.455   3.866 -0.1631  0.1949  0.1390
 2003SOL    HW117645   4.540   0.463   3.836 -0.3797  1.0728 -0.2746
 2003SOL    HW217646   4.453   0.524   3.932 -1.2538 -0.3658  0.7824
 2004SOL     OW17647   0.788   4.676   6.956 -0.0193 -0.2498  0.2730
 2004SOL    HW117648   0.775   0.024   6.992  1.4528  0.2278 -0.3840
 2004SOL    HW217649   0.819   4.711   6.872  1.8545 -2.6074  0.0158
 2005SOL     OW17650   1.649   1.394  14.556 -0.2575 -0.1746  0.1218
 2005SOL    HW117651   1.676   1.454  14.625  0.0620  1.2901 -1.3007
 2005SOL    HW217652   1.729   1.382  14.505  0.2100 -0.3268  0.8815
 2006SOL     OW17653   4.638   0.820   8.151  0.3297 -0.1721  0.0261
 2006SOL    HW117654   4.617   0.727   8.157  1.2665 -0.5549 -2.8810
 2006SOL    HW217655   4.732   0.824   8.169  0.0180  0.4916  1.4928
 2007SOL     OW17656   4.572   3.598   3.878  0.0013 -0.1429  0.2724
 2007SOL    HW117657   4.491   3.547   3.879 -0.5354  0.7110  0.2703
 2007SOL    HW217658   4.587   3.607   3.972  0.1931 -0.2043  0.2480
 2008SOL     OW17659   4.561   3.368   2.448  0.3214  0.4455 -0.1148
 2008SOL    HW117660   4.504   3.296   2.422  0.0473  0.3451  0.7582
 2008SOL    HW217661   4.648   3.333   2.427 -0.2916  0.3304 -2.3975
 2009SOL     OW17662   2.141   0.366   7.123  0.1419 -0.1252 -0.0747
 2009SOL    HW117663   2.064   0.315   7.150 -0.5308  1.8425  1.7605
 2009SOL    HW217664   2.189   0.375   7.205  1.3583  4.1034 -1.2224
 2010SOL     OW17665   0.164   0.898   8.545 -0.2763  0.2918  0.0637
 2010SOL    HW117666   0.227   0.938   8.605 -0.3540 -0.6475  0.7743
 2010SOL    HW217667   0.213   0.818   8.524 -0.7786 -0.3380  1.3314
 2011SOL     OW17668   3.143   3.955   7.809 -0.1124  0.3775  0.0689
 2011SOL    HW117669   3.221   3.901   7.797  0.0040  0.7135 -0.7068
 2011SOL    HW217670   3.081   3.887   7.833 -0.2648  0.6802  0.5273
 2012SOL     OW17671   0.762   1.460   4.377  0.3074 -0.4338  0.3940
 2012SOL    HW117672   0.845   1.509   4.376  1.0926 -1.7946 -1.5088
 2012SOL    HW217673   0.774   1.395   4.445  0.9784 -1.2562 -0.5003
 2013SOL     OW17674   2.896   3.892  12.307  0.3922  0.0619 -0.1129
 2013SOL    HW117675   2.941   3.809  12.324  2.6729  0.7772 -2.6846
 2013SOL    HW217676   2.851   3.906  12.391 -1.1021  0.1537 -0.9284
 2014SOL     OW17677   0.695   0.875  12.935 -0.4693 -0.3911  0.0091
 2014SOL    HW117678   0.699   0.906  12.844 -0.4150  1.6394  0.7055
 2014SOL    HW217679   0.788   0.882  12.956  0.0323 -2.7169 -1.4090
 2015SOL     OW17680   3.755   0.920   2.719 -0.4167 -0.0222  0.5026
 2015SOL    HW117681   3.825   0.860   2.742 -0.3641  0.4592  1.6352
 2015SOL    HW217682   3.779   0.942   2.629  1.0252  0.9803  1.1385
 2016SOL     OW17683   2.040   0.411   3.583 -0.0160 -0.7106  0.0171
 2016SOL    HW117684   2.027   0.429   3.676  0.4621 -2.1868  0.3793
 2016SOL    HW217685   2.111   0.347   3.590 -1.2429 -2.1789 -0.8155
 2017SOL     OW17686   1.289   0.344   7.777  0.0085 -0.1893  0.3953
 2017SOL    HW117687   1.314   0.351   7.685 -0.5808  1.9848  0.3883
 2017SOL    HW217688   1.264   0.435   7.793 -0.4863 -0.3223  0.3853
 2018SOL     OW17689   2.086   2.650   9.633  0.2743  0.2271 -0.5356
 2018SOL    HW117690   2.070   2.561   9.663 -0.9501  0.3962 -0.6736
 2018SOL    HW217691   1.995   2.674   9.615  0.3060 -0.7441 -1.9910
 2019SOL     OW17692   0.264   2.978  10.953  0.1627 -0.3466 -0.1933
 2019SOL    HW117693   0.200   2.918  10.917  0.5145 -0.1130 -1.2030
 2019SOL    HW217694   0.289   3.025  10.874  0.4543  0.4745  0.3745
 2020SOL     OW17695   3.918   0.714  15.874 -0.7432 -0.3941 -0.4491
 2020SOL    HW117696   3.997   0.768  15.867 -0.9243  0.0469  0.9356
 2020SOL    HW217697   3.895   0.717  15.966 -0.6205 -0.7027 -0.4084
 2021SOL     OW17698   1.454   3.447  17.484  0.0297  0.6365 -0.1638
 2021SOL    HW117699   1.412   3.391  17.550  1.5841  0.3527  0.5870
 2021SOL    HW217700   1.442   3.393  17.406 -0.9410 -0.9103  1.0427
 2022SOL     OW17701   2.245   0.214   2.943  0.0647 -0.1608  0.2333
 2022SOL    HW117702   2.285   0.293   2.979  0.1497 -0.2824  0.4031
 2022SOL    HW217703   2.166   0.256   2.910 -0.1503 -1.8025 -1.4013
 2023SOL     OW17704   3.462   1.657   9.240 -0.0831 -0.3485 -0.4200
 2023SOL    HW117705   3.386   1.671   9.185  0.8387  2.0624 -1.0564
 2023SOL    HW217706   3.439   1.571   9.276  0.8787  0.2109  1.5281
 2024SOL     OW17707   2.745   4.294   7.270 -0.3871 -0.2547  0.5805
 2024SOL    HW117708   2.799   4.313   7.346 -2.0420 -3.9822  2.6603
 2024SOL    HW217709   2.685   4.228   7.304  0.1942 -2.2412 -2.2116
 2025SOL     OW17710   2.600   2.128   6.129 -0.5635 -0.2823 -0.7979
 2025SOL    HW117711   2.679   2.094   6.085  0.7280  0.5374  0.8759
 2025SOL    HW217712   2.607   2.083   6.213  0.5112  0.9323 -0.2426
 2026SOL     OW17713   3.679   3.453   9.457  0.5409  0.1863  0.5797
 2026SOL    HW117714   3.771   3.460   9.431  1.1744  0.0929  2.7804
 2026SOL    HW217715   3.627   3.499   9.391 -0.2837  0.1390  1.1979
 2027SOL     OW17716   2.569   0.588   4.689 -0.0640 -0.5005  0.3208
 2027SOL    HW117717   2.638   0.557   4.630 -0.4726  1.0368 -0.9369
 2027SOL    HW217718   2.622   0.598   4.768 -0.2060  1.0082  0.2160
 2028SOL     OW17719   0.751   3.849   3.308  0.6587  0.2715 -0.3571
 2028SOL    HW117720   0.718   3.779   3.251 -0.8580  2.5736 -2.3245
 2028SOL    HW217721   0.794   3.794   3.373  3.6141  0.5512 -2.0913
 2029SOL     OW17722   2.957   4.419   8.210  0.1032  0.4951  0.0445
 2029SOL    HW117723   2.927   4.471   8.135 -0.8351 -0.5314 -0.2888
 2029SOL    HW217724   2.936   4.471   8.287 -1.8028 -0.2089 -0.0184
 2030SOL     OW17725   0.938   1.232  13.614 -0.2047  0.1230  0.2976
 2030SOL    HW117726   0.864   1.219  13.555 -1.2531  1.0797  1.4115
 2030SOL    HW217727   1.006   1.186  13.564 -0.7315 -1.3390  0.9426
 2031SOL     OW17728   1.268   2.264   6.660 -0.2199  0.2530 -0.3038
 2031SOL    HW117729   1.196   2.322   6.686  0.7332 -0.5264  3.9139
 2031SOL    HW217730   1.292   2.235   6.748 -2.3370  2.1108  0.8779
 2032SOL     OW17731   3.461   2.271   3.467  0.2401 -0.0821 -0.5554
 2032SOL    HW117732   3.381   2.273   3.414  0.1016  2.6322 -0.2641
 2032SOL    HW217733   3.421   2.281   3.554  1.7084  0.8718  0.0150
 2033SOL     OW17734   1.440   1.031   4.243 -0.1330 -0.1348 -0.4759
 2033SOL    HW117735   1.442   1.115   4.197  0.2451  0.1926  0.1347
 2033SOL    HW217736   1.358   0.995   4.210  0.0216  1.0811 -2.2309
 2034SOL     OW17737   4.740   2.936   4.306  0.4609 -0.0262  0.2188
 2034SOL    HW117738   0.051   2.855   4.304  1.4784  0.6493 -0.7196
 2034SOL    HW217739   4.647   2.919   4.292  0.2335  2.3519 -1.2949
 2035SOL     OW17740   2.016   1.603   8.626 -0.4729 -0.6178  0.2234
 2035SOL    HW117741   2.104   1.626   8.656 -1.5357  0.8733  2.2208
 2035SOL    HW217742   2.016   1.605   8.530  1.3662  1.4621  0.2584
 2036SOL     OW17743   2.027   3.378   6.600 -0.2189 -0.2691 -0.0119
 2036SOL    HW117744   1.999   3.394   6.510 -1.2510 -1.5940  0.0734
 2036SOL    HW217745   2.009   3.461   6.645  2.1736  0.9428 -1.3041
 2037SOL     OW17746   1.475   0.413   6.128  0.1479  0.6120 -0.3188
 2037SOL    HW117747   1.548   0.460   6.169  0.2889 -0.0874  0.2388
 2037SOL    HW217748   1.517   0.369   6.053  2.0660  0.6967  0.6894
 2038SOL     OW17749   0.009   3.409   6.453 -0.5331  0.2402 -0.2045
 2038SOL    HW117750   4.735   3.332   6.397 -1.5257  0.5700 -0.3946
 2038SOL    HW217751   0.061   3.477   6.412 -1.2147  0.7865 -0.1648
 2039SOL     OW17752   2.833   0.247   6.385 -0.2081  0.4602  0.4950
 2039SOL    HW117753   2.780   0.309   6.335 -1.0376 -1.4340 -0.9754
 2039SOL    HW217754   2.778   0.169   6.395  1.4855 -0.7838  0.1016
 2040SOL     OW17755   0.157   4.017   6.327 -0.4760 -0.0492  0.1802
 2040SOL    HW117756   0.239   3.981   6.362 -1.4706 -0.3352  2.1957
 2040SOL    HW217757   0.152   3.976   6.241 -0.5588  0.9841 -0.3097
 2041SOL     OW17758   4.247   0.271   6.884  0.1847  0.3185 -0.1799
 2041SOL    HW117759   4.219   0.327   6.812 -0.1316 -0.6808 -0.8288
 2041SOL    HW217760   4.251   0.333   6.957 -1.1244  1.0095 -0.7103
 2042SOL     OW17761   0.226   0.257  12.114 -0.1128 -0.0982  0.3455
 2042SOL    HW117762   0.288   0.330  12.107  1.4954 -1.6270 -1.0933
 2042SOL    HW217763   0.264   0.221  12.194  0.2616  0.8882  0.6165
 2043SOL     OW17764   4.310   0.320  11.733 -0.6377 -0.3471  0.4905
 2043SOL    HW117765   4.352   0.385  11.676  1.9686 -1.1049  1.5177
 2043SOL    HW217766   4.236   0.369  11.768 -0.9782  1.3272 -2.6108
 2044SOL     OW17767   1.328   0.625  12.476 -0.1374 -0.1896  0.0201
 2044SOL    HW117768   1.415   0.648  12.443  0.0450 -0.2096  0.4799
 2044SOL    HW217769   1.350   0.578  12.557  1.5339 -0.6754 -0.7112
 2045SOL     OW17770   1.652   3.349   8.364  0.5648  0.2504  0.8553
 2045SOL    HW117771   1.676   3.258   8.380  1.3929  0.0477 -1.6075
 2045SOL    HW217772   1.637   3.381   8.453  3.1872  0.5765  1.1698
 2046SOL     OW17773   2.109   1.108   2.245 -0.3652 -0.1593  0.1286
 2046SOL    HW117774   2.142   1.143   2.328 -1.7891 -0.0808  0.6741
 2046SOL    HW217775   2.080   1.021   2.275 -0.4508 -1.1166 -2.7622
 2047SOL     OW17776   2.010   4.069  16.988 -0.4128  0.0542  0.2781
 2047SOL    HW117777   2.071   4.000  16.964  0.9532  0.8342  1.5486
 2047SOL    HW217778   2.069   4.144  16.994 -0.0556 -0.3865  2.0622
 2048SOL     OW17779   1.724   4.516  14.754 -0.1465  0.9740 -0.7307
 2048SOL    HW117780   1.763   4.429  14.747 -1.2196  0.3813  0.7555
 2048SOL    HW217781   1.639   4.500  14.795  0.7673 -1.5488  0.1343
 2049SOL     OW17782   2.573   1.876  13.617  0.3879  0.4043  0.0660
 2049SOL    HW117783   2.557   1.937  13.689 -0.5073 -1.1652  1.1886
 2049SOL    HW217784   2.667   1.861  13.614 -0.0066 -1.7128 -1.5623
 2050SOL     OW17785   0.895   4.538   1.949  0.4097  0.2814 -0.1666
 2050SOL    HW117786   0.972   4.564   1.999  0.0812  1.3367 -0.2261
 2050SOL    HW217787   0.874   4.616   1.899  0.4139  0.0693 -0.5033
 2051SOL     OW17788   0.917   1.499  16.190 -0.3976  0.0167  0.1216
 2051SOL    HW117789   0.973   1.430  16.225 -0.0721  0.3647  0.2809
 2051SOL    HW217790   0.940   1.565  16.255  0.5810 -0.2725  0.0744
 2052SOL     OW17791   3.799   0.104   4.004  0.2727 -0.0377 -0.1253
 2052SOL    HW117792   3.763   0.077   3.920  1.7645 -0.0921 -0.7602
 2052SOL    HW217793   3.729   0.154   4.045 -0.9826 -0.6885 -1.5050
 2053SOL     OW17794   3.812   2.778   8.497  0.2113  0.1988  0.1302
 2053SOL    HW117795   3.764   2.702   8.463 -1.4585  2.3530 -2.3056
 2053SOL    HW217796   3.826   2.757   8.590 -0.7915  1.1625  0.4944
 2054SOL     OW17797   3.998   0.880   9.221  0.3112 -0.0039  0.1162
 2054SOL    HW117798   4.076   0.929   9.246  0.7440 -1.0861  0.9182
 2054SOL    HW217799   3.924   0.927   9.259  0.6459 -1.8019  3.0226
 2055SOL     OW17800   3.329   2.448   2.995  0.5641 -0.0104 -0.6965
 2055SOL    HW117801   3.358   2.539   2.986  0.6751 -0.0032 -0.2983
 2055SOL    HW217802   3.408   2.409   3.032  0.1508 -0.8749 -0.7209
 2056SOL     OW17803   1.394   0.104  17.365  0.2225 -0.1420  0.3617
 2056SOL    HW117804   1.445   0.182  17.387 -0.2714  0.2122  0.2320
 2056SOL    HW217805   1.394   0.067  17.453  2.7931  1.2185  0.9441
 2057SOL     OW17806   2.214   3.555  15.881  0.3130  0.3544  0.6213
 2057SOL    HW117807   2.126   3.526  15.857  0.0907  0.7919  0.9182
 2057SOL    HW217808   2.212   3.643  15.844 -1.8732  0.1744  0.3139
 2058SOL     OW17809   3.667   0.939   1.883 -0.1569 -0.5793  0.3241
 2058SOL    HW117810   3.750   0.892   1.881  1.2360  1.9263 -0.1792
 2058SOL    HW217811   3.628   0.881   1.949 -2.1339  0.2007 -0.1541
 2059SOL     OW17812   1.503   2.367  17.744 -0.2509 -0.0424  0.1107
 2059SOL    HW117813   1.595   2.347  17.725  0.3029  2.2472  0.3338
 2059SOL    HW217814   1.445   2.314  17.690  0.5581 -0.1614 -0.6376
 2060SOL     OW17815   4.336   0.199   3.898  0.2003 -0.5768  0.0434
 2060SOL    HW117816   4.353   0.292   3.915 -0.9817 -0.1149 -1.3468
 2060SOL    HW217817   4.241   0.212   3.895  0.2452 -0.1485  0.3939
 2061SOL     OW17818   3.840   3.501   4.054 -0.1276 -0.3766 -0.0634
 2061SOL    HW117819   3.830   3.589   4.090  2.6735  0.0425 -0.3355
 2061SOL    HW217820   3.831   3.513   3.959  0.3477  0.1066 -0.0452
 2062SOL     OW17821   2.447   2.787   0.290  0.0987  0.1125  0.0340
 2062SOL    HW117822   2.485   2.875   0.295 -1.1511  0.6333  0.1895
 2062SOL    HW217823   2.423   2.789   0.197  2.0305  1.4223 -0.4360
 2063SOL     OW17824   3.901   3.780   1.057  0.0551 -0.1714  0.2408
 2063SOL    HW117825   3.813   3.749   1.035 -0.0747  0.4550 -0.1223
 2063SOL    HW217826   3.936   3.789   0.968  2.9329 -2.6272  1.1263
 2064SOL     OW17827   4.320   4.515  14.725 -0.1350 -0.0124 -0.3714
 2064SOL    HW117828   4.301   4.593  14.777  1.7986 -0.0312  0.3876
 2064SOL    HW217829   4.415   4.524  14.718 -0.1525  1.3802  1.1585
 2065SOL     OW17830   4.713   0.044   5.231  0.1466 -0.0634 -0.0902
 2065SOL    HW117831   4.707   4.691   5.250 -1.6250 -0.2577 -1.5232
 2065SOL    HW217832   4.687   0.039   5.139 -1.9894  1.2227  0.4451
 2066SOL     OW17833   2.290   0.168   6.287 -0.4338 -0.5818 -0.0124
 2066SOL    HW117834   2.345   0.227   6.235 -0.0249  1.0114  2.2388
 2066SOL    HW217835   2.299   0.086   6.238  0.4850  0.4947 -1.6638
 2067SOL     OW17836   0.638   1.880   6.564 -0.4739  0.4325 -0.2554
 2067SOL    HW117837   0.615   1.792   6.594 -2.8706  0.3149 -2.4231
 2067SOL    HW217838   0.665   1.920   6.646 -0.4172  0.4181 -0.2674
 2068SOL     OW17839   1.631   1.718   3.184  0.0450 -0.1780 -0.0502
 2068SOL    HW117840   1.632   1.640   3.129  0.5686 -0.2756  0.0945
 2068SOL    HW217841   1.700   1.774   3.148  0.6126  0.0324  1.3616
 2069SOL     OW17842   0.308   1.662  16.544 -0.8772 -0.1703  0.2721
 2069SOL    HW117843   0.219   1.691  16.564 -0.6982  0.7441 -0.2468
 2069SOL    HW217844   0.286   1.637  16.455 -0.2848 -2.4364  0.7561
 2070SOL     OW17845   1.530   2.618  15.008 -0.1519 -0.4534 -0.5891
 2070SOL    HW117846   1.468   2.545  15.011  1.1591 -1.5146  0.3850
 2070SOL    HW217847   1.539   2.629  14.913 -2.3814  0.1540 -0.7412
 2071SOL     OW17848   4.326   3.590   4.948 -0.0057  0.6142 -0.8896
 2071SOL    HW117849   4.335   3.644   4.870  0.7814  2.6670  0.6402
 2071SOL    HW217850   4.231   3.586   4.958 -0.0794  2.0358 -1.0302
 2072SOL     OW17851   2.069   4.241  11.108 -0.0344  0.2073 -0.5745
 2072SOL    HW117852   1.977   4.220  11.127  0.5179 -2.6199 -0.9610
 2072SOL    HW217853   2.057   4.272  11.018 -1.3159 -1.6640 -1.0605
 2073SOL     OW17854   2.401   4.123  12.482 -0.0112  0.0382  0.2312
 2073SOL    HW117855   2.335   4.190  12.466 -1.5740 -2.0220 -1.9765
 2073SOL    HW217856   2.437   4.103  12.396  0.8014  1.7457  0.1959
 2074SOL     OW17857   3.102   3.139   2.640  0.3162 -0.0360  0.4339
 2074SOL    HW117858   3.046   3.083   2.586 -0.1768  0.4931  0.3936
 2074SOL    HW217859   3.193   3.120   2.618  0.1325  0.4328 -0.7183
 2075SOL     OW17860   2.702   3.266   4.163 -0.3048  0.5025  0.4981
 2075SOL    HW117861   2.796   3.284   4.173 -0.9013  4.5560 -1.2222
 2075SOL    HW217862   2.683   3.246   4.255 -1.5516 -1.1844 -0.1379
 2076SOL     OW17863   3.235   2.529   4.135 -0.3932 -0.2378 -0.4705
 2076SOL    HW117864   3.178   2.489   4.200  1.0103  1.1747  1.6489
 2076SOL    HW217865   3.304   2.463   4.137 -0.5762 -0.3659  3.0917
 2077SOL     OW17866   3.872   2.324   5.860  0.2273 -0.0178 -0.6731
 2077SOL    HW117867   3.903   2.298   5.774 -0.0621  1.2613 -1.1519
 2077SOL    HW217868   3.929   2.400   5.872 -2.4435  1.9362 -0.4635
 2078SOL     OW17869   2.797   4.084   5.768 -0.5401 -0.2096 -0.0016
 2078SOL    HW117870   2.746   4.009   5.798 -2.0624  0.2029 -1.5491
 2078SOL    HW217871   2.859   4.077   5.840 -1.6039  2.5623  1.1580
 2079SOL     OW17872   3.079   1.099   5.590  0.8915  0.2024 -0.5063
 2079SOL    HW117873   3.137   1.052   5.650 -2.6987 -3.1293  0.3953
 2079SOL    HW217874   3.024   1.028   5.555 -0.9155  0.3709  1.9630
 2080SOL     OW17875   2.594   1.819   7.368  0.3959  0.3727  0.1503
 2080SOL    HW117876   2.560   1.844   7.283 -2.6173 -1.4875  0.8202
 2080SOL    HW217877   2.590   1.897   7.422 -1.7955  0.4843 -0.1807
 2081SOL     OW17878   0.896   1.500  16.573 -0.4748  0.3587 -0.3082
 2081SOL    HW117879   0.894   1.406  16.556 -1.9753 -0.3161  3.6053
 2081SOL    HW217880   0.805   1.506  16.602 -0.7812  0.0633 -1.1957
 2082SOL     OW17881   2.903   2.268   2.362 -0.4528 -0.3679 -0.0455
 2082SOL    HW117882   2.934   2.179   2.379 -1.5446 -1.1739 -2.2562
 2082SOL    HW217883   2.979   2.309   2.320 -1.3678 -1.4835 -2.7464
 2083SOL     OW17884   1.946   4.151   8.244 -0.4065  0.3521  0.4191
 2083SOL    HW117885   1.909   4.232   8.210  0.1388  0.5508  0.3070
 2083SOL    HW217886   2.018   4.180   8.301 -1.5285  3.1232  0.4038
 2084SOL     OW17887   1.359   3.913  11.944  0.1307 -0.0004  0.4643
 2084SOL    HW117888   1.304   3.988  11.965  1.1278  1.0646 -0.6737
 2084SOL    HW217889   1.290   3.846  11.948  0.6988 -0.6390 -0.3948
 2085SOL     OW17890   0.173   2.821   6.484 -0.0071  0.0814 -0.1980
 2085SOL    HW117891   0.198   2.885   6.417  0.8673  0.0208  0.0605
 2085SOL    HW217892   0.153   2.746   6.427  0.7666 -1.3557  1.4137
 2086SOL     OW17893   2.498   3.409  10.588 -0.0484 -0.5013 -0.2299
 2086SOL    HW117894   2.445   3.453  10.521 -0.3198 -1.8033 -0.8851
 2086SOL    HW217895   2.493   3.314  10.571 -0.9654 -0.7349  1.3448
 2087SOL     OW17896   4.635   3.574   1.886 -0.1854  0.5563 -0.1957
 2087SOL    HW117897   4.706   3.511   1.896 -0.7911  0.4525  3.4456
 2087SOL    HW217898   4.567   3.515   1.918 -1.4458  2.1626  0.0884
 2088SOL     OW17899   1.496   0.213   8.510  0.2692 -0.2706 -0.0535
 2088SOL    HW117900   1.587   0.240   8.496  0.3442 -1.4888 -1.9234
 2088SOL    HW217901   1.447   0.254   8.438  0.0138 -0.4395  0.0254
 2089SOL     OW17902   4.232   3.687  12.525 -0.1172  0.6836  0.5184
 2089SOL    HW117903   4.297   3.723  12.585 -0.0860  0.2702  0.7287
 2089SOL    HW217904   4.233   3.594  12.547  1.1189  0.5627 -0.0153
 2090SOL     OW17905   2.313   0.828   7.101  0.0317 -0.3887 -0.5032
 2090SOL    HW117906   2.394   0.777   7.098  0.4245  0.3424 -2.1267
 2090SOL    HW217907   2.262   0.779   7.166  0.6026  0.2168  0.4025
 2091SOL     OW17908   1.652   2.518   9.725 -0.0635  0.4302  0.3800
 2091SOL    HW117909   1.716   2.586   9.706 -0.7504  0.7361 -0.8611
 2091SOL    HW217910   1.589   2.532   9.654  1.3326  1.6412 -0.6202
 2092SOL     OW17911   3.125   2.440   5.326 -0.5819 -0.6218 -0.8795
 2092SOL    HW117912   3.031   2.424   5.337 -0.4759 -0.1585  0.5767
 2092SOL    HW217913   3.144   2.408   5.414  0.0082  3.0306  0.3221
 2093SOL     OW17914   3.558   1.809   1.420 -1.0672 -0.3084 -0.0928
 2093SOL    HW117915   3.646   1.830   1.450 -0.4111 -1.4048 -1.2627
 2093SOL    HW217916   3.559   1.854   1.336 -0.4329  2.3412  1.3096
 2094SOL     OW17917   3.646   1.608   5.616  0.6292 -0.3614 -0.5085
 2094SOL    HW117918   3.656   1.577   5.706  1.0761  0.3221 -0.3192
 2094SOL    HW217919   3.595   1.540   5.572 -0.4011 -0.5997  1.0498
 2095SOL     OW17920   0.921   2.902  16.517 -0.2617  0.0004  0.1350
 2095SOL    HW117921   0.859   2.853  16.464 -0.2234 -0.8727  0.9077
 2095SOL    HW217922   0.924   2.985  16.468 -0.0508 -0.1956 -0.1798
 2096SOL     OW17923   2.751   3.318   8.918  0.0469  0.0476  0.1059
 2096SOL    HW117924   2.831   3.358   8.885  0.8966 -1.0496  0.8196
 2096SOL    HW217925   2.746   3.348   9.009  0.0342 -1.0561  0.4657
 2097SOL     OW17926   1.088   2.467   5.312 -0.2199  0.8922  0.1008
 2097SOL    HW117927   1.000   2.430   5.325 -0.9764  1.4549 -3.5143
 2097SOL    HW217928   1.152   2.397   5.325  0.9746  2.0801  0.5068
 2098SOL     OW17929   1.630   3.671   1.728 -0.0353 -0.5692 -0.0623
 2098SOL    HW117930   1.709   3.660   1.782  1.0821 -0.3573 -1.6706
 2098SOL    HW217931   1.566   3.691   1.796 -0.7323 -0.1859 -0.8328
 2099SOL     OW17932   4.413   3.355   9.321  0.3385  0.0276 -0.4380
 2099SOL    HW117933   4.413   3.433   9.378 -1.9254  0.4379 -0.9987
 2099SOL    HW217934   4.332   3.359   9.271 -0.7314 -1.9706  1.1262
 2100SOL     OW17935   0.317   0.987  13.522 -0.1843  0.1845 -0.5293
 2100SOL    HW117936   0.293   0.916  13.463 -0.3439  0.5652 -0.9174
 2100SOL    HW217937   0.335   1.054  13.457 -0.8748  0.7030 -0.1877
 2101SOL     OW17938   0.693   1.535   5.253 -0.1149  0.2547  0.1249
 2101SOL    HW117939   0.616   1.483   5.228 -0.7120  1.2573 -0.1381
 2101SOL    HW217940   0.678   1.604   5.189 -0.4755  0.0953  0.0375
 2102SOL     OW17941   3.127   0.172   7.512  0.3260 -0.1673 -0.0224
 2102SOL    HW117942   3.212   0.168   7.557  1.1482 -0.6640 -1.6049
 2102SOL    HW217943   3.125   0.079   7.486  0.2028  0.3481 -1.8202
 2103SOL     OW17944   3.107   3.077   4.337  0.3189  0.3836  0.5313
 2103SOL    HW117945   3.048   3.053   4.409 -0.6499  0.9341 -0.0809
 2103SOL    HW217946   3.040   3.113   4.278  0.4588  1.2948  0.9232
 2104SOL     OW17947   0.032   0.314   9.463 -0.7581 -0.0555  0.4231
 2104SOL    HW117948   0.114   0.273   9.489 -1.0757 -0.2717  1.0688
 2104SOL    HW217949   0.061   0.372   9.392  1.2194  1.4215  2.4505
 2105SOL     OW17950   1.712   3.118  14.810 -0.1956 -0.3705 -0.1498
 2105SOL    HW117951   1.759   3.074  14.740  0.1715  1.5103 -1.0926
 2105SOL    HW217952   1.637   3.151  14.761  0.4882  1.2998 -0.0829
 2106SOL     OW17953   3.871   2.177   2.108  0.2077  0.0685 -0.5292
 2106SOL    HW117954   3.807   2.154   2.175  0.6057  0.9685  0.1537
 2106SOL    HW217955   3.842   2.121   2.035 -1.7399  0.0925  0.2285
 2107SOL     OW17956   2.811   2.602   8.229 -0.3200  0.2773  0.3378
 2107SOL    HW117957   2.717   2.596   8.242 -0.3999  0.7845 -0.0134
 2107SOL    HW217958   2.812   2.696   8.210 -1.8893 -0.1916 -2.0895
 2108SOL     OW17959   1.049   0.098   7.652 -0.2175 -0.4178  0.2349
 2108SOL    HW117960   1.058   0.128   7.742 -0.4834  1.7153 -0.4314
 2108SOL    HW217961   0.955   0.082   7.643 -0.6722  2.6648 -0.6644
 2109SOL     OW17962   4.310   0.482   4.280  0.1321 -0.4345  0.5612
 2109SOL    HW117963   4.390   0.532   4.293 -0.4281 -0.1075  2.7531
 2109SOL    HW217964   4.251   0.532   4.224  0.1490  1.5245  2.2954
 2110SOL     OW17965   0.292   2.865   2.167  0.3815  0.2008  0.4950
 2110SOL    HW117966   0.363   2.889   2.108  0.4989 -0.9047  0.1822
 2110SOL    HW217967   0.336   2.808   2.230 -1.0302 -1.1446  0.2806
 2111SOL     OW17968   3.483   3.592   6.172  0.1629 -0.4975  0.1804
 2111SOL    HW117969   3.543   3.561   6.240  1.6106  0.4731 -0.6556
 2111SOL    HW217970   3.530   3.544   6.104  0.5699  0.7067 -0.3847
 2112SOL     OW17971   2.910   1.084  11.267  0.6274  0.4030  0.5746
 2112SOL    HW117972   2.885   1.165  11.310 -0.9254  0.4963 -0.4788
 2112SOL    HW217973   2.907   1.035  11.349 -0.8682 -1.3089 -0.4957
 2113SOL     OW17974   0.293   3.074   7.550  0.3725 -0.3394 -0.2631
 2113SOL    HW117975   0.297   3.166   7.525  1.5915 -0.8953 -2.1104
 2113SOL    HW217976   0.325   3.072   7.641 -4.3679  0.3613  1.4305
 2114SOL     OW17977   0.732   0.094   5.338 -0.1975  0.4162  0.3578
 2114SOL    HW117978   0.697   0.032   5.274 -0.9831  1.1366  0.0859
 2114SOL    HW217979   0.823   0.099   5.308 -0.4461  1.4640 -0.2544
 2115SOL     OW17980   2.671   2.969  16.962  0.0324 -0.3858  0.5162
 2115SOL    HW117981   2.583   2.943  16.932  1.0715 -2.1973 -0.9722
 2115SOL    HW217982   2.711   3.029  16.899 -1.0636 -1.2328 -0.9959
 2116SOL     OW17983   2.682   2.531  15.695 -0.4457  0.0919  0.0506
 2116SOL    HW117984   2.765   2.483  15.698 -0.6068 -0.0665  2.1402
 2116SOL    HW217985   2.616   2.462  15.691  0.9178 -1.2931  0.8988
 2117SOL     OW17986   0.622   1.474   6.928  0.2590 -1.1990  0.2355
 2117SOL    HW117987   0.553   1.423   6.885 -0.4361  0.9309 -1.1832
 2117SOL    HW217988   0.571   1.502   7.004 -0.3687  3.7564 -2.0051
 2118SOL     OW17989   0.544   2.267   2.301 -0.7895  0.1800  0.1466
 2118SOL    HW117990   0.466   2.223   2.334  0.0560 -0.8018  0.8376
 2118SOL    HW217991   0.500   2.348   2.276 -0.5933 -0.2266 -1.5597
 2119SOL     OW17992   0.797   0.218  11.086 -0.3304 -0.4927  0.0473
 2119SOL    HW117993   0.732   0.256  11.027  1.0835 -1.7246 -2.2914
 2119SOL    HW217994   0.829   0.297  11.129  2.1495 -1.8681  0.7253
 2120SOL     OW17995   4.211   1.862   9.905  0.0886  0.0005  0.0792
 2120SOL    HW117996   4.134   1.869   9.848 -0.7347 -1.5593  0.9809
 2120SOL    HW217997   4.187   1.800   9.973  1.1182 -0.7244 -0.2183
 2121SOL     OW17998   0.336   1.331   8.053  0.6178 -0.1950 -0.0466
 2121SOL    HW117999   0.264   1.269   8.064  2.0764 -1.3062  3.2098
 2121SOL    HW218000   0.332   1.380   8.135  0.4357  2.1142 -1.4418
 2122SOL     OW18001   4.631   3.307  12.590  0.0187 -0.4234  0.0957
 2122SOL    HW118002   4.675   3.323  12.507  0.9869 -2.4718  0.2124
 2122SOL    HW218003   4.633   3.211  12.588 -2.5187 -0.4007 -3.1702
 2123SOL     OW18004   1.734   1.363   3.323 -1.0294  0.4401 -0.3533
 2123SOL    HW118005   1.669   1.295   3.344 -0.1385  0.2929  1.9642
 2123SOL    HW218006   1.674   1.411   3.266 -0.7520 -0.7136 -1.6177
 2124SOL     OW18007   2.490   4.445   2.637  0.2393 -0.1798 -0.3653
 2124SOL    HW118008   2.485   4.525   2.688 -0.5533  0.5163 -1.5552
 2124SOL    HW218009   2.476   4.380   2.706 -0.6862 -0.3901 -0.7536
 2125SOL     OW18010   1.396   2.046   4.672 -0.4231 -0.0258  0.1278
 2125SOL    HW118011   1.421   2.111   4.606 -1.9115  0.7584  0.3353
 2125SOL    HW218012   1.433   2.090   4.748  4.4290 -1.1424 -1.5892
 2126SOL     OW18013   0.875   0.132   8.380 -0.2152 -0.5447  0.3486
 2126SOL    HW118014   0.883   0.067   8.310 -0.1271  1.4293 -1.4775
 2126SOL    HW218015   0.940   0.191   8.342  0.6877 -0.6928  1.7018
 2127SOL     OW18016   2.247   2.965   6.628  0.2272  0.1796 -0.2372
 2127SOL    HW118017   2.252   3.060   6.632 -2.0108  0.3758 -1.7022
 2127SOL    HW218018   2.170   2.948   6.682 -1.1391 -0.4898 -2.3760
 2128SOL     OW18019   0.631   2.197   0.542 -0.1781 -0.3330 -0.0427
 2128SOL    HW118020   0.592   2.116   0.575  1.0841 -1.3840 -1.1205
 2128SOL    HW218021   0.721   2.179   0.569 -0.8208 -0.4268  2.0171
 2129SOL     OW18022   3.861   0.025   1.599  0.3070 -0.2982  0.1771
 2129SOL    HW118023   3.931   4.732   1.655 -0.2888 -1.1352  0.4159
 2129SOL    HW218024   3.898   0.108   1.568 -0.8269  0.4677  0.9063
 2130SOL     OW18025   2.943   1.086   7.384  0.0308  0.3839 -0.4322
 2130SOL    HW118026   2.907   1.048   7.464 -1.7441  0.4460 -1.2032
 2130SOL    HW218027   2.872   1.135   7.343 -0.5290 -0.5929 -0.6176
 2131SOL     OW18028   3.257   4.631   7.281  0.3333 -0.1126  0.0749
 2131SOL    HW118029   3.225   4.560   7.336  1.9048  0.1118  1.2914
 2131SOL    HW218030   3.352   4.614   7.282  0.3127 -0.2191  0.1572
 2132SOL     OW18031   1.298   3.652   4.356  0.0831 -0.4109  0.1320
 2132SOL    HW118032   1.387   3.672   4.385 -0.1554  0.3239  0.3811
 2132SOL    HW218033   1.263   3.614   4.437  0.1116  0.4561  0.5616
 2133SOL     OW18034   2.669   0.811   5.064  0.1402  0.5021  0.7886
 2133SOL    HW118035   2.678   0.852   5.149  2.5258 -2.4352  1.9590
 2133SOL    HW218036   2.579   0.780   5.073  1.5676 -3.3695  1.8444
 2134SOL     OW18037   1.652   4.029   2.094  0.2315 -0.3271 -0.1779
 2134SOL    HW118038   1.681   4.028   2.186  1.8162 -2.8287 -0.7017
 2134SOL    HW218039   1.724   3.996   2.040  0.6045  0.3313 -0.0796
 2135SOL     OW18040   4.375   3.155   1.848 -0.2200 -0.5229 -0.3049
 2135SOL    HW118041   4.381   3.060   1.859 -0.7412 -0.6357 -0.9544
 2135SOL    HW218042   4.338   3.176   1.933 -0.6530 -0.7697 -0.4332
 2136SOL     OW18043   4.242   3.570   9.714  0.0296 -0.4670 -1.1018
 2136SOL    HW118044   4.243   3.636   9.784 -1.0603 -0.9675 -0.6086
 2136SOL    HW218045   4.190   3.618   9.649  1.2327  1.6402 -0.5086
 2137SOL     OW18046   2.344   3.746   1.619 -0.6962  0.1440  0.0723
 2137SOL    HW118047   2.326   3.836   1.648 -1.1664  0.6067 -1.6616
 2137SOL    HW218048   2.435   3.743   1.589 -1.2096  1.1638 -1.5739
 2138SOL     OW18049   2.944   2.931  15.954 -0.5136 -0.3666 -0.3161
 2138SOL    HW118050   3.036   2.912  15.970 -0.3485  0.4954 -0.2707
 2138SOL    HW218051   2.923   2.872  15.882 -2.9154 -1.0385  0.9185
 2139SOL     OW18052   4.703   0.192   1.248 -0.2155 -0.3546 -0.4552
 2139SOL    HW118053   0.037   0.181   1.308  0.8573 -0.9045 -1.8918
 2139SOL    HW218054   4.635   0.169   1.311 -2.0761  0.7672 -2.0752
 2140SOL     OW18055   0.783   1.514  15.233  0.3093 -0.1861 -0.2755
 2140SOL    HW118056   0.716   1.556  15.178  1.3383  1.9942  0.1527
 2140SOL    HW218057   0.740   1.430  15.252 -0.2181  0.5066  1.6034
 2141SOL     OW18058   0.542   3.368  10.748 -0.1182 -0.2804 -0.2244
 2141SOL    HW118059   0.546   3.404  10.837 -0.0031  0.9168 -0.7145
 2141SOL    HW218060   0.634   3.357  10.725  0.6456 -1.0343  3.1990
 2142SOL     OW18061   4.317   0.331  11.382  0.5971 -0.3105 -0.3650
 2142SOL    HW118062   4.344   0.265  11.318  1.1057 -1.4274  1.0287
 2142SOL    HW218063   4.372   0.404  11.353 -0.0546  0.1412 -0.4794
 2143SOL     OW18064   3.038   2.662  14.497 -0.1192  0.0843 -0.0866
 2143SOL    HW118065   3.082   2.577  14.509 -1.1231 -0.2521  1.2428
 2143SOL    HW218066   3.103   2.712  14.546 -0.5376 -0.7463  1.3293
 2144SOL     OW18067   3.536   0.776   9.041 -0.0954  0.4927  0.0665
 2144SOL    HW118068   3.612   0.834   9.053 -0.1460  0.3678  1.0437
 2144SOL    HW218069   3.519   0.799   8.950 -0.6635  1.1180  0.3233
 2145SOL     OW18070   4.512   4.729   7.870 -0.4409  0.2563 -0.1716
 2145SOL    HW118071   4.557   4.661   7.921  0.3458 -0.2868 -1.5734
 2145SOL    HW218072   4.449   4.671   7.826  0.3738 -0.4359 -0.4287
 2146SOL     OW18073   3.788   4.510   5.249  1.1459 -1.2564 -0.2186
 2146SOL    HW118074   3.697   4.513   5.281  1.6335 -0.9271  1.1248
 2146SOL    HW218075   3.841   4.499   5.327  0.8564 -0.6484  0.0628
 2147SOL     OW18076   3.655   2.127   2.268  0.2694 -0.2960 -0.0168
 2147SOL    HW118077   3.611   2.164   2.345 -3.7201 -0.2869 -2.3238
 2147SOL    HW218078   3.622   2.038   2.271  3.4502 -1.5321 -2.7961
 2148SOL     OW18079   0.216   4.653   3.682 -0.1502 -0.0689 -0.3147
 2148SOL    HW118080   0.145   4.693   3.632  0.8668  1.6446 -0.3810
 2148SOL    HW218081   0.253   4.598   3.613  1.7667 -0.3088  0.9043
 2149SOL     OW18082   2.412   0.910   6.833  0.1816 -0.9205 -0.1601
 2149SOL    HW118083   2.484   0.847   6.834 -0.7584 -1.9537  1.6342
 2149SOL    HW218084   2.355   0.873   6.901 -0.4055  1.2679  0.5396
 2150SOL     OW18085   4.373   2.198   5.090 -0.3453  0.2824 -0.6277
 2150SOL    HW118086   4.300   2.142   5.117  0.6495 -0.3818  0.6630
 2150SOL    HW218087   4.431   2.183   5.165  1.7595 -1.7208 -2.6955
 2151SOL     OW18088   3.743   3.093   5.602  0.4574  0.6634 -0.0818
 2151SOL    HW118089   3.825   3.140   5.618  1.0214 -0.3699  0.0728
 2151SOL    HW218090   3.678   3.157   5.630  1.4032  1.9805 -0.8650
 2152SOL     OW18091   0.391   2.428   2.936  0.5999 -0.3223 -0.0424
 2152SOL    HW118092   0.471   2.384   2.966  0.9246 -0.9463 -1.8436
 2152SOL    HW218093   0.400   2.523   2.944 -0.0170 -0.1786 -1.0199
 2153SOL     OW18094   2.484   2.165   6.521  0.0936  0.3597 -0.4862
 2153SOL    HW118095   2.472   2.084   6.472  1.1922 -1.0805  1.6523
 2153SOL    HW218096   2.395   2.176   6.552  0.0997 -1.7579  0.2008
 2154SOL     OW18097   0.930   1.964   9.609  0.3711  0.3616  0.5848
 2154SOL    HW118098   0.859   2.013   9.567  0.0920 -0.1249  0.4823
 2154SOL    HW218099   0.918   1.966   9.704 -0.1263  0.6732  0.5153
 2155SOL     OW18100   2.199   3.786   3.566 -0.4937  0.4917 -0.5405
 2155SOL    HW118101   2.212   3.847   3.639 -0.4991 -0.1883  0.0252
 2155SOL    HW218102   2.161   3.844   3.500  1.3943  2.5327  0.1379
 2156SOL     OW18103   0.113   4.712   7.120 -0.0949 -0.3110 -0.4082
 2156SOL    HW118104   0.131   4.622   7.092  2.0791  0.5433 -1.8214
 2156SOL    HW218105   0.123   0.024   7.040 -1.6352  0.5005 -0.0713
 2157SOL     OW18106   2.494   2.354   6.737  0.0218  0.2727 -0.2766
 2157SOL    HW118107   2.509   2.309   6.653 -1.4333 -2.4805  0.9171
 2157SOL    HW218108   2.480   2.281   6.797 -0.0991  1.7887  1.5102
 2158SOL     OW18109   1.203   0.055   5.303 -0.4686 -0.3148 -0.2030
 2158SOL    HW118110   1.247   0.015   5.378 -0.2553 -0.9856 -0.6837
 2158SOL    HW218111   1.249   0.138   5.313  0.9652 -1.2151  0.6678
 2159SOL     OW18112   2.082   1.914   8.016  0.3070 -0.1913 -0.8244
 2159SOL    HW118113   2.076   1.823   8.044  1.8590 -0.1167 -0.2667
 2159SOL    HW218114   1.992   1.934   7.988 -0.3905  2.5068  3.3612
 2160SOL     OW18115   1.457   1.616   9.607  0.4118  0.2917  0.7242
 2160SOL    HW118116   1.546   1.593   9.579 -0.2799 -1.1499 -0.3460
 2160SOL    HW218117   1.403   1.539   9.584  0.3062  0.3134  0.9037
 2161SOL     OW18118   4.133   2.703   4.879  0.6090 -0.1019 -0.3909
 2161SOL    HW118119   4.089   2.779   4.841 -1.8654 -0.6598  1.3728
 2161SOL    HW218120   4.147   2.640   4.809 -1.3451  1.0856 -1.8438
 2162SOL     OW18121   3.803   4.244   7.418  0.5539  0.4290 -0.1052
 2162SOL    HW118122   3.712   4.215   7.415  0.3768  1.1508 -1.8730
 2162SOL    HW218123   3.804   4.276   7.328 -0.5456 -0.9909 -0.6172
 2163SOL     OW18124   3.504   4.170   7.483 -0.6314 -0.2085 -0.7719
 2163SOL    HW118125   3.413   4.141   7.492 -0.0094 -1.4621  1.5164
 2163SOL    HW218126   3.531   4.102   7.422 -0.9642 -1.6477  0.6750
 2164SOL     OW18127   0.569   2.257   6.484 -0.2186  0.6639  0.8251
 2164SOL    HW118128   0.578   2.185   6.422  2.3379  1.4823  0.2603
 2164SOL    HW218129   0.517   2.222   6.557 -0.2136 -0.7163  0.1467
 2165SOL     OW18130   3.799   1.722   1.235 -0.0014  0.0296  0.1381
 2165SOL    HW118131   3.798   1.766   1.320  1.8983 -0.3438  0.3497
 2165SOL    HW218132   3.773   1.791   1.173  1.0431 -1.6303 -2.1444
 2166SOL     OW18133   4.648   3.979   6.030  0.4254  0.1556  0.2068
 2166SOL    HW118134   4.635   4.074   6.024  0.9988  0.0384 -2.9950
 2166SOL    HW218135   4.590   3.947   5.961 -2.2478  0.4468  2.3240
 2167SOL     OW18136   4.729   0.536   4.497  0.0701 -0.1414 -0.9478
 2167SOL    HW118137   4.718   0.478   4.572  0.2122  0.2862 -0.5999
 2167SOL    HW218138   0.006   0.622   4.536  1.2971 -1.2349  0.9277
 2168SOL     OW18139   1.335   0.294   6.808 -0.2497  0.1558 -0.2091
 2168SOL    HW118140   1.246   0.329   6.815  0.4958  1.7565  0.9983
 2168SOL    HW218141   1.364   0.300   6.899 -1.6242  0.3075  0.2201
 2169SOL     OW18142   2.124   4.686  16.653 -0.2345 -0.0210 -0.7554
 2169SOL    HW118143   2.129   4.677  16.748 -0.5729 -0.2774 -0.7588
 2169SOL    HW218144   2.079   0.030  16.651  0.1803  0.2641  1.8806
 2170SOL     OW18145   3.317   3.769  16.944 -0.1682  0.0602 -0.3677
 2170SOL    HW118146   3.349   3.841  16.999  1.4935 -1.0638  0.1572
 2170SOL    HW218147   3.258   3.737  17.011 -0.3454  0.5803 -0.2750
 2171SOL     OW18148   2.772   2.472  12.851  0.1462 -0.4611  0.3577
 2171SOL    HW118149   2.783   2.437  12.763  1.2843  0.3602  0.1678
 2171SOL    HW218150   2.797   2.565  12.852  0.0869 -0.4386 -0.1302
 2172SOL     OW18151   2.823   0.590   2.320 -0.4113  0.0194 -0.1686
 2172SOL    HW118152   2.837   0.613   2.412 -2.0944  0.6594 -0.0722
 2172SOL    HW218153   2.899   0.532   2.322  0.5097  1.2717  1.0354
 2173SOL     OW18154   3.469   1.880   6.617  0.1327  0.1483 -0.3471
 2173SOL    HW118155   3.541   1.831   6.578  0.3529  0.7296 -0.6749
 2173SOL    HW218156   3.420   1.915   6.542 -0.7486  2.2014  1.1918
 2174SOL     OW18157   2.660   1.608   3.864 -0.2714 -0.3393 -0.1209
 2174SOL    HW118158   2.686   1.658   3.941  0.0359 -1.3304  0.4289
 2174SOL    HW218159   2.683   1.670   3.796 -0.8948  1.3126  1.1832
 2175SOL     OW18160   2.863   0.580  10.557  0.1950 -0.0450 -0.3684
 2175SOL    HW118161   2.903   0.494  10.546 -1.2606 -0.9985  1.6169
 2175SOL    HW218162   2.774   0.550  10.577  0.9526 -1.9930  0.0432
 2176SOL     OW18163   2.471   0.680  12.816  0.3222  0.0011  0.1654
 2176SOL    HW118164   2.554   0.640  12.788 -0.2061  0.3330 -1.9064
 2176SOL    HW218165   2.413   0.604  12.820  1.3082 -0.7717 -0.1462
 2177SOL     OW18166   1.634   2.755   9.342 -0.0208 -0.2240  0.0594
 2177SOL    HW118167   1.593   2.824   9.289  0.7726  0.5225  0.4381
 2177SOL    HW218168   1.706   2.731   9.283  0.3688 -3.7002  1.9677
 2178SOL     OW18169   3.535   2.459   5.040  0.4074  0.2275 -0.0166
 2178SOL    HW118170   3.540   2.367   5.064  1.7060  0.5200  0.8448
 2178SOL    HW218171   3.620   2.497   5.066  1.0842 -0.3084 -1.4734
 2179SOL     OW18172   3.146   0.283  13.370  0.1866  0.4211 -0.3256
 2179SOL    HW118173   3.060   0.241  13.377  1.4675 -2.1084  0.5086
 2179SOL    HW218174   3.145   0.321  13.458  1.1895  2.2464 -1.1008
 2180SOL     OW18175   0.327   0.728   4.133 -0.5275 -0.1199 -0.4212
 2180SOL    HW118176   0.272   0.756   4.061 -1.3441 -1.5371 -0.3454
 2180SOL    HW218177   0.411   0.709   4.092  0.2422  3.9988 -0.7963
 2181SOL     OW18178   1.990   1.352  15.564 -0.3125  0.1073  0.0894
 2181SOL    HW118179   2.028   1.265  15.551  1.2409  0.7783  0.1533
 2181SOL    HW218180   2.016   1.402  15.486 -2.3647 -1.0685 -1.3623
 2182SOL     OW18181   2.250   2.990  11.636 -0.0859 -0.1015  0.4115
 2182SOL    HW118182   2.252   3.012  11.543  1.8719 -1.5200  0.1226
 2182SOL    HW218183   2.258   2.895  11.644  1.3852 -0.0924 -0.8127
 2183SOL     OW18184   0.546   3.564   3.520 -0.0635 -0.1089 -0.2483
 2183SOL    HW118185   0.522   3.645   3.565 -0.8921 -1.0277  0.9590
 2183SOL    HW218186   0.461   3.528   3.495 -0.4656 -0.5263  1.7003
 2184SOL     OW18187   2.729   0.687   7.287  0.0522  0.0171  0.0015
 2184SOL    HW118188   2.792   0.741   7.242  0.8646 -0.1502  0.9435
 2184SOL    HW218189   2.723   0.737   7.368  0.6918  0.9622 -0.5443
 2185SOL     OW18190   0.054   3.333   1.024  0.2591  0.1308 -0.7547
 2185SOL    HW118191   0.129   3.320   1.083 -0.3329  0.6343  0.1068
 2185SOL    HW218192   0.067   3.267   0.956 -0.6129  1.3905 -2.1298
 2186SOL     OW18193   2.350   2.804   7.607 -0.3319 -0.0269 -0.6026
 2186SOL    HW118194   2.280   2.855   7.566  1.1333  1.9263 -0.6684
 2186SOL    HW218195   2.390   2.863   7.671  0.2388 -0.4220 -0.5887
 2187SOL     OW18196   0.719   3.533  11.882  0.2252 -0.0527 -0.4898
 2187SOL    HW118197   0.718   3.468  11.952 -0.1141 -0.1020 -0.5390
 2187SOL    HW218198   0.798   3.581  11.906  0.6236 -0.5643 -0.7850
 2188SOL     OW18199   1.591   4.069   5.499 -0.4344  0.3989  0.3354
 2188SOL    HW118200   1.588   4.131   5.426 -0.4581 -1.4455 -1.2358
 2188SOL    HW218201   1.667   4.021   5.465 -2.7738 -2.4753 -0.8100
 2189SOL     OW18202   4.042   2.021   5.636  0.3555  0.2697  0.4119
 2189SOL    HW118203   3.970   1.969   5.673  0.2227 -0.8258 -1.3750
 2189SOL    HW218204   4.017   2.113   5.647  2.6778  0.9898 -0.4256
 2190SOL     OW18205   3.460   3.924   3.217  0.1157  0.3840 -0.6317
 2190SOL    HW118206   3.551   3.942   3.192  0.4361  0.1914  0.3700
 2190SOL    HW218207   3.437   3.870   3.142 -0.0836 -0.2825 -0.0919
 2191SOL     OW18208   4.060   0.211   4.708  0.4252 -0.1789  0.4940
 2191SOL    HW118209   4.114   0.263   4.649 -0.4543  0.9533  0.6849
 2191SOL    HW218210   4.014   0.275   4.762  0.4146  0.6062 -0.4544
 2192SOL     OW18211   2.899   2.831  15.369  0.2715  0.0960  0.3920
 2192SOL    HW118212   2.823   2.796  15.417 -0.1657  1.0391  0.3923
 2192SOL    HW218213   2.917   2.759  15.309  0.0474 -0.5999  1.1631
 2193SOL     OW18214   4.009   3.154   7.337 -0.2962 -0.1128 -0.0582
 2193SOL    HW118215   4.071   3.188   7.273 -2.7146 -1.7555 -3.2690
 2193SOL    HW218216   4.065   3.088   7.379 -0.6528 -1.4877 -1.7588
 2194SOL     OW18217   2.400   1.794   2.127 -0.3318 -0.1291 -0.1940
 2194SOL    HW118218   2.451   1.740   2.067 -2.9944 -0.2271 -2.3385
 2194SOL    HW218219   2.315   1.750   2.123  1.0852 -2.6157 -3.0883
 2195SOL     OW18220   0.470   3.186  10.030  0.1492  0.1016 -0.0041
 2195SOL    HW118221   0.375   3.184  10.027  0.2580 -1.1535 -2.3495
 2195SOL    HW218222   0.492   3.178   9.937  1.3649  0.0938  0.2752
 2196SOL     OW18223   2.318   0.168  13.656 -0.4256 -0.0166 -0.2772
 2196SOL    HW118224   2.344   0.202  13.742 -2.3819 -0.0428  0.3338
 2196SOL    HW218225   2.349   0.233  13.593  0.2870 -0.6419 -0.5746
 2197SOL     OW18226   2.583   1.664   1.966 -0.2280  0.3570  0.6175
 2197SOL    HW118227   2.643   1.590   1.972  0.1342  0.6497  0.5630
 2197SOL    HW218228   2.514   1.633   1.908 -1.2140  1.1154  1.3762
 2198SOL     OW18229   0.742   3.623   1.439 -0.0079 -0.1172  0.0162
 2198SOL    HW118230   0.675   3.557   1.423 -0.9606  0.7794  0.2881
 2198SOL    HW218231   0.693   3.698   1.404 -3.3384 -1.5057  1.7826
 2199SOL     OW18232   4.556   1.864   6.254  0.6501 -0.0355 -0.4135
 2199SOL    HW118233   4.646   1.833   6.268  0.2818 -0.2710  1.4116
 2199SOL    HW218234   4.535   1.823   6.170 -0.5360 -1.1242  0.4223
 2200SOL     OW18235   4.285   4.569   7.352  0.0349  0.3030 -0.2511
 2200SOL    HW118236   4.357   4.592   7.293  1.2011 -1.4803  0.4499
 2200SOL    HW218237   4.326   4.504   7.409  1.3786 -2.2302 -4.1149
 2201SOL     OW18238   3.305   3.583   1.210  0.5592 -0.4341 -0.2325
 2201SOL    HW118239   3.392   3.555   1.241 -0.2916 -0.7547  1.8688
 2201SOL    HW218240   3.252   3.520   1.258 -2.4221  1.9794 -0.3371
 2202SOL     OW18241   3.518   1.834  15.418 -0.1898  0.0863 -0.1629
 2202SOL    HW118242   3.575   1.911  15.417 -0.6398  0.4294  1.2495
 2202SOL    HW218243   3.552   1.794  15.498 -0.9450 -2.0280 -0.8928
 2203SOL     OW18244   4.471   2.932   3.723 -0.7403  0.0918 -0.4894
 2203SOL    HW118245   4.472   2.918   3.628 -2.0854  1.8555 -0.7546
 2203SOL    HW218246   4.553   2.982   3.731  0.6506 -1.9767 -1.6109
 2204SOL     OW18247   0.255   3.967  11.831 -0.0161  0.1181 -0.0306
 2204SOL    HW118248   0.214   3.974  11.745  0.6164 -0.8554 -0.4084
 2204SOL    HW218249   0.346   3.944  11.814  0.2455  1.3842 -0.3595
 2205SOL     OW18250   1.399   2.559   1.899 -0.3167 -0.4077 -0.0015
 2205SOL    HW118251   1.322   2.581   1.952 -0.2196  0.8573 -0.3877
 2205SOL    HW218252   1.362   2.511   1.825 -3.1588  1.2714  0.3115
 2206SOL     OW18253   0.674   1.081  13.242  0.4979 -0.5325  0.1968
 2206SOL    HW118254   0.588   1.120  13.257  0.0056 -0.8468 -1.8302
 2206SOL    HW218255   0.647   1.004  13.193  0.6636  0.1227 -0.9308
 2207SOL     OW18256   1.171   1.054   0.407  0.5823 -0.0341  0.1211
 2207SOL    HW118257   1.144   1.134   0.362  1.5063 -0.7154 -1.6539
 2207SOL    HW218258   1.165   1.098   0.491  0.3794 -1.1166  0.6745
 2208SOL     OW18259   2.239   1.921  16.593 -0.9621  0.1063  0.1178
 2208SOL    HW118260   2.257   2.001  16.643 -1.0757 -0.6891  1.4298
 2208SOL    HW218261   2.230   1.856  16.664 -0.5601  0.6116  0.6353
 2209SOL     OW18262   0.849   2.355   0.671  0.0900  0.3086  0.1923
 2209SOL    HW118263   0.856   2.294   0.744 -0.3222  0.7262  0.5866
 2209SOL    HW218264   0.870   2.286   0.609  2.2280  2.1920 -1.1861
 2210SOL     OW18265   4.627   0.015   9.073 -0.1998  0.0179 -0.0594
 2210SOL    HW118266   4.604   0.069   9.149 -0.0798 -1.9528  1.3615
 2210SOL    HW218267   4.710   0.056   9.047 -1.2474  1.9723 -0.3899
 2211SOL     OW18268   2.734   0.736  10.175  0.0913 -0.1318 -0.2857
 2211SOL    HW118269   2.746   0.713  10.083  1.9671 -0.2596  0.0074
 2211SOL    HW218270   2.653   0.688  10.194  0.3128 -0.7162 -0.8343
 2212SOL     OW18271   4.358   3.485   7.105  0.4817  0.0186 -0.5244
 2212SOL    HW118272   4.391   3.442   7.026  1.0263 -1.4174  0.4803
 2212SOL    HW218273   4.401   3.570   7.113  1.3792 -0.5323  0.4832
 2213SOL     OW18274   0.794   1.267   2.861  0.3314  0.3451 -0.2648
 2213SOL    HW118275   0.842   1.325   2.802  2.1701  0.0958  1.0030
 2213SOL    HW218276   0.785   1.192   2.802  1.5044  0.1743 -0.2260
 2214SOL     OW18277   4.085   3.435   6.812 -0.3378 -0.2246  0.4304
 2214SOL    HW118278   4.104   3.342   6.799 -2.9281 -0.5777 -0.8074
 2214SOL    HW218279   4.165   3.475   6.776 -0.5251 -0.0981  0.1577
 2215SOL     OW18280   0.800   3.765   4.227  0.7093  0.0006  0.2282
 2215SOL    HW118281   0.763   3.678   4.243  0.1708 -0.2139 -2.3003
 2215SOL    HW218282   0.892   3.742   4.235  0.3558 -1.1461  1.0991
 2216SOL     OW18283   0.474   3.320   0.005 -0.0483 -0.0928  0.6006
 2216SOL    HW118284   0.462   3.406   0.045 -3.3971 -0.4578  0.3865
 2216SOL    HW218285   0.523   3.358  17.692 -0.5002 -0.1571  0.2678
 2217SOL     OW18286   3.030   0.798   6.112  0.1180  0.0541  0.1044
 2217SOL    HW118287   3.074   0.717   6.138 -2.4996 -0.5292  2.7287
 2217SOL    HW218288   2.943   0.760   6.121  0.5194 -0.4955  1.5730
 2218SOL     OW18289   4.303   2.116   8.117 -0.0902 -0.3611  0.2248
 2218SOL    HW118290   4.274   2.093   8.205  0.4970 -1.4097  0.1372
 2218SOL    HW218291   4.240   2.186   8.099 -0.6568 -0.7821  0.5639
 2219SOL     OW18292   2.752   3.834  17.674  0.1143 -0.5050  0.2178
 2219SOL    HW118293   2.796   3.758  17.711 -0.1042 -0.8927 -0.3180
 2219SOL    HW218294   2.669   3.845  17.720  0.1146 -1.3815  0.4295
 2220SOL     OW18295   2.441   1.491   6.724  0.2338 -0.0121  0.1480
 2220SOL    HW118296   2.363   1.460   6.770 -0.1885  0.5270 -0.1999
 2220SOL    HW218297   2.514   1.449   6.769 -0.2430 -0.7118  0.2699
 2221SOL     OW18298   2.685   3.695   7.868  0.3600 -0.1714 -0.3483
 2221SOL    HW118299   2.647   3.622   7.819 -1.3111 -0.9971  2.1706
 2221SOL    HW218300   2.620   3.760   7.845  0.8261 -0.3974 -2.2906
 2222SOL     OW18301   2.390   4.076   7.971  0.2427  0.4661  0.5524
 2222SOL    HW118302   2.402   4.160   7.927 -0.0293  0.8777  1.2539
 2222SOL    HW218303   2.478   4.068   8.007  0.2069 -1.3577  0.1958
 2223SOL     OW18304   4.225   0.144  12.053  0.5952 -0.0722 -0.1403
 2223SOL    HW118305   4.262   0.090  12.122  0.2342 -3.3904 -2.5247
 2223SOL    HW218306   4.204   0.229  12.093 -2.1884 -1.8841  2.2520
 2224SOL     OW18307   2.173   3.993  14.658  0.2296  0.3032  0.2526
 2224SOL    HW118308   2.155   4.087  14.652 -2.9679 -0.2961  0.5108
 2224SOL    HW218309   2.244   3.992  14.595 -0.6465 -0.0061 -0.7306
 2225SOL     OW18310   2.292   0.206   3.610 -0.7568  0.9455 -0.1287
 2225SOL    HW118311   2.358   0.266   3.646 -0.3708 -0.3934  1.3929
 2225SOL    HW218312   2.348   0.129   3.608 -1.2714  0.5667 -0.0740
 2226SOL     OW18313   0.904   3.596   4.550  0.0158  0.2618 -0.0041
 2226SOL    HW118314   0.838   3.636   4.607 -0.0190  1.3995 -0.8595
 2226SOL    HW218315   0.861   3.622   4.469  0.1516 -1.3270 -0.5805
 2227SOL     OW18316   4.424   3.409   8.353  0.1294 -0.1443 -0.2334
 2227SOL    HW118317   4.336   3.371   8.351 -0.8182  1.9221  1.3824
 2227SOL    HW218318   4.436   3.425   8.260 -0.2472 -0.4714 -0.3419
 2228SOL     OW18319   2.392   3.041   9.346  0.6483  0.2452 -0.0242
 2228SOL    HW118320   2.416   2.977   9.412  0.3159 -0.4609 -0.5859
 2228SOL    HW218321   2.479   3.078   9.328  1.2253 -0.8240  0.5892
 2229SOL     OW18322   4.605   3.829  10.680  0.5048  0.1570  0.0739
 2229SOL    HW118323   4.589   3.904  10.738 -0.5885  0.0501 -0.0811
 2229SOL    HW218324   4.526   3.839  10.626 -0.0289 -0.0442  0.8103
 2230SOL     OW18325   3.144   4.376  14.221  0.3769  0.4556 -0.1059
 2230SOL    HW118326   3.094   4.410  14.146  0.2002 -1.5474 -0.8786
 2230SOL    HW218327   3.198   4.311  14.176  0.2001 -0.3089  0.8048
 2231SOL     OW18328   0.058   3.102   3.375 -0.2323  0.6468 -0.5582
 2231SOL    HW118329   4.724   3.056   3.337  0.0856  0.0218 -0.4238
 2231SOL    HW218330   0.009   3.174   3.414 -1.5631 -1.4889  1.7075
 2232SOL     OW18331   0.458   3.792   2.084 -0.0524  0.1935 -0.2436
 2232SOL    HW118332   0.371   3.764   2.054  0.5143 -0.9385 -0.8500
 2232SOL    HW218333   0.435   3.807   2.176 -1.9799 -0.4603 -0.6041
 2233SOL     OW18334   4.136   2.398   6.930 -0.0507  0.0363  0.7872
 2233SOL    HW118335   4.089   2.330   6.881  3.4973 -2.1788  0.4361
 2233SOL    HW218336   4.154   2.355   7.014  2.5512 -1.2246 -0.4269
 2234SOL     OW18337   4.214   3.118   2.053 -0.0950 -0.5043 -0.2706
 2234SOL    HW118338   4.206   3.027   2.026  0.6162 -0.0906 -1.8847
 2234SOL    HW218339   4.250   3.109   2.141  1.5245  2.2106 -0.6381
 2235SOL     OW18340   0.585   0.268   3.068  0.1205  0.6527 -0.4061
 2235SOL    HW118341   0.573   0.346   3.013 -1.6247 -0.4379 -1.5663
 2235SOL    HW218342   0.639   0.213   3.012 -0.3332  0.1545 -0.3468
 2236SOL     OW18343   4.484   2.246  14.020 -0.3350 -0.3026 -0.1765
 2236SOL    HW118344   4.518   2.282  14.102 -0.7581 -0.8327  0.2408
 2236SOL    HW218345   4.419   2.314  14.005  1.0510  1.1223  0.3167
 2237SOL     OW18346   0.780   2.218   9.220 -0.3718  0.1824 -0.6361
 2237SOL    HW118347   0.778   2.181   9.308  1.4315  0.0703 -0.6249
 2237SOL    HW218348   0.873   2.240   9.211  0.1133 -2.3946 -2.0694
 2238SOL     OW18349   2.812   4.201  12.980 -0.0477 -0.0733 -0.1204
 2238SOL    HW118350   2.790   4.293  12.996  0.1240 -0.0261 -0.1502
 2238SOL    HW218351   2.846   4.174  13.065 -0.9298 -2.0142 -0.3728
 2239SOL     OW18352   3.813   3.456   2.890 -0.1600  0.0288  0.0547
 2239SOL    HW118353   3.774   3.524   2.945  0.3514  0.3482  0.0240
 2239SOL    HW218354   3.906   3.472   2.909 -0.1525  1.8674 -1.5134
 2240SOL     OW18355   3.594   0.966   5.413  0.4535  0.0702  0.0737
 2240SOL    HW118356   3.578   0.940   5.323  0.4261  1.5838 -0.3541
 2240SOL    HW218357   3.619   0.883   5.453  1.9291  1.2282  1.5529
 2241SOL     OW18358   2.313   0.713   1.924 -0.6119  0.1550  0.0870
 2241SOL    HW118359   2.233   0.671   1.956 -2.4429  2.7156 -1.1240
 2241SOL    HW218360   2.295   0.712   1.830  2.5148  1.5123 -0.5197
 2242SOL     OW18361   2.221   4.194   7.499  0.8663  0.2574 -0.0993
 2242SOL    HW118362   2.236   4.252   7.425 -0.9362  0.5322 -0.2513
 2242SOL    HW218363   2.146   4.140   7.471  0.2541  1.3035 -0.4607
 2243SOL     OW18364   2.034   1.993   6.968  0.1992 -0.2423  0.0321
 2243SOL    HW118365   2.000   2.024   7.052 -3.5581 -0.1972 -1.5045
 2243SOL    HW218366   2.079   1.920   7.012 -1.8590 -2.6495 -1.8350
 2244SOL     OW18367   3.223   1.191  16.300  0.0674  0.2639  0.2152
 2244SOL    HW118368   3.162   1.130  16.342  1.5541 -0.6225  1.1110
 2244SOL    HW218369   3.169   1.230  16.231 -2.5412 -1.7721  1.0987
 2245SOL     OW18370   3.885   4.468  10.451  0.2765 -0.4107  0.5406
 2245SOL    HW118371   3.952   4.525  10.489 -0.0925  0.2532  0.1884
 2245SOL    HW218372   3.897   4.501  10.362  0.4647 -2.5164 -0.2140
 2246SOL     OW18373   3.694   0.575   9.118 -0.3582  0.1635  0.2692
 2246SOL    HW118374   3.773   0.606   9.074 -0.4695  2.3080  1.6199
 2246SOL    HW218375   3.640   0.651   9.100  1.2780  2.1014  3.4541
 2247SOL     OW18376   3.270   4.278   0.833  0.1877 -0.0387 -0.2233
 2247SOL    HW118377   3.218   4.356   0.853 -0.4807 -0.2008 -1.3276
 2247SOL    HW218378   3.205   4.222   0.791 -0.5075  0.8216 -0.2980
 2248SOL     OW18379   3.711   3.156  15.988  0.3038 -0.3064 -0.0114
 2248SOL    HW118380   3.780   3.215  15.958  0.8585 -1.0871 -0.2443
 2248SOL    HW218381   3.754   3.096  16.049 -0.4460  1.0066  1.8200
 2249SOL     OW18382   1.910   1.792   2.364  0.3231 -0.3714  0.8525
 2249SOL    HW118383   1.967   1.830   2.431 -0.1609  2.2686 -0.2377
 2249SOL    HW218384   1.824   1.811   2.400 -0.2085 -0.8429 -0.1712
 2250SOL     OW18385   1.864   4.205   7.736 -0.4936  0.0257  0.4913
 2250SOL    HW118386   1.817   4.152   7.800 -3.3633  0.4096 -1.3369
 2250SOL    HW218387   1.814   4.287   7.740  0.9369  0.8988  0.6322
 2251SOL     OW18388   2.253   4.557   4.041  0.0089 -0.0468 -0.3014
 2251SOL    HW118389   2.239   4.596   3.955 -1.0420  1.4986  0.5594
 2251SOL    HW218390   2.164   4.528   4.064 -0.7542  2.7525  0.2632
 2252SOL     OW18391   4.679   4.508   3.549 -0.0871 -0.2171  0.3081
 2252SOL    HW118392   4.695   4.587   3.600 -1.3172  1.5340 -1.9952
 2252SOL    HW218393   4.732   4.440   3.590 -3.0278 -1.4904  2.0115
 2253SOL     OW18394   0.939   2.136   1.880  0.2048 -0.4131  0.4560
 2253SOL    HW118395   0.985   2.215   1.909  0.3701 -1.7483  3.7550
 2253SOL    HW218396   0.937   2.083   1.960 -2.1792 -0.7319  0.1897
 2254SOL     OW18397   3.779   2.519   1.586 -0.0618 -0.4139 -0.0984
 2254SOL    HW118398   3.850   2.580   1.566  0.8761 -1.2705  0.5559
 2254SOL    HW218399   3.731   2.524   1.504  0.6859  0.0082 -0.5085
 2255SOL     OW18400   1.935   3.601  14.056 -0.6055 -0.6399 -0.2184
 2255SOL    HW118401   1.870   3.607  14.125 -2.0322 -0.4280 -1.5906
 2255SOL    HW218402   2.007   3.637  14.108  0.6940 -0.4441 -2.1590
 2256SOL     OW18403   3.168   1.262   2.827 -0.3199 -0.0196 -0.0454
 2256SOL    HW118404   3.163   1.181   2.879 -1.6910  1.4919  2.1663
 2256SOL    HW218405   3.129   1.327   2.885 -2.0458 -1.9010  0.9064
 2257SOL     OW18406   2.924   4.246   4.437 -0.0846  0.1639  0.9502
 2257SOL    HW118407   2.994   4.273   4.495  2.8700  1.2338 -3.1157
 2257SOL    HW218408   2.855   4.291   4.484  0.7177  2.6816 -0.2877
 2258SOL     OW18409   1.734   4.010  14.548  0.2469 -0.0755 -0.0467
 2258SOL    HW118410   1.677   4.085  14.565  0.4919  0.3379 -1.0485
 2258SOL    HW218411   1.736   3.969  14.635  2.4455 -0.3801 -0.2352
 2259SOL     OW18412   2.159   0.513   3.332  0.0477  0.0025  0.0451
 2259SOL    HW118413   2.132   0.499   3.423 -0.0345 -1.4864 -0.2083
 2259SOL    HW218414   2.090   0.466   3.286  1.5773 -1.2969 -0.9133
 2260SOL     OW18415   0.408   2.710   1.424  0.5753 -0.2171 -0.1335
 2260SOL    HW118416   0.369   2.797   1.417 -3.1865 -1.9186 -0.9264
 2260SOL    HW218417   0.359   2.677   1.500 -0.8573 -1.4054 -1.5646
 2261SOL     OW18418   1.188   0.099  12.866  0.2439  0.3736  0.0944
 2261SOL    HW118419   1.112   0.057  12.906  0.2719 -2.5761 -2.8989
 2261SOL    HW218420   1.201   0.174  12.924 -1.0453  1.7490 -1.4017
 2262SOL     OW18421   3.862   3.374   9.113  0.3088  0.0679  0.2731
 2262SOL    HW118422   3.917   3.399   9.039 -0.4142  1.3687  0.1692
 2262SOL    HW218423   3.848   3.454   9.163 -1.5208 -0.3215  0.3838
 2263SOL     OW18424   1.640   4.477   2.326  0.3727  0.3222 -0.0883
 2263SOL    HW118425   1.568   4.538   2.309 -0.1648 -1.0738 -2.7992
 2263SOL    HW218426   1.717   4.534   2.322 -0.3516  1.4385  1.8948
 2264SOL     OW18427   4.311   4.328  12.238 -0.3782  0.0182  0.0134
 2264SOL    HW118428   4.310   4.236  12.266 -0.8484 -0.0276 -0.1559
 2264SOL    HW218429   4.257   4.313  12.161 -1.3146 -0.5138  0.7607
 2265SOL     OW18430   1.226   4.342  10.117 -0.3775  0.6745  0.4132
 2265SOL    HW118431   1.275   4.309  10.042 -0.6076  1.1979  0.0364
 2265SOL    HW218432   1.142   4.300  10.097 -0.3307  0.0853  1.4053
 2266SOL     OW18433   1.462   2.972   4.765 -1.0649 -0.2450  0.2166
 2266SOL    HW118434   1.433   3.055   4.803 -2.1887 -0.6297  0.2080
 2266SOL    HW218435   1.433   2.983   4.674  0.2204  0.0517 -0.1584
 2267SOL     OW18436   2.695   0.246  11.840 -0.8681 -0.4552 -0.4484
 2267SOL    HW118437   2.663   0.332  11.815 -0.3679  0.2722  1.4397
 2267SOL    HW218438   2.643   0.188  11.784 -1.6139  1.9736 -2.2707
 2268SOL     OW18439   1.806   4.127   6.502  0.0113 -0.1144 -0.0332
 2268SOL    HW118440   1.890   4.080   6.509  0.2433 -0.1682 -3.0458
 2268SOL    HW218441   1.749   4.052   6.520  1.3375 -0.7711  1.4622
 2269SOL     OW18442   3.566   3.322   6.761 -0.3890  0.0997  0.2142
 2269SOL    HW118443   3.614   3.324   6.678  1.8444  1.5498  1.5381
 2269SOL    HW218444   3.492   3.265   6.741 -0.4847  0.8132 -1.4727
 2270SOL     OW18445   2.908   1.721  14.214 -0.4753 -1.5032 -0.5839
 2270SOL    HW118446   2.986   1.665  14.212 -0.7455 -1.8485 -1.4834
 2270SOL    HW218447   2.923   1.795  14.156 -1.6766 -0.2466  0.7177
 2271SOL     OW18448   0.023   2.989   5.309 -0.3222 -0.3056  0.1295
 2271SOL    HW118449   0.076   3.068   5.315 -0.0924 -0.5270  1.0776
 2271SOL    HW218450   4.690   3.020   5.257  0.0968 -1.5174 -1.1963
 2272SOL     OW18451   3.796   2.112  16.268  0.3302  0.0486  0.2991
 2272SOL    HW118452   3.779   2.198  16.229 -1.4220 -0.6818 -0.5019
 2272SOL    HW218453   3.817   2.139  16.358 -0.4849 -1.0485  0.8252
 2273SOL     OW18454   3.576   4.466   8.453 -0.3327  0.1132 -0.1333
 2273SOL    HW118455   3.625   4.539   8.490 -1.0870 -0.4587  2.0247
 2273SOL    HW218456   3.639   4.399   8.480  0.7980  1.1497 -0.2159
 2274SOL     OW18457   0.056   3.352   1.900 -0.1224  0.0238  0.3174
 2274SOL    HW118458   0.103   3.318   1.976 -2.7070 -1.1799  1.3926
 2274SOL    HW218459   0.122   3.333   1.834 -0.6233 -0.4748 -0.0464
 2275SOL     OW18460   2.979   1.827   2.790 -0.0045  0.4063  0.5229
 2275SOL    HW118461   2.908   1.880   2.753 -1.0030 -0.8967  0.5350
 2275SOL    HW218462   2.932   1.802   2.869  1.7519 -1.8434  0.8523
 2276SOL     OW18463   4.714   3.870  13.190 -0.2680  0.2608 -0.0197
 2276SOL    HW118464   0.060   3.891  13.154  0.2633  0.2644  1.2537
 2276SOL    HW218465   4.674   3.957  13.196 -2.8382 -1.0989  2.1946
 2277SOL     OW18466   4.148   0.193   8.931 -0.3532 -0.2215 -0.5224
 2277SOL    HW118467   4.168   0.252   8.858 -0.7181  0.4223 -0.0952
 2277SOL    HW218468   4.053   0.200   8.939 -0.1408  3.7268 -1.2467
 2278SOL     OW18469   3.759   0.327   8.325  0.2149  0.0332 -0.0874
 2278SOL    HW118470   3.826   0.324   8.393  0.7399 -0.9644 -0.6493
 2278SOL    HW218471   3.688   0.360   8.380  1.0542  2.2998 -0.3442
 2279SOL     OW18472   0.827   1.533   6.370 -0.0425  0.1444 -0.5383
 2279SOL    HW118473   0.838   1.575   6.285 -0.2138  1.2455 -0.0179
 2279SOL    HW218474   0.919   1.508   6.373 -0.2336 -0.7686 -2.1681
 2280SOL     OW18475   1.145   2.029   7.173  0.1747  0.5575  0.9315
 2280SOL    HW118476   1.234   2.046   7.204  0.5990  0.6790 -0.3717
 2280SOL    HW218477   1.087   2.099   7.203 -1.6179 -0.8988  0.8437
 2281SOL     OW18478   0.968   3.259   3.500 -0.0089 -0.3050 -0.0395
 2281SOL    HW118479   0.961   3.354   3.502 -1.0887 -0.3609 -1.0968
 2281SOL    HW218480   0.934   3.243   3.412 -1.4619 -0.4117  0.5414
 2282SOL     OW18481   4.623   3.593  15.266  0.1653 -0.3010  0.7225
 2282SOL    HW118482   4.580   3.529  15.210  1.4229 -0.5189  0.0003
 2282SOL    HW218483   4.551   3.628  15.318 -0.9221  0.3912 -1.2741
 2283SOL     OW18484   4.345   3.648   2.013  0.2759  0.8183 -0.8162
 2283SOL    HW118485   4.389   3.564   2.028  1.3494  1.4621 -0.3330
 2283SOL    HW218486   4.383   3.711   2.074  0.8610  0.4947 -0.8407
 2284SOL     OW18487   4.332   2.424   4.934 -0.0252 -0.2679 -0.2099
 2284SOL    HW118488   4.349   2.351   4.993 -2.0167 -1.7421 -1.4602
 2284SOL    HW218489   4.318   2.496   4.996  2.0628  2.1072 -2.4443
 2285SOL     OW18490   1.453   2.371   1.619  0.5083 -0.0575  0.3272
 2285SOL    HW118491   1.369   2.405   1.588  0.4385 -1.9040 -1.5940
 2285SOL    HW218492   1.502   2.451   1.631 -0.6445  0.8341 -0.9051
 2286SOL     OW18493   0.563   2.929   4.475  0.2172 -0.1338  0.3824
 2286SOL    HW118494   0.537   2.942   4.566 -1.4220 -1.9101  0.1555
 2286SOL    HW218495   0.541   2.837   4.465 -2.0042  0.3417  0.8122
 2287SOL     OW18496   1.119   3.397   3.936 -0.4382 -0.2396 -0.0969
 2287SOL    HW118497   1.050   3.429   3.877  1.1681  0.8813 -1.3653
 2287SOL    HW218498   1.070   3.405   4.018 -2.3231 -3.1531 -0.9365
 2288SOL     OW18499   3.994   2.828   2.405  0.0629  0.3391  0.6318
 2288SOL    HW118500   3.989   2.922   2.387 -1.0071  0.0110 -0.7937
 2288SOL    HW218501   3.916   2.812   2.459 -0.1528 -0.0564  0.2029
 2289SOL     OW18502   3.040   2.817   4.699  0.1664  0.0700 -0.4595
 2289SOL    HW118503   3.002   2.812   4.611 -0.5191  1.5934 -0.2468
 2289SOL    HW218504   3.095   2.896   4.698  0.5654 -0.2007  0.5954
 2290SOL     OW18505   2.801   3.129  15.409 -0.0814  0.0450 -0.2195
 2290SOL    HW118506   2.842   3.044  15.393  0.0103  0.1113 -0.3293
 2290SOL    HW218507   2.820   3.165  15.323 -0.4347 -3.0575 -1.6063
 2291SOL     OW18508   0.024   2.076   4.844  0.1704  0.3396  0.0026
 2291SOL    HW118509   0.020   2.134   4.919  0.6854  0.2944  0.0630
 2291SOL    HW218510   4.707   2.004   4.872  1.9208 -2.5192 -3.6506
 2292SOL     OW18511   0.464   0.324   6.021 -0.1216 -0.3837 -0.0958
 2292SOL    HW118512   0.510   0.251   5.979 -1.2809 -0.9134 -0.4482
 2292SOL    HW218513   0.419   0.352   5.941  0.1326  1.8492  0.5416
 2293SOL     OW18514   1.538   2.873  15.885 -0.5318 -0.2690 -0.2365
 2293SOL    HW118515   1.600   2.802  15.873 -2.2310 -1.5080 -1.7215
 2293SOL    HW218516   1.565   2.941  15.822 -0.7351  0.8178  0.8426
 2294SOL     OW18517   4.564   2.279   7.490  0.1456 -0.4062  0.2099
 2294SOL    HW118518   4.625   2.307   7.422  0.3649  0.1992  0.6578
 2294SOL    HW218519   4.610   2.302   7.571  0.2281  0.2463 -0.0217
 2295SOL     OW18520   2.816   2.057  13.756 -0.4537 -0.3766  0.3820
 2295SOL    HW118521   2.841   1.966  13.772 -0.1794 -0.5232 -0.8622
 2295SOL    HW218522   2.738   2.067  13.810 -2.4399 -1.7265 -2.2134
 2296SOL     OW18523   2.745   4.603   7.810 -0.5469  0.0062 -1.0636
 2296SOL    HW118524   2.697   4.540   7.755 -2.5162 -1.4462  2.3204
 2296SOL    HW218525   2.687   4.618   7.884 -1.3900 -0.9827 -1.5120
 2297SOL     OW18526   1.347   0.206  14.267 -0.2299  0.2776  0.3563
 2297SOL    HW118527   1.438   0.178  14.276 -0.0161  1.0492  0.6100
 2297SOL    HW218528   1.359   0.227  14.174 -2.0678 -0.9965 -0.1852
 2298SOL     OW18529   2.092   0.815   7.808 -0.2217  0.3472  0.0873
 2298SOL    HW118530   2.080   0.887   7.870  0.8650 -0.2566  1.0082
 2298SOL    HW218531   2.148   0.856   7.743  0.3460  1.6344  1.3926
 2299SOL     OW18532   4.386   4.740   1.693  0.1213  0.2373 -0.1031
 2299SOL    HW118533   4.356   0.063   1.758  0.0150 -0.2047  0.2783
 2299SOL    HW218534   4.442   4.686   1.748 -0.9520  1.1313  1.8743
 2300SOL     OW18535   1.233   1.716   1.471 -0.3019 -0.2175 -0.1494
 2300SOL    HW118536   1.312   1.662   1.472  1.7690  2.8664  1.1856
 2300SOL    HW218537   1.260   1.806   1.454 -0.6576  0.1717  1.3934
 2301SOL     OW18538   3.450   0.770   4.652 -0.1582  0.2036  0.4763
 2301SOL    HW118539   3.411   0.854   4.676 -1.3909  0.0116 -0.9023
 2301SOL    HW218540   3.540   0.794   4.628 -0.4907  1.3108  0.3618
 2302SOL     OW18541   3.556   2.118   7.679 -0.1800 -0.0302  0.2962
 2302SOL    HW118542   3.631   2.061   7.696  0.3657  0.9512  1.1727
 2302SOL    HW218543   3.486   2.088   7.737  1.1060  0.1339  1.9381
 2303SOL     OW18544   3.618   0.425   6.566  0.1774 -0.6669  0.8701
 2303SOL    HW118545   3.560   0.501   6.564  0.2020 -0.7289 -2.2115
 2303SOL    HW218546   3.572   0.362   6.510 -1.0243 -1.1252  2.3381
 2304SOL     OW18547   4.659   0.342   2.126  0.0200 -0.1595  0.8999
 2304SOL    HW118548   4.701   0.398   2.192  1.5240 -0.1173 -0.0748
 2304SOL    HW218549   4.698   0.370   2.043  0.9916  0.7659  1.6667
 2305SOL     OW18550   1.162   4.592   1.989  0.1703 -0.8475  0.8105
 2305SOL    HW118551   1.233   4.595   2.053 -1.0411 -0.2993  2.1269
 2305SOL    HW218552   1.187   4.672   1.942 -0.3311 -0.4836  1.1523
 2306SOL     OW18553   3.304   4.703   5.583  0.0627  0.6723 -0.2095
 2306SOL    HW118554   3.398   4.689   5.596 -0.2906  0.5810  2.3825
 2306SOL    HW218555   3.304   0.054   5.555 -2.9167 -0.3668 -3.5644
 2307SOL     OW18556   3.330   0.733   5.309  0.6696  1.0018  0.2890
 2307SOL    HW118557   3.246   0.764   5.276 -0.5416 -1.9917  0.6212
 2307SOL    HW218558   3.366   0.696   5.228  1.5180 -0.8367  1.5036
 2308SOL     OW18559   1.135   2.705   6.756 -0.4830  0.3630  0.0136
 2308SOL    HW118560   1.154   2.751   6.838  0.5366  1.1922 -0.6819
 2308SOL    HW218561   1.087   2.775   6.711  2.3228  1.0896 -1.8411
 2309SOL     OW18562   3.802   0.458   6.040  0.1858  0.0480  0.0067
 2309SOL    HW118563   3.744   0.385   6.019 -0.4439  0.6763 -0.4189
 2309SOL    HW218564   3.780   0.483   6.130  1.0264 -0.0987  0.2524
 2310SOL     OW18565   0.386   0.408   5.784  0.1408 -0.4309  0.0864
 2310SOL    HW118566   0.307   0.376   5.739  0.8854 -1.0247 -0.7872
 2310SOL    HW218567   0.404   0.488   5.735  1.2020 -1.3018 -0.9499
 2311SOL     OW18568   3.672   0.956   4.625  0.7406 -0.2931  0.5631
 2311SOL    HW118569   3.635   1.033   4.581  1.6494  0.1068  0.5135
 2311SOL    HW218570   3.653   0.984   4.715  1.9697  0.6067  0.5406
 2312SOL     OW18571   2.061   1.422   5.660 -0.2121 -0.0173  0.0153
 2312SOL    HW118572   1.979   1.471   5.663 -2.1138 -3.1900 -0.1472
 2312SOL    HW218573   2.029   1.346   5.611  1.4693 -0.0379 -1.0582
 2313SOL     OW18574   3.913   4.637  14.188 -0.2754 -0.4111 -0.1540
 2313SOL    HW118575   3.933   4.544  14.184  0.3676 -0.2245 -1.5584
 2313SOL    HW218576   3.971   4.668  14.118 -0.2086  1.3660  0.6832
 2314SOL     OW18577   2.322   0.973   6.162 -0.9616  0.1049  0.1280
 2314SOL    HW118578   2.283   0.890   6.189 -2.7237  0.6302 -0.8073
 2314SOL    HW218579   2.416   0.955   6.165 -0.8289  0.2759 -2.6654
 2315SOL     OW18580   1.277   2.336   7.503  0.0831  0.1240  0.3975
 2315SOL    HW118581   1.199   2.387   7.480  0.5286  0.5885 -0.0796
 2315SOL    HW218582   1.239   2.248   7.508 -0.6228  0.2420 -3.1697
 2316SOL     OW18583   0.195   0.636   3.071 -0.2991  0.3554  0.2901
 2316SOL    HW118584   0.134   0.705   3.096 -0.7740  0.3620 -0.8624
 2316SOL    HW218585   0.147   0.602   2.996 -1.8222  0.0740  1.3952
 2317SOL     OW18586   0.066   2.147   8.523 -0.1341 -0.0455 -0.1838
 2317SOL    HW118587   0.066   2.216   8.589  1.0701 -2.7149  2.6343
 2317SOL    HW218588   0.044   2.075   8.581 -0.9243 -0.5172 -1.0867
 2318SOL     OW18589   3.661   3.744   1.630 -0.6228  0.0470  0.2791
 2318SOL    HW118590   3.751   3.773   1.613  0.2317 -3.3555 -0.9982
 2318SOL    HW218591   3.640   3.699   1.548  0.5138  0.3016 -0.1557
 2319SOL     OW18592   4.403   2.663   5.547 -0.4833  0.0723  0.0179
 2319SOL    HW118593   4.425   2.745   5.504 -1.5876  0.1466 -0.4084
 2319SOL    HW218594   4.483   2.610   5.555  0.5257  1.7286  0.8976
 2320SOL     OW18595   2.808   1.735   0.027  0.5345  0.3371 -0.3119
 2320SOL    HW118596   2.728   1.774   0.063  0.0135 -0.2041 -0.8748
 2320SOL    HW218597   2.764   1.674  17.727  0.8085  0.6300 -0.8089
 2321SOL     OW18598   0.837   4.259   2.860 -0.7908 -0.1118 -0.2335
 2321SOL    HW118599   0.821   4.298   2.945  0.5486  0.9328 -0.4622
 2321SOL    HW218600   0.785   4.179   2.871 -0.3719 -0.2017  1.0695
 2322SOL     OW18601   1.000   0.651   7.239  0.0481  0.1293  0.2322
 2322SOL    HW118602   0.925   0.662   7.180  0.1970 -1.8285 -0.3180
 2322SOL    HW218603   0.962   0.701   7.311 -1.9314 -0.9058 -0.0766
 2323SOL     OW18604   0.411   2.114   8.845 -1.0838  0.1324  0.0158
 2323SOL    HW118605   0.460   2.195   8.858 -1.3217  0.4922 -1.3229
 2323SOL    HW218606   0.341   2.131   8.908 -1.8524 -2.4741 -0.1255
 2324SOL     OW18607   2.090   1.638  14.420  0.2231 -0.1348 -0.0359
 2324SOL    HW118608   2.064   1.549  14.441  0.8462 -0.8487 -2.2369
 2324SOL    HW218609   2.056   1.683  14.497  1.0492 -1.0622  0.8659
 2325SOL     OW18610   1.905   4.144   4.067  0.4618  0.7432 -1.3095
 2325SOL    HW118611   1.963   4.162   4.142 -1.2332  1.3620 -0.1492
 2325SOL    HW218612   1.858   4.075   4.112  0.1342  2.6274  1.2594
 2326SOL     OW18613   1.849   3.897   2.609 -0.4529 -0.0478  0.5080
 2326SOL    HW118614   1.770   3.862   2.650 -0.5627 -1.7086 -1.1230
 2326SOL    HW218615   1.889   3.811   2.602  0.9415  0.5282  1.2944
 2327SOL     OW18616   3.255   4.674  15.474  0.2474  0.0096  0.4789
 2327SOL    HW118617   3.202   4.687  15.395  0.8218 -1.6212 -0.1721
 2327SOL    HW218618   3.263   4.580  15.489 -0.2702 -0.0637  0.3058
 2328SOL     OW18619   2.300   0.393  15.486  0.8186  0.0337 -0.0131
 2328SOL    HW118620   2.378   0.352  15.523  1.0390 -0.5896 -1.1739
 2328SOL    HW218621   2.343   0.450  15.422 -2.0622  2.5364  0.2660
 2329SOL     OW18622   1.016   3.258   4.685 -0.0925 -0.8047  0.1627
 2329SOL    HW118623   0.948   3.292   4.743  0.2421 -1.7145  1.0829
 2329SOL    HW218624   0.992   3.166   4.693  0.0569 -0.5851  2.9577
 2330SOL     OW18625   3.715   4.011   3.240  0.3464  0.3156 -0.3190
 2330SOL    HW118626   3.738   4.103   3.255  0.0386  0.4333 -0.5884
 2330SOL    HW218627   3.787   3.984   3.183  1.3424  0.9090  0.6594
 2331SOL     OW18628   4.731   2.728   7.304  0.7667  0.0045  0.0316
 2331SOL    HW118629   0.013   2.815   7.337  1.6278 -0.9117  1.8229
 2331SOL    HW218630   4.688   2.762   7.225 -2.3046 -0.5776  1.4469
 2332SOL     OW18631   3.264   0.730   4.960 -0.3153 -0.3729 -0.0412
 2332SOL    HW118632   3.349   0.698   4.990 -0.0841  0.6354  0.3834
 2332SOL    HW218633   3.262   0.822   4.985  0.2572 -0.0321 -1.2979
 2333SOL     OW18634   0.835   2.181  12.021  0.0755 -0.6266 -0.6957
 2333SOL    HW118635   0.860   2.218  12.106  0.0780 -2.5904  0.1615
 2333SOL    HW218636   0.902   2.117  12.000  0.8108  0.5444 -1.9059
 2334SOL     OW18637   4.130   4.228   8.175 -0.1325 -0.3490 -0.1714
 2334SOL    HW118638   4.049   4.244   8.126 -0.9174 -0.4328  1.1210
 2334SOL    HW218639   4.192   4.223   8.102  0.8065 -3.4691  0.8561
 2335SOL     OW18640   0.741   1.711  12.983 -0.4684 -0.4659  0.2257
 2335SOL    HW118641   0.728   1.785  12.924  1.4460 -0.2506  0.0753
 2335SOL    HW218642   0.712   1.639  12.928  0.8602 -0.9324  0.1506
 2336SOL     OW18643   3.664   3.286   1.286 -0.0405 -0.1230  0.4384
 2336SOL    HW118644   3.573   3.264   1.307 -0.0614 -0.9239 -0.5031
 2336SOL    HW218645   3.653   3.368   1.239  1.2688  0.5903  1.3842
 2337SOL     OW18646   0.598   2.194   1.812 -0.2596  0.0439  0.1588
 2337SOL    HW118647   0.617   2.233   1.897  0.8622  2.1797 -1.0772
 2337SOL    HW218648   0.664   2.240   1.761  1.3649 -3.2878 -0.7298
 2338SOL     OW18649   3.264   2.990   8.174 -0.2698 -0.0963 -0.4058
 2338SOL    HW118650   3.193   3.046   8.145  0.1864 -0.0625 -1.4502
 2338SOL    HW218651   3.330   3.055   8.198  0.8226 -0.8795 -1.2664
 2339SOL     OW18652   3.945   0.438   7.349 -0.0628 -0.1062 -0.2697
 2339SOL    HW118653   3.855   0.447   7.316 -0.5864 -1.4448  0.8181
 2339SOL    HW218654   3.929   0.502   7.418 -0.3621 -0.7235  0.2309
 2340SOL     OW18655   2.014   0.982   3.250 -0.0800  0.2720  0.2277
 2340SOL    HW118656   2.069   0.904   3.248 -0.3174  0.0870  0.9541
 2340SOL    HW218657   1.928   0.943   3.235  0.0235  0.3053 -0.4392
 2341SOL     OW18658   3.053   4.260   4.830  0.9113  0.1481 -0.4494
 2341SOL    HW118659   2.959   4.276   4.839  1.2317  0.8498  1.6242
 2341SOL    HW218660   3.050   4.164   4.838 -0.5982  0.1998 -0.3806
 2342SOL     OW18661   0.432   2.611   5.866 -0.3995  0.1670  0.0683
 2342SOL    HW118662   0.369   2.613   5.795 -1.0575  1.5607  0.7070
 2342SOL    HW218663   0.473   2.526   5.849 -0.2989  0.3274 -0.4908
 2343SOL     OW18664   0.824   4.471  13.042 -0.4613  0.0741  0.4157
 2343SOL    HW118665   0.825   4.398  13.104  1.2211 -0.6760 -0.4935
 2343SOL    HW218666   0.788   4.426  12.965  1.5226 -0.5698 -0.1559
 2344SOL     OW18667   3.805   3.927  10.510 -0.0746  0.0326 -0.1411
 2344SOL    HW118668   3.723   3.878  10.518  0.5830 -0.7907  1.6533
 2344SOL    HW218669   3.868   3.856  10.527 -1.4243 -0.5870  2.2431
 2345SOL     OW18670   4.055   3.266   8.096 -0.6211 -0.2744  0.1435
 2345SOL    HW118671   3.962   3.245   8.082 -0.5344  0.3837 -1.5056
 2345SOL    HW218672   4.092   3.246   8.010 -0.0212 -0.1334  0.3696
 2346SOL     OW18673   4.660   3.992   2.431  0.2338 -0.1390 -0.0126
 2346SOL    HW118674   0.006   3.952   2.441  0.6516  0.6967 -0.3154
 2346SOL    HW218675   4.633   3.973   2.521  0.5498 -1.8249 -0.2764
 2347SOL     OW18676   3.484   3.391   8.438  0.3519  0.8455 -0.2731
 2347SOL    HW118677   3.436   3.460   8.391 -2.5230 -0.2156  1.0782
 2347SOL    HW218678   3.477   3.421   8.528 -0.7963  0.7972 -0.3473
 2348SOL     OW18679   2.281   0.355   1.903  0.0412  0.6721 -0.3853
 2348SOL    HW118680   2.343   0.355   1.830  2.0267 -2.2297  1.2860
 2348SOL    HW218681   2.205   0.392   1.858 -1.8796 -0.0528  2.2562
 2349SOL     OW18682   2.117   2.512  17.724 -0.1889  0.0903  0.7559
 2349SOL    HW118683   2.027   2.504  17.756 -0.4443 -0.9089 -0.2117
 2349SOL    HW218684   2.163   2.464   0.033  0.0400 -0.6306  0.0893
 2350SOL     OW18685   0.288   4.126  12.443  0.4267  0.2829  0.0153
 2350SOL    HW118686   0.355   4.173  12.492  1.3298 -1.3712  0.3490
 2350SOL    HW218687   0.316   4.141  12.352 -0.7085  2.0525 -0.0314
 2351SOL     OW18688   1.699   3.788  12.088 -0.0478  0.2189  0.5871
 2351SOL    HW118689   1.765   3.723  12.064  0.3206  1.1193 -0.8238
 2351SOL    HW218690   1.685   3.755  12.177  0.5775 -0.4577  0.4371
 2352SOL     OW18691   0.287   2.672   7.534 -0.8045 -0.1648  0.3218
 2352SOL    HW118692   0.343   2.661   7.457 -0.2709 -0.0618  0.6956
 2352SOL    HW218693   0.332   2.752   7.561 -3.0505  1.5145 -0.9830
 2353SOL     OW18694   4.731   3.193   7.564  0.1406  0.1562  0.1373
 2353SOL    HW118695   0.050   3.265   7.584  0.0679  0.1988  0.1995
 2353SOL    HW218696   4.692   3.176   7.650 -0.6876  0.5290 -0.1656
 2354SOL     OW18697   1.243   3.113   7.583 -0.4593  0.2897 -0.2053
 2354SOL    HW118698   1.255   3.161   7.502 -1.1632 -1.0486 -1.1063
 2354SOL    HW218699   1.288   3.172   7.644  1.7959 -2.1664  0.5509
 2355SOL     OW18700   3.105   2.074   2.920  0.0410 -0.5401  0.3678
 2355SOL    HW118701   3.104   1.978   2.915 -1.4230 -0.4711 -0.5976
 2355SOL    HW218702   3.125   2.087   2.827 -2.3768  0.7355  0.0226
 2356SOL     OW18703   0.827   1.907   5.485  0.9406  0.1117  0.7016
 2356SOL    HW118704   0.915   1.872   5.475  0.7723 -1.0619  3.2519
 2356SOL    HW218705   0.847   1.980   5.543  0.8814  1.4916 -1.0155
 2357SOL     OW18706   0.464   2.380   4.960 -0.1058  0.6164 -0.5994
 2357SOL    HW118707   0.544   2.416   4.922  1.3599 -3.2864 -1.2334
 2357SOL    HW218708   0.490   2.290   4.940  1.6176  0.5768  1.8479
 2358SOL     OW18709   1.828   4.272  14.701 -0.0586 -0.1877 -0.0656
 2358SOL    HW118710   1.879   4.285  14.622  0.5537  1.1828  0.5447
 2358SOL    HW218711   1.882   4.215  14.756 -0.4230  0.5305  1.0551
 2359SOL     OW18712   3.452   0.645   8.255  0.4855  0.0867 -0.1035
 2359SOL    HW118713   3.410   0.698   8.324 -1.3974 -0.8802 -0.5242
 2359SOL    HW218714   3.427   0.558   8.286 -0.0691  1.0416  2.1270
 2360SOL     OW18715   1.248   2.896   9.241 -0.0282 -0.1090 -0.0046
 2360SOL    HW118716   1.159   2.925   9.262 -0.7868 -1.7141 -0.9966
 2360SOL    HW218717   1.288   2.976   9.207  1.6797 -1.4901 -1.2327
 2361SOL     OW18718   0.376   3.799   3.287 -0.5157 -0.3582  0.0940
 2361SOL    HW118719   0.347   3.858   3.357 -0.2578 -0.3627  0.2061
 2361SOL    HW218720   0.313   3.727   3.276  0.7727 -1.3440 -0.9198
 2362SOL     OW18721   3.517   0.784   9.363  0.9142  0.7415  0.0043
 2362SOL    HW118722   3.464   0.775   9.283  2.9575  0.0743 -1.2682
 2362SOL    HW218723   3.607   0.764   9.336  0.8548  1.4615 -0.7633
 2363SOL     OW18724   2.077   4.003   3.401  0.2268  0.3512  0.2466
 2363SOL    HW118725   2.059   3.994   3.308 -1.8574 -0.5366  0.7094
 2363SOL    HW218726   2.082   4.097   3.416 -0.9186  0.5249 -0.4826
 2364SOL     OW18727   4.651   2.228  13.481 -0.2133 -0.1214 -0.2178
 2364SOL    HW118728   4.691   2.261  13.561 -0.9576  0.6512 -0.1610
 2364SOL    HW218729   4.659   2.134  13.494  0.3059 -0.0985 -0.3956
 2365SOL     OW18730   3.467   3.794   5.999  0.0943  0.1574  0.8281
 2365SOL    HW118731   3.502   3.851   6.068  0.9795  0.1225  0.3906
 2365SOL    HW218732   3.468   3.712   6.048  2.4353 -1.6428 -2.2968
 2366SOL     OW18733   0.445   3.764   3.709  0.2827  0.4905 -0.5027
 2366SOL    HW118734   0.363   3.774   3.758 -0.9705  0.7195 -2.6420
 2366SOL    HW218735   0.493   3.705   3.767  0.3623  0.2249 -0.8426
 2367SOL     OW18736   2.739   2.453  15.396 -0.1691 -0.0876 -0.0230
 2367SOL    HW118737   2.679   2.384  15.425 -1.4784  0.7215 -0.8039
 2367SOL    HW218738   2.823   2.407  15.395  0.3096  0.7382  2.3249
 2368SOL     OW18739   1.182   2.794  16.450 -0.4460 -0.3628  0.0398
 2368SOL    HW118740   1.204   2.865  16.390  0.9362 -1.4737 -0.7641
 2368SOL    HW218741   1.091   2.821  16.463  0.0494  0.8516  0.9358
 2369SOL     OW18742   2.153   3.656   7.448  0.0855 -0.5231  0.4834
 2369SOL    HW118743   2.248   3.663   7.449  0.0019  0.3099  3.3077
 2369SOL    HW218744   2.118   3.721   7.509  2.6179 -1.5490  3.0180
 2370SOL     OW18745   1.543   0.023  11.234 -0.1611 -0.3760  0.1533
 2370SOL    HW118746   1.472   4.708  11.265 -0.5860 -0.3967 -0.8776
 2370SOL    HW218747   1.599   0.020  11.312 -1.8001  0.0153  1.3540
 2371SOL     OW18748   3.286   4.736   9.096  0.2866 -0.7151 -0.2223
 2371SOL    HW118749   3.195   4.740   9.125  0.0624 -0.0387 -1.0248
 2371SOL    HW218750   3.335   0.037   9.167 -1.8678 -2.3187  2.2269
 2372SOL     OW18751   3.171   4.623   6.248  0.0236  0.2329  0.2651
 2372SOL    HW118752   3.130   4.706   6.273  3.6011  1.7884  0.9818
 2372SOL    HW218753   3.169   4.571   6.328  1.9439  2.0950  1.5380
 2373SOL     OW18754   3.062   0.502  14.172 -0.1499  0.5475 -0.3503
 2373SOL    HW118755   2.974   0.463  14.166 -0.0356  0.2332  0.0497
 2373SOL    HW218756   3.057   0.564  14.100 -0.5610  1.2734  0.3084
 2374SOL     OW18757   0.638   3.547  11.379  0.5586  0.2287 -0.5404
 2374SOL    HW118758   0.626   3.611  11.308  1.0812 -0.0325 -0.8595
 2374SOL    HW218759   0.727   3.520  11.356 -0.6992 -1.4503 -3.4441
 2375SOL     OW18760   0.402   0.943   5.579 -0.0074 -0.1385  0.1474
 2375SOL    HW118761   0.490   0.959   5.543  0.2248  0.3750  0.9577
 2375SOL    HW218762   0.350   0.973   5.505  0.5489 -0.7345 -0.4923
 2376SOL     OW18763   1.307   1.009  16.870  1.2448  0.2572 -0.2328
 2376SOL    HW118764   1.219   1.012  16.832  1.1530  0.4008 -0.0081
 2376SOL    HW218765   1.366   1.007  16.794  1.1309 -0.0630 -0.3126
 2377SOL     OW18766   1.075   0.321   6.501  0.3514  0.0691  0.7679
 2377SOL    HW118767   1.149   0.314   6.442 -0.2920 -4.4852  0.4614
 2377SOL    HW218768   1.022   0.387   6.456 -0.3358 -0.9369  0.1125
 2378SOL     OW18769   1.145   3.297   3.133  0.4675  0.0339  0.1703
 2378SOL    HW118770   1.073   3.241   3.104 -0.3158  0.9215  0.4104
 2378SOL    HW218771   1.211   3.267   3.071  1.2575 -1.1134  1.5678
 2379SOL     OW18772   0.623   2.507   6.562  0.1539 -0.0737 -0.4438
 2379SOL    HW118773   0.534   2.539   6.550 -1.2417 -2.8573  2.5272
 2379SOL    HW218774   0.606   2.413   6.568 -1.4658  0.3605  1.7037
 2380SOL     OW18775   1.843   1.443  15.758 -0.1909 -0.1791 -0.1615
 2380SOL    HW118776   1.904   1.414  15.691  0.9465 -0.9456  1.2027
 2380SOL    HW218777   1.766   1.444  15.701  1.4891 -1.1213 -2.4539
 2381SOL     OW18778   2.623   1.337   9.025  0.3556 -0.0732  0.3521
 2381SOL    HW118779   2.714   1.321   9.047  0.6719 -1.7845 -2.2355
 2381SOL    HW218780   2.607   1.283   8.948  0.5737 -1.5661  1.3667
 2382SOL     OW18781   4.480   2.910  10.759  0.5541 -0.1140  0.5299
 2382SOL    HW118782   4.398   2.862  10.747 -1.0688  1.6885  4.1968
 2382SOL    HW218783   4.455   2.963  10.835 -2.3633  2.0077 -1.8793
 2383SOL     OW18784   1.035   4.448   4.445 -0.4152  0.0083  0.0238
 2383SOL    HW118785   0.971   4.430   4.513 -1.5890  1.1115 -0.7725
 2383SOL    HW218786   1.105   4.399   4.488  0.4713  1.9376  0.7966
 2384SOL     OW18787   0.863   4.287  13.440 -0.2419 -0.1489  0.2072
 2384SOL    HW118788   0.839   4.263  13.350 -2.3514  1.1797  0.4321
 2384SOL    HW218789   0.786   4.333  13.473 -1.0449 -1.5408  0.2935
 2385SOL     OW18790   3.596   3.480   1.497 -0.1399 -0.1365  0.0656
 2385SOL    HW118791   3.685   3.448   1.483  0.2687  1.6879 -1.5254
 2385SOL    HW218792   3.581   3.438   1.582 -0.3425  0.3769  0.2820
 2386SOL     OW18793   0.450   1.978   1.856  0.1560 -0.0726 -0.6351
 2386SOL    HW118794   0.486   2.065   1.841 -1.7276  0.8765  0.4154
 2386SOL    HW218795   0.475   1.930   1.777 -0.1012  2.1370 -2.0521
 2387SOL     OW18796   3.862   2.653   6.874  0.2017  0.4268  0.6077
 2387SOL    HW118797   3.789   2.671   6.933  0.1263  1.4687  0.1850
 2387SOL    HW218798   3.863   2.558   6.886 -0.8254  0.1249 -1.7822
 2388SOL     OW18799   0.503   3.564   2.307  0.5106  0.0043 -0.2045
 2388SOL    HW118800   0.562   3.551   2.382  1.0165  1.2043 -0.3839
 2388SOL    HW218801   0.500   3.659   2.311  3.4158  0.1447 -1.2005
 2389SOL     OW18802   3.467   1.713   4.527 -0.4062 -0.4062 -0.0649
 2389SOL    HW118803   3.518   1.769   4.468  0.4810 -1.2717 -0.1143
 2389SOL    HW218804   3.427   1.660   4.459  0.1623 -2.1776  0.9833
 2390SOL     OW18805   1.435   3.775   6.898 -0.8381 -0.1956 -0.2416
 2390SOL    HW118806   1.348   3.813   6.900 -0.7813 -0.0057 -1.8510
 2390SOL    HW218807   1.488   3.854   6.911  0.6922 -1.1902 -0.3845
 2391SOL     OW18808   4.129   2.159   9.207 -0.1613 -0.0760 -0.7036
 2391SOL    HW118809   4.100   2.072   9.178  1.1218 -0.5402 -0.6007
 2391SOL    HW218810   4.223   2.138   9.199 -0.2306  0.1389 -2.1387
 2392SOL     OW18811   3.264   2.151   9.348 -0.5783 -0.2815  0.1166
 2392SOL    HW118812   3.276   2.069   9.397  0.8319 -0.1864 -0.0728
 2392SOL    HW218813   3.279   2.117   9.260  2.4115  2.3491 -0.3765
 2393SOL     OW18814   0.945   3.943  17.732  0.0170  0.0821  0.0472
 2393SOL    HW118815   0.963   3.883   0.044 -1.6855 -0.0647  0.3515
 2393SOL    HW218816   1.026   3.940  17.681  0.0996  1.5601  0.0690
 2394SOL     OW18817   2.802   1.109   6.504  0.0806 -0.8082  0.2407
 2394SOL    HW118818   2.733   1.057   6.544 -1.4217  1.3074  0.4417
 2394SOL    HW218819   2.825   1.045   6.437  0.1008  1.5911 -2.0719
 2395SOL     OW18820   3.109   1.260   2.461 -0.1303  0.1967 -0.2601
 2395SOL    HW118821   3.095   1.235   2.552  2.9634 -0.2089  0.0924
 2395SOL    HW218822   3.174   1.195   2.436  0.1513  0.0123  0.9898
 2396SOL     OW18823   2.022   2.595   7.479  0.2412  0.5865  0.6909
 2396SOL    HW118824   2.053   2.660   7.416 -1.1484 -1.3772 -2.0397
 2396SOL    HW218825   1.926   2.601   7.474  0.3557 -0.1538 -2.6719
 2397SOL     OW18826   1.128   4.223   8.494 -0.0197  0.5400  1.0803
 2397SOL    HW118827   1.079   4.143   8.478 -1.3184  1.5361  0.1274
 2397SOL    HW218828   1.191   4.191   8.559  1.2455  0.5088 -0.1426
 2398SOL     OW18829   1.675   0.801  10.577 -0.6052  0.7585  0.3587
 2398SOL    HW118830   1.673   0.705  10.576 -3.7669  0.8312  0.0669
 2398SOL    HW218831   1.757   0.821  10.531 -0.1624  1.8899  1.6336
 2399SOL     OW18832   0.848   0.066   1.862  0.0693  0.3113 -0.1467
 2399SOL    HW118833   0.929   0.064   1.812 -1.4961 -1.5234 -2.6004
 2399SOL    HW218834   0.860   0.154   1.897  1.1560 -0.3251  1.0833
 2400SOL     OW18835   1.934   2.197  13.044 -0.0550  0.3934  0.6486
 2400SOL    HW118836   2.024   2.171  13.064  0.4377  1.8128  0.2921
 2400SOL    HW218837   1.893   2.113  13.066  1.2644 -0.0221  1.5503
 2401SOL     OW18838   4.414   3.043   7.577 -0.2117  0.2483 -0.0547
 2401SOL    HW118839   4.498   3.075   7.611  0.4825 -2.5845  0.8836
 2401SOL    HW218840   4.417   2.950   7.597 -0.6040 -0.0057 -1.1732
 2402SOL     OW18841   3.069   0.803   0.333 -0.4158 -0.1628 -0.2749
 2402SOL    HW118842   3.145   0.856   0.357 -1.8240  1.9827 -0.5509
 2402SOL    HW218843   3.087   0.797   0.239 -0.7199  1.9056 -0.4488
 2403SOL     OW18844   3.021   4.160   3.493 -0.0068  0.2839 -0.3021
 2403SOL    HW118845   3.080   4.193   3.561  1.6901 -3.5952  0.0560
 2403SOL    HW218846   2.987   4.244   3.461 -0.8781 -0.3655 -1.0451
 2404SOL     OW18847   0.807   3.416  10.253 -0.0708 -0.0860  0.4150
 2404SOL    HW118848   0.712   3.408  10.255 -0.1982  1.3941  0.8644
 2404SOL    HW218849   0.803   3.476  10.178 -1.0317 -2.4848 -1.4480
 2405SOL     OW18850   0.364   0.103   2.335  0.3473 -0.3593 -0.0850
 2405SOL    HW118851   0.389   0.025   2.285  1.6168 -1.3323  2.0568
 2405SOL    HW218852   0.270   0.101   2.321  0.3427  0.7809 -0.1756
 2406SOL     OW18853   4.445   3.413   5.295 -0.0687  0.0558  0.1276
 2406SOL    HW118854   4.389   3.491   5.288  1.2569  1.2622  3.4503
 2406SOL    HW218855   4.385   3.339   5.303 -1.2057  0.9740  0.1495
 2407SOL     OW18856   1.388   4.439   2.523 -0.2789  0.3564  0.0182
 2407SOL    HW118857   1.303   4.466   2.556 -0.2981  2.7504 -2.0238
 2407SOL    HW218858   1.432   4.419   2.606 -1.6586  1.0361  0.9058
 2408SOL     OW18859   0.997   1.006   7.946  0.2433  0.1035 -0.1395
 2408SOL    HW118860   1.052   1.071   7.902  0.3758  0.2361  0.2205
 2408SOL    HW218861   1.004   1.038   8.036  1.5425 -1.5604  0.3474
 2409SOL     OW18862   4.071   1.057   0.889 -0.1385  0.5516 -0.2125
 2409SOL    HW118863   4.034   1.042   0.802  0.5891  0.5330 -0.5157
 2409SOL    HW218864   4.038   1.146   0.906  1.3797  0.9537  0.6552
 2410SOL     OW18865   0.318   0.963   6.318  0.2459 -0.2775  0.2732
 2410SOL    HW118866   0.249   0.904   6.349  0.2698 -0.9443 -0.9421
 2410SOL    HW218867   0.329   0.936   6.226  1.7285  1.6618 -0.1146
 2411SOL     OW18868   3.590   4.727  11.825  0.4804 -0.1557  0.4902
 2411SOL    HW118869   3.564   4.692  11.740 -0.4174 -0.5645  0.9332
 2411SOL    HW218870   3.686   4.733  11.818  0.4351  0.4381  0.3564
 2412SOL     OW18871   4.451   0.968   7.160 -0.3817  0.3254 -0.8080
 2412SOL    HW118872   4.431   0.886   7.205  0.8547 -0.3132 -1.4026
 2412SOL    HW218873   4.414   0.944   7.075 -0.1900 -0.2848 -0.7162
 2413SOL     OW18874   2.254   3.185   2.593 -0.4968  0.2025 -0.0579
 2413SOL    HW118875   2.272   3.147   2.507  1.8487  2.4058 -0.5607
 2413SOL    HW218876   2.302   3.118   2.642  1.7229  1.5081 -0.4141
 2414SOL     OW18877   3.212   1.085   7.284 -0.1412 -0.3197  0.1081
 2414SOL    HW118878   3.183   1.176   7.293  2.0741  0.2571  1.5173
 2414SOL    HW218879   3.146   1.043   7.340 -0.7452  2.1481  1.2671
 2415SOL     OW18880   3.201   0.092   2.436 -0.0673 -0.6512  0.3071
 2415SOL    HW118881   3.184   0.075   2.529  0.0907 -0.2862  0.4041
 2415SOL    HW218882   3.235   0.182   2.444  1.7687 -1.2058 -1.2513
 2416SOL     OW18883   4.092   1.715  16.088 -0.0470  0.0034  0.1944
 2416SOL    HW118884   4.074   1.807  16.069 -0.5739 -0.0528  0.4207
 2416SOL    HW218885   4.004   1.679  16.097  0.6233 -1.5124  0.6213
 2417SOL     OW18886   1.313   3.576  14.569 -0.1976 -0.1000  0.2272
 2417SOL    HW118887   1.339   3.668  14.582  2.2120 -0.9430  1.3949
 2417SOL    HW218888   1.254   3.558  14.643 -1.8472  1.0388 -0.7998
 2418SOL     OW18889   1.491   4.451  10.134 -0.2560 -0.4066 -0.0994
 2418SOL    HW118890   1.400   4.423  10.134 -0.3593 -0.0724 -0.0243
 2418SOL    HW218891   1.525   4.408  10.212 -1.7621 -1.2856  0.0595
 2419SOL     OW18892   0.599   3.998   1.098 -0.3694  0.6593  0.2704
 2419SOL    HW118893   0.677   4.030   1.052  0.4419 -0.7444  0.6696
 2419SOL    HW218894   0.589   3.910   1.061  0.1245  0.7444 -0.0750
 2420SOL     OW18895   3.676   0.235   3.035 -0.4597  0.4191  0.0171
 2420SOL    HW118896   3.612   0.274   3.095  0.6480  0.1145  1.4096
 2420SOL    HW218897   3.696   0.161   3.091 -2.7486 -0.3227 -0.1436
 2421SOL     OW18898   0.329   2.125   7.651 -0.2281 -0.6895  0.2696
 2421SOL    HW118899   0.250   2.117   7.598  1.2125  1.1340 -2.1392
 2421SOL    HW218900   0.369   2.038   7.647 -1.1608 -1.0689 -0.8490
 2422SOL     OW18901   4.555   4.362   4.282 -0.1151 -0.2307  0.3092
 2422SOL    HW118902   4.557   4.454   4.255  0.5194 -0.7828 -1.5365
 2422SOL    HW218903   4.465   4.351   4.311 -0.5869 -1.0043 -1.4850
 2423SOL     OW18904   0.461   0.037   6.623  0.3980  0.8384 -0.0360
 2423SOL    HW118905   0.379   0.085   6.635 -0.0217 -0.2968  1.5632
 2423SOL    HW218906   0.478   0.043   6.529  2.8268  2.2376  0.5024
 2424SOL     OW18907   1.483   2.008   7.545  0.0120 -0.1432  0.1306
 2424SOL    HW118908   1.484   2.056   7.462  1.0935  2.3369  1.5892
 2424SOL    HW218909   1.393   2.022   7.575  0.3389 -0.0335  1.0512
 2425SOL     OW18910   1.756   0.840   8.506 -0.1464 -0.0363 -0.0841
 2425SOL    HW118911   1.774   0.912   8.445 -1.5740 -0.8451 -1.4481
 2425SOL    HW218912   1.818   0.768   8.497 -0.6755 -0.5107  0.0583
 2426SOL     OW18913   1.058   2.710   4.623 -0.0309  0.4000  0.3387
 2426SOL    HW118914   1.136   2.719   4.569  0.6101  1.0015  1.3671
 2426SOL    HW218915   1.087   2.649   4.692 -1.6090  0.2267  0.8533
 2427SOL     OW18916   3.185   1.062   1.636 -0.8115 -0.3142 -0.1866
 2427SOL    HW118917   3.189   0.968   1.651  1.5953 -0.2898 -0.7625
 2427SOL    HW218918   3.230   1.089   1.716 -2.6295 -2.0315  1.4147
 2428SOL     OW18919   3.329   3.875   1.308  0.0742 -0.1544 -0.6832
 2428SOL    HW118920   3.310   3.878   1.402 -2.2767  0.6706 -1.2022
 2428SOL    HW218921   3.366   3.787   1.307 -0.8361 -0.5030 -3.0993
 2429SOL     OW18922   1.104   0.140   7.390 -0.1634  0.1727  0.5397
 2429SOL    HW118923   1.034   0.201   7.370 -0.8181 -0.4445  0.9437
 2429SOL    HW218924   1.077   0.120   7.480 -0.0207 -0.5938  0.4178
 2430SOL     OW18925   2.994   0.565   6.450  0.4105 -0.0559  0.3986
 2430SOL    HW118926   2.908   0.588   6.487  0.4620 -0.2418  0.6293
 2430SOL    HW218927   3.038   0.650   6.446 -0.2187  0.3954  2.9305
 2431SOL     OW18928   4.185   3.697   0.245  0.3962  0.0405 -1.0267
 2431SOL    HW118929   4.141   3.692   0.160 -1.0974 -1.6542 -0.1448
 2431SOL    HW218930   4.220   3.785   0.232  0.8446 -0.0619 -0.5265
 2432SOL     OW18931   4.699   0.424  14.006 -0.1225  0.2949 -0.5733
 2432SOL    HW118932   0.007   0.491  13.957  1.0951  0.5371  0.9750
 2432SOL    HW218933   0.028   0.409  14.070 -2.7078 -0.9969  1.9077
 2433SOL     OW18934   1.087   3.610  13.144 -0.6225  0.1543  0.3101
 2433SOL    HW118935   1.087   3.517  13.122  3.3127  0.0930  0.4674
 2433SOL    HW218936   1.059   3.609  13.236 -2.2519 -1.0671 -0.2001
 2434SOL     OW18937   0.761   0.989   7.829  0.5439  0.6033 -0.0007
 2434SOL    HW118938   0.855   0.987   7.846  0.5335 -1.7699 -0.2313
 2434SOL    HW218939   0.743   1.056   7.763  0.0313  0.9856  0.5241
 2435SOL     OW18940   3.822   1.115   0.675 -0.0203  0.2246  0.0524
 2435SOL    HW118941   3.890   1.050   0.657 -0.3242  0.0704 -0.5223
 2435SOL    HW218942   3.753   1.072   0.725 -0.4791  2.2011  1.1153
 2436SOL     OW18943   2.750   3.578   5.922 -0.2649 -0.3651  0.1165
 2436SOL    HW118944   2.725   3.492   5.956  2.8667 -1.1508  0.4898
 2436SOL    HW218945   2.719   3.625   6.000  0.6801 -2.0867  1.5563
 2437SOL     OW18946   2.877   0.437   7.254 -0.6695  0.6188  0.5731
 2437SOL    HW118947   2.790   0.396   7.248  0.4429 -1.3434 -2.1528
 2437SOL    HW218948   2.852   0.527   7.275 -0.3113  0.6069  1.0578
 2438SOL     OW18949   0.316   0.537  13.312 -0.3088 -0.1690  0.6020
 2438SOL    HW118950   0.222   0.525  13.327  0.1113 -3.6635  0.4577
 2438SOL    HW218951   0.348   0.458  13.354  0.8870 -0.2928 -0.5405
 2439SOL     OW18952   1.085   1.906   0.504  0.1263  0.0762  0.5223
 2439SOL    HW118953   1.119   1.913   0.414  0.2358  1.4408  0.6701
 2439SOL    HW218954   1.142   1.838   0.540 -0.7213 -1.7221 -1.5093
 2440SOL     OW18955   2.107   2.337   7.519 -0.0260  0.0406  0.0535
 2440SOL    HW118956   2.184   2.332   7.576  0.4679  0.6749 -0.5552
 2440SOL    HW218957   2.084   2.430   7.519  3.1761  0.8507  1.8252
 2441SOL     OW18958   1.176   4.539   3.800 -0.2352  0.0746 -0.1881
 2441SOL    HW118959   1.169   4.531   3.895  1.7781 -1.1578 -0.1544
 2441SOL    HW218960   1.271   4.545   3.792 -0.2418  0.1199 -0.2281
 2442SOL     OW18961   2.646   2.912   5.277  0.2838  0.0789  0.4551
 2442SOL    HW118962   2.644   2.821   5.306 -0.6023  0.0903  0.4389
 2442SOL    HW218963   2.671   2.956   5.359 -0.2621  0.8813  0.1941
 2443SOL     OW18964   0.605   2.123   5.244 -0.1895  0.3285  0.8268
 2443SOL    HW118965   0.522   2.087   5.276  0.7294 -1.2677  1.4071
 2443SOL    HW218966   0.601   2.217   5.260  0.5625  0.1539  2.0189
 2444SOL     OW18967   3.366   3.941  16.071 -0.2306  0.7358  0.4205
 2444SOL    HW118968   3.281   3.971  16.102  0.6986  2.5010  1.2219
 2444SOL    HW218969   3.416   4.022  16.070 -0.1799  0.7199  1.3437
 2445SOL     OW18970   4.089   1.334  13.360  0.2897 -0.5692 -0.0058
 2445SOL    HW118971   4.077   1.428  13.375 -0.8828 -0.6231 -0.6659
 2445SOL    HW218972   4.038   1.325  13.280 -1.5227 -2.2510  1.3461
 2446SOL     OW18973   0.708   2.526  15.880 -0.2726  0.3426  0.1041
 2446SOL    HW118974   0.793   2.569  15.871 -0.9178  1.4778 -0.4603
 2446SOL    HW218975   0.707   2.502  15.973  1.2943 -1.7554 -0.4037
 2447SOL     OW18976   0.798   4.006   8.663  0.1506  0.1811 -0.5386
 2447SOL    HW118977   0.833   4.095   8.674  2.3957 -0.9059  1.1914
 2447SOL    HW218978   0.716   4.025   8.618  0.6527 -2.7944 -2.7067
 2448SOL     OW18979   2.592   0.498  11.632  0.1066  0.5006 -0.6500
 2448SOL    HW118980   2.676   0.506  11.676 -0.1579  0.2980 -0.0981
 2448SOL    HW218981   2.607   0.441  11.557 -3.3605 -0.5101 -0.6031
 2449SOL     OW18982   4.201   4.348   3.724 -0.0533 -0.3631 -0.0384
 2449SOL    HW118983   4.134   4.347   3.793 -0.4828 -0.3379 -0.4547
 2449SOL    HW218984   4.264   4.409   3.762  1.2236 -0.1208 -2.4961
 2450SOL     OW18985   0.849   4.610   3.841 -0.5541 -0.8660 -0.1368
 2450SOL    HW118986   0.841   4.703   3.819  0.7358 -0.2470  2.0704
 2450SOL    HW218987   0.939   4.586   3.820 -1.2516 -2.0874 -1.7427
 2451SOL     OW18988   1.095   0.054  13.236  0.2063 -0.7838 -0.8986
 2451SOL    HW118989   1.046   0.135  13.245 -0.1076 -0.9756 -0.8847
 2451SOL    HW218990   1.038   0.001  13.179 -0.3918 -0.9720 -0.1236
 2452SOL     OW18991   0.068   2.249   2.205  0.0211 -0.2888 -0.1775
 2452SOL    HW118992   0.017   2.167   2.202 -1.3350  0.6650 -2.7544
 2452SOL    HW218993   0.009   2.294   2.266  0.6681  0.5130 -0.1488
 2453SOL     OW18994   1.665   3.539   6.509 -0.0288 -0.1896  0.3447
 2453SOL    HW118995   1.736   3.568   6.451 -2.8657  1.6502 -2.2355
 2453SOL    HW218996   1.630   3.624   6.537 -0.1091 -0.8882  2.3589
 2454SOL     OW18997   0.123   2.462   5.595  0.2364  0.1971 -0.2116
 2454SOL    HW118998   0.114   2.386   5.652 -0.9616  1.5140  1.3599
 2454SOL    HW218999   0.160   2.416   5.520  0.5508 -0.1831  0.1757
 2455SOL     OW19000   3.553   4.141   2.369 -0.1733 -0.3339 -0.0288
 2455SOL    HW119001   3.561   4.049   2.346  1.4645 -0.6736  1.9379
 2455SOL    HW219002   3.594   4.185   2.295 -1.6175  0.8587 -0.1270
 2456SOL     OW19003   2.611   4.191  14.974 -0.0178 -0.2922  0.6053
 2456SOL    HW119004   2.587   4.133  15.046 -2.6028  0.9169  0.6957
 2456SOL    HW219005   2.528   4.208  14.929  0.2020 -0.0301  0.2988
 2457SOL     OW19006   0.657   3.228   2.594 -0.6108 -0.4227 -0.6080
 2457SOL    HW119007   0.649   3.152   2.651 -1.0290 -1.5025 -2.1061
 2457SOL    HW219008   0.611   3.192   2.518  2.2896 -0.5747 -2.2630
 2458SOL     OW19009   2.719   3.901   5.952  0.3750 -0.4744  0.5699
 2458SOL    HW119010   2.808   3.933   5.963  0.1963  0.1978  0.1060
 2458SOL    HW219011   2.701   3.862   6.037 -0.3121  0.7944  1.0036
 2459SOL     OW19012   0.763   0.123   2.914 -0.0662  0.6366 -0.4537
 2459SOL    HW119013   0.828   0.134   2.845 -0.4121  1.0522 -0.7160
 2459SOL    HW219014   0.747   0.029   2.923 -1.8899  0.7896 -1.9735
 2460SOL     OW19015   0.667   1.928   0.867  0.3850  0.4773 -0.1913
 2460SOL    HW119016   0.610   1.924   0.790 -0.9385  0.5038  0.7813
 2460SOL    HW219017   0.746   1.885   0.834 -0.2001 -0.6613 -0.1379
 2461SOL     OW19018   2.499   3.821  14.817 -0.1420  0.0354 -0.3476
 2461SOL    HW119019   2.518   3.753  14.754  1.7399  0.5735 -0.3848
 2461SOL    HW219020   2.519   3.904  14.773  0.8263  0.1084  0.2098
 2462SOL     OW19021   4.103   1.209  14.184 -0.4751  0.0673  0.1046
 2462SOL    HW119022   4.067   1.165  14.107  0.2333 -0.7027  0.2086
 2462SOL    HW219023   4.034   1.192  14.248 -1.0829 -1.6784 -1.0206
 2463SOL     OW19024   0.478   3.530   7.538  0.2015 -0.8722 -0.3351
 2463SOL    HW119025   0.439   3.475   7.471  0.5060  1.3639 -2.3590
 2463SOL    HW219026   0.538   3.582   7.484 -2.8487  1.5157 -1.4419
 2464SOL     OW19027   2.462   4.557   6.505  0.7350  0.5972  0.2918
 2464SOL    HW119028   2.430   4.523   6.421  2.6342 -0.4673 -0.0112
 2464SOL    HW219029   2.511   4.631   6.470 -0.3691  0.7162 -1.0249
 2465SOL     OW19030   3.083   2.805   6.276  0.6336 -0.1505 -0.1555
 2465SOL    HW119031   3.048   2.731   6.326  3.0873 -1.2916 -0.1341
 2465SOL    HW219032   3.116   2.744   6.210 -1.3161 -1.8537  0.4269
 2466SOL     OW19033   0.973   4.129   3.339 -0.0104  0.5857 -0.0928
 2466SOL    HW119034   0.951   4.223   3.344  2.5966  1.1303  0.8546
 2466SOL    HW219035   0.914   4.106   3.266 -1.5290  0.7279  1.0940
 2467SOL     OW19036   2.324   0.823  14.315  0.0902 -0.0814  0.1580
 2467SOL    HW119037   2.375   0.847  14.238  0.0693  0.9321  0.4682
 2467SOL    HW219038   2.398   0.793  14.370  1.1527 -0.6382 -1.5696
 2468SOL     OW19039   3.740   1.922   3.289 -0.5447 -0.3509 -0.1769
 2468SOL    HW119040   3.820   1.877   3.316 -0.6160  0.7771  1.9148
 2468SOL    HW219041   3.706   1.865   3.220  1.0493  1.4522 -2.4894
 2469SOL     OW19042   0.318   3.826   7.091 -0.4512  0.0438  0.6459
 2469SOL    HW119043   0.366   3.809   7.010  0.0087  2.4547  0.4128
 2469SOL    HW219044   0.344   3.915   7.114 -0.3397  0.5663 -1.5191
 2470SOL     OW19045   2.109   0.120  12.989  0.0369  0.3156  0.3718
 2470SOL    HW119046   2.037   0.063  12.960  0.7501 -1.2562  1.7478
 2470SOL    HW219047   2.061   0.171  13.054  0.8693  1.3408  0.1811
 2471SOL     OW19048   2.740   0.827  11.676 -0.0651  0.2136 -0.6564
 2471SOL    HW119049   2.673   0.887  11.709 -1.4785 -0.9602 -1.3866
 2471SOL    HW219050   2.767   0.782  11.756 -2.6839  0.5477  0.4171
 2472SOL     OW19051   0.253   1.904   8.776 -0.0207 -0.1765  0.1648
 2472SOL    HW119052   0.311   1.831   8.797  1.6039  0.3063 -2.5935
 2472SOL    HW219053   0.304   1.980   8.805  0.6444 -0.7661  0.5249
 2473SOL     OW19054   1.797   2.248   5.118  0.2018  0.4847  0.2663
 2473SOL    HW119055   1.886   2.271   5.091  0.3796 -0.1215  0.3470
 2473SOL    HW219056   1.748   2.257   5.036 -0.3440  0.7094  0.6150
 2474SOL     OW19057   3.964   4.312   4.544  0.1620  0.5433  0.3308
 2474SOL    HW119058   4.024   4.276   4.609 -1.0415  0.9196  1.6477
 2474SOL    HW219059   3.996   4.403   4.545 -0.3023  0.7131  0.0627
 2475SOL     OW19060   0.446   4.184   7.677 -0.3592  0.0428  0.4829
 2475SOL    HW119061   0.523   4.193   7.621  0.5203 -1.1996  1.4768
 2475SOL    HW219062   0.381   4.157   7.612 -0.2897  4.4037 -1.4023
 2476SOL     OW19063   0.095   3.621  10.048  0.6044  0.3711  0.1164
 2476SOL    HW119064   0.123   3.626   9.957  0.8378  0.6910  0.2026
 2476SOL    HW219065   0.162   3.563  10.083  0.1150 -1.6357 -2.2801
 2477SOL     OW19066   0.805   3.696   7.590  0.8113 -0.2692  0.1896
 2477SOL    HW119067   0.791   3.772   7.646  1.2112  0.5676 -0.8513
 2477SOL    HW219068   0.732   3.705   7.529  0.4393 -1.6059  0.4469
 2478SOL     OW19069   4.570   2.866  14.253 -0.9397 -0.3891 -0.1425
 2478SOL    HW119070   4.546   2.950  14.291  0.3204 -1.2216  2.4754
 2478SOL    HW219071   4.569   2.817  14.335 -2.0754 -0.0657  0.0336
 2479SOL     OW19072   1.956   4.563   4.024 -0.0667  0.2458 -0.0311
 2479SOL    HW119073   1.960   4.636   4.085  0.2176 -0.3216  0.6269
 2479SOL    HW219074   1.885   4.608   3.978 -0.2630  0.4730  0.4934
 2480SOL     OW19075   1.941   0.161   9.206  0.4281 -0.1429  1.0784
 2480SOL    HW119076   2.020   0.180   9.155 -1.1105  0.0270 -1.2202
 2480SOL    HW219077   1.970   0.089   9.263 -0.2076  0.1541  1.7808
 2481SOL     OW19078   4.585   4.560   1.741 -0.1956 -0.4973 -0.5149
 2481SOL    HW119079   4.517   4.493   1.746  0.5409 -1.0137  2.9717
 2481SOL    HW219080   4.658   4.507   1.711 -1.8391 -3.1295  0.1147
 2482SOL     OW19081   0.457   3.470   5.268 -0.3813  0.1775  1.2238
 2482SOL    HW119082   0.467   3.387   5.220  2.4562  1.0748  0.3085
 2482SOL    HW219083   0.504   3.455   5.350 -2.3977 -0.5240  2.2632
 2483SOL     OW19084   3.018   0.909   6.801 -0.3007 -1.0229 -0.8095
 2483SOL    HW119085   3.039   0.998   6.774 -1.9325 -0.2578  0.4107
 2483SOL    HW219086   2.961   0.937   6.873  1.9367  1.5242 -0.0507
 2484SOL     OW19087   2.386   1.376   4.263 -0.0646  0.0683 -0.1905
 2484SOL    HW119088   2.314   1.343   4.317  1.3635 -0.6384  1.2538
 2484SOL    HW219089   2.364   1.467   4.241  1.0059  0.9333  2.4067
 2485SOL     OW19090   0.258   3.385  12.888 -0.0361 -0.8275 -0.5493
 2485SOL    HW119091   0.178   3.430  12.916  0.8728 -0.4980  1.5393
 2485SOL    HW219092   0.255   3.418  12.798 -0.8282  1.9974  0.4946
 2486SOL     OW19093   1.817   1.793   4.320 -0.2158 -0.2009  0.5252
 2486SOL    HW119094   1.834   1.789   4.414 -2.4937 -0.0938  0.9435
 2486SOL    HW219095   1.879   1.730   4.284  0.4205  1.1821 -0.8292
 2487SOL     OW19096   3.888   1.795   8.357  0.1877  0.2489  0.2236
 2487SOL    HW119097   3.837   1.876   8.347 -0.5406 -0.3812 -1.2780
 2487SOL    HW219098   3.854   1.761   8.439  0.4381 -0.0550  0.1975
 2488SOL     OW19099   1.453   2.921  14.458 -0.2962  0.0033  0.4476
 2488SOL    HW119100   1.392   2.976  14.507  0.1238  1.4883 -0.6951
 2488SOL    HW219101   1.498   2.886  14.536 -1.5836  0.4261  1.3701
 2489SOL     OW19102   3.115   2.835   1.594  0.9206 -0.5638 -0.2669
 2489SOL    HW119103   3.133   2.741   1.599  0.3665 -0.7368 -1.4890
 2489SOL    HW219104   3.093   2.830   1.501 -0.9656 -0.6237  0.1761
 2490SOL     OW19105   4.065   0.407   4.037  0.4049 -0.3904 -0.3584
 2490SOL    HW119106   4.108   0.487   4.066 -1.5751  0.1624  1.0450
 2490SOL    HW219107   4.019   0.439   3.959 -1.9729 -0.6875  0.9339
 2491SOL     OW19108   0.091   0.295  15.884  0.4602 -0.0216 -0.3641
 2491SOL    HW119109   0.117   0.221  15.829 -0.1612  0.3584 -1.1766
 2491SOL    HW219110   0.001   0.301  15.852  0.1985 -1.2856  0.1118
 2492SOL     OW19111   0.423   0.808   4.882 -0.1386 -0.3079  0.6231
 2492SOL    HW119112   0.351   0.871   4.879 -1.1292 -1.5409 -2.0165
 2492SOL    HW219113   0.460   0.813   4.794 -1.0700  0.5949  0.2879
 2493SOL     OW19114   3.301   1.867   3.158  0.4761 -0.0063  1.0376
 2493SOL    HW119115   3.322   1.957   3.134  3.3070 -0.7707  0.6797
 2493SOL    HW219116   3.286   1.882   3.251 -2.5859 -2.5199  0.9666
 2494SOL     OW19117   4.283   2.575   0.500 -0.0771 -0.3716 -0.3425
 2494SOL    HW119118   4.239   2.597   0.417 -1.7205  0.3544  0.7056
 2494SOL    HW219119   4.373   2.547   0.484 -0.2017  0.4300 -2.4318
 2495SOL     OW19120   2.742   0.774   5.684 -0.1326  0.1689 -0.4051
 2495SOL    HW119121   2.687   0.731   5.749 -0.7583  1.2824 -0.2009
 2495SOL    HW219122   2.724   0.863   5.713 -0.3963  0.5395 -1.6856
 2496SOL     OW19123   1.396   3.141   6.641  0.3420 -0.1954 -0.0220
 2496SOL    HW119124   1.318   3.134   6.587  0.7756  0.8499 -0.7886
 2496SOL    HW219125   1.434   3.219   6.601  2.6001 -1.1390  0.3041
 2497SOL     OW19126   1.151   1.212   7.840  0.2803 -0.1565  0.7787
 2497SOL    HW119127   1.213   1.262   7.893 -1.4558 -0.0283  2.6994
 2497SOL    HW219128   1.184   1.236   7.754  0.6415 -1.0441  0.6639
 2498SOL     OW19129   2.442   0.911  10.237  0.5189 -0.3239 -0.0039
 2498SOL    HW119130   2.394   0.991  10.256  2.5806  1.2795 -1.5868
 2498SOL    HW219131   2.523   0.950  10.269 -0.4791  0.9363  0.9552
 2499SOL     OW19132   3.265   4.149   5.267 -0.2079  0.4865  0.7483
 2499SOL    HW119133   3.171   4.159   5.282 -0.2625  0.7291  0.2437
 2499SOL    HW219134   3.268   4.114   5.178  4.5903  2.9802 -0.0782
 2500SOL     OW19135   4.715   4.727   2.829 -0.2400  0.0397  0.0358
 2500SOL    HW119136   0.045   0.049   2.811  0.2559  0.0815  2.2034
 2500SOL    HW219137   4.647   0.033   2.878  0.2818  1.8404 -0.9532
 2501SOL     OW19138   2.650   4.554   3.311  0.0120 -0.3665 -0.1389
 2501SOL    HW119139   2.627   4.476   3.261  2.8579 -1.2397 -0.0707
 2501SOL    HW219140   2.632   4.528   3.402  0.6255 -1.7128 -0.4093
 2502SOL     OW19141   2.792   1.367   9.648  0.0050  0.1754 -0.0632
 2502SOL    HW119142   2.775   1.312   9.724  2.2505 -0.2989  0.1066
 2502SOL    HW219143   2.873   1.319   9.629  0.9260  0.9059  2.0049
 2503SOL     OW19144   0.260   1.503   7.810 -0.1357  0.0225  0.0717
 2503SOL    HW119145   0.244   1.591   7.775 -0.5076 -0.3421 -0.6868
 2503SOL    HW219146   0.214   1.505   7.894 -1.6600 -0.4833 -0.7549
 2504SOL     OW19147   0.934   3.152   8.510  0.3562  0.1027 -0.1415
 2504SOL    HW119148   1.019   3.189   8.535 -0.0828  1.0626 -0.1143
 2504SOL    HW219149   0.963   3.093   8.440  2.4322  0.7376  0.1827
 2505SOL     OW19150   0.400   4.436  12.425  0.1390  0.7384  0.5469
 2505SOL    HW119151   0.312   4.472  12.413  0.1414  0.4833 -0.2651
 2505SOL    HW219152   0.407   4.380  12.347 -0.5528  1.6625 -0.1796
 2506SOL     OW19153   1.886   4.204   1.312 -0.2619 -0.4812 -0.0320
 2506SOL    HW119154   1.840   4.282   1.344  0.1944 -1.0731  2.0978
 2506SOL    HW219155   1.907   4.147   1.386 -0.8466  0.6788  1.0323
 2507SOL     OW19156   2.565   1.142   2.909  0.1176 -0.2733  0.2674
 2507SOL    HW119157   2.649   1.161   2.950 -0.6251  0.2177  1.5645
 2507SOL    HW219158   2.512   1.183   2.977  1.6333 -0.9801  1.8888
 2508SOL     OW19159   1.616   0.262   6.706 -0.7744  0.0232 -0.3194
 2508SOL    HW119160   1.528   0.279   6.740  0.1471  1.4049  1.3861
 2508SOL    HW219161   1.653   0.198   6.767  1.3463  2.6401  1.1550
 2509SOL     OW19162   2.025   4.450   3.499 -0.7212  0.0719  0.0771
 2509SOL    HW119163   2.082   4.373   3.493  0.3477  1.0388 -1.9019
 2509SOL    HW219164   1.984   4.438   3.585  1.2108 -2.4320  0.6489
 2510SOL     OW19165   1.205   0.995   2.783 -0.2909  0.4884  0.3353
 2510SOL    HW119166   1.241   0.918   2.739 -0.6148  0.8647 -0.5971
 2510SOL    HW219167   1.110   0.987   2.772 -0.1175 -2.0747  0.7614
 2511SOL     OW19168   3.112   0.405   5.898 -0.2244  0.1199 -0.1740
 2511SOL    HW119169   3.102   0.471   5.830 -0.4946 -0.4285 -0.6703
 2511SOL    HW219170   3.190   0.432   5.945 -1.0947 -0.4057  1.5566
 2512SOL     OW19171   2.040   3.225   7.103  0.8772 -0.2859  0.4418
 2512SOL    HW119172   2.036   3.210   7.008  1.2545 -0.6626  0.4814
 2512SOL    HW219173   1.981   3.297   7.123  0.9674 -0.1455  0.2094
 2513SOL     OW19174   0.648   4.330   5.354 -0.6944  0.1278  0.2993
 2513SOL    HW119175   0.594   4.260   5.318 -1.4619  1.0073 -0.2384
 2513SOL    HW219176   0.675   4.282   5.432  0.2009 -0.7986 -0.5640
 2514SOL     OW19177   4.218   0.965  14.485 -0.0565 -0.5644 -0.2846
 2514SOL    HW119178   4.233   1.056  14.460  2.3127  0.3220  4.2568
 2514SOL    HW219179   4.253   0.924  14.406  1.4034  1.1513 -0.5319
 2515SOL     OW19180   1.827   1.602   8.350  0.1775  0.2980 -0.1704
 2515SOL    HW119181   1.859   1.690   8.333 -0.6702  0.5483 -0.4093
 2515SOL    HW219182   1.734   1.616   8.337  0.3410  1.7696  0.3243
 2516SOL     OW19183   2.936   3.061   5.795  0.0390  0.0118  0.1135
 2516SOL    HW119184   2.876   2.986   5.790  0.6573 -0.3255 -2.3516
 2516SOL    HW219185   3.012   3.013   5.763  0.2019  0.6648 -0.4581
 2517SOL     OW19186   3.272   2.758   0.740 -0.3965  0.1637  0.0712
 2517SOL    HW119187   3.330   2.701   0.790  0.8084  1.8501  0.5926
 2517SOL    HW219188   3.200   2.776   0.800 -0.3322 -2.4824  0.9487
 2518SOL     OW19189   3.083   0.822   5.230 -0.5022 -0.4327 -0.1624
 2518SOL    HW119190   3.016   0.790   5.290 -0.8618 -2.9299 -1.8775
 2518SOL    HW219191   3.035   0.858   5.155 -1.1180 -1.2713 -0.1676
 2519SOL     OW19192   1.993   3.542   3.857  0.3484  0.5271  0.1554
 2519SOL    HW119193   2.025   3.579   3.775 -0.1065 -3.1179 -1.6484
 2519SOL    HW219194   1.913   3.592   3.871  0.8817  0.9530  1.6688
 2520SOL     OW19195   3.814   2.725   8.764 -0.2584  0.1722 -0.6882
 2520SOL    HW119196   3.762   2.644   8.760 -0.1668  0.0543  0.3547
 2520SOL    HW219197   3.783   2.774   8.841  0.0566 -0.9979  0.1939
 2521SOL     OW19198   1.744   3.067   3.293 -0.5432 -0.2240  0.6100
 2521SOL    HW119199   1.731   3.060   3.388  2.3750 -2.7172  0.8220
 2521SOL    HW219200   1.802   2.993   3.274  1.5113  0.9553  2.2961
 2522SOL     OW19201   0.168   1.846   9.622  0.3200  0.2125  0.4650
 2522SOL    HW119202   0.165   1.941   9.635 -1.0274 -0.0145  1.8042
 2522SOL    HW219203   0.261   1.838   9.601  0.0883  1.4994 -1.0414
 2523SOL     OW19204   0.159   4.604   7.863  0.4120 -0.6385 -0.6334
 2523SOL    HW119205   0.235   4.642   7.818 -0.9134  1.1372 -1.3817
 2523SOL    HW219206   0.117   4.558   7.790  0.6415 -1.7355 -0.0573
 2524SOL     OW19207   3.652   4.576   7.526 -0.0658  0.0213 -0.1826
 2524SOL    HW119208   3.633   4.576   7.620  0.5837 -1.1648 -0.0559
 2524SOL    HW219209   3.740   4.613   7.532 -0.5873  1.1164  0.5997
 2525SOL     OW19210   2.238   1.140   7.422 -0.0087  0.2509 -0.2641
 2525SOL    HW119211   2.152   1.135   7.381  0.7201 -0.3637 -1.6982
 2525SOL    HW219212   2.246   1.229   7.458  1.7849  0.4417 -1.1666
 2526SOL     OW19213   3.159   4.438   7.963  0.0141  0.1046  0.3034
 2526SOL    HW119214   3.148   4.387   7.883  1.4197  0.8958 -0.3823
 2526SOL    HW219215   3.081   4.407   8.009 -0.3165 -0.3661 -0.5788
 2527SOL     OW19216   2.653   0.378  10.411 -0.3950 -0.1501 -0.2866
 2527SOL    HW119217   2.598   0.304  10.437 -1.6118  0.7187 -0.4046
 2527SOL    HW219218   2.594   0.453  10.418  0.7709  0.9123 -1.8080
 2528SOL     OW19219   0.281   3.511   8.618  0.0534  0.2372 -0.3372
 2528SOL    HW119220   0.296   3.571   8.545 -0.0432  1.0185  0.2904
 2528SOL    HW219221   0.362   3.525   8.668 -0.5216  0.8014  0.4278
 2529SOL     OW19222   4.668   4.159   1.747 -0.2702  0.3391  0.3348
 2529SOL    HW119223   4.649   4.242   1.790 -1.8797 -0.0821  0.4386
 2529SOL    HW219224   4.682   4.103   1.823  1.2889  1.9546  1.2184
 2530SOL     OW19225   2.662   0.286   3.457 -0.0969 -0.1275 -0.3713
 2530SOL    HW119226   2.587   0.345   3.455  0.4048  0.5108 -0.2164
 2530SOL    HW219227   2.711   0.327   3.386  0.4846  0.9315  0.6379
 2531SOL     OW19228   1.219   2.531   1.662  0.2864  0.4367  0.6363
 2531SOL    HW119229   1.181   2.579   1.588  3.1352  0.1321 -1.0058
 2531SOL    HW219230   1.160   2.457   1.678  1.8128 -0.5157  1.9430
 2532SOL     OW19231   1.775   0.883   2.473  0.5879  0.0403 -0.0649
 2532SOL    HW119232   1.681   0.880   2.454  0.2914 -0.2722  1.4792
 2532SOL    HW219233   1.783   0.819   2.544 -1.1279  2.6080  2.4716
 2533SOL     OW19234   2.258   0.099   4.231 -0.4678  0.2692 -0.1273
 2533SOL    HW119235   2.341   0.129   4.269  0.0988 -1.0229 -0.3369
 2533SOL    HW219236   2.284   0.011   4.203  1.0188  0.1146  1.7586
 2534SOL     OW19237   0.067   0.882   6.761 -0.4565 -0.2699 -0.5546
 2534SOL    HW119238   4.735   0.892   6.699 -0.2086  4.1356 -0.1279
 2534SOL    HW219239   0.070   0.971   6.795  0.0918 -0.7433  0.6411
 2535SOL     OW19240   3.479   1.512   1.294 -0.0947 -0.2954 -0.3347
 2535SOL    HW119241   3.387   1.488   1.303  0.2881  0.3781  5.0776
 2535SOL    HW219242   3.484   1.584   1.231 -2.3444 -0.5419 -0.7987
 2536SOL     OW19243   2.797   2.182   9.482  0.4276  0.2834  0.6182
 2536SOL    HW119244   2.872   2.221   9.528  2.4112 -2.5574 -0.2630
 2536SOL    HW219245   2.774   2.244   9.412 -0.9899 -0.8828  0.0652
 2537SOL     OW19246   2.635   0.921   8.308 -0.3537  0.2915 -0.5717
 2537SOL    HW119247   2.716   0.881   8.276 -1.0981 -1.6671  0.0273
 2537SOL    HW219248   2.564   0.866   8.276 -0.2288 -0.6973  0.8518
 2538SOL     OW19249   2.255   0.112   2.527  0.1829  0.3526  0.4945
 2538SOL    HW119250   2.279   0.071   2.610  1.1710  0.8829  0.4666
 2538SOL    HW219251   2.223   0.038   2.476  1.3101 -0.1222  0.4797
 2539SOL     OW19252   4.730   1.746  14.712  0.0937  0.0474  0.1836
 2539SOL    HW119253   4.710   1.795  14.632  0.9907 -0.2501 -0.2188
 2539SOL    HW219254   0.084   1.751  14.727 -0.1379  0.2720  1.5811
 2540SOL     OW19255   2.759   3.211   7.732  0.0406  0.0416  0.0613
 2540SOL    HW119256   2.840   3.249   7.698 -1.7618  1.2701 -2.9442
 2540SOL    HW219257   2.703   3.207   7.654  0.9377 -0.6437 -0.5496
 2541SOL     OW19258   1.684   3.429  10.322  0.6643  0.3424  0.1312
 2541SOL    HW119259   1.741   3.406  10.248  0.2354  1.5667 -0.5897
 2541SOL    HW219260   1.597   3.415  10.285 -0.1476  3.1019  1.0537
 2542SOL     OW19261   2.917   0.650   8.146  0.2315 -0.0510 -0.7157
 2542SOL    HW119262   2.851   0.689   8.089 -1.4537  0.4878  1.5899
 2542SOL    HW219263   2.921   0.706   8.224 -0.2258 -0.7009 -0.2228
 2543SOL     OW19264   1.903   0.078   8.809  0.5842 -0.8123  0.4925
 2543SOL    HW119265   1.854   0.064   8.728 -0.2542 -1.6210  1.1370
 2543SOL    HW219266   1.922   0.171   8.803 -0.6141 -0.5026  1.3783
 2544SOL     OW19267   0.094   3.411  17.248 -0.5111  0.4732 -0.2530
 2544SOL    HW119268   0.101   3.466  17.169  0.7886 -2.2608 -2.0681
 2544SOL    HW219269   0.176   3.360  17.241  1.2602  2.9291  2.6873
 2545SOL     OW19270   0.434   2.827   8.382 -0.4601 -0.6032  0.5735
 2545SOL    HW119271   0.369   2.797   8.445 -0.7262 -0.1357  0.5182
 2545SOL    HW219272   0.514   2.841   8.433  1.6929  2.7660 -3.7264
 2546SOL     OW19273   1.832   2.083  17.670  0.6310  0.2525 -0.1936
 2546SOL    HW119274   1.897   2.050  17.609 -1.2689 -2.7025 -0.6310
 2546SOL    HW219275   1.830   2.176  17.646 -0.8143  0.1467 -0.5213
 2547SOL     OW19276   3.014   2.241   7.025  0.1153  0.3042 -0.0579
 2547SOL    HW119277   3.056   2.274   7.104  2.0801  0.8027 -1.2814
 2547SOL    HW219278   2.963   2.171   7.066  1.2792 -0.4980  0.0214
 2548SOL     OW19279   2.456   3.103   4.878 -0.7898 -0.1714  0.6003
 2548SOL    HW119280   2.515   3.091   4.952  0.9056  1.1480 -0.5361
 2548SOL    HW219281   2.432   3.195   4.891 -2.3114  0.0890 -4.0392
 2549SOL     OW19282   4.424   1.751   9.011 -0.8376  0.7500  0.3364
 2549SOL    HW119283   4.449   1.660   8.995 -1.2048  0.9858 -1.6218
 2549SOL    HW219284   4.338   1.743   8.970 -0.6729 -1.1446  0.3920
 2550SOL     OW19285   4.371   2.168   7.313 -0.1320  0.1618  0.6916
 2550SOL    HW119286   4.407   2.088   7.350 -1.3715 -1.0639 -0.7237
 2550SOL    HW219287   4.444   2.222   7.342 -0.0549  0.5013 -0.1195
 2551SOL     OW19288   1.975   3.635   2.615 -0.1559 -1.1414 -0.1252
 2551SOL    HW119289   2.026   3.588   2.548 -0.0802 -1.0926 -0.1007
 2551SOL    HW219290   1.894   3.583   2.615 -0.1944 -1.0902 -0.8301
 2552SOL     OW19291   3.031   0.211   2.797 -0.2454  0.0944  0.2837
 2552SOL    HW119292   2.989   0.201   2.882 -0.4609 -1.8545 -0.0603
 2552SOL    HW219293   3.054   0.121   2.774  0.5227  1.0863 -2.8266
 2553SOL     OW19294   3.390   2.621  10.682 -0.6247 -0.0256 -0.0337
 2553SOL    HW119295   3.474   2.590  10.717 -1.5867 -1.4767  1.0042
 2553SOL    HW219296   3.372   2.695  10.740  0.3189 -0.1293  0.3968
 2554SOL     OW19297   2.675   0.982   3.370 -0.5095 -0.4714  0.0981
 2554SOL    HW119298   2.624   0.959   3.292  1.8126  0.1171 -1.5795
 2554SOL    HW219299   2.602   0.980   3.432  0.4963  0.0924  1.2978
 2555SOL     OW19300   4.591   2.836  11.695 -0.5325 -0.2868 -0.0236
 2555SOL    HW119301   4.657   2.781  11.653  0.2503 -0.7447  1.8139
 2555SOL    HW219302   4.506   2.792  11.692 -0.7650  0.1700 -0.1790
 2556SOL     OW19303   0.097   1.739   5.068 -0.6617  0.7172  0.0812
 2556SOL    HW119304   0.052   1.795   5.131  0.6164  1.5955  0.2163
 2556SOL    HW219305   0.169   1.797   5.041  0.1364 -1.4806 -2.5589
 2557SOL     OW19306   0.811   1.998  13.545  0.8919  0.1332 -0.3010
 2557SOL    HW119307   0.835   1.919  13.495 -0.5777 -2.6454  3.4539
 2557SOL    HW219308   0.757   1.956  13.612 -0.0161 -1.6378 -2.1483
 2558SOL     OW19309   3.668   0.659   4.459  0.0540 -0.3831  0.5215
 2558SOL    HW119310   3.736   0.725   4.448  0.1590 -0.6009 -0.1372
 2558SOL    HW219311   3.698   0.600   4.528  1.8988 -0.5190 -0.3964
 2559SOL     OW19312   0.343   2.799   0.049  0.6491  0.0738  0.6759
 2559SOL    HW119313   0.381   2.753  17.734  0.9458 -0.4187  1.1303
 2559SOL    HW219314   0.421   2.848   0.076  2.0084 -0.6785 -1.8791
 2560SOL     OW19315   1.560   2.431   2.457  0.4088 -0.4454 -0.2277
 2560SOL    HW119316   1.583   2.345   2.421  1.3736  1.3956 -4.0652
 2560SOL    HW219317   1.510   2.404   2.533 -3.2348  1.9417 -1.7912
 2561SOL     OW19318   3.027   3.410   7.954 -0.3827 -0.2699 -0.1285
 2561SOL    HW119319   3.042   3.326   7.911  2.9567  0.5168 -0.4948
 2561SOL    HW219320   3.086   3.463   7.901  0.3061 -0.1476  0.7588
 2562SOL     OW19321   0.091   2.907   9.259  0.0566  0.5231  0.2910
 2562SOL    HW119322   0.042   2.948   9.187  0.7500 -0.6030 -0.8031
 2562SOL    HW219323   0.042   2.934   9.337 -1.5311  0.8419 -0.8127
 2563SOL     OW19324   3.311   1.277   6.755 -0.1597 -0.0511  0.4769
 2563SOL    HW119325   3.313   1.196   6.704 -0.5769  0.5736 -0.5187
 2563SOL    HW219326   3.256   1.242   6.825  1.1174 -0.7883  1.1227
 2564SOL     OW19327   1.339   4.656  10.346  0.2403  0.1554  0.0926
 2564SOL    HW119328   1.368   0.007  10.356 -1.5006  0.8229 -0.9293
 2564SOL    HW219329   1.350   4.658  10.251  1.9787 -0.8514  0.2749
 2565SOL     OW19330   2.398   0.927   9.324 -0.3895  0.6973  0.0385
 2565SOL    HW119331   2.351   0.848   9.350 -1.1381  1.0033 -0.3833
 2565SOL    HW219332   2.327   0.985   9.296 -0.4032  0.5675 -0.1871
 2566SOL     OW19333   4.648   3.560  14.407 -0.2652 -0.0748 -0.3242
 2566SOL    HW119334   4.574   3.615  14.432 -1.2303 -0.9652 -1.1861
 2566SOL    HW219335   4.597   3.493  14.361 -0.4684 -0.2913  0.2128
 2567SOL     OW19336   1.717   3.633   5.823 -0.2215 -0.0140 -0.1946
 2567SOL    HW119337   1.806   3.669   5.819 -0.7003  1.0678 -1.1769
 2567SOL    HW219338   1.693   3.640   5.731  0.6208 -0.9550 -0.4933
 2568SOL     OW19339   0.620   0.614  10.396 -0.6312 -0.1430  0.4497
 2568SOL    HW119340   0.567   0.646  10.468  0.9599  1.2033  1.0217
 2568SOL    HW219341   0.556   0.607  10.325 -0.1869 -1.6197  0.1780
 2569SOL     OW19342   0.786   3.122   7.572 -0.5644  0.5284  0.4531
 2569SOL    HW119343   0.827   3.205   7.547  0.0755  0.2470  0.5625
 2569SOL    HW219344   0.702   3.130   7.527 -0.4979  1.0053  0.4057
 2570SOL     OW19345   1.431   0.744   0.459  0.0893  0.7007 -0.5016
 2570SOL    HW119346   1.347   0.742   0.413 -0.3031  2.2798  0.1575
 2570SOL    HW219347   1.396   0.786   0.537 -0.6777 -0.1108 -0.4056
 2571SOL     OW19348   0.064   1.928   6.900 -0.0770  0.4739  0.2807
 2571SOL    HW119349   4.727   1.933   6.955 -1.2005 -1.9218 -1.1019
 2571SOL    HW219350   0.123   1.883   6.961 -0.2140 -0.8221 -0.5519
 2572SOL     OW19351   2.458   0.781   0.257  0.1686 -0.0639 -0.0005
 2572SOL    HW119352   2.538   0.831   0.241 -1.2326  2.4822  0.8648
 2572SOL    HW219353   2.499   0.705   0.216  0.7670 -0.0107  0.4940
 2573SOL     OW19354   1.588   3.980   7.334 -0.2444  0.1730 -0.1691
 2573SOL    HW119355   1.560   4.017   7.418 -0.6142  0.5813 -0.4692
 2573SOL    HW219356   1.530   4.023   7.271  2.2857  0.7129 -2.1483
 2574SOL     OW19357   3.197   3.885   8.763  0.1303 -0.4148  0.0456
 2574SOL    HW119358   3.189   3.973   8.799 -0.7843 -0.3039 -0.4106
 2574SOL    HW219359   3.188   3.833   8.843  0.6422 -1.7308 -0.7451
 2575SOL     OW19360   0.477   0.702   6.761  0.6568  0.2681  0.0156
 2575SOL    HW119361   0.566   0.737   6.768  1.6139 -1.5152 -3.1044
 2575SOL    HW219362   0.459   0.695   6.855  0.6133  1.2247  0.0817
 2576SOL     OW19363   4.191   3.262   2.870  0.3525 -0.1850 -0.2630
 2576SOL    HW119364   4.139   3.216   2.804 -0.2919  1.7278 -1.0758
 2576SOL    HW219365   4.216   3.340   2.820  0.4280 -1.3624 -2.0567
 2577SOL     OW19366   4.249   0.306   1.205  0.1072  0.0478 -0.3256
 2577SOL    HW119367   4.184   0.375   1.222 -0.1144 -0.3361  0.3855
 2577SOL    HW219368   4.315   0.355   1.157  0.9022 -0.5385  0.1827
 2578SOL     OW19369   1.424   1.262   9.077  0.1138 -0.6171  0.7793
 2578SOL    HW119370   1.515   1.256   9.050  0.2536  0.6564  0.9649
 2578SOL    HW219371   1.402   1.344   9.033 -0.0197 -0.8600  0.4006
 2579SOL     OW19372   1.575   1.306   6.488  0.6243  0.0493 -0.3947
 2579SOL    HW119373   1.509   1.267   6.545 -0.1563  1.0300 -0.6080
 2579SOL    HW219374   1.652   1.256   6.513 -0.2119 -0.9998  0.0873
 2580SOL     OW19375   2.294   4.007   9.510  0.0863 -0.6643 -0.1518
 2580SOL    HW119376   2.233   4.066   9.468 -0.7368 -2.1148 -1.0026
 2580SOL    HW219377   2.351   4.071   9.552 -1.2544 -0.0290  0.6729
 2581SOL     OW19378   2.921   2.390   2.685  0.4010  0.6194 -0.5494
 2581SOL    HW119379   2.949   2.304   2.654 -1.7789 -0.1174 -0.4698
 2581SOL    HW219380   2.967   2.384   2.768  0.0005 -2.5614 -0.5690
 2582SOL     OW19381   2.682   2.669   1.736  0.2402  0.0802 -0.2983
 2582SOL    HW119382   2.597   2.637   1.764  1.7389 -1.9192  1.9231
 2582SOL    HW219383   2.735   2.607   1.785 -0.0007  0.3166  0.2570
 2583SOL     OW19384   3.268   2.650   4.626  0.1216 -0.5001 -0.3269
 2583SOL    HW119385   3.185   2.697   4.627  1.6974  2.3270 -2.0439
 2583SOL    HW219386   3.317   2.711   4.681 -1.9296  1.1223 -0.2857
 2584SOL     OW19387   0.929   1.960   9.861 -0.0027 -0.4249  0.5912
 2584SOL    HW119388   0.854   1.970   9.920 -1.3854  0.0444 -1.2475
 2584SOL    HW219389   0.997   1.958   9.929  0.1991  2.9669  0.5174
 2585SOL     OW19390   0.462   1.727  12.627  0.6092 -0.0009  0.4093
 2585SOL    HW119391   0.443   1.762  12.714 -0.9260 -1.5105  0.6905
 2585SOL    HW219392   0.424   1.803  12.582  0.8146  0.2718  0.6994
 2586SOL     OW19393   1.918   3.739   9.830  0.1750  0.4046  0.0687
 2586SOL    HW119394   1.836   3.700   9.861  1.0678  0.3675  2.3934
 2586SOL    HW219395   1.913   3.736   9.734  1.0000 -3.0565  0.1217
 2587SOL     OW19396   3.768   4.177   6.733  0.5385  0.6853  0.2461
 2587SOL    HW119397   3.786   4.150   6.643 -1.1400 -0.3035  0.2030
 2587SOL    HW219398   3.709   4.251   6.718  1.2271  0.8811 -1.4712
 2588SOL     OW19399   3.656   3.527   6.399  0.6136 -0.4087  0.2940
 2588SOL    HW119400   3.644   3.494   6.488 -1.5989 -0.3548  0.0207
 2588SOL    HW219401   3.738   3.577   6.406 -1.6068  3.0910  1.4167
 2589SOL     OW19402   3.113   1.127   3.380 -0.0376  0.0404  0.4280
 2589SOL    HW119403   3.199   1.105   3.342 -0.1134  0.4308  0.0313
 2589SOL    HW219404   3.077   1.038   3.375 -0.7846  0.3310  0.7214
 2590SOL     OW19405   4.146   3.787   4.632  0.4506 -0.0309 -0.2235
 2590SOL    HW119406   4.080   3.742   4.684 -0.1595  0.0310 -0.9500
 2590SOL    HW219407   4.201   3.709   4.623 -0.7959 -0.9398  0.0893
 2591SOL     OW19408   4.426   3.902   6.214 -0.1402  0.4019  0.1787
 2591SOL    HW119409   4.474   3.863   6.141  0.0829  1.2806 -0.1375
 2591SOL    HW219410   4.501   3.898   6.273 -0.6525 -0.4551  0.7719
 2592SOL     OW19411   0.523   3.870   8.981  0.1256 -0.2626  0.1463
 2592SOL    HW119412   0.553   3.806   9.046 -1.8879 -0.7845  0.5545
 2592SOL    HW219413   0.607   3.901   8.946 -0.8446  1.5467 -0.5638
 2593SOL     OW19414   0.002   1.992   8.720 -0.0435  0.2748 -0.1814
 2593SOL    HW119415   0.093   1.991   8.750  0.4913 -0.6613 -1.8145
 2593SOL    HW219416   4.693   1.989   8.802 -0.7760  0.0043 -0.6323
 2594SOL     OW19417   2.430   3.715   8.364 -0.6950 -0.6411  0.3114
 2594SOL    HW119418   2.499   3.690   8.302  0.7173  0.1833  1.5471
 2594SOL    HW219419   2.483   3.756   8.433  0.6083  0.5332 -1.3840
 2595SOL     OW19420   3.954   2.188   6.525 -0.4240  0.0608 -0.3789
 2595SOL    HW119421   3.957   2.174   6.430 -2.2668 -0.9417 -0.2988
 2595SOL    HW219422   3.975   2.280   6.538  0.9163 -0.3971  0.6134
 2596SOL     OW19423   0.713   1.757  13.234  0.5766  0.1545 -0.0321
 2596SOL    HW119424   0.747   1.721  13.152 -1.8693 -0.3227 -0.8458
 2596SOL    HW219425   0.791   1.764  13.288 -0.1224  0.8096  0.8984
 2597SOL     OW19426   1.442   3.645   2.443 -0.4137 -0.7841  0.3802
 2597SOL    HW119427   1.362   3.695   2.460 -0.4958  0.5307 -3.6899
 2597SOL    HW219428   1.426   3.614   2.353 -1.0875 -0.8819  0.5319
 2598SOL     OW19429   2.312   2.373   7.720  0.0815  0.4984  0.1698
 2598SOL    HW119430   2.329   2.427   7.797  0.5173  0.2454  0.2489
 2598SOL    HW219431   2.301   2.289   7.766  1.4320 -1.0366 -2.2953
 2599SOL     OW19432   3.200   2.204   4.490 -0.6385  0.5629  0.4992
 2599SOL    HW119433   3.172   2.231   4.403  0.7160 -0.5479 -0.2704
 2599SOL    HW219434   3.198   2.108   4.486  0.5174  0.4461  2.8323
 2600SOL     OW19435   0.116   4.294   3.619 -0.8665 -0.0178  0.5623
 2600SOL    HW119436   0.134   4.219   3.674 -2.9084  0.4425  1.8460
 2600SOL    HW219437   0.205   4.330   3.615 -1.4189  1.1782 -1.2521
 2601SOL     OW19438   2.385   4.553   7.494 -0.2501  0.2832  0.3080
 2601SOL    HW119439   2.440   4.569   7.417  0.9662 -0.7806  0.9762
 2601SOL    HW219440   2.348   4.476   7.451 -0.6096  1.2829 -1.1713
 2602SOL     OW19441   4.264   3.927   8.078  0.4423  0.1727 -0.6496
 2602SOL    HW119442   4.171   3.939   8.059  0.2214 -0.1972  0.1809
 2602SOL    HW219443   4.258   3.884   8.163  1.6177  1.4267  0.0663
 2603SOL     OW19444   1.609   2.371  12.642 -0.7043  0.7521  0.2010
 2603SOL    HW119445   1.598   2.307  12.712  2.7631  0.7637  0.7591
 2603SOL    HW219446   1.648   2.449  12.682  1.3360 -0.2914  0.2569
 2604SOL     OW19447   3.653   2.015   9.487  1.0971 -0.4656 -0.8948
 2604SOL    HW119448   3.633   1.982   9.399 -2.0114  0.7197 -0.6383
 2604SOL    HW219449   3.720   2.081   9.469  0.6778 -0.2986 -1.8700
 2605SOL     OW19450   0.488   3.334   5.854 -0.0524 -0.2568 -0.2142
 2605SOL    HW119451   0.438   3.318   5.774  2.8001 -0.3406 -1.9857
 2605SOL    HW219452   0.414   3.311   5.910 -0.3267 -1.8774 -1.2353
 2606SOL     OW19453   1.493   0.214   3.978 -0.2369  0.0185 -0.1166
 2606SOL    HW119454   1.459   0.304   3.978 -1.1564 -0.3235  0.8095
 2606SOL    HW219455   1.484   0.199   3.884 -0.3709 -1.3743  0.1157
 2607SOL     OW19456   4.518   0.650   4.362  0.4927 -0.1221 -0.4034
 2607SOL    HW119457   4.601   0.616   4.395  0.3796  0.8843  0.9135
 2607SOL    HW219458   4.538   0.740   4.337 -1.3444  0.3837 -0.0650
 2608SOL     OW19459   3.701   2.710   7.561  0.2582 -0.5984  0.2840
 2608SOL    HW119460   3.721   2.693   7.469 -1.2547 -0.3610 -0.0840
 2608SOL    HW219461   3.781   2.748   7.596  0.6859 -0.4893 -0.7906
 2609SOL     OW19462   4.162   2.071   2.078  0.0369  0.3215  0.3526
 2609SOL    HW119463   4.145   2.103   2.167  1.6702 -2.4871  1.6697
 2609SOL    HW219464   4.083   2.022   2.056  0.5030 -0.0777 -0.4121
 2610SOL     OW19465   0.144   2.052   6.151 -0.1460 -0.4755 -0.1597
 2610SOL    HW119466   0.237   2.052   6.171 -0.4792  0.4535  1.3997
 2610SOL    HW219467   0.133   1.995   6.075 -0.5014 -0.7761  0.1174
 2611SOL     OW19468   3.577   0.629   8.010  0.2060  0.3933  0.6185
 2611SOL    HW119469   3.670   0.613   8.027  0.1246  0.0436  0.7472
 2611SOL    HW219470   3.549   0.679   8.087  0.8095  0.4241  0.8183
 2612SOL     OW19471   1.769   1.373   6.977  0.0983 -0.1498 -0.3456
 2612SOL    HW119472   1.773   1.467   6.995 -2.7414  0.0787 -0.9992
 2612SOL    HW219473   1.675   1.365   6.963 -0.1823  0.9060  0.9456
 2613SOL     OW19474   3.263   1.259   3.686  0.3678 -0.2174 -0.7556
 2613SOL    HW119475   3.295   1.172   3.662 -1.4473 -1.2196  0.5245
 2613SOL    HW219476   3.302   1.266   3.773 -1.3500  0.3096 -0.0273
 2614SOL     OW19477   1.474   3.521   8.684  0.2179  0.1028  0.4309
 2614SOL    HW119478   1.412   3.592   8.671  1.0090  0.4255 -1.5006
 2614SOL    HW219479   1.561   3.548   8.656  1.2898  0.3304  3.8963
 2615SOL     OW19480   1.933   3.075  13.184 -0.2015  0.2467  0.2125
 2615SOL    HW119481   1.940   3.069  13.279  0.3478 -3.4168 -0.0413
 2615SOL    HW219482   2.027   3.055  13.177 -0.5903 -1.3552 -0.4375
 2616SOL     OW19483   3.399   4.675   9.668  0.3457 -0.2397  0.1590
 2616SOL    HW119484   3.437   4.633   9.591 -0.6471  0.5792 -0.7852
 2616SOL    HW219485   3.445   0.018   9.677 -0.0741 -0.2095  1.9651
 2617SOL     OW19486   2.090   2.431   3.800 -0.6872 -0.0622 -0.2331
 2617SOL    HW119487   2.041   2.437   3.717  0.7104  1.2463 -0.9628
 2617SOL    HW219488   2.063   2.345   3.832 -1.9762 -0.1965 -1.6902
 2618SOL     OW19489   1.823   2.662   1.304 -0.3622  0.3713  0.1001
 2618SOL    HW119490   1.728   2.672   1.301 -0.4283 -0.0831  0.5422
 2618SOL    HW219491   1.834   2.579   1.258  0.1837 -0.0608  1.0026
 2619SOL     OW19492   4.269   3.519   2.784  0.1950 -0.0031  0.3529
 2619SOL    HW119493   4.312   3.562   2.711 -1.2356 -1.3588 -1.2909
 2619SOL    HW219494   4.325   3.536   2.860  0.1595 -2.6507  0.9573
 2620SOL     OW19495   4.022   1.934   4.932  0.7882 -0.1290 -0.3835
 2620SOL    HW119496   3.980   1.849   4.923 -0.4714  0.6509 -1.9206
 2620SOL    HW219497   4.097   1.938   4.873  1.6911  3.6404  1.0055
 2621SOL     OW19498   0.774   0.307  17.341 -0.2855 -0.0432  0.1853
 2621SOL    HW119499   0.798   0.355  17.262  0.2532 -0.4271  0.1114
 2621SOL    HW219500   0.740   0.375  17.400 -0.4473  0.5925 -0.6414
 2622SOL     OW19501   3.184   3.911   5.936  0.2674 -0.4497  0.6406
 2622SOL    HW119502   3.261   3.855   5.950  0.0234 -1.3907 -1.6801
 2622SOL    HW219503   3.112   3.849   5.931 -0.6821  0.8655 -1.8318
 2623SOL     OW19504   0.352   0.160   7.177  0.5313 -0.0862  0.0679
 2623SOL    HW119505   0.292   0.233   7.161  3.3521  2.5548  1.6008
 2623SOL    HW219506   0.295   0.083   7.184  0.6625 -0.1064  0.8616
 2624SOL     OW19507   0.158   3.987  11.576  0.0186  0.3793  0.2541
 2624SOL    HW119508   0.157   4.079  11.547  1.1973  0.6968  1.2006
 2624SOL    HW219509   0.090   3.951  11.519 -0.2950 -1.9879  2.1463
 2625SOL     OW19510   1.211   0.249   8.604  0.1512  0.2737 -0.4306
 2625SOL    HW119511   1.295   0.238   8.650 -0.3005 -0.9640  0.1078
 2625SOL    HW219512   1.183   0.333   8.640  0.4802  0.6483 -1.0464
 2626SOL     OW19513   0.710   3.755   0.691  0.3663  0.1610  0.3325
 2626SOL    HW119514   0.681   3.839   0.727  0.0066  0.2260 -0.1135
 2626SOL    HW219515   0.645   3.743   0.622  2.1640 -0.1271 -1.3138
 2627SOL     OW19516   1.501   3.966   6.167 -0.5808 -0.5157  0.1555
 2627SOL    HW119517   1.554   4.043   6.187 -1.0185 -0.0286 -0.5366
 2627SOL    HW219518   1.527   3.947   6.077 -0.5170  1.1060 -0.1697
 2628SOL     OW19519   3.207   1.847  12.303  0.4868  0.5252 -0.1169
 2628SOL    HW119520   3.260   1.774  12.272 -1.1452 -1.6251  2.1338
 2628SOL    HW219521   3.228   1.852  12.396 -1.7907 -0.7357  0.4744
 2629SOL     OW19522   4.592   4.627   2.601  0.1265 -0.1693 -0.2901
 2629SOL    HW119523   4.647   4.667   2.669  0.5390 -0.7620 -0.2676
 2629SOL    HW219524   4.503   4.648   2.629 -0.4051 -2.1496 -0.4786
 2630SOL     OW19525   0.723   3.046   9.185  0.0619 -0.0205 -0.2136
 2630SOL    HW119526   0.636   3.014   9.160 -0.2449  1.5009 -1.0826
 2630SOL    HW219527   0.754   3.073   9.098  1.8819  3.7216  1.6269
 2631SOL     OW19528   3.438   1.294   1.772 -0.0367 -0.4318  0.0361
 2631SOL    HW119529   3.532   1.289   1.789 -0.0111  0.5341  0.2057
 2631SOL    HW219530   3.435   1.389   1.756  2.5865 -0.1195  1.3275
 2632SOL     OW19531   0.807   1.432  10.386 -0.0939  0.8171  0.4446
 2632SOL    HW119532   0.723   1.391  10.402  0.7038 -0.8715  0.2844
 2632SOL    HW219533   0.862   1.377  10.442 -0.7840  1.3865  1.6869
 2633SOL     OW19534   1.897   0.222   3.280 -0.0564  0.2039  0.9134
 2633SOL    HW119535   1.898   0.128   3.262  0.0281  0.5645 -0.9969
 2633SOL    HW219536   1.988   0.251   3.278 -0.0568  0.2852  2.0510
 2634SOL     OW19537   2.508   3.115   7.636 -1.1289 -0.1704  0.3940
 2634SOL    HW119538   2.539   3.037   7.682 -1.7492  0.4159  1.7942
 2634SOL    HW219539   2.415   3.103   7.651 -1.0064 -2.4084 -0.7424
 2635SOL     OW19540   2.747   2.787   9.163  0.5001 -0.2955  0.4426
 2635SOL    HW119541   2.780   2.721   9.102  1.0169 -1.6219  2.1664
 2635SOL    HW219542   2.688   2.733   9.215 -1.0133 -1.2661 -2.3176
 2636SOL     OW19543   0.049   3.242   6.210  0.1349  0.0163  0.5954
 2636SOL    HW119544   0.137   3.265   6.240  0.5702 -1.8789  0.8034
 2636SOL    HW219545   0.071   3.190   6.132  1.2283  0.6834  0.4515
 2637SOL     OW19546   0.071   2.583   9.572 -0.3402 -0.7198 -0.4576
 2637SOL    HW119547   0.024   2.520   9.627 -1.2592  0.5930  0.2644
 2637SOL    HW219548   0.126   2.630   9.634 -0.3707 -0.1331 -0.8793
 2638SOL     OW19549   4.075   3.865  10.487 -0.2297 -0.6205  0.0347
 2638SOL    HW119550   4.085   3.949  10.531 -1.2916 -1.1182  1.2516
 2638SOL    HW219551   4.154   3.818  10.514 -0.0342  0.7327  1.8647
 2639SOL     OW19552   2.285   2.040   0.543  0.4286 -0.1792 -0.1558
 2639SOL    HW119553   2.190   2.044   0.527  0.1124  1.6858  2.2622
 2639SOL    HW219554   2.315   1.983   0.472  0.9378 -1.7265  1.3133
 2640SOL     OW19555   1.760   3.907  11.109 -0.3706  0.4655 -0.0208
 2640SOL    HW119556   1.682   3.917  11.164 -0.3361  0.2436  0.0654
 2640SOL    HW219557   1.796   3.996  11.106  3.8823 -1.3191 -1.0467
 2641SOL     OW19558   1.697   3.200   3.048 -0.6392  0.4494  0.0850
 2641SOL    HW119559   1.680   3.131   3.111 -0.1281  0.1770 -0.0711
 2641SOL    HW219560   1.629   3.264   3.069 -1.8744  0.3305 -3.5747
 2642SOL     OW19561   0.208   1.771   3.660 -0.7226  0.1129  0.0211
 2642SOL    HW119562   0.221   1.801   3.570 -1.2625 -3.0252 -1.0995
 2642SOL    HW219563   0.270   1.698   3.664 -0.9913 -0.1747 -1.2364
 2643SOL     OW19564   2.611   4.012   7.585 -0.1077  0.1563 -0.4969
 2643SOL    HW119565   2.698   3.976   7.567 -0.0085  0.6256 -0.9577
 2643SOL    HW219566   2.566   3.941   7.631  1.8828 -2.2694 -2.3037
 2644SOL     OW19567   4.691   3.818   7.672 -0.0005  0.1457 -0.7673
 2644SOL    HW119568   4.625   3.752   7.692  0.7031 -0.0564  0.9176
 2644SOL    HW219569   4.638   3.887   7.633  2.2086  1.3028 -1.7585
 2645SOL     OW19570   3.774   4.627   2.525 -0.4220  0.1665  0.8278
 2645SOL    HW119571   3.703   4.600   2.583 -0.8888  0.7259  0.5119
 2645SOL    HW219572   3.722   4.659   2.452  0.7630  3.0181  1.2367
 2646SOL     OW19573   4.130   0.668   6.408  0.7124 -0.4766 -0.5428
 2646SOL    HW119574   4.182   0.590   6.428 -0.3850 -1.5598 -1.9545
 2646SOL    HW219575   4.117   0.669   6.314  2.7093  2.8172 -0.7989
 2647SOL     OW19576   1.441   1.022   3.203  0.6655 -0.1603  0.4409
 2647SOL    HW119577   1.511   0.963   3.231 -1.4538 -2.4362  0.9099
 2647SOL    HW219578   1.467   1.029   3.110 -1.5758 -1.4330 -0.2625
 2648SOL     OW19579   0.738   0.143   3.712  0.9673 -0.1356  0.4632
 2648SOL    HW119580   0.648   0.126   3.685  0.5039 -1.1218  2.5768
 2648SOL    HW219581   0.778   0.128   3.627 -1.5735  1.7914 -1.0488
 2649SOL     OW19582   2.101   2.118   9.442 -0.2608 -0.4475 -0.5936
 2649SOL    HW119583   2.196   2.123   9.444 -0.4613  2.3319  1.6826
 2649SOL    HW219584   2.078   2.095   9.351 -0.5719  2.0195 -1.1463
 2650SOL     OW19585   0.649   3.893  10.619  0.7895  0.2192 -0.2421
 2650SOL    HW119586   0.743   3.909  10.621  0.3355  3.3417 -1.9870
 2650SOL    HW219587   0.644   3.800  10.600  0.0448 -0.2270  2.1633
 2651SOL     OW19588   0.071   1.676  16.755  0.2704 -0.4117  0.3584
 2651SOL    HW119589   0.037   1.668  16.666  2.1849  2.4280 -0.6244
 2651SOL    HW219590   4.730   1.685  16.804 -0.7077  1.3783 -1.6295
 2652SOL     OW19591   1.418   0.304   8.121 -0.7185  0.3896 -0.1595
 2652SOL    HW119592   1.475   0.234   8.152 -0.3096  0.3809 -0.9270
 2652SOL    HW219593   1.476   0.375   8.094  1.5298 -0.8523  1.4382
 2653SOL     OW19594   1.830   2.100   3.590 -0.6957  0.3535 -0.1081
 2653SOL    HW119595   1.749   2.090   3.541 -0.8237 -1.6742  0.5487
 2653SOL    HW219596   1.900   2.091   3.525  1.1208  0.3959  1.8608
 2654SOL     OW19597   4.323   0.257   8.408  0.1230  0.0319 -0.8122
 2654SOL    HW119598   4.298   0.349   8.410 -4.3848 -1.2582  0.3467
 2654SOL    HW219599   4.419   0.265   8.402 -0.1483  3.5314 -0.0958
 2655SOL     OW19600   2.169   1.630   7.158 -0.2884 -0.1672  0.5533
 2655SOL    HW119601   2.135   1.715   7.186  2.1736  1.4485 -1.3853
 2655SOL    HW219602   2.094   1.571   7.160 -0.7504  0.4733  1.5961
 2656SOL     OW19603   2.150   4.636   1.647 -0.5083 -0.1265 -0.2682
 2656SOL    HW119604   2.141   4.649   1.552 -2.0193  0.5259 -0.0331
 2656SOL    HW219605   2.089   4.699   1.685  0.6866  0.9101 -0.0952
 2657SOL     OW19606   2.964   3.092  14.731  0.0958 -0.1908  0.2250
 2657SOL    HW119607   2.950   3.036  14.655  0.4330  0.4731 -0.3366
 2657SOL    HW219608   2.899   3.069  14.797  1.3321  0.2292  1.6061
 2658SOL     OW19609   3.801   1.642   2.949 -0.6058  0.3720  0.0609
 2658SOL    HW119610   3.876   1.665   3.004 -1.4287  0.1192  1.2968
 2658SOL    HW219611   3.732   1.673   3.009  1.5431 -2.7639  4.1284
 2659SOL     OW19612   2.521   2.730   3.094  0.4837 -0.8862 -0.0222
 2659SOL    HW119613   2.427   2.744   3.085  0.1156 -2.2299  1.8432
 2659SOL    HW219614   2.514   2.654   3.151 -1.4129 -0.5812  0.1563
 2660SOL     OW19615   4.210   3.011   3.401 -0.0540  0.0418 -0.2007
 2660SOL    HW119616   4.292   2.962   3.399  0.3025  0.6023  0.6985
 2660SOL    HW219617   4.207   3.062   3.321 -1.9400  0.4388  0.1229
 2661SOL     OW19618   3.426   3.610   4.558  0.3888 -0.0831 -0.0051
 2661SOL    HW119619   3.431   3.575   4.647  1.5457 -0.5332 -0.2493
 2661SOL    HW219620   3.349   3.665   4.573  1.8438  2.2530 -1.2410
 2662SOL     OW19621   3.508   4.501   2.169  0.3119  0.3008  0.1224
 2662SOL    HW119622   3.466   4.415   2.181  2.4020 -0.7300 -0.0110
 2662SOL    HW219623   3.600   4.483   2.189 -0.5065 -2.4951  1.4613
 2663SOL     OW19624   4.702   2.826   1.674  0.3808  0.1333 -0.1729
 2663SOL    HW119625   4.624   2.794   1.628  0.6719  0.0797 -0.6256
 2663SOL    HW219626   4.723   2.897   1.614 -1.3379  1.1500  0.4340
 2664SOL     OW19627   4.707   2.655   2.408  0.2613  0.5319  0.4550
 2664SOL    HW119628   0.034   2.678   2.471  0.1212  0.3125  0.6861
 2664SOL    HW219629   4.721   2.720   2.340 -1.3647  1.3046  0.8641
 2665SOL     OW19630   4.180   4.245   6.598 -0.1337  0.6109  0.0682
 2665SOL    HW119631   4.184   4.337   6.624 -0.1407  0.7937 -0.5671
 2665SOL    HW219632   4.203   4.208   6.683  0.6038 -1.6238 -1.1107
 2666SOL     OW19633   3.870   1.094  16.588 -0.0219 -0.4905  0.3466
 2666SOL    HW119634   3.821   1.021  16.551 -0.5880 -1.0649  2.2627
 2666SOL    HW219635   3.812   1.166  16.564 -1.4571 -1.9939 -0.6919
 2667SOL     OW19636   0.031   1.379  16.351  0.1655 -0.1872  0.0987
 2667SOL    HW119637   4.717   1.386  16.429 -1.1025 -0.1944 -0.7787
 2667SOL    HW219638   0.029   1.285  16.332  0.1057 -0.5569  1.9889
 2668SOL     OW19639   4.213   4.282  11.969  0.8621  0.3257  0.1769
 2668SOL    HW119640   4.246   4.368  11.941 -0.9920  0.2139 -2.3358
 2668SOL    HW219641   4.228   4.235  11.887 -1.4168 -0.4786  0.2114
 2669SOL     OW19642   2.722   0.680   3.869  0.4359  0.1463  0.0514
 2669SOL    HW119643   2.724   0.712   3.959  0.5755 -1.0233  0.4617
 2669SOL    HW219644   2.633   0.711   3.851  0.9177  0.5988 -1.5758
 2670SOL     OW19645   3.612   3.909   4.819  0.4951  0.4535  0.5862
 2670SOL    HW119646   3.519   3.913   4.796  0.2031  1.6021  2.0048
 2670SOL    HW219647   3.623   3.884   4.911 -1.3136 -0.1833  0.6267
 2671SOL     OW19648   0.236   1.554   1.922 -0.2480  0.3758 -0.2790
 2671SOL    HW119649   0.258   1.645   1.945 -0.7251  0.6178 -0.7710
 2671SOL    HW219650   0.313   1.526   1.873  1.1582 -0.6921  2.5909
 2672SOL     OW19651   3.628   2.769   2.851 -0.2250  0.1090 -0.0236
 2672SOL    HW119652   3.637   2.791   2.758  0.7384  0.1399  0.0760
 2672SOL    HW219653   3.534   2.779   2.868  0.1574  1.6709  1.1307
 2673SOL     OW19654   1.450   3.629   5.999 -0.1656  0.3113 -0.3579
 2673SOL    HW119655   1.513   3.687   5.956  2.0878 -1.3305  0.7340
 2673SOL    HW219656   1.365   3.673   5.995 -0.1442  0.5467  1.8325
 2674SOL     OW19657   0.347   4.420   3.541 -0.5975  0.1180  0.0000
 2674SOL    HW119658   0.351   4.383   3.453  1.9960  0.9361 -0.2032
 2674SOL    HW219659   0.424   4.475   3.550 -0.6999 -0.2585  3.0445
 2675SOL     OW19660   3.436   0.014   6.621  0.1473  0.3118 -0.0732
 2675SOL    HW119661   3.487   0.047   6.695  0.1550 -0.6337  0.3437
 2675SOL    HW219662   3.368   4.698   6.658  1.3287 -2.1365 -1.6498
 2676SOL     OW19663   2.994   4.098  12.739 -0.1817  0.4849 -0.4386
 2676SOL    HW119664   2.982   4.007  12.765 -0.7561 -0.2303 -3.3338
 2676SOL    HW219665   2.918   4.133  12.785  0.2019 -0.7967  1.1836
 2677SOL     OW19666   3.870   0.884   4.165  0.4032 -0.3912  0.4174
 2677SOL    HW119667   3.849   0.894   4.258 -1.5027 -1.2894  0.0856
 2677SOL    HW219668   3.843   0.967   4.128  0.7301 -0.0598  0.9171
 2678SOL     OW19669   4.113   2.849  14.751 -0.2261  0.1132  0.9778
 2678SOL    HW119670   4.025   2.813  14.744  0.0640  0.4966 -4.7265
 2678SOL    HW219671   4.137   2.773  14.804 -3.1981 -1.1840  0.4376
 2679SOL     OW19672   4.721   0.470   3.818  0.5951  0.4878 -0.1451
 2679SOL    HW119673   0.075   0.457   3.808  0.5446 -1.3365  1.5404
 2679SOL    HW219674   4.716   0.530   3.892  2.0341 -0.0891  0.4390
 2680SOL     OW19675   1.819   0.290   6.252  0.0636 -0.0008 -0.1133
 2680SOL    HW119676   1.771   0.247   6.182  1.3848  1.7077 -2.0847
 2680SOL    HW219677   1.909   0.271   6.225 -0.6109 -1.9671 -0.9584
 2681SOL     OW19678   4.134   1.272  13.606  0.3745 -0.5567 -0.1309
 2681SOL    HW119679   4.116   1.290  13.514 -0.3291  0.0151  0.1175
 2681SOL    HW219680   4.048   1.256  13.646  0.2963 -0.6334 -0.3322
 2682SOL     OW19681   2.372   2.216   3.515 -0.0972  0.1826 -0.3056
 2682SOL    HW119682   2.287   2.259   3.503 -1.1782 -0.8999  3.1620
 2682SOL    HW219683   2.440   2.269   3.475 -2.6750  1.4485 -2.9726
 2683SOL     OW19684   4.350   0.048  13.991  0.4263 -0.0297 -0.7513
 2683SOL    HW119685   4.271   0.041  14.045 -1.1219 -0.0028 -3.0015
 2683SOL    HW219686   4.387   0.130  14.025 -1.2271  1.0741 -1.5590
 2684SOL     OW19687   3.324   0.320  16.101 -0.0300  0.6309 -0.0473
 2684SOL    HW119688   3.278   0.390  16.147 -1.9360 -2.1336  2.2725
 2684SOL    HW219689   3.415   0.330  16.129 -0.1935 -2.2546  1.5805
 2685SOL     OW19690   0.948   2.602  12.705  0.1503 -0.7757 -0.1974
 2685SOL    HW119691   0.929   2.524  12.757 -0.9794  1.4157  2.6294
 2685SOL    HW219692   0.995   2.662  12.763  0.4831 -1.2299  0.0044
 2686SOL     OW19693   1.279   1.827   6.845  0.0731 -0.9444 -0.0054
 2686SOL    HW119694   1.357   1.822   6.791 -0.4227 -0.6502 -0.7441
 2686SOL    HW219695   1.277   1.921   6.865 -0.9183 -1.2645  1.4421
 2687SOL     OW19696   0.782   4.003   7.345  0.3885  0.5820 -0.2081
 2687SOL    HW119697   0.776   3.976   7.253 -0.3962 -1.3959  0.4269
 2687SOL    HW219698   0.786   4.098   7.342 -1.3158  0.6365 -0.3389
 2688SOL     OW19699   1.395   3.414   6.415  0.1477  0.3840  0.8531
 2688SOL    HW119700   1.474   3.464   6.435  0.7853 -0.6187  0.8523
 2688SOL    HW219701   1.321   3.466   6.447 -0.9333 -0.0673 -0.8981
 2689SOL     OW19702   2.439   2.259   5.519 -0.1792  0.2995 -0.4375
 2689SOL    HW119703   2.515   2.316   5.532  0.6262 -0.6913 -0.8327
 2689SOL    HW219704   2.478   2.180   5.555 -1.8804 -0.4735 -0.2747
 2690SOL     OW19705   3.652   4.664   5.923  0.0218 -0.1438  0.1909
 2690SOL    HW119706   3.706   4.607   5.868  1.3958  1.4957 -0.1670
 2690SOL    HW219707   3.670   4.636   6.012 -1.6833 -0.2980  0.4843
 2691SOL     OW19708   0.158   1.178  13.339  0.3697  0.2617  0.1598
 2691SOL    HW119709   0.109   1.165  13.420 -1.6443  3.6891 -0.5410
 2691SOL    HW219710   0.094   1.177  13.267  2.3844 -2.6305 -1.6000
 2692SOL     OW19711   2.892   4.394   7.038 -0.7547  0.0388 -0.1228
 2692SOL    HW119712   2.987   4.387   7.030 -0.7942 -0.7744  0.0941
 2692SOL    HW219713   2.874   4.314   7.087 -1.8221  0.8594  0.8320
 2693SOL     OW19714   2.098   0.881   4.255 -0.3625 -0.1300 -0.4298
 2693SOL    HW119715   2.182   0.893   4.211 -0.0354  0.3816  0.3328
 2693SOL    HW219716   2.035   0.910   4.189 -0.3208 -1.3175 -0.9881
 2694SOL     OW19717   1.638   4.707   3.921 -0.0025  0.1081 -0.1315
 2694SOL    HW119718   1.588   0.033   3.967 -0.0755 -0.6384  0.8843
 2694SOL    HW219719   1.681   0.015   3.851  0.2235  0.2870  0.1322
 2695SOL     OW19720   0.582   0.324  10.915 -0.0580 -0.3902 -0.0958
 2695SOL    HW119721   0.498   0.302  10.874 -0.4714 -1.8625  1.5267
 2695SOL    HW219722   0.635   0.349  10.839  0.1317  1.1745  0.5412
 2696SOL     OW19723   2.207   1.903   6.708  0.5379 -0.6528  0.2680
 2696SOL    HW119724   2.291   1.881   6.668  0.6972 -2.0828  1.4223
 2696SOL    HW219725   2.191   1.834   6.772 -0.6881  1.1581  1.9027
 2697SOL     OW19726   3.576   4.562   1.896  0.0049 -0.0259  0.0080
 2697SOL    HW119727   3.623   4.645   1.896  0.1591 -0.1115  0.4969
 2697SOL    HW219728   3.560   4.553   1.991  1.9473 -2.1584  0.1206
 2698SOL     OW19729   1.093   1.747   6.598 -0.0351  0.2783  0.9265
 2698SOL    HW119730   1.028   1.805   6.559 -1.3607 -0.2121  2.3762
 2698SOL    HW219731   1.093   1.767   6.692 -0.9941 -1.2530  1.2617
 2699SOL     OW19732   1.102   0.619  17.594  0.7044 -0.0707  0.0136
 2699SOL    HW119733   1.153   0.589  17.519  1.0723 -0.3044  0.3612
 2699SOL    HW219734   1.128   0.558  17.663 -0.4070 -0.3386  0.1974
 2700SOL     OW19735   2.358   1.566   1.811 -0.0754 -0.2570 -0.1588
 2700SOL    HW119736   2.281   1.548   1.864 -0.9652  0.8442 -1.1048
 2700SOL    HW219737   2.394   1.478   1.795  1.4548  0.1025  1.3268
 2701SOL     OW19738   0.768   1.901   3.368 -0.3460 -0.8548  0.6737
 2701SOL    HW119739   0.844   1.958   3.364  0.7279 -2.3808 -0.4009
 2701SOL    HW219740   0.745   1.871   3.280  0.1126 -1.0805  0.6310
 2702SOL     OW19741   0.731   4.665  12.520 -0.5540 -0.3502 -0.0089
 2702SOL    HW119742   0.798   4.730  12.499  1.1659 -2.5509 -1.3653
 2702SOL    HW219743   0.738   4.609  12.443  2.0498 -1.9834  1.4176
 2703SOL     OW19744   2.693   4.361   4.606 -0.7555  0.2383  0.0856
 2703SOL    HW119745   2.607   4.320   4.599 -0.3763 -0.4902 -0.2162
 2703SOL    HW219746   2.733   4.322   4.684  1.6540  2.9336  0.1818
 2704SOL     OW19747   0.962   0.478   3.700 -0.2128  0.2927 -0.2721
 2704SOL    HW119748   0.976   0.395   3.747 -1.1132  0.6757  0.6580
 2704SOL    HW219749   1.010   0.546   3.746 -0.2597 -1.9036  3.0207
 2705SOL     OW19750   4.285   1.205   5.522 -0.2476  0.4910  0.2513
 2705SOL    HW119751   4.369   1.174   5.555 -0.4164  0.1662  0.3737
 2705SOL    HW219752   4.252   1.128   5.476  0.2373  0.2407  0.3223
 2706SOL     OW19753   2.149   3.104   2.238 -0.4137  0.1247 -0.0300
 2706SOL    HW119754   2.179   3.055   2.162  0.6053  0.1112  0.3804
 2706SOL    HW219755   2.219   3.083   2.299  2.1420  1.8500 -2.3808
 2707SOL     OW19756   3.633   4.341   3.477 -0.3149 -0.4570  0.1813
 2707SOL    HW119757   3.705   4.293   3.437 -0.8579 -0.8313 -0.3466
 2707SOL    HW219758   3.564   4.275   3.487 -1.5307  0.9067  0.9031
 2708SOL     OW19759   0.526   3.669   7.196  0.2323  0.1645 -0.2190
 2708SOL    HW119760   0.561   3.716   7.272  1.8472 -0.6115 -0.4883
 2708SOL    HW219761   0.456   3.728   7.166 -0.1777  0.6237  1.6646
 2709SOL     OW19762   4.320   4.505  11.867  0.1408  0.6500  1.2153
 2709SOL    HW119763   4.387   4.569  11.845  0.3716 -0.0892 -0.3039
 2709SOL    HW219764   4.241   4.559  11.873 -1.9724 -2.3842  0.9989
 2710SOL     OW19765   1.104   3.582  16.225 -0.4729 -0.3028  0.5217
 2710SOL    HW119766   1.067   3.637  16.294 -2.0084 -2.2651  1.2420
 2710SOL    HW219767   1.068   3.629  16.149  2.0401  1.9104  0.6747
 2711SOL     OW19768   3.142   2.365   7.238  0.1729 -0.3286  0.2912
 2711SOL    HW119769   3.130   2.376   7.332 -0.3998  3.2953 -0.2088
 2711SOL    HW219770   3.226   2.319   7.235 -0.7848 -2.2460  2.8984
 2712SOL     OW19771   0.204   3.317   5.936 -0.5692  0.0298 -0.3349
 2712SOL    HW119772   0.206   3.400   5.983  1.4232  1.1282 -2.3287
 2712SOL    HW219773   0.152   3.336   5.858 -1.7396  1.3928  0.8104
 2713SOL     OW19774   0.449   1.952   6.999  0.0270 -0.0722 -0.3436
 2713SOL    HW119775   0.372   1.942   7.054  1.0543  0.4728  1.1981
 2713SOL    HW219776   0.514   2.001   7.050 -0.2151  0.1944 -0.2880
 2714SOL     OW19777   3.093   4.057   8.251  0.0037 -0.1440 -0.3452
 2714SOL    HW119778   3.161   3.990   8.239  0.5250  0.0060  1.7649
 2714SOL    HW219779   3.147   4.133   8.230  1.3600 -1.5326 -1.8982
 2715SOL     OW19780   2.715   2.359   9.781 -0.1497  0.4108 -0.3908
 2715SOL    HW119781   2.658   2.435   9.797 -0.7033  0.1866 -1.2647
 2715SOL    HW219782   2.790   2.404   9.742 -1.0487  1.6909 -0.6399
 2716SOL     OW19783   3.298   0.215   6.455 -0.1234 -0.2675 -0.1378
 2716SOL    HW119784   3.368   0.262   6.410 -0.8339  0.3067 -0.6358
 2716SOL    HW219785   3.336   0.140   6.501  0.8988 -0.5146 -1.3805
 2717SOL     OW19786   3.046   2.683   4.937 -0.3235  0.0441 -0.7179
 2717SOL    HW119787   3.047   2.731   4.854  1.1264  0.0267 -0.7055
 2717SOL    HW219788   2.977   2.620   4.916 -0.9776  0.8912 -1.1324
 2718SOL     OW19789   2.251   2.264  14.511 -0.1239 -1.0049 -0.2932
 2718SOL    HW119790   2.346   2.261  14.527  0.0679 -3.3462 -1.8576
 2718SOL    HW219791   2.256   2.317  14.431  0.8924  1.3572  1.3329
 2719SOL     OW19792   0.065   4.314   0.500  0.3577  0.1684 -0.0474
 2719SOL    HW119793   0.136   4.257   0.531  0.2526 -0.1342 -0.3641
 2719SOL    HW219794   0.108   4.398   0.513 -0.6842  0.3886  2.0470
 2720SOL     OW19795   2.480   3.858   7.764  0.0725 -0.3040 -0.1432
 2720SOL    HW119796   2.449   3.909   7.838  1.1230  0.3061 -0.1300
 2720SOL    HW219797   2.398   3.824   7.727  0.7776 -0.7128 -1.3021
 2721SOL     OW19798   0.347   2.837  16.678 -0.4651 -0.3437  0.0986
 2721SOL    HW119799   0.265   2.867  16.717 -0.4410  0.4357 -0.4468
 2721SOL    HW219800   0.338   2.865  16.587  1.2989 -1.5678 -0.4502
 2722SOL     OW19801   0.134   2.861   5.745  0.0159 -0.0137  0.1311
 2722SOL    HW119802   0.196   2.805   5.697  0.4515 -0.5798  1.3457
 2722SOL    HW219803   0.163   2.865   5.836 -0.6884  1.2295  0.2947
 2723SOL     OW19804   3.447   3.597   9.905 -0.4440 -0.1521 -0.5199
 2723SOL    HW119805   3.397   3.664   9.859 -0.6328 -0.6770 -1.0935
 2723SOL    HW219806   3.487   3.543   9.836  1.8426 -0.3096  0.9495
 2724SOL     OW19807   1.748   1.014   8.007  0.3556  0.0924  0.0354
 2724SOL    HW119808   1.688   0.968   7.949  0.2559  1.3931 -0.8967
 2724SOL    HW219809   1.734   0.965   8.088 -0.7739  1.0189  0.4138
 2725SOL     OW19810   2.370   0.432   1.661  0.4867 -0.0063  0.5937
 2725SOL    HW119811   2.426   0.357   1.642  1.7507  1.7330 -2.5282
 2725SOL    HW219812   2.321   0.429   1.578 -1.4949  1.6281  1.6875
 2726SOL     OW19813   3.477   0.642   5.890 -0.0528 -0.1557 -0.1543
 2726SOL    HW119814   3.480   0.606   5.802  2.2711  0.1451 -0.1938
 2726SOL    HW219815   3.421   0.575   5.931 -0.7056  0.3065 -0.2977
 2727SOL     OW19816   1.776   1.033  16.410 -0.6941 -0.3169  0.4991
 2727SOL    HW119817   1.791   1.126  16.393 -2.0823 -0.3091 -0.7056
 2727SOL    HW219818   1.808   1.025  16.499 -0.7468 -1.1666  0.4411
 2728SOL     OW19819   1.758   3.160   9.638 -0.3599 -0.1145  0.1265
 2728SOL    HW119820   1.717   3.233   9.592 -2.4023 -2.1051 -1.1933
 2728SOL    HW219821   1.754   3.087   9.576  0.8816 -1.1988  1.3130
 2729SOL     OW19822   1.287   2.527   3.654  0.3516 -0.0325 -0.2576
 2729SOL    HW119823   1.381   2.524   3.667  0.4688 -0.0901 -1.1451
 2729SOL    HW219824   1.278   2.518   3.560  1.6801 -0.1023 -0.3782
 2730SOL     OW19825   4.668   1.697   3.656  0.5239 -0.3993 -0.4288
 2730SOL    HW119826   0.015   1.735   3.653  0.9033 -1.3514 -1.3876
 2730SOL    HW219827   4.658   1.676   3.749  1.3534  1.6348  0.1237
 2731SOL     OW19828   0.598   4.107  11.502  0.0018 -0.4146 -0.1910
 2731SOL    HW119829   0.637   4.190  11.527  1.6227 -1.3808  0.4969
 2731SOL    HW219830   0.609   4.055  11.581 -2.2797  1.2808  1.2393
 2732SOL     OW19831   0.723   0.751  14.925 -0.3112  0.6806  0.2685
 2732SOL    HW119832   0.639   0.720  14.890  1.2286 -2.1455 -0.9622
 2732SOL    HW219833   0.754   0.818  14.865  0.1260  0.8869  0.7301
 2733SOL     OW19834   1.803   4.208  11.187 -0.1562 -0.3654 -0.1645
 2733SOL    HW119835   1.852   4.158  11.252 -1.1071 -2.4676 -1.0877
 2733SOL    HW219836   1.760   4.279  11.236 -0.0208 -0.4819  0.1238
 2734SOL     OW19837   2.874   0.570   0.308 -0.4601  0.2250  0.3228
 2734SOL    HW119838   2.905   0.567   0.218 -0.1022  2.5619  0.3768
 2734SOL    HW219839   2.949   0.618   0.343  0.9102 -0.6446 -1.4122
 2735SOL     OW19840   0.099   3.717   2.323 -0.0951  0.3238 -0.7092
 2735SOL    HW119841   0.126   3.641   2.375 -0.7164  1.3147  1.0623
 2735SOL    HW219842   0.129   3.796   2.368  2.4326 -1.2964  0.4868
 2736SOL     OW19843   2.808   0.193   0.880  0.0517 -0.1188 -0.0680
 2736SOL    HW119844   2.763   0.113   0.850  1.9140 -0.9640 -0.5974
 2736SOL    HW219845   2.859   0.159   0.953  1.3200  1.2524 -0.3293
 2737SOL     OW19846   0.362   2.377   4.661 -0.2408 -0.5585 -0.9348
 2737SOL    HW119847   0.389   2.305   4.604 -0.5872 -1.1486 -0.3538
 2737SOL    HW219848   0.438   2.398   4.715 -1.2705 -2.3564  1.2331
 2738SOL     OW19849   1.209   0.329  11.264  0.3004  0.0212 -0.6577
 2738SOL    HW119850   1.303   0.349  11.258 -0.3835  3.9208  1.8493
 2738SOL    HW219851   1.208   0.236  11.238  0.4820  0.0802 -0.8730
 2739SOL     OW19852   4.468   2.987   7.317 -0.6014 -0.6476  0.5086
 2739SOL    HW119853   4.432   2.899   7.313  1.7535 -1.4959 -1.9352
 2739SOL    HW219854   4.450   2.997   7.411  0.6257 -1.1512  0.8020
 2740SOL     OW19855   2.411   4.033   3.953 -0.3233  0.1692  0.3061
 2740SOL    HW119856   2.385   3.983   4.031 -3.1602  2.3485  0.7481
 2740SOL    HW219857   2.497   4.063   3.983  0.5342 -1.6397 -0.2922
 2741SOL     OW19858   3.397   1.032   6.645  0.6003  0.1051  0.7317
 2741SOL    HW119859   3.428   0.959   6.591  0.2293 -0.2762  1.0414
 2741SOL    HW219860   3.455   1.022   6.720  0.0183 -0.5772  1.0783
 2742SOL     OW19861   3.303   2.985   8.822 -0.3006  0.2835 -0.5698
 2742SOL    HW119862   3.302   3.077   8.849 -1.8498  0.1979 -0.3545
 2742SOL    HW219863   3.317   2.999   8.729 -1.0880  0.2445 -0.6932
 2743SOL     OW19864   3.218   2.126   2.260 -0.0199 -0.0423  0.1409
 2743SOL    HW119865   3.229   2.218   2.237  1.4904  0.0300  1.1720
 2743SOL    HW219866   3.199   2.096   2.171 -0.2171 -3.7549  1.4320
 2744SOL     OW19867   4.640   2.671   0.685  0.0067  0.0097  0.1147
 2744SOL    HW119868   4.638   2.761   0.651  0.5108 -0.1301 -0.2874
 2744SOL    HW219869   4.549   2.659   0.713  0.4606 -0.6673  1.3035
 2745SOL     OW19870   1.602   0.955   6.206  0.2887  0.4225 -0.1277
 2745SOL    HW119871   1.652   0.928   6.282  0.5512  1.0116 -0.0882
 2745SOL    HW219872   1.658   1.028   6.179  0.1217 -0.3556 -2.6505
 2746SOL     OW19873   0.935   3.543   1.614 -0.6457 -0.9256 -0.3396
 2746SOL    HW119874   0.867   3.585   1.561  1.3320  0.3042 -1.9384
 2746SOL    HW219875   0.896   3.465   1.653 -0.6000 -1.2584 -0.9600
 2747SOL     OW19876   3.640   0.755   5.574 -0.0114  0.2622  0.7234
 2747SOL    HW119877   3.598   0.679   5.614  0.3073  0.0871  0.7267
 2747SOL    HW219878   3.730   0.732   5.599  1.4332  1.8506 -3.1157
 2748SOL     OW19879   4.020   0.945   0.635 -0.4230 -0.2881 -0.6840
 2748SOL    HW119880   4.027   0.913   0.545  1.6934  0.5296 -0.8087
 2748SOL    HW219881   4.088   0.891   0.677 -0.4991  0.8203  0.8677
 2749SOL     OW19882   0.411   0.645   5.633  0.2069  0.1688  0.3501
 2749SOL    HW119883   0.397   0.737   5.610  1.4780  0.5095  0.9073
 2749SOL    HW219884   0.442   0.617   5.547 -1.0040  1.7254 -0.6017
 2750SOL     OW19885   3.747   0.862  11.673 -0.4536 -0.4312  0.4424
 2750SOL    HW119886   3.692   0.940  11.664 -1.0961 -0.8017  1.1415
 2750SOL    HW219887   3.836   0.893  11.688 -0.2828 -1.4235  1.4815
 2751SOL     OW19888   4.305   2.403   6.161  0.0654 -0.2862 -0.4397
 2751SOL    HW119889   4.213   2.421   6.142 -0.4240 -1.3929  0.8830
 2751SOL    HW219890   4.291   2.322   6.210 -0.4258  1.0088  1.5125
 2752SOL     OW19891   0.016   4.497   2.378  0.4166 -0.1963 -0.1794
 2752SOL    HW119892   4.670   4.475   2.415  0.6455  1.5272  1.3610
 2752SOL    HW219893   0.072   4.487   2.455 -0.4183 -0.4182  0.4081
 2753SOL     OW19894   2.307   4.432   3.649 -0.1236 -0.0374  0.2722
 2753SOL    HW119895   2.295   4.376   3.725  0.0309  4.0621  3.3269
 2753SOL    HW219896   2.282   4.361   3.590 -2.4040  1.0811 -0.1157
 2754SOL     OW19897   0.441   1.033   1.663  0.1962  0.1657 -0.1769
 2754SOL    HW119898   0.460   0.944   1.633 -0.3661 -0.8350  2.4491
 2754SOL    HW219899   0.527   1.072   1.648  0.9472 -1.4750 -0.0981
 2755SOL     OW19900   0.570   0.698   3.938  0.3057  0.2693 -0.0526
 2755SOL    HW119901   0.508   0.644   3.891  1.5186 -0.9544 -0.2643
 2755SOL    HW219902   0.645   0.639   3.949 -0.5583 -0.5274  1.5698
 2756SOL     OW19903   2.289   2.574   4.803  0.0712 -0.3206  0.4761
 2756SOL    HW119904   2.325   2.559   4.716  0.5533 -2.2195  1.0048
 2756SOL    HW219905   2.342   2.510   4.850  1.3810 -0.1451 -0.7811
 2757SOL     OW19906   2.795   1.215  10.264  0.2220 -0.4615  0.7487
 2757SOL    HW119907   2.811   1.137  10.212 -0.4638 -0.1186  0.0270
 2757SOL    HW219908   2.714   1.188  10.309 -0.4412 -3.0039 -2.0011
 2758SOL     OW19909   1.032   2.886   1.663 -0.0040 -0.1614  0.4536
 2758SOL    HW119910   1.125   2.904   1.648 -0.5470  0.8941 -1.6748
 2758SOL    HW219911   1.019   2.927   1.749  0.6124 -0.2094  0.5707
 2759SOL     OW19912   0.938   0.599  17.306  0.1860  0.1074 -0.2692
 2759SOL    HW119913   0.990   0.635  17.233 -0.2637  0.7506 -0.2708
 2759SOL    HW219914   0.903   0.520  17.265  0.0257 -0.0415  0.1571
 2760SOL     OW19915   3.998   3.996   7.010  0.4789  0.4252  0.4031
 2760SOL    HW119916   4.035   3.972   7.095 -2.3076 -1.8456  0.9811
 2760SOL    HW219917   4.028   3.923   6.957  1.3242 -0.1779  1.7093
 2761SOL     OW19918   4.343   3.935  10.602  0.1709  0.0535  0.0926
 2761SOL    HW119919   4.274   4.001  10.608 -0.5210 -0.5822 -0.8878
 2761SOL    HW219920   4.313   3.867  10.661  0.4733 -0.3049 -0.1666
 2762SOL     OW19921   2.110   1.568   6.639 -0.7322 -0.2348  0.4564
 2762SOL    HW119922   2.039   1.503   6.629  0.3661 -1.3401 -0.1701
 2762SOL    HW219923   2.112   1.613   6.555 -0.5411 -1.6712 -0.3072
 2763SOL     OW19924   3.675   2.612   3.235  0.5959  0.1717  0.3052
 2763SOL    HW119925   3.635   2.695   3.260 -2.1934 -1.6952  2.1794
 2763SOL    HW219926   3.664   2.558   3.313  2.6244 -0.3492  0.2259
 2764SOL     OW19927   2.052   1.869   5.612  0.2594 -0.4733  0.4952
 2764SOL    HW119928   2.059   1.794   5.554  0.1835 -0.2319  0.1784
 2764SOL    HW219929   2.085   1.931   5.547 -0.1424  0.1225  0.8649
 2765SOL     OW19930   2.767   3.449   4.589 -0.0036 -0.1431 -0.7485
 2765SOL    HW119931   2.764   3.356   4.612  4.1617  0.0074  0.4464
 2765SOL    HW219932   2.695   3.475   4.646  0.3696  0.6385 -0.6197
 2766SOL     OW19933   3.244   4.154   3.696 -0.3775 -0.0119 -0.3159
 2766SOL    HW119934   3.233   4.136   3.790 -0.7022  1.8372  0.0060
 2766SOL    HW219935   3.289   4.072   3.675 -0.0299  0.7794 -2.5687
 2767SOL     OW19936   2.662   4.739   0.680 -0.0599  0.6530 -0.2229
 2767SOL    HW119937   2.616   0.027   0.600 -0.0176  0.6684 -0.2413
 2767SOL    HW219938   2.731   4.685   0.641 -1.0156 -1.3562  0.8755
 2768SOL     OW19939   0.742   3.917  11.335  0.1163  0.2918  0.3898
 2768SOL    HW119940   0.692   3.974  11.394  1.5199  0.7464  1.1506
 2768SOL    HW219941   0.833   3.923  11.364 -0.1961 -0.6320  1.5752
 2769SOL     OW19942   1.976   1.573   4.252  0.4270  0.0263 -0.2395
 2769SOL    HW119943   2.063   1.581   4.215 -0.4077  1.6092 -1.8589
 2769SOL    HW219944   2.001   1.568   4.344  1.6038  0.0835 -0.5570
 2770SOL     OW19945   1.896   3.003   4.356  0.0434  0.2338  0.0579
 2770SOL    HW119946   1.934   3.058   4.288 -0.5233  2.1370  1.2600
 2770SOL    HW219947   1.807   3.006   4.320  0.6538  0.2847 -1.4564
 2771SOL     OW19948   3.981   1.433   8.650 -0.2215 -0.3113  0.0811
 2771SOL    HW119949   3.935   1.410   8.569  1.3682 -0.3162 -0.8173
 2771SOL    HW219950   3.941   1.378   8.718  0.1324 -0.8151 -0.1176
 2772SOL     OW19951   4.677   2.137  13.878 -0.0095 -0.0623 -0.2799
 2772SOL    HW119952   4.695   2.221  13.837  0.3088  0.9583  1.9230
 2772SOL    HW219953   4.608   2.164  13.939 -0.8968  0.0579 -1.3437
 2773SOL     OW19954   2.535   3.556   1.985  0.0845  0.4791 -0.2302
 2773SOL    HW119955   2.515   3.463   1.977 -1.6705  0.9387 -1.2673
 2773SOL    HW219956   2.567   3.577   1.897  0.3186 -1.7856 -0.6772
 2774SOL     OW19957   3.368   3.832  15.770  0.2023  0.2559 -0.2223
 2774SOL    HW119958   3.348   3.854  15.861 -0.1583 -0.4150 -0.1433
 2774SOL    HW219959   3.326   3.747  15.770  2.0157 -0.6412  0.0989
 2775SOL     OW19960   4.066   4.632   8.201  0.2998 -0.4246 -0.7846
 2775SOL    HW119961   4.140   4.661   8.255 -1.0496  0.3383  0.6408
 2775SOL    HW219962   4.098   4.548   8.168  2.0514  0.0846 -0.4348
 2776SOL     OW19963   3.453   1.947   5.804 -0.3344  0.5817  0.8915
 2776SOL    HW119964   3.486   2.032   5.773  0.0726 -0.4412 -1.4323
 2776SOL    HW219965   3.364   1.967   5.832 -0.6073 -0.0705  0.4781
 2777SOL     OW19966   2.355   0.294  13.897 -0.0584 -0.0687 -0.1152
 2777SOL    HW119967   2.311   0.332  13.973  1.5333  1.4465  0.0188
 2777SOL    HW219968   2.448   0.299  13.917 -0.6386  2.8880  1.7388
 2778SOL     OW19969   1.171   0.715  16.158 -0.0469  0.6304  0.1935
 2778SOL    HW119970   1.102   0.675  16.105  1.1084 -0.4295 -0.5242
 2778SOL    HW219971   1.167   0.666  16.239 -0.4142  1.4623  0.6803
 2779SOL     OW19972   1.501   2.943   3.155 -0.3213 -0.1835  0.0025
 2779SOL    HW119973   1.567   2.926   3.223 -3.2755  0.2003  2.9795
 2779SOL    HW219974   1.434   2.963   3.220 -2.0725 -1.5507 -1.3642
 2780SOL     OW19975   0.417   4.568   3.108  0.1817 -0.0123  0.2038
 2780SOL    HW119976   0.429   4.660   3.132 -0.2911  0.3558 -0.9290
 2780SOL    HW219977   0.456   4.558   3.021  0.5234 -1.3832  0.5191
 2781SOL     OW19978   3.484   3.644   3.669 -0.2869 -0.1245  0.0745
 2781SOL    HW119979   3.441   3.580   3.727 -0.9720  0.1540 -0.1311
 2781SOL    HW219980   3.562   3.675   3.714  0.5621 -1.2745 -0.6091
 2782SOL     OW19981   4.280   2.340   2.655 -0.3340  1.1667 -0.4640
 2782SOL    HW119982   4.257   2.373   2.742 -0.1322 -1.2587  0.5251
 2782SOL    HW219983   4.251   2.249   2.665  0.6952  0.7103 -1.7119
 2783SOL     OW19984   0.211   0.923   7.420  0.0979 -0.4838  0.2622
 2783SOL    HW119985   0.296   0.958   7.446 -0.4095  0.3046  0.8694
 2783SOL    HW219986   0.153   0.987   7.461  0.2978  0.7687 -1.4034
 2784SOL     OW19987   1.913   0.384   8.754 -0.0910 -0.7243  0.5693
 2784SOL    HW119988   1.878   0.457   8.805  0.0217 -0.2296 -0.0544
 2784SOL    HW219989   1.900   0.413   8.664  0.5582 -0.1705  0.6543
 2785SOL     OW19990   3.507   2.511  11.315  0.1933  0.1139 -0.0966
 2785SOL    HW119991   3.587   2.517  11.263  0.3016  0.6418  0.1291
 2785SOL    HW219992   3.454   2.439  11.280 -0.7255  0.3076  0.8765
 2786SOL     OW19993   2.792   0.164  17.290  0.2670  0.1508 -0.2418
 2786SOL    HW119994   2.779   0.163  17.385 -1.0732  1.8176 -0.4276
 2786SOL    HW219995   2.860   0.097  17.281 -0.6675 -1.0490  1.4608
 2787SOL     OW19996   3.743   2.840   1.357 -0.0617 -0.2496  0.4229
 2787SOL    HW119997   3.682   2.847   1.431 -1.1321  0.4177 -0.5275
 2787SOL    HW219998   3.770   2.931   1.356  1.0725 -0.5311  3.3089
 2788SOL     OW19999   2.951   3.478   3.273  0.1905  0.6615 -0.4243
 2788SOL    HW120000   2.990   3.425   3.203  0.0228 -1.0066  0.7570
 2788SOL    HW220001   3.022   3.497   3.334  0.5790 -0.2037 -0.6030
 2789SOL     OW20002   0.327   1.112   8.290  0.4626 -0.3962 -0.5033
 2789SOL    HW120003   0.298   1.167   8.362  0.2588 -1.2029  0.0360
 2789SOL    HW220004   0.421   1.132   8.287  0.6527 -1.0516  1.3321
 2790SOL     OW20005   1.250   3.189   4.219  0.4644  0.5659 -0.6767
 2790SOL    HW120006   1.309   3.262   4.197  0.0235  1.0537 -0.2409
 2790SOL    HW220007   1.201   3.220   4.295 -1.5360 -0.8859 -1.3688
 2791SOL     OW20008   4.728   3.117   3.025 -0.1544 -0.1567  0.4518
 2791SOL    HW120009   4.674   3.059   3.078 -0.5271 -1.7509 -1.6740
 2791SOL    HW220010   4.688   3.197   3.059 -1.2473  0.1866 -1.6516
 2792SOL     OW20011   0.894   4.133   5.909  0.3784 -0.1377  0.3628
 2792SOL    HW120012   0.835   4.191   5.861 -0.8491 -0.4771  1.4528
 2792SOL    HW220013   0.823   4.081   5.947  0.4674 -1.4014 -1.1739
 2793SOL     OW20014   1.452   2.123   6.091  0.1639  0.0462  0.4396
 2793SOL    HW120015   1.460   2.038   6.133  1.6287 -1.3135 -2.5700
 2793SOL    HW220016   1.360   2.149   6.097  0.3122  0.4645  0.9026
 2794SOL     OW20017   1.705   4.366   6.585  0.2769  0.9369  0.2214
 2794SOL    HW120018   1.761   4.300   6.545  1.5765  1.3421  1.3800
 2794SOL    HW220019   1.756   4.424   6.642 -2.5733  2.6568  1.0000
 2795SOL     OW20020   4.071   3.551   2.983  0.2077 -0.2813 -0.4958
 2795SOL    HW120021   4.113   3.626   3.026 -2.0292  0.8822 -0.3166
 2795SOL    HW220022   4.132   3.531   2.912  1.5095 -3.0676  1.3767
 2796SOL     OW20023   0.515   0.957   2.602 -0.1934  0.3402  0.0692
 2796SOL    HW120024   0.479   1.005   2.677 -1.9309  0.2852 -0.7269
 2796SOL    HW220025   0.438   0.909   2.571 -0.9374  0.8307  1.1408
 2797SOL     OW20026   4.264   0.897  12.649 -0.3799  0.1004 -0.1450
 2797SOL    HW120027   4.355   0.921  12.634 -0.2938  1.4820  2.6134
 2797SOL    HW220028   4.228   0.981  12.679  1.4705  1.5087 -1.8830
 2798SOL     OW20029   3.705   3.009   7.648 -0.2866  0.1030  0.2873
 2798SOL    HW120030   3.792   2.980   7.673 -0.5375 -1.4586 -0.6998
 2798SOL    HW220031   3.706   3.010   7.553  3.0501  1.6201  0.3453
 2799SOL     OW20032   4.527   3.518   4.703  0.0512  0.1964  0.0325
 2799SOL    HW120033   4.440   3.486   4.726 -0.3756 -1.5106 -3.8535
 2799SOL    HW220034   4.515   3.613   4.700 -0.7032  0.1766  2.6767
 2800SOL     OW20035   2.857   4.551   8.675  0.0754  0.8320 -0.0614
 2800SOL    HW120036   2.874   4.643   8.698  1.9995  0.2671  0.7231
 2800SOL    HW220037   2.880   4.511   8.758  0.9502 -0.0094 -0.7098
 2801SOL     OW20038   3.701   0.746   3.026 -0.0854 -0.2426  0.1357
 2801SOL    HW120039   3.749   0.820   3.063 -0.9275 -0.8528  2.4396
 2801SOL    HW220040   3.679   0.696   3.105 -2.6054  0.7872  0.0921
 2802SOL     OW20041   0.568   0.653  12.055  0.1235 -0.0817 -0.1788
 2802SOL    HW120042   0.511   0.587  12.095  0.4336 -0.1888  0.0838
 2802SOL    HW220043   0.638   0.602  12.015 -0.1479  0.3819 -1.2358
 2803SOL     OW20044   2.714   2.126  16.236 -0.0268  0.1895 -0.3253
 2803SOL    HW120045   2.686   2.180  16.162 -2.1137  0.3879  0.6173
 2803SOL    HW220046   2.782   2.185  16.271 -0.6180 -0.8739  2.6055
 2804SOL     OW20047   1.237   4.594   1.687  0.5583  0.1953  0.7304
 2804SOL    HW120048   1.192   4.531   1.744  0.8451 -0.4960  0.1957
 2804SOL    HW220049   1.216   4.676   1.732 -2.1566 -1.1983  1.9927
 2805SOL     OW20050   0.336   1.159   3.462  0.3040  0.1114  0.8828
 2805SOL    HW120051   0.302   1.237   3.507 -1.8033 -0.4829  0.3505
 2805SOL    HW220052   0.402   1.130   3.525 -0.2467 -1.0539  0.9263
 2806SOL     OW20053   0.427   2.486   1.901  0.1588  0.1510 -0.4015
 2806SOL    HW120054   0.352   2.472   1.959  0.2723  0.5810 -0.1548
 2806SOL    HW220055   0.507   2.478   1.953 -0.5159 -2.0329  0.3037
 2807SOL     OW20056   2.313   3.624  16.135 -0.2036 -0.1370  0.0196
 2807SOL    HW120057   2.281   3.593  16.050 -0.7830 -0.1726  0.2508
 2807SOL    HW220058   2.240   3.598  16.191 -0.7318 -0.1340 -0.6603
 2808SOL     OW20059   2.060   4.249   5.044 -0.3327 -0.2950 -0.2973
 2808SOL    HW120060   2.069   4.315   4.975 -0.6789  0.5107  0.4326
 2808SOL    HW220061   2.129   4.278   5.103 -1.0762  0.1039  0.3736
 2809SOL     OW20062   3.485   2.258   4.755 -0.0266 -0.3729 -0.7080
 2809SOL    HW120063   3.393   2.234   4.759  0.4197 -2.2090 -1.4068
 2809SOL    HW220064   3.491   2.317   4.680  0.5434  0.3724 -0.0791
 2810SOL     OW20065   0.615   2.604   0.791  0.1021 -0.2467  0.0950
 2810SOL    HW120066   0.564   2.666   0.844  0.9080  0.0807  0.4947
 2810SOL    HW220067   0.647   2.534   0.847  0.6965  0.9430  1.2597
 2811SOL     OW20068   3.467   0.660   6.642 -0.3383 -0.7654 -0.7446
 2811SOL    HW120069   3.501   0.725   6.581 -0.6661 -0.0256 -0.1460
 2811SOL    HW220070   3.397   0.706   6.689  0.0969 -0.8220 -0.0434
 2812SOL     OW20071   0.384   4.039   1.871  0.1528  0.3451 -0.2201
 2812SOL    HW120072   0.324   4.105   1.836  1.1485  0.2884 -2.0212
 2812SOL    HW220073   0.318   3.971   1.886  1.6602 -0.7476  1.4862
 2813SOL     OW20074   3.965   1.340   6.999 -0.1366  0.0530  0.9942
 2813SOL    HW120075   4.023   1.369   7.069  2.5265 -0.2386 -1.1004
 2813SOL    HW220076   3.944   1.259   7.046 -3.8455  0.2445 -0.3417
 2814SOL     OW20077   3.396   3.245   8.985 -0.2700 -0.2206 -0.6348
 2814SOL    HW120078   3.474   3.256   9.039 -0.7808 -0.2810  0.1035
 2814SOL    HW220079   3.435   3.267   8.900  1.4083  0.2642  0.2681
 2815SOL     OW20080   4.553   3.846   8.258  0.3984  0.6722 -0.4843
 2815SOL    HW120081   4.573   3.894   8.178  0.9810  0.3254 -0.5460
 2815SOL    HW220082   4.583   3.909   8.324 -0.7285 -0.7889  1.4429
 2816SOL     OW20083   2.562   3.662  14.620 -0.1735 -0.2538  0.4311
 2816SOL    HW120084   2.520   3.699  14.542  2.1236  0.0217 -0.6812
 2816SOL    HW220085   2.651   3.636  14.594 -0.0135  0.3947  0.3286
 2817SOL     OW20086   4.278   3.771   8.374  0.1191 -0.2109  0.2170
 2817SOL    HW120087   4.372   3.750   8.369  0.1441 -0.0133 -0.1137
 2817SOL    HW220088   4.279   3.866   8.368 -2.6838 -0.1928  0.0711
 2818SOL     OW20089   1.356   3.006  10.924 -0.5278 -0.0119 -0.2906
 2818SOL    HW120090   1.395   3.084  10.884 -0.8598 -0.3243 -1.2315
 2818SOL    HW220091   1.426   2.942  10.927 -0.5078  0.0629  0.8826
 2819SOL     OW20092   3.812   1.877   5.736 -0.3168 -0.2890 -0.1470
 2819SOL    HW120093   3.798   1.782   5.732 -3.2886  0.0930  0.6745
 2819SOL    HW220094   3.824   1.888   5.831  1.9397 -2.7168 -0.1453
 2820SOL     OW20095   1.553   2.155   4.898 -0.2898  0.2033  1.0585
 2820SOL    HW120096   1.543   2.248   4.920  1.3708  1.1581 -2.1793
 2820SOL    HW220097   1.525   2.127   4.985 -0.6450 -0.7428  0.6342
 2821SOL     OW20098   2.214   4.725   8.852  0.7153 -1.1876 -0.7534
 2821SOL    HW120099   2.125   4.713   8.819 -0.4362 -0.4781  2.0975
 2821SOL    HW220100   2.250   0.038   8.782  0.0688 -0.4773 -0.5536
 2822SOL     OW20101   3.879   0.316   1.911  0.1881  0.0341  0.0565
 2822SOL    HW120102   3.920   0.349   1.990 -1.7808  0.3147  0.9777
 2822SOL    HW220103   3.785   0.306   1.928  0.2892  0.0575  0.6319
 2823SOL     OW20104   1.981   1.070   7.883  0.3340  0.0417 -0.2159
 2823SOL    HW120105   1.894   1.051   7.917  1.0935 -2.6311  0.2380
 2823SOL    HW220106   1.964   1.151   7.836 -1.3263 -1.6729 -2.5857
 2824SOL     OW20107   1.022   2.622   8.959 -0.3664 -0.5353 -0.0624
 2824SOL    HW120108   1.086   2.555   8.935  2.2406  2.3575 -1.1146
 2824SOL    HW220109   1.079   2.689   8.996 -1.2256 -0.4220  1.0630
 2825SOL     OW20110   1.626   0.501   8.359  0.0443 -0.4225  0.3563
 2825SOL    HW120111   1.709   0.474   8.319 -0.4418 -1.4703  0.0711
 2825SOL    HW220112   1.585   0.544   8.284  0.7025  0.5696  0.5618
 2826SOL     OW20113   1.420   4.368   2.092 -0.0544 -0.2549  0.0851
 2826SOL    HW120114   1.448   4.459   2.093  0.6792 -0.4932  1.1727
 2826SOL    HW220115   1.383   4.376   2.004 -1.5895 -2.9582  0.4818
 2827SOL     OW20116   3.543   0.909   4.283  0.3480  0.1499 -0.4300
 2827SOL    HW120117   3.525   0.853   4.208 -1.3917 -0.4608  0.4291
 2827SOL    HW220118   3.623   0.880   4.326 -0.1824 -1.1575 -0.3094
 2828SOL     OW20119   3.291   4.424   3.626 -0.3393  0.2643  0.2232
 2828SOL    HW120120   3.288   4.331   3.648 -1.1550  0.3114  0.3356
 2828SOL    HW220121   3.268   4.454   3.714  0.0006 -0.1853  0.4648
 2829SOL     OW20122   2.043   3.130   4.140  0.3515 -0.7323 -0.0468
 2829SOL    HW120123   2.042   3.082   4.057 -1.0318  1.1679 -1.1500
 2829SOL    HW220124   2.036   3.221   4.111  2.2277 -0.0008  1.7915
 2830SOL     OW20125   1.952   3.288   2.261  0.0340  0.9578  0.3073
 2830SOL    HW120126   1.958   3.331   2.346  1.7658 -1.5760  1.4701
 2830SOL    HW220127   2.026   3.227   2.268 -0.3297  0.4689 -0.1242
 2831SOL     OW20128   3.588   1.215   3.661  0.2409 -0.4918  0.3349
 2831SOL    HW120129   3.572   1.159   3.585  1.3377 -2.6521  1.6743
 2831SOL    HW220130   3.554   1.165   3.735 -1.4255  3.3306  2.1435
 2832SOL     OW20131   0.224   4.185   0.657  0.4296  0.2481 -0.3985
 2832SOL    HW120132   0.310   4.158   0.691  1.0320 -0.5437 -2.5761
 2832SOL    HW220133   0.189   4.242   0.726  0.1579  1.8984 -1.9072
 2833SOL     OW20134   0.503   1.119   4.096  0.4721 -0.7256  0.0941
 2833SOL    HW120135   0.527   1.053   4.031  2.3833  0.3310 -0.2628
 2833SOL    HW220136   0.575   1.182   4.106 -0.9318  0.7846  0.6384
 2834SOL     OW20137   1.920   4.732  15.940  0.6401 -0.6103 -0.1231
 2834SOL    HW120138   1.970   4.671  15.994  4.4799 -0.1685 -3.1321
 2834SOL    HW220139   1.984   0.062  15.931 -2.3273  2.2744  1.6105
 2835SOL     OW20140   0.850   1.734   3.576 -0.2259 -0.4396 -0.1093
 2835SOL    HW120141   0.890   1.681   3.507  0.5026  0.1886 -0.1779
 2835SOL    HW220142   0.812   1.807   3.528  2.3819  0.1955 -1.1920
 2836SOL     OW20143   2.518   0.643   3.181  0.6723  0.6589  0.3892
 2836SOL    HW120144   2.502   0.555   3.215 -0.3610  1.0956  1.0483
 2836SOL    HW220145   2.538   0.630   3.089  1.4161  1.0757  0.4894
 2837SOL     OW20146   1.667   3.572   5.022 -0.0655  0.4403 -0.2707
 2837SOL    HW120147   1.586   3.526   5.044  0.3022 -0.1350 -0.1165
 2837SOL    HW220148   1.628   3.659   5.011 -0.4210  0.2429 -0.5805
 2838SOL     OW20149   4.154   2.047   0.089  0.5596  0.2235  0.1712
 2838SOL    HW120150   4.153   2.125   0.034  1.6907  1.9712  2.5969
 2838SOL    HW220151   4.216   1.986   0.049 -0.1173 -1.0615  1.0629
 2839SOL     OW20152   2.839   4.568   6.540 -0.0148 -0.4699 -0.3379
 2839SOL    HW120153   2.780   4.501   6.503 -1.3325 -0.0398  0.9731
 2839SOL    HW220154   2.791   4.599   6.616 -2.0009  0.6067 -2.0213
 2840SOL     OW20155   3.263   2.108  14.938  0.0165 -0.2828 -0.2443
 2840SOL    HW120156   3.193   2.161  14.899  0.5005 -0.9828 -2.0855
 2840SOL    HW220157   3.226   2.108  15.026  2.3024  0.6493  0.7033
 2841SOL     OW20158   1.530   1.531   2.399 -0.1403  0.3376 -0.3793
 2841SOL    HW120159   1.552   1.508   2.309  0.2793  0.5190 -0.3219
 2841SOL    HW220160   1.611   1.509   2.443  0.5386 -0.7866 -2.2075
 2842SOL     OW20161   3.009   0.766   4.364 -0.0426 -0.0089 -0.0956
 2842SOL    HW120162   3.031   0.677   4.393 -0.6838 -0.8410 -2.1235
 2842SOL    HW220163   3.018   0.814   4.446 -0.0982  3.2351 -2.0126
 2843SOL     OW20164   1.484   0.801   2.778 -0.1777 -0.1492  0.2738
 2843SOL    HW120165   1.398   0.759   2.776 -1.5394  2.7648 -1.4516
 2843SOL    HW220166   1.499   0.826   2.687 -1.3632 -0.0899  0.0995
 2844SOL     OW20167   2.652   4.074   7.049  0.0874  0.0385 -0.0018
 2844SOL    HW120168   2.703   4.099   6.973  0.5453  0.7684  0.5432
 2844SOL    HW220169   2.647   4.158   7.094 -1.4365 -0.3487  0.5839
 2845SOL     OW20170   4.075   4.337   9.352 -0.2081  0.0731 -0.0725
 2845SOL    HW120171   3.994   4.388   9.358 -1.7565 -2.4462  0.6590
 2845SOL    HW220172   4.069   4.280   9.429  1.1536  0.9071  0.6360
 2846SOL     OW20173   3.673   3.117  17.575  0.0089 -0.3427  0.1470
 2846SOL    HW120174   3.689   3.205  17.540  1.6929 -1.5148 -2.0839
 2846SOL    HW220175   3.581   3.118  17.602  0.7346  1.0158  2.6136
 2847SOL     OW20176   4.732   3.759   1.714  0.0977 -0.2892  0.1121
 2847SOL    HW120177   4.690   3.688   1.763  0.0755 -0.2868  0.0960
 2847SOL    HW220178   4.658   3.816   1.695  0.0746 -0.5418 -0.5398
 2848SOL     OW20179   2.741   4.186   6.592 -0.1060 -0.2790  0.1756
 2848SOL    HW120180   2.749   4.207   6.499 -0.3044  0.0947  0.2433
 2848SOL    HW220181   2.674   4.246   6.625 -1.0278 -0.4753 -1.3349
 2849SOL     OW20182   1.395   4.332   6.029  0.6933  0.1275 -0.1572
 2849SOL    HW120183   1.351   4.352   6.111 -0.6140 -2.8937 -0.1233
 2849SOL    HW220184   1.347   4.257   5.994 -0.1957 -0.2534  1.9000
 2850SOL     OW20185   4.534   4.668   7.251 -1.2257 -0.5064 -0.0610
 2850SOL    HW120186   4.554   0.007   7.301  0.5435 -0.2751 -1.1319
 2850SOL    HW220187   4.608   4.618   7.285 -0.0823  0.6490 -0.8402
 2851SOL     OW20188   4.729   2.666   4.372 -0.8508 -0.3099  0.4357
 2851SOL    HW120189   4.641   2.649   4.338 -1.1288 -1.3988  1.7349
 2851SOL    HW220190   4.725   2.626   4.458  0.1657  0.7197  0.9621
 2852SOL     OW20191   4.624   2.984   4.930 -0.2589 -0.5026 -0.1202
 2852SOL    HW120192   4.627   2.991   4.835 -0.7340 -3.5459 -0.3676
 2852SOL    HW220193   4.674   3.064   4.947  0.3461 -1.0901  0.8620
 2853SOL     OW20194   2.483   4.485   5.567 -0.2167  0.3516  0.4792
 2853SOL    HW120195   2.413   4.479   5.501 -0.5777  1.0928  0.7858
 2853SOL    HW220196   2.470   4.573   5.602 -2.9629 -0.2791  1.0887
 2854SOL     OW20197   3.236   1.125   9.611 -0.6324  0.1686  0.3468
 2854SOL    HW120198   3.299   1.064   9.573 -0.4167  0.5329  0.1166
 2854SOL    HW220199   3.221   1.079   9.694  0.0278  1.8631  1.4057
 2855SOL     OW20200   0.247   3.319   1.651 -0.2546  0.9756  0.1602
 2855SOL    HW120201   0.304   3.343   1.578 -0.7971 -2.3759 -1.3732
 2855SOL    HW220202   0.262   3.394   1.708 -1.0349  1.9257 -0.8685
 2856SOL     OW20203   2.871   4.354   8.867  0.2703  0.5197  0.3713
 2856SOL    HW120204   2.886   4.323   8.956 -1.2281 -1.5427 -0.0759
 2856SOL    HW220205   2.778   4.331   8.858  0.7121 -2.0424  2.2956
 2857SOL     OW20206   1.931   2.476  14.998  0.4584 -0.0740 -0.8239
 2857SOL    HW120207   1.940   2.446  15.088 -0.0403  0.7644 -0.4948
 2857SOL    HW220208   1.869   2.548  15.006  1.1072  0.5583 -1.6064
 2858SOL     OW20209   1.043   1.926   2.740 -0.5870  0.6023  0.2667
 2858SOL    HW120210   0.976   1.946   2.674  0.0552  1.1603 -0.2128
 2858SOL    HW220211   1.003   1.855   2.790 -2.6050  1.9095  0.5463
 2859SOL     OW20212   3.745   3.007   2.065 -0.2859 -0.2150  0.8266
 2859SOL    HW120213   3.801   2.989   1.989  2.6451 -0.6615  3.0813
 2859SOL    HW220214   3.666   2.959   2.043 -0.1369 -1.2247  2.5246
 2860SOL     OW20215   2.004   4.220   9.139  0.4333  0.4182 -0.0954
 2860SOL    HW120216   1.998   4.310   9.107 -1.2362 -0.1126 -1.2300
 2860SOL    HW220217   1.912   4.197   9.128  1.0910 -2.1621 -0.3788
 2861SOL     OW20218   0.054   2.963   7.459 -0.2512  0.1656  0.4609
 2861SOL    HW120219   0.017   3.048   7.482 -1.5123 -0.5076  0.9397
 2861SOL    HW220220   0.142   2.960   7.497 -0.5020  0.7044  1.0780
 2862SOL     OW20221   3.154   0.199   4.385  0.0778 -0.4675  0.4296
 2862SOL    HW120222   3.226   0.261   4.379 -1.0389  0.9224  1.5512
 2862SOL    HW220223   3.170   0.153   4.467  1.9674 -0.2492  0.1897
 2863SOL     OW20224   4.105   1.009   7.223  0.0722 -0.1874 -0.0668
 2863SOL    HW120225   4.102   0.944   7.293 -3.1444  1.9458  1.7259
 2863SOL    HW220226   4.152   0.961   7.154  1.4914  1.7208 -0.4245
 2864SOL     OW20227   1.903   3.875   8.386  0.2337  0.2190  0.3724
 2864SOL    HW120228   1.921   3.941   8.320 -1.0125  1.0837  0.9043
 2864SOL    HW220229   1.985   3.869   8.436  0.9684 -1.3316 -0.9881
 2865SOL     OW20230   1.603   4.257   5.305 -0.5899 -0.2359 -0.2694
 2865SOL    HW120231   1.599   4.344   5.264  0.1033  1.0529  2.3686
 2865SOL    HW220232   1.652   4.212   5.237 -0.5715 -1.5028  0.5892
 2866SOL     OW20233   4.435   3.153  12.981 -0.2674 -0.4273  0.5309
 2866SOL    HW120234   4.430   3.068  13.025  0.0077 -0.4553  0.5087
 2866SOL    HW220235   4.371   3.139  12.911 -0.5287  0.4498  0.5959
 2867SOL     OW20236   1.719   2.989  16.094 -0.1107 -0.4396 -0.0320
 2867SOL    HW120237   1.698   3.062  16.036  0.7169 -1.5462 -1.7191
 2867SOL    HW220238   1.634   2.950  16.113 -0.6163  1.5504  1.8679
 2868SOL     OW20239   2.564   3.983   8.785  0.5072  0.4147  0.1951
 2868SOL    HW120240   2.520   4.001   8.869 -0.8211 -0.2820 -0.3448
 2868SOL    HW220241   2.656   4.004   8.801 -0.0174  0.9682  2.5835
 2869SOL     OW20242   0.389   4.438   5.366  0.3741 -0.0201  0.2121
 2869SOL    HW120243   0.483   4.433   5.379  0.4313  0.1874 -0.1365
 2869SOL    HW220244   0.378   4.533   5.365 -2.0153 -0.2708  1.0418
 2870SOL     OW20245   3.993   1.037   5.052  0.1215  0.2169 -0.2938
 2870SOL    HW120246   4.040   0.954   5.062 -0.8479 -0.3839 -0.7309
 2870SOL    HW220247   4.054   1.089   4.999 -1.1496  0.7589 -1.2277
 2871SOL     OW20248   4.042   1.399  14.514 -0.5605  0.0022 -1.1250
 2871SOL    HW120249   4.028   1.305  14.505  0.3389 -0.1031 -1.4372
 2871SOL    HW220250   4.131   1.398  14.549 -1.6028  1.7950  1.5487
 2872SOL     OW20251   1.257   4.529   4.170 -0.2119  0.4983 -0.4228
 2872SOL    HW120252   1.262   4.609   4.223 -3.3279 -0.2828  1.0523
 2872SOL    HW220253   1.171   4.495   4.194 -1.2404  1.2860 -3.0384
 2873SOL     OW20254   3.134   2.697  10.404 -0.0004  0.2942 -0.1579
 2873SOL    HW120255   3.094   2.636  10.466 -0.4398 -0.1227 -0.8625
 2873SOL    HW220256   3.100   2.773  10.451  0.9289 -1.1163  2.8217
 2874SOL     OW20257   2.158   4.580   9.690  0.2960  0.0808  0.3759
 2874SOL    HW120258   2.244   4.591   9.731 -0.2776  0.1856  1.5615
 2874SOL    HW220259   2.131   4.667   9.661  2.1495  1.5205  2.9800
 2875SOL     OW20260   3.771   0.159   0.696  0.7562 -0.0573 -0.0893
 2875SOL    HW120261   3.768   0.069   0.666 -2.4510 -0.1506  0.4285
 2875SOL    HW220262   3.859   0.184   0.669  0.0533  2.9758  0.3722
 2876SOL     OW20263   3.010   2.573   6.424 -0.4662 -0.1913 -0.0116
 2876SOL    HW120264   2.940   2.584   6.489 -1.9734 -0.0484 -1.6694
 2876SOL    HW220265   3.076   2.528   6.477 -0.6045  0.8317  1.0340
 2877SOL     OW20266   4.325   0.394   5.803 -0.1502 -0.1532  0.5296
 2877SOL    HW120267   4.257   0.348   5.852  1.2098 -0.5048  2.1083
 2877SOL    HW220268   4.326   0.338   5.725 -2.0423  2.3780 -1.2806
 2878SOL     OW20269   1.182   2.821   8.423 -0.3150  0.3893  0.2114
 2878SOL    HW120270   1.143   2.860   8.502  1.5267  1.8498  0.4118
 2878SOL    HW220271   1.183   2.730   8.452 -0.7287  0.5612  0.7726
 2879SOL     OW20272   0.415   0.841  14.963 -0.2026 -0.5234  0.3708
 2879SOL    HW120273   0.342   0.786  14.991 -0.5902 -0.2922 -0.1825
 2879SOL    HW220274   0.435   0.799  14.880  0.1942  1.5920 -0.6127
 2880SOL     OW20275   2.830   4.695  12.845  0.0934 -0.0048  0.1236
 2880SOL    HW120276   2.864   4.615  12.884 -0.1557 -0.1192  0.1023
 2880SOL    HW220277   2.782   4.660  12.771  0.1806  1.0539 -0.4424
 2881SOL     OW20278   1.088   0.681   3.071 -0.3360  0.6636  0.4148
 2881SOL    HW120279   1.153   0.687   3.141 -0.0478 -2.7413  0.4241
 2881SOL    HW220280   1.020   0.746   3.090 -0.6499  0.5609 -0.3932
 2882SOL     OW20281   4.694   1.322   3.892  0.3545  1.0676  0.2983
 2882SOL    HW120282   4.740   1.251   3.846 -1.2225 -1.4865  2.6497
 2882SOL    HW220283   0.020   1.339   3.959  2.5583  0.9626 -1.8771
 2883SOL     OW20284   4.096   3.604   4.082  0.0869 -0.2231  0.0975
 2883SOL    HW120285   4.145   3.625   4.162  0.6885  1.5340 -0.7510
 2883SOL    HW220286   4.042   3.528   4.107  0.6429 -0.8107 -0.4812
 2884SOL     OW20287   4.425   2.551   9.822  0.7285  0.3450 -0.4271
 2884SOL    HW120288   4.464   2.502   9.750 -0.2852 -0.0209 -0.7308
 2884SOL    HW220289   4.448   2.640   9.798 -1.2810  1.7524  2.8792
 2885SOL     OW20290   4.596   4.183   5.131  0.2806  0.1673 -0.6627
 2885SOL    HW120291   4.536   4.256   5.114  0.2027  0.1235 -0.5735
 2885SOL    HW220292   4.668   4.193   5.069  2.3649 -1.9405  1.4260
 2886SOL     OW20293   0.935   0.891   6.297  0.5377 -0.4982 -0.2652
 2886SOL    HW120294   0.913   0.984   6.290  0.1216 -0.6590 -1.1089
 2886SOL    HW220295   0.862   0.848   6.254 -0.4333  2.1887 -1.3069
 2887SOL     OW20296   1.041   2.410   6.328 -0.1173  1.0626 -0.0349
 2887SOL    HW120297   1.074   2.485   6.377 -1.4517  1.0413  0.8919
 2887SOL    HW220298   0.947   2.413   6.345 -0.5933  0.9115 -2.6603
 2888SOL     OW20299   2.574   1.267   7.551 -0.0970  0.2594  0.5996
 2888SOL    HW120300   2.527   1.298   7.474  0.2402 -1.1757 -0.1737
 2888SOL    HW220301   2.598   1.183   7.514 -1.0946  0.5070 -0.6014
 2889SOL     OW20302   4.165   3.769   3.073  0.3982 -0.1777  0.1155
 2889SOL    HW120303   4.256   3.750   3.093  0.7052  3.8243  2.4591
 2889SOL    HW220304   4.179   3.861   3.050 -0.5428  0.2151  1.1016
 2890SOL     OW20305   3.678   0.102   6.243  0.1107 -0.6244 -0.0965
 2890SOL    HW120306   3.653   0.035   6.307 -0.0653  0.7830  1.3051
 2890SOL    HW220307   3.766   0.118   6.278 -0.5639  0.5460  1.0766
 2891SOL     OW20308   2.834   4.368   7.511 -0.0027 -0.8406 -0.0169
 2891SOL    HW120309   2.855   4.460   7.495 -1.9971 -0.0680  1.8404
 2891SOL    HW220310   2.744   4.393   7.529  0.2080  0.4032 -0.6889
 2892SOL     OW20311   0.373   2.525  17.027  0.3418  0.7313  0.5437
 2892SOL    HW120312   0.401   2.448  16.978  2.3526  1.5444  0.3896
 2892SOL    HW220313   0.395   2.603  16.975 -0.3252 -2.0807 -3.9439
 2893SOL     OW20314   4.734   1.463   2.008 -0.2420  0.3930 -0.4498
 2893SOL    HW120315   4.694   1.550   2.001  0.1784  0.6358  0.2341
 2893SOL    HW220316   0.085   1.485   1.993  0.7588 -1.8693  2.4263
 2894SOL     OW20317   2.605   0.007   2.225 -0.2130 -0.5219 -0.5909
 2894SOL    HW120318   2.513   0.017   2.199  1.0822  1.8132 -4.3671
 2894SOL    HW220319   2.591   4.723   2.316 -0.1794  2.4086  0.1983
 2895SOL     OW20320   0.698   2.701   4.634 -0.4589 -0.0541 -0.2761
 2895SOL    HW120321   0.665   2.666   4.551 -1.2586  0.6448 -0.2503
 2895SOL    HW220322   0.755   2.773   4.605  0.4204 -1.1897 -1.3855
 2896SOL     OW20323   2.393   2.867   6.417  0.4869  0.4145 -0.4109
 2896SOL    HW120324   2.344   2.923   6.477  0.7864  1.0990 -0.8088
 2896SOL    HW220325   2.394   2.921   6.337 -2.2830 -0.6405 -1.1816
 2897SOL     OW20326   3.279   4.115  15.251 -0.0621 -0.6351  0.4746
 2897SOL    HW120327   3.341   4.059  15.298  1.2890  0.2704 -0.2565
 2897SOL    HW220328   3.246   4.056  15.184 -0.2510  1.7452 -1.5264
 2898SOL     OW20329   4.187   3.370  16.019  0.2153 -0.1737  0.3178
 2898SOL    HW120330   4.209   3.290  16.067  1.0524 -0.2702 -0.2214
 2898SOL    HW220331   4.137   3.421  16.083  0.7510 -0.7231  1.1816
 2899SOL     OW20332   2.666   2.282   2.935  0.2333 -0.6344 -0.2532
 2899SOL    HW120333   2.731   2.242   2.878  0.6031  0.0436 -0.3117
 2899SOL    HW220334   2.594   2.297   2.874  0.3687  1.2127  0.0362
 2900SOL     OW20335   3.829   1.132   9.830 -0.0623  0.4019  0.2854
 2900SOL    HW120336   3.734   1.124   9.843 -0.2859 -2.3867 -3.2567
 2900SOL    HW220337   3.846   1.085   9.749  0.3613  0.6731  0.2157
 2901SOL     OW20338   1.280   3.267  10.731 -0.7599  0.1681 -0.1428
 2901SOL    HW120339   1.349   3.261  10.796  0.8015 -0.1907 -1.8500
 2901SOL    HW220340   1.333   3.267  10.652  0.5752  2.2256  0.7479
 2902SOL     OW20341   1.609   3.251   1.927 -0.0421 -0.4387  0.6164
 2902SOL    HW120342   1.683   3.191   1.917  0.8441  0.6385  0.6485
 2902SOL    HW220343   1.652   3.325   1.884 -1.5069  0.8006  1.2837
 2903SOL     OW20344   0.099   3.018   1.160 -0.0053 -0.5174 -0.0760
 2903SOL    HW120345   0.157   3.074   1.108  0.3296 -0.1150  0.7438
 2903SOL    HW220346   0.162   2.980   1.221 -1.4130  1.7944  2.7819
 2904SOL     OW20347   0.308   3.666   1.145  0.3442 -0.3848 -0.0092
 2904SOL    HW120348   0.261   3.628   1.219  1.9533 -0.4578  0.9741
 2904SOL    HW220349   0.268   3.753   1.155  1.7446  0.2916 -0.2440
 2905SOL     OW20350   2.149   4.702   3.106  0.2165 -0.4408 -0.1758
 2905SOL    HW120351   2.150   0.047   3.065  0.3748  0.2531  1.2666
 2905SOL    HW220352   2.205   4.643   3.055 -0.1305 -1.7886  0.9880
 2906SOL     OW20353   0.646   0.185   4.895 -0.4492 -0.0558  0.1668
 2906SOL    HW120354   0.684   0.097   4.890  1.3334  0.8634 -2.8398
 2906SOL    HW220355   0.601   0.188   4.810  1.9589 -0.9937 -1.1346
 2907SOL     OW20356   0.560   2.342   8.946 -0.7518  0.2293 -0.9216
 2907SOL    HW120357   0.654   2.326   8.947 -0.6144  1.0354 -1.4350
 2907SOL    HW220358   0.559   2.437   8.949 -2.3884  0.1423  1.4292
 2908SOL     OW20359   4.483   4.012  15.643 -0.1230 -0.4285 -0.3178
 2908SOL    HW120360   4.494   4.063  15.563  0.4573  0.8322  0.5563
 2908SOL    HW220361   4.387   4.007  15.639 -0.2509  2.0912 -0.6428
 2909SOL     OW20362   3.934   0.824  11.210 -0.2545 -0.1349  0.1676
 2909SOL    HW120363   3.865   0.886  11.187  1.0567  0.6886 -1.5678
 2909SOL    HW220364   4.011   0.874  11.182 -0.0455  0.0959  1.1329
 2910SOL     OW20365   1.406   1.445   8.662  0.0749 -0.1563 -0.1903
 2910SOL    HW120366   1.497   1.453   8.635 -0.4620 -0.7535 -2.1377
 2910SOL    HW220367   1.400   1.351   8.683 -0.4458  0.6357  3.3008
 2911SOL     OW20368   0.032   0.791   4.568 -0.1394  0.3463  0.0763
 2911SOL    HW120369   0.126   0.770   4.569 -0.2674 -0.3187 -1.7341
 2911SOL    HW220370   0.023   0.849   4.643  0.6084 -0.1878  0.5854
 2912SOL     OW20371   0.025   0.460   2.551  0.6438  0.5624  0.9477
 2912SOL    HW120372   4.690   0.410   2.521  2.4465 -0.8895 -1.1573
 2912SOL    HW220373   4.739   0.551   2.564 -1.3183 -0.1085  1.5197
 2913SOL     OW20374   1.249   0.881  14.974  0.1218  0.0345  0.2974
 2913SOL    HW120375   1.276   0.837  15.054  2.3151  1.2573  0.2409
 2913SOL    HW220376   1.159   0.907  14.995  0.1246  1.4819 -1.3962
 2914SOL     OW20377   1.829   3.122   0.263 -0.8541 -0.5648  0.3903
 2914SOL    HW120378   1.895   3.116   0.333 -0.0334 -1.0082 -0.4233
 2914SOL    HW220379   1.820   3.217   0.258  2.0674 -0.3022  0.0051
 2915SOL     OW20380   0.330   4.459   6.646  0.6306  0.3147 -0.3674
 2915SOL    HW120381   0.416   4.463   6.688  0.5936 -1.2749 -0.1173
 2915SOL    HW220382   0.333   4.521   6.574  0.6127  1.2226  0.4074
 2916SOL     OW20383   1.077   2.928   7.146 -0.0683  0.4025 -0.4491
 2916SOL    HW120384   0.993   2.955   7.181 -1.2887 -2.4962 -1.1744
 2916SOL    HW220385   1.063   2.947   7.053 -1.7606  1.0894 -0.0493
 2917SOL     OW20386   4.008   0.968   8.316 -0.0328 -0.1050  0.7541
 2917SOL    HW120387   4.006   0.976   8.411 -0.1419 -0.3141  0.7687
 2917SOL    HW220388   3.995   1.058   8.286  0.4176  0.1856  1.4351
 2918SOL     OW20389   3.488   3.564   9.293  0.0582  0.2705 -0.1794
 2918SOL    HW120390   3.423   3.498   9.270  0.3754 -0.4160  0.9111
 2918SOL    HW220391   3.459   3.576   9.384 -2.6754  0.2402 -1.0507
 2919SOL     OW20392   3.213   1.930   6.975 -0.2808 -0.0533 -0.0431
 2919SOL    HW120393   3.240   1.897   7.061  1.6210 -0.4701 -0.7841
 2919SOL    HW220394   3.289   1.944   6.918  0.2697 -0.9568  0.4702
 2920SOL     OW20395   3.879   2.148   9.379  0.3362 -0.0310  0.1101
 2920SOL    HW120396   3.959   2.128   9.331  0.4422 -2.1338  1.1428
 2920SOL    HW220397   3.825   2.186   9.310  0.2422  0.9535  0.7208
 2921SOL     OW20398   1.860   4.717   8.327 -0.0785 -0.9108 -0.2246
 2921SOL    HW120399   1.948   0.011   8.318  0.7399 -2.8343  0.2717
 2921SOL    HW220400   1.869   4.636   8.277  1.1090 -0.8838 -0.0445
 2922SOL     OW20401   0.101   0.558   2.232 -0.2213  0.4902  0.6120
 2922SOL    HW120402   0.170   0.522   2.287 -0.5198 -1.6560 -0.4285
 2922SOL    HW220403   0.150   0.639   2.217  0.2466 -0.1333 -1.2078
 2923SOL     OW20404   1.207   2.791   0.345  0.4139 -0.0627 -0.4036
 2923SOL    HW120405   1.270   2.730   0.384 -0.6811 -0.7307  0.3167
 2923SOL    HW220406   1.161   2.805   0.428  0.2854 -0.5233 -0.4019
 2924SOL     OW20407   2.086   2.396   5.004 -0.2618 -0.2775  0.1166
 2924SOL    HW120408   2.067   2.314   4.958  3.6843 -1.2469  0.2094
 2924SOL    HW220409   2.059   2.459   4.938  1.0384 -1.8801 -1.9806
 2925SOL     OW20410   0.316   3.445  10.055  0.3034  0.0625 -0.3584
 2925SOL    HW120411   0.318   3.446   9.959  0.0730  1.7786 -0.3410
 2925SOL    HW220412   0.386   3.384  10.078  0.6456 -0.1133 -1.8360
 2926SOL     OW20413   1.345   1.760   4.124 -0.0663 -0.1463 -0.6751
 2926SOL    HW120414   1.330   1.760   4.219 -0.4032  1.8195 -0.7457
 2926SOL    HW220415   1.431   1.718   4.125 -0.1251 -0.2704 -0.8092
 2927SOL     OW20416   4.570   3.246  12.190  0.3050 -0.4694 -0.1324
 2927SOL    HW120417   4.572   3.306  12.116  1.5431  0.6701  0.8301
 2927SOL    HW220418   4.646   3.281  12.237  1.2795  0.7670 -2.6343
 2928SOL     OW20419   4.363   2.016  15.207  0.3706  0.2645 -0.3848
 2928SOL    HW120420   4.456   2.037  15.213  0.7243 -1.2089 -0.5551
 2928SOL    HW220421   4.341   1.991  15.297  1.3559 -1.4162 -0.6059
 2929SOL     OW20422   2.820   4.638   7.458 -0.0163  0.3990  0.2719
 2929SOL    HW120423   2.823   4.723   7.502 -4.5127  1.8312 -2.0931
 2929SOL    HW220424   2.835   4.660   7.366  0.6291 -1.1791 -0.0087
 2930SOL     OW20425   0.525   2.781   6.428 -0.2629  0.3574 -0.0137
 2930SOL    HW120426   0.562   2.775   6.340 -0.1219  0.2201  0.0548
 2930SOL    HW220427   0.439   2.818   6.409 -0.9581 -2.1630 -1.8270
 2931SOL     OW20428   4.352   4.426   8.556  0.6068  0.3761 -0.4448
 2931SOL    HW120429   4.428   4.472   8.593  0.6380 -1.1029  1.3632
 2931SOL    HW220430   4.363   4.457   8.467  0.8678  1.9623  0.1326
 2932SOL     OW20431   2.210   1.821   1.380 -0.0996 -0.1399 -0.1118
 2932SOL    HW120432   2.252   1.907   1.387 -0.6286  0.0885  0.2361
 2932SOL    HW220433   2.117   1.839   1.372  0.2027  1.4416 -0.0377
 2933SOL     OW20434   3.863   4.190  10.602  0.3574 -0.1037  0.8175
 2933SOL    HW120435   3.866   4.101  10.568 -0.3897 -0.5742  1.9661
 2933SOL    HW220436   3.878   4.251  10.529 -0.4385 -0.8654  0.0325
 2934SOL     OW20437   3.689   4.227   2.613 -0.2303  0.2936 -0.4861
 2934SOL    HW120438   3.666   4.237   2.520 -2.3092 -2.0836 -0.2270
 2934SOL    HW220439   3.784   4.234   2.601  0.1260 -1.6682  1.3532
 2935SOL     OW20440   1.360   1.857   5.788  0.3149 -0.3271 -0.1633
 2935SOL    HW120441   1.455   1.854   5.798  0.2558  0.0965  0.5581
 2935SOL    HW220442   1.337   1.942   5.749  0.1873 -1.7027 -3.0584
 2936SOL     OW20443   0.142   2.382   1.778  0.1158  0.1043 -0.0629
 2936SOL    HW120444   0.166   2.428   1.859 -0.3945 -0.8887  0.6616
 2936SOL    HW220445   0.225   2.383   1.731 -1.1882  1.4234 -2.3032
 2937SOL     OW20446   1.249   3.673   0.970 -0.1665 -0.1212 -0.4985
 2937SOL    HW120447   1.309   3.741   0.999 -0.0446 -0.7916  0.8035
 2937SOL    HW220448   1.176   3.726   0.937  0.3941  0.7984 -0.2426
 2938SOL     OW20449   3.227   3.537  15.021  0.1250 -0.2749 -0.2211
 2938SOL    HW120450   3.219   3.556  14.927  0.7837 -0.1486 -0.2519
 2938SOL    HW220451   3.146   3.489  15.038  0.9277 -1.4807  0.1931
 2939SOL     OW20452   4.009   3.376   7.487 -0.2296 -0.1943  0.6986
 2939SOL    HW120453   3.980   3.289   7.459 -1.8960  0.4979  0.2428
 2939SOL    HW220454   4.100   3.349   7.476 -0.5617 -1.9450  2.2871
 2940SOL     OW20455   1.555   4.704   7.316 -0.7295  0.5057  0.1664
 2940SOL    HW120456   1.609   4.700   7.236  1.2260  1.8696  1.4165
 2940SOL    HW220457   1.574   0.057   7.317  2.2863 -0.0768 -1.2713
 2941SOL     OW20458   2.079   2.888   7.843 -0.2426  0.4989  0.4311
 2941SOL    HW120459   2.051   2.826   7.910 -0.4076  0.4974  0.3610
 2941SOL    HW220460   2.076   2.970   7.893  5.6174  2.2310 -2.1360
 2942SOL     OW20461   4.638   1.759   7.593 -0.0006 -0.5822 -0.3945
 2942SOL    HW120462   4.683   1.810   7.661 -0.6509  0.7839 -0.9786
 2942SOL    HW220463   4.595   1.687   7.639  1.3510  0.2035  2.0763
 2943SOL     OW20464   4.740   4.697   8.566 -0.4982 -0.3997 -0.1524
 2943SOL    HW120465   0.061   4.661   8.502  0.4423  1.2083 -0.1613
 2943SOL    HW220466   0.064   0.007   8.615  0.5423 -2.1248  0.2398
 2944SOL     OW20467   0.053   0.297   0.428  0.1893  0.2526  0.2604
 2944SOL    HW120468   0.049   0.364   0.360 -0.9641 -0.0260  0.0546
 2944SOL    HW220469   4.709   0.311   0.471 -0.2811  2.8107 -1.5029
 2945SOL     OW20470   2.726   4.366   4.199 -0.1886  0.3729 -0.2755
 2945SOL    HW120471   2.644   4.416   4.199  1.2942  2.8026  1.1584
 2945SOL    HW220472   2.693   4.283   4.232  0.8987 -0.4445 -1.2699
 2946SOL     OW20473   1.905   1.385   1.661 -0.1015  0.4803  0.2107
 2946SOL    HW120474   1.939   1.303   1.626 -0.9261  0.5386 -0.7151
 2946SOL    HW220475   1.843   1.417   1.595  1.4845  0.8660 -1.0823
 2947SOL     OW20476   1.120   0.882   4.341  0.5882 -0.4002  0.3105
 2947SOL    HW120477   1.204   0.845   4.314  1.3917  0.1644  2.0944
 2947SOL    HW220478   1.118   0.880   4.436  3.2856  0.1362  0.3730
 2948SOL     OW20479   1.533   2.100   0.427  0.1131 -0.0542  0.2685
 2948SOL    HW120480   1.463   2.150   0.469  0.6882 -0.4955  1.7566
 2948SOL    HW220481   1.544   2.139   0.341 -2.0667 -0.7172 -0.3073
 2949SOL     OW20482   1.538   2.617   1.396  0.1169 -0.1717 -0.3690
 2949SOL    HW120483   1.449   2.619   1.364 -0.1491 -1.5554  0.2513
 2949SOL    HW220484   1.534   2.700   1.444 -1.0528 -0.7965  0.6207
 2950SOL     OW20485   2.455   3.277   4.000 -0.0788 -0.0205 -0.3013
 2950SOL    HW120486   2.545   3.283   4.032 -1.0500  2.3238  2.0213
 2950SOL    HW220487   2.468   3.327   3.919 -2.4551 -0.0859 -0.7165
 2951SOL     OW20488   1.666   2.285  13.084  0.0978  0.0497  0.0422
 2951SOL    HW120489   1.755   2.250  13.079  0.1818  0.0013  1.8673
 2951SOL    HW220490   1.620   2.259  13.004  0.2298  1.5338 -0.5148
 2952SOL     OW20491   2.547   0.040   4.758  0.3084  0.0159  0.3688
 2952SOL    HW120492   2.589   4.699   4.784 -1.7482 -1.0141  0.4745
 2952SOL    HW220493   2.533   0.088   4.840 -0.5225 -0.2644  0.3885
 2953SOL     OW20494   0.659   2.926  11.312 -0.1676 -0.2563 -0.2689
 2953SOL    HW120495   0.747   2.934  11.276 -1.1755  0.6923 -2.5351
 2953SOL    HW220496   0.608   2.871  11.253  0.2166 -0.1771 -0.6808
 2954SOL     OW20497   3.275   2.256   6.912  0.2760  0.8091  0.3088
 2954SOL    HW120498   3.317   2.189   6.858 -0.5765  1.3524 -1.0347
 2954SOL    HW220499   3.188   2.216   6.919  1.3966 -1.6809  0.0468
 2955SOL     OW20500   4.099   2.026   6.819 -0.2385 -0.6715 -0.0487
 2955SOL    HW120501   4.069   1.951   6.768 -0.8378 -0.8598  0.5853
 2955SOL    HW220502   4.193   2.009   6.810 -0.0201  0.0466  0.9703
 2956SOL     OW20503   3.690   4.066   4.210 -0.1693  0.1370  0.9866
 2956SOL    HW120504   3.780   4.093   4.226 -0.3422  0.5354  1.2928
 2956SOL    HW220505   3.710   4.055   4.117 -0.4497 -1.2582  1.0920
 2957SOL     OW20506   4.340   1.197   3.359 -0.3649  0.5975  0.5872
 2957SOL    HW120507   4.320   1.138   3.432  2.0017  1.9839  2.3374
 2957SOL    HW220508   4.373   1.131   3.298  0.3583 -1.7183  3.5144
 2958SOL     OW20509   1.154   0.706   7.562 -0.2193 -0.2761  0.0193
 2958SOL    HW120510   1.155   0.799   7.586 -0.6573 -0.6474  1.4466
 2958SOL    HW220511   1.106   0.658   7.629  0.5124  0.5704  1.1665
 2959SOL     OW20512   1.312   0.882   5.891  0.3610  0.0001 -0.2713
 2959SOL    HW120513   1.250   0.852   5.958  0.6030 -1.6318 -0.8008
 2959SOL    HW220514   1.387   0.860   5.947  0.9842 -0.0512 -1.1330
 2960SOL     OW20515   3.224   2.127   8.807 -0.7519 -0.5761 -0.1946
 2960SOL    HW120516   3.156   2.068   8.840 -2.6118  0.4381 -2.1768
 2960SOL    HW220517   3.175   2.209   8.804 -1.0513 -0.7570 -0.2805
 2961SOL     OW20518   2.728   2.888   4.150  0.2062 -0.3594 -0.1528
 2961SOL    HW120519   2.641   2.860   4.121 -0.6876  0.5200  1.7052
 2961SOL    HW220520   2.784   2.835   4.093 -0.3091  0.1563 -1.1334
 2962SOL     OW20521   2.084   3.790   1.346 -0.1961  0.1444 -0.1721
 2962SOL    HW120522   2.172   3.807   1.381 -0.1029 -0.0344 -0.3229
 2962SOL    HW220523   2.096   3.767   1.254  3.2755  0.1091  0.2834
 2963SOL     OW20524   1.946   4.366   7.473  0.8796  0.1061 -0.5284
 2963SOL    HW120525   1.868   4.398   7.428  1.8326  2.1908 -0.6522
 2963SOL    HW220526   1.905   4.315   7.544  0.1877  1.0626 -0.2432
 2964SOL     OW20527   1.923   0.581   8.976 -0.0011 -0.5123  0.2949
 2964SOL    HW120528   1.879   0.666   8.984 -0.0410 -0.7097  2.1036
 2964SOL    HW220529   2.014   0.601   8.952 -0.0499  1.5304  1.7748
 2965SOL     OW20530   4.659   1.980   2.262  0.2668  0.1920 -0.1220
 2965SOL    HW120531   4.612   1.897   2.249  1.7016 -0.5655 -0.3962
 2965SOL    HW220532   4.579   2.031   2.275 -1.3252 -2.5226  0.7198
 2966SOL     OW20533   3.278   3.096  14.079 -0.4925  0.6281 -0.2379
 2966SOL    HW120534   3.227   3.124  14.003 -1.1141  2.4920  0.8733
 2966SOL    HW220535   3.307   3.177  14.120  0.7864  0.6598 -1.2145
 2967SOL     OW20536   0.901   1.230   3.151 -0.7360 -0.2728 -0.4643
 2967SOL    HW120537   0.841   1.200   3.082  1.2692 -1.4506 -1.7055
 2967SOL    HW220538   0.981   1.182   3.127 -1.1639 -2.2907  2.2036
 2968SOL     OW20539   0.005   2.524   4.605 -0.7573 -0.5250 -0.0520
 2968SOL    HW120540   0.029   2.437   4.637 -1.2096 -0.9484 -0.8586
 2968SOL    HW220541   4.671   2.531   4.666 -0.0171 -1.1861  0.9314
 2969SOL     OW20542   3.606   3.258   9.182  0.0363 -0.2928  0.1304
 2969SOL    HW120543   3.680   3.311   9.152 -0.9069 -1.2158 -3.8265
 2969SOL    HW220544   3.648   3.173   9.195 -1.4364 -1.6530 -4.0718
 2970SOL     OW20545   3.633   4.647  15.994  0.3823  0.5126  0.2478
 2970SOL    HW120546   3.568   4.641  16.064 -1.4400 -0.8076 -1.5508
 2970SOL    HW220547   3.578   4.621  15.920  2.0006  0.6920 -1.0031
 2971SOL     OW20548   4.689   2.629  15.679  0.2615 -0.0839  0.3902
 2971SOL    HW120549   4.692   2.550  15.732 -0.3154  1.3993  2.6269
 2971SOL    HW220550   0.043   2.644  15.671  0.4624 -2.0054 -0.7962
 2972SOL     OW20551   1.786   3.607   6.193  0.0835  0.1068 -0.2703
 2972SOL    HW120552   1.709   3.591   6.139  0.1648  0.7175 -0.5615
 2972SOL    HW220553   1.854   3.596   6.127  0.5448 -0.1652  0.2446
 2973SOL     OW20554   3.840   4.235   5.184 -0.3133 -0.5743 -0.2852
 2973SOL    HW120555   3.834   4.232   5.088 -3.1067 -2.7677 -0.0197
 2973SOL    HW220556   3.822   4.327   5.205 -0.5043 -0.2519 -1.8625
 2974SOL     OW20557   4.050   1.932   1.145 -0.0848  0.5664 -0.3272
 2974SOL    HW120558   4.087   1.966   1.226  1.5912  2.5338 -1.9207
 2974SOL    HW220559   4.096   1.851   1.129 -1.2345 -0.2708  0.6072
 2975SOL     OW20560   1.311   4.472  16.822 -0.7981  1.0206 -0.2864
 2975SOL    HW120561   1.387   4.414  16.834 -1.5459  0.1657  0.3371
 2975SOL    HW220562   1.325   4.540  16.888  2.2685 -0.6913  0.8105
 2976SOL     OW20563   0.201   4.704   0.164 -0.2036  0.0521 -0.0464
 2976SOL    HW120564   0.270   4.683   0.101  0.5046  3.6859 -0.4748
 2976SOL    HW220565   0.189   0.056   0.140 -0.5226  0.0691  0.1840
 2977SOL     OW20566   2.543   0.822   0.734 -0.5484 -0.4929 -0.2163
 2977SOL    HW120567   2.610   0.760   0.706  0.9869  0.8960  0.4052
 2977SOL    HW220568   2.463   0.771   0.726 -2.1771  1.9577  0.1814
 2978SOL     OW20569   0.882   4.251   8.665 -1.0815 -0.0902 -0.6409
 2978SOL    HW120570   0.834   4.327   8.698 -0.2826  0.6187 -1.1083
 2978SOL    HW220571   0.951   4.289   8.611 -2.5533  1.6234 -1.3014
 2979SOL     OW20572   2.715   1.861  12.994  0.8169  0.6159  0.0263
 2979SOL    HW120573   2.795   1.816  13.022 -0.3543 -0.9559  0.8025
 2979SOL    HW220574   2.652   1.835  13.061  2.0389  0.1847  1.0196
 2980SOL     OW20575   2.247   3.165   0.623  0.2341  0.2364  0.1930
 2980SOL    HW120576   2.332   3.130   0.651  0.8616  2.2417  0.8533
 2980SOL    HW220577   2.258   3.256   0.652  0.1754  0.3182 -0.0387
 2981SOL     OW20578   2.689   0.796   8.015  0.1039  0.1529  0.1716
 2981SOL    HW120579   2.618   0.853   7.986  1.2381  1.3190 -0.3057
 2981SOL    HW220580   2.770   0.835   7.981 -0.4764  0.3139 -1.0528
 2982SOL     OW20581   2.433   4.647   9.756 -0.1066  0.1226 -0.3528
 2982SOL    HW120582   2.441   4.711   9.686  0.5932  0.3036 -0.1078
 2982SOL    HW220583   2.466   4.693   9.833  3.3001 -0.6602 -1.3388
 2983SOL     OW20584   1.670   3.122  17.310 -0.0413  0.5527  0.1788
 2983SOL    HW120585   1.746   3.177  17.329  0.2574 -0.2386  1.2736
 2983SOL    HW220586   1.650   3.159  17.224 -0.4329 -0.1055 -0.0135
 2984SOL     OW20587   1.879   4.016   9.872 -0.0478 -0.1426  0.6041
 2984SOL    HW120588   1.942   3.944   9.879 -1.0993 -0.9536  1.8843
 2984SOL    HW220589   1.799   3.964   9.872 -0.6632  0.8123  0.6346
 2985SOL     OW20590   1.843   2.348   6.268  0.3310 -0.5486  0.3154
 2985SOL    HW120591   1.883   2.295   6.199  1.1009  0.1764  0.1968
 2985SOL    HW220592   1.753   2.334   6.240 -0.6152 -1.2367  3.6725
 2986SOL     OW20593   4.217   2.955   5.397 -0.9216 -0.1815  0.4437
 2986SOL    HW120594   4.297   2.910   5.426 -1.9309 -2.4308 -0.3011
 2986SOL    HW220595   4.153   2.936   5.466 -0.7667  0.9369  0.8952
 2987SOL     OW20596   3.368   2.526   5.949 -0.4012  0.2389  0.1037
 2987SOL    HW120597   3.432   2.594   5.969  0.0584  0.0990 -0.9390
 2987SOL    HW220598   3.431   2.458   5.927  0.1536  1.0223 -0.6840
 2988SOL     OW20599   3.759   2.606   1.886  0.5977  0.3907  0.1974
 2988SOL    HW120600   3.839   2.657   1.872  0.4441  0.8878  1.1360
 2988SOL    HW220601   3.752   2.548   1.810  0.0841 -0.4723  0.9004
 2989SOL     OW20602   3.250   0.994   8.869 -0.4416  0.2106 -0.6147
 2989SOL    HW120603   3.301   0.934   8.815  0.7290 -1.5750  2.4598
 2989SOL    HW220604   3.311   1.006   8.942 -0.1673  1.1035 -0.9944
 2990SOL     OW20605   4.204   0.707   3.566  0.0677  0.9867  0.1253
 2990SOL    HW120606   4.288   0.667   3.586 -0.4751 -0.8372 -1.3115
 2990SOL    HW220607   4.157   0.674   3.643  2.9926 -0.7617  1.1158
 2991SOL     OW20608   4.041   0.219  11.242  0.4615  0.1471  0.3628
 2991SOL    HW120609   4.127   0.204  11.204  1.6745  1.6120  2.5510
 2991SOL    HW220610   3.986   0.141  11.238  0.7242 -0.1598  2.8283
 2992SOL     OW20611   3.192   0.442  12.419 -0.3872 -0.1032 -0.3827
 2992SOL    HW120612   3.182   0.402  12.505 -1.6997  1.3679  0.1474
 2992SOL    HW220613   3.190   0.363  12.364  0.2605  0.0960 -0.6943
 2993SOL     OW20614   2.933   0.108  11.844 -0.3949 -0.1651  0.6764
 2993SOL    HW120615   2.988   0.186  11.853  0.6836 -0.8138 -0.2056
 2993SOL    HW220616   2.844   0.143  11.837 -0.9046 -1.3526  1.2284
 2994SOL     OW20617   4.148   2.360   3.562  0.5868 -0.4716  0.0074
 2994SOL    HW120618   4.058   2.347   3.530  0.6222  1.4722 -0.9188
 2994SOL    HW220619   4.122   2.350   3.654 -1.6634  1.3315 -0.4188
 2995SOL     OW20620   0.285   0.030   5.667  0.0123 -0.2609 -0.0786
 2995SOL    HW120621   0.308   0.072   5.585 -0.1284  0.8708  0.4656
 2995SOL    HW220622   0.191   0.027   5.651  0.0593  0.8989 -0.5259
 2996SOL     OW20623   4.490   3.931   6.590  0.3007  0.2368  0.3086
 2996SOL    HW120624   4.564   3.981   6.623  0.9322 -0.2271 -0.3895
 2996SOL    HW220625   4.461   3.908   6.678 -0.8856 -0.0263 -0.1552
 2997SOL     OW20626   3.308   3.867  17.459  0.0888  0.1774  0.1812
 2997SOL    HW120627   3.251   3.846  17.533 -1.2180  1.2171 -0.5489
 2997SOL    HW220628   3.376   3.802  17.476 -2.2862 -2.5782 -0.7896
 2998SOL     OW20629   0.418   3.209   5.156  0.1390 -0.1972  0.3819
 2998SOL    HW120630   0.364   3.202   5.235 -1.4312  1.8888 -0.5041
 2998SOL    HW220631   0.364   3.164   5.090 -1.5955 -0.1155  1.7335
 2999SOL     OW20632   2.585   3.998  14.605  0.0196  0.4625  0.0726
 2999SOL    HW120633   2.656   4.051  14.641 -0.7090  1.0100  0.7088
 2999SOL    HW220634   2.647   3.933  14.573 -0.0356 -0.1667  1.2483
 3000SOL     OW20635   3.721   3.513   2.024 -0.1689 -0.1064 -0.4866
 3000SOL    HW120636   3.762   3.466   2.095 -0.4883 -0.4665 -0.5419
 3000SOL    HW220637   3.733   3.599   2.066 -1.5648 -0.8537  1.3968
 3001SOL     OW20638   4.029   2.800   5.160 -0.3082 -0.0730 -0.4909
 3001SOL    HW120639   4.107   2.835   5.203 -0.4285  1.7805 -1.8168
 3001SOL    HW220640   4.057   2.779   5.071 -0.0140  3.2567 -1.1832
 3002SOL     OW20641   2.581   4.717   1.532 -0.8770 -0.4757 -0.1066
 3002SOL    HW120642   2.628   0.058   1.512  0.7688 -1.4993 -0.4312
 3002SOL    HW220643   2.627   4.693   1.612 -0.4367  1.4018  0.1992
 3003SOL     OW20644   1.819   4.443   4.304 -0.1401  0.1132  0.2581
 3003SOL    HW120645   1.787   4.357   4.332 -0.3245  0.1012  0.0211
 3003SOL    HW220646   1.824   4.424   4.210 -1.2256  0.8917  0.0336
 3004SOL     OW20647   3.037   1.887   5.716  0.2507 -0.1527 -0.3072
 3004SOL    HW120648   3.013   1.846   5.799 -0.1835 -1.2182 -0.9730
 3004SOL    HW220649   3.028   1.826   5.643  4.4281 -0.7243 -0.3640
 3005SOL     OW20650   0.352   4.257   2.839  0.2094  0.0861  0.5299
 3005SOL    HW120651   0.293   4.332   2.831  1.7925  1.4836  1.8396
 3005SOL    HW220652   0.318   4.196   2.774  1.0721  1.7331 -1.4594
 3006SOL     OW20653   2.206   1.137   4.979 -0.2410  0.0746 -0.4991
 3006SOL    HW120654   2.186   1.227   5.004 -1.4114 -0.9611  2.2730
 3006SOL    HW220655   2.269   1.153   4.908  1.4356  1.8537  1.3967
 3007SOL     OW20656   0.339   2.165  10.440 -0.2605  0.1694 -0.0111
 3007SOL    HW120657   0.430   2.195  10.438 -0.6315  1.1775 -1.8947
 3007SOL    HW220658   0.294   2.242  10.474  2.0582  1.2018  0.7211
 3008SOL     OW20659   4.676   2.247   5.038 -0.0107 -0.1283  0.1751
 3008SOL    HW120660   4.723   2.330   5.047  0.6445 -0.4602 -0.2018
 3008SOL    HW220661   4.586   2.279   5.038 -0.9072 -2.5980  1.8067
 3009SOL     OW20662   0.985   2.180  13.801  0.0307 -0.1924 -0.0124
 3009SOL    HW120663   1.030   2.192  13.717  0.0880  1.3547  0.2544
 3009SOL    HW220664   0.903   2.229  13.790  0.4875  0.3646 -0.9311
 3010SOL     OW20665   2.185   0.859   5.939  0.2879  0.1897 -0.0080
 3010SOL    HW120666   2.251   0.896   5.998  0.3226  0.9489 -0.5201
 3010SOL    HW220667   2.113   0.921   5.952  0.8040  0.4619  1.5173
 3011SOL     OW20668   0.578   0.051   5.948  0.3382  0.0064  0.9525
 3011SOL    HW120669   0.658   0.053   5.894 -2.0762 -2.8894 -2.7768
 3011SOL    HW220670   0.605   4.732   6.019 -0.6105 -0.0927  1.2338
 3012SOL     OW20671   3.783   2.361  10.317  0.3849  1.0432 -0.1275
 3012SOL    HW120672   3.781   2.418  10.240 -0.1242 -0.6745 -1.3731
 3012SOL    HW220673   3.689   2.356  10.336  0.4236  0.9976  0.0492
 3013SOL     OW20674   1.195   2.294   4.410  0.0991 -0.4178  0.1859
 3013SOL    HW120675   1.129   2.278   4.477 -1.3137  0.9637 -0.8699
 3013SOL    HW220676   1.256   2.356   4.451  0.9756 -1.6601  0.7672
 3014SOL     OW20677   0.901   3.083   5.347 -0.0870  0.0416  0.6634
 3014SOL    HW120678   0.975   3.128   5.306 -0.7816 -0.1988 -0.8598
 3014SOL    HW220679   0.919   2.994   5.317 -3.5888 -0.2587 -0.5814
 3015SOL     OW20680   3.638   0.581   7.663  0.2661 -0.0620 -0.3267
 3015SOL    HW120681   3.561   0.586   7.607 -0.6361 -1.0479  0.8173
 3015SOL    HW220682   3.604   0.509   7.717  1.2249  1.9527  3.0088
 3016SOL     OW20683   0.541   0.954   3.840 -0.7782 -0.1626 -0.1925
 3016SOL    HW120684   0.634   0.939   3.824 -0.6386  0.0156  0.4700
 3016SOL    HW220685   0.523   0.876   3.892  1.2040  0.8515  1.9956
 3017SOL     OW20686   4.697   2.995  12.220 -0.3183  0.0165 -0.5141
 3017SOL    HW120687   4.638   3.071  12.230  1.2122  1.0126  0.9112
 3017SOL    HW220688   4.740   3.004  12.135  1.1181  0.3750  0.2647
 3018SOL     OW20689   4.633   1.941  15.287  0.4200 -0.5957  0.2572
 3018SOL    HW120690   4.703   1.953  15.351 -0.8540 -0.5270  1.6325
 3018SOL    HW220691   4.676   1.959  15.203  1.6223  1.2442  1.2634
 3019SOL     OW20692   2.012   3.629   6.924  0.0619 -0.7708 -0.5101
 3019SOL    HW120693   2.039   3.667   7.007  0.5251 -2.6849  0.2238
 3019SOL    HW220694   2.080   3.563   6.913  0.3840 -0.5948  0.4367
 3020SOL     OW20695   3.245   4.445   2.434  0.4121 -0.0295  0.1314
 3020SOL    HW120696   3.308   4.397   2.488  0.8154  0.1766 -0.1528
 3020SOL    HW220697   3.258   4.533   2.469 -2.7977  0.3091  0.4447
 3021SOL     OW20698   1.991   3.660   4.127  0.2061 -0.0580 -0.3680
 3021SOL    HW120699   1.926   3.730   4.127  0.5044  0.2267  2.6749
 3021SOL    HW220700   2.003   3.639   4.035  1.7945 -1.0450  0.0511
 3022SOL     OW20701   0.502   3.764   4.503 -0.2340  0.2568 -0.2252
 3022SOL    HW120702   0.446   3.738   4.577  0.4284 -0.0792  0.1570
 3022SOL    HW220703   0.593   3.762   4.531 -0.8273 -2.9172  1.4705
 3023SOL     OW20704   1.640   1.064  10.909 -0.5659  0.3343 -0.6450
 3023SOL    HW120705   1.562   1.118  10.915  0.0252  1.1007 -0.0020
 3023SOL    HW220706   1.605   0.978  10.884 -0.7556  0.0953  0.4585
 3024SOL     OW20707   0.975   2.248   7.252 -0.4119  0.0193  0.2398
 3024SOL    HW120708   1.002   2.301   7.327 -0.5029 -0.7584  0.8109
 3024SOL    HW220709   0.972   2.320   7.188  1.4510 -0.3445 -0.2480
 3025SOL     OW20710   3.416   0.053   2.819  0.2166  0.0122  0.0761
 3025SOL    HW120711   3.356   0.127   2.804 -0.1841 -0.6331 -1.4644
 3025SOL    HW220712   3.368   0.012   2.891 -0.5636  0.0352 -0.4213
 3026SOL     OW20713   2.407   4.233   3.262  0.1167  0.3643  0.3776
 3026SOL    HW120714   2.455   4.157   3.295  0.3278 -0.1550 -1.1149
 3026SOL    HW220715   2.484   4.274   3.224  0.1457 -1.4267 -1.5105
 3027SOL     OW20716   2.987   1.356  15.364 -0.1374  0.0703  0.0615
 3027SOL    HW120717   2.971   1.414  15.438  4.1163  1.7962 -0.3360
 3027SOL    HW220718   3.038   1.415  15.308  0.3325 -0.2256  0.1786
 3028SOL     OW20719   1.951   3.280   5.941 -0.1064 -0.2033  0.2314
 3028SOL    HW120720   1.942   3.246   5.852  0.0831  1.2684 -0.3416
 3028SOL    HW220721   1.858   3.305   5.948  0.2418  0.4885  2.3378
 3029SOL     OW20722   1.285   4.165   4.747  0.4571  0.3884 -0.3731
 3029SOL    HW120723   1.255   4.193   4.661  0.6770  2.6486  0.2879
 3029SOL    HW220724   1.330   4.082   4.730  2.4061  1.4264 -0.2986
 3030SOL     OW20725   4.381   4.417   6.129 -0.0706  0.2020 -1.0528
 3030SOL    HW120726   4.369   4.323   6.115 -0.5870  0.2313 -0.8135
 3030SOL    HW220727   4.467   4.433   6.089  0.2257 -2.7778 -1.6206
 3031SOL     OW20728   0.461   3.143   2.426  0.1862 -0.0718  0.1345
 3031SOL    HW120729   0.390   3.117   2.485 -0.9590 -0.4449 -1.4103
 3031SOL    HW220730   0.507   3.059   2.413  0.8611  0.4651 -0.9075
 3032SOL     OW20731   2.398   0.541  17.101 -0.3072 -0.2726 -0.7682
 3032SOL    HW120732   2.395   0.446  17.093 -0.2199 -0.4474  1.3605
 3032SOL    HW220733   2.467   0.553  17.166 -0.1094 -0.0550 -1.0122
 3033SOL     OW20734   2.636   1.846   5.109  0.2604  0.2767  0.2652
 3033SOL    HW120735   2.648   1.753   5.127 -0.4325  0.5362  2.1266
 3033SOL    HW220736   2.659   1.841   5.016 -0.7558  0.8670 -0.0266
 3034SOL     OW20737   4.340   3.340   5.633  0.3801 -1.0832  0.3631
 3034SOL    HW120738   4.263   3.395   5.649  0.8889 -0.5074  0.8376
 3034SOL    HW220739   4.367   3.346   5.724  0.1019  0.7913  0.3167
 3035SOL     OW20740   1.902   3.166   6.195  0.4128  0.2164  0.6981
 3035SOL    HW120741   1.944   3.234   6.248  1.4992  0.1027 -0.0348
 3035SOL    HW220742   1.922   3.193   6.106 -1.0973 -1.3775 -0.1402
 3036SOL     OW20743   2.867   3.721   5.117 -0.2164 -0.3947 -0.0570
 3036SOL    HW120744   2.784   3.762   5.095 -0.3268  0.2309  1.5150
 3036SOL    HW220745   2.921   3.793   5.151 -0.9880 -0.9745  2.3783
 3037SOL     OW20746   2.692   2.761   2.229 -0.6239  0.6968  0.1057
 3037SOL    HW120747   2.677   2.694   2.296  1.3915  1.4722  1.3283
 3037SOL    HW220748   2.782   2.744   2.199 -1.4417 -3.3013 -0.1471
 3038SOL     OW20749   1.880   3.872   0.108  0.5177 -0.0964 -0.6047
 3038SOL    HW120750   1.923   3.831   0.033  0.0122 -2.1028  0.2154
 3038SOL    HW220751   1.820   3.932   0.064 -0.4515  0.3103  1.2365
 3039SOL     OW20752   2.723   1.339  15.895 -0.9833  0.3478 -0.1829
 3039SOL    HW120753   2.655   1.406  15.890 -0.1095  1.3302  1.0879
 3039SOL    HW220754   2.795   1.370  15.839 -1.3255  0.4600 -0.5583
 3040SOL     OW20755   3.446   1.915   3.809  0.3489  0.4547  0.1375
 3040SOL    HW120756   3.375   1.852   3.803 -0.1687  1.0211  0.3434
 3040SOL    HW220757   3.501   1.902   3.732  1.2521  0.8102  0.7074
 3041SOL     OW20758   2.422   1.294   1.738  0.1192  0.2798 -0.2650
 3041SOL    HW120759   2.402   1.220   1.681  1.5612  1.8278 -2.7719
 3041SOL    HW220760   2.490   1.253   1.792  0.9688 -0.6674 -2.0445
 3042SOL     OW20761   4.653   3.529   6.014  0.0675 -0.6146  0.4100
 3042SOL    HW120762   4.637   3.436   5.997 -0.3013 -0.3232 -0.8788
 3042SOL    HW220763   0.006   3.534   6.033  0.1767  1.1341 -0.5801
 3043SOL     OW20764   4.129   0.399  17.165  0.4554 -0.0867  0.1021
 3043SOL    HW120765   4.177   0.462  17.111  2.2739 -0.2769  1.4993
 3043SOL    HW220766   4.184   0.391  17.243 -0.3665  0.8037  0.7745
 3044SOL     OW20767   3.681   3.075   6.226 -0.1187  0.2078  0.0566
 3044SOL    HW120768   3.753   3.013   6.239  0.9854  0.8889 -2.6811
 3044SOL    HW220769   3.686   3.099   6.133 -1.9659  0.2332 -0.0493
 3045SOL     OW20770   1.842   0.148  17.753  0.8180 -0.3914  1.3040
 3045SOL    HW120771   1.850   0.055   0.012  1.8532 -0.5717 -0.0353
 3045SOL    HW220772   1.762   0.143  17.700  0.5339  0.9603  1.5926
 3046SOL     OW20773   0.314   0.634   6.305 -0.5260 -0.4224 -0.0274
 3046SOL    HW120774   0.254   0.659   6.374 -0.8865  0.9337 -0.8268
 3046SOL    HW220775   0.370   0.576   6.357 -1.2686 -0.9220  0.2065
 3047SOL     OW20776   1.207   3.392   8.832  0.0145  0.0216  0.4721
 3047SOL    HW120777   1.211   3.434   8.746 -0.3013 -1.4255 -0.2482
 3047SOL    HW220778   1.149   3.454   8.878  0.6973  0.6136  0.5313
 3048SOL     OW20779   0.150   1.647   4.231 -0.6116  0.5600 -0.6348
 3048SOL    HW120780   0.151   1.629   4.137  1.4440  0.2602 -0.5498
 3048SOL    HW220781   0.239   1.681   4.231 -0.5895  0.5031  0.2431
 3049SOL     OW20782   2.789   4.287   1.611 -0.1990 -0.1080  0.1598
 3049SOL    HW120783   2.828   4.320   1.692 -0.2970 -0.2888  0.2814
 3049SOL    HW220784   2.704   4.274   1.654 -1.0582  0.9809 -1.2071
 3050SOL     OW20785   3.101   2.927  15.178 -0.2375  0.1489 -0.1992
 3050SOL    HW120786   3.179   2.969  15.214 -0.6465  0.9595 -0.2558
 3050SOL    HW220787   3.118   2.839  15.212  1.2002 -0.9555 -3.8391
 3051SOL     OW20788   3.613   1.937  16.150  0.4988 -0.5427  0.2887
 3051SOL    HW120789   3.675   1.998  16.188 -0.3290 -0.9832  2.3702
 3051SOL    HW220790   3.539   1.998  16.155 -1.2761 -2.8191  2.2526
 3052SOL     OW20791   3.113   0.922   3.627  0.4684  0.0438 -0.0176
 3052SOL    HW120792   3.053   0.861   3.670 -0.9174  1.5373  0.1818
 3052SOL    HW220793   3.081   0.908   3.538  2.8339 -1.7207 -0.5985
 3053SOL     OW20794   2.246   1.468   2.843  0.6486  0.0957  0.2936
 3053SOL    HW120795   2.258   1.456   2.937  1.1248 -1.3208  0.0533
 3053SOL    HW220796   2.172   1.407   2.840  0.8909 -0.1645 -0.3821
 3054SOL     OW20797   4.041   0.783   5.193  0.1548  0.1412 -0.1148
 3054SOL    HW120798   4.009   0.733   5.118  2.7160 -0.9221 -0.5170
 3054SOL    HW220799   4.136   0.768   5.193  0.1908  0.3550  0.8175
 3055SOL     OW20800   1.705   3.091   0.715 -0.3317  0.3750  0.2765
 3055SOL    HW120801   1.624   3.136   0.690 -0.0692 -0.2888 -1.7258
 3055SOL    HW220802   1.770   3.158   0.696  0.0520  0.2322  1.0674
 3056SOL     OW20803   1.203   1.992   2.527  0.5920 -0.0375  0.4562
 3056SOL    HW120804   1.161   1.951   2.602 -0.7838  1.0182  0.2661
 3056SOL    HW220805   1.173   2.082   2.539 -0.3927 -0.2116 -0.6759
 3057SOL     OW20806   1.501   0.822   2.497 -0.3214 -0.2207  0.2681
 3057SOL    HW120807   1.431   0.885   2.485 -0.7362 -0.6958  0.2032
 3057SOL    HW220808   1.478   0.746   2.443 -2.3276 -0.1831  1.0677
 3058SOL     OW20809   2.112   0.564   6.917 -0.7474  0.9503  0.3191
 3058SOL    HW120810   2.150   0.508   6.985 -0.4914  0.7431  0.0053
 3058SOL    HW220811   2.145   0.516   6.841 -1.0536  2.0407 -0.4936
 3059SOL     OW20812   3.208   3.530   4.195  0.0315 -0.6168 -0.5572
 3059SOL    HW120813   3.258   3.467   4.248 -0.3304  1.8432  2.6721
 3059SOL    HW220814   3.281   3.552   4.137  2.7279 -1.0592  2.7041
 3060SOL     OW20815   4.233   3.642   4.294 -0.0933  0.6801 -0.3113
 3060SOL    HW120816   4.322   3.674   4.310  0.6084 -1.9134  0.8522
 3060SOL    HW220817   4.236   3.554   4.330  1.9913  1.2009  0.7909
 3061SOL     OW20818   2.064   4.372  10.171 -0.7203 -0.2133  0.0968
 3061SOL    HW120819   1.994   4.348  10.111 -0.0961 -1.3478 -0.1825
 3061SOL    HW220820   2.014   4.398  10.248 -2.4389  1.0409 -1.4559
 3062SOL     OW20821   4.620   4.290   3.920  0.0565 -0.9854 -0.1426
 3062SOL    HW120822   4.695   4.324   3.970  0.8285 -1.9113 -0.6669
 3062SOL    HW220823   4.596   4.221   3.982 -1.1104 -1.5165 -1.1921
 3063SOL     OW20824   0.305   2.632   6.663  0.0066  0.0372 -0.2377
 3063SOL    HW120825   0.271   2.555   6.618 -0.1745 -0.9593  1.5928
 3063SOL    HW220826   0.286   2.705   6.604  0.1757  0.2640 -0.0125
 3064SOL     OW20827   0.720   2.587   3.381 -0.0484  0.5826  0.2002
 3064SOL    HW120828   0.787   2.605   3.316  2.1867 -0.7381  2.1740
 3064SOL    HW220829   0.674   2.522   3.327 -0.8065  1.0653  0.2608
 3065SOL     OW20830   1.799   2.889   7.461 -0.0856 -0.1892 -0.1895
 3065SOL    HW120831   1.785   2.794   7.461 -0.2689 -0.1653  2.4253
 3065SOL    HW220832   1.723   2.910   7.408 -0.0840  0.0946 -0.0787
 3066SOL     OW20833   0.566   0.617  13.669 -0.2791  0.2894  0.0043
 3066SOL    HW120834   0.543   0.697  13.717 -0.4687 -0.1770  0.6829
 3066SOL    HW220835   0.539   0.640  13.580 -1.0355 -0.2249  0.1040
 3067SOL     OW20836   1.916   4.375   6.777  0.3896  0.8397  0.3780
 3067SOL    HW120837   1.891   4.283   6.787  0.8886  1.1060  4.1707
 3067SOL    HW220838   1.912   4.415   6.864 -0.6628  0.0321  0.6936
 3068SOL     OW20839   0.186   3.042  17.756 -0.8228  0.3690 -0.5047
 3068SOL    HW120840   0.128   3.013  17.686  1.4446 -1.2369 -1.7092
 3068SOL    HW220841   0.261   2.985  17.743 -0.5993  0.7077 -0.7063
 3069SOL     OW20842   2.374   3.835   4.160  0.8430  0.5681  0.1692
 3069SOL    HW120843   2.429   3.779   4.214 -0.1484 -1.8507 -1.3628
 3069SOL    HW220844   2.283   3.807   4.171  1.1589 -0.8341 -0.8038
 3070SOL     OW20845   3.001   0.440   3.810 -0.5088 -0.0022 -0.4030
 3070SOL    HW120846   2.906   0.425   3.813  0.1301 -4.2763 -0.3444
 3070SOL    HW220847   3.017   0.426   3.717  1.7135 -1.9266  0.2671
 3071SOL     OW20848   2.038   0.842   8.694 -0.1297 -0.4738  0.4743
 3071SOL    HW120849   2.008   0.887   8.615  1.8298  1.6495  0.9448
 3071SOL    HW220850   1.971   0.861   8.760 -1.0156 -0.2642 -0.4822
 3072SOL     OW20851   2.840   1.436   8.189 -0.0057 -0.1555 -0.5123
 3072SOL    HW120852   2.858   1.344   8.209  0.9379 -0.1696 -1.4439
 3072SOL    HW220853   2.919   1.459   8.141 -0.8295 -0.3212 -1.9560
 3073SOL     OW20854   0.404   0.424  10.465 -0.4583 -0.8903 -0.0481
 3073SOL    HW120855   0.454   0.457  10.539  1.5717 -2.3941 -0.7653
 3073SOL    HW220856   0.466   0.395  10.398 -1.7122 -0.0657 -1.6002
 3074SOL     OW20857   4.047   1.709   5.882 -0.7214 -0.0360 -0.2113
 3074SOL    HW120858   4.024   1.641   5.945  0.6072  0.2250  0.5557
 3074SOL    HW220859   4.013   1.785   5.930 -1.5833 -0.1311 -0.6694
 3075SOL     OW20860   2.282   1.124  10.317 -0.0400  0.7911 -0.2188
 3075SOL    HW120861   2.309   1.214  10.335  1.8687  0.0028  0.9490
 3075SOL    HW220862   2.224   1.143  10.244 -1.5394  0.2488  0.8350
 3076SOL     OW20863   2.281   0.373   4.011 -0.1076  0.4607  0.7647
 3076SOL    HW120864   2.263   0.390   4.104  2.0635  0.8625  1.1060
 3076SOL    HW220865   2.246   0.285   3.998 -1.3080  1.0866 -0.2888
 3077SOL     OW20866   0.449   4.294   4.223 -0.7033 -0.1222 -0.2869
 3077SOL    HW120867   0.429   4.205   4.253 -1.1233  0.5341  1.4268
 3077SOL    HW220868   0.531   4.306   4.270 -1.8911  0.4243  1.6625
 3078SOL     OW20869   0.528   3.077  16.393  0.2310 -0.0861 -0.0921
 3078SOL    HW120870   0.542   3.017  16.320  0.0169  0.3682 -0.5064
 3078SOL    HW220871   0.469   3.021  16.443 -1.0806 -0.0574 -1.6078
 3079SOL     OW20872   0.094   3.800   6.907 -0.7918  0.1515 -0.3536
 3079SOL    HW120873   0.101   3.892   6.933  1.3484 -0.3579  0.8647
 3079SOL    HW220874   0.140   3.749   6.975 -0.0571  0.6096 -0.5047
 3080SOL     OW20875   2.572   4.129  10.675 -0.0858 -0.4641 -0.2900
 3080SOL    HW120876   2.504   4.083  10.723 -0.9890  0.9551 -0.2101
 3080SOL    HW220877   2.588   4.084  10.592 -1.0510  1.4319 -1.5257
 3081SOL     OW20878   2.219   4.633  11.957 -0.5667  0.3251  0.0367
 3081SOL    HW120879   2.176   4.717  11.972 -1.1052  0.3168 -1.4589
 3081SOL    HW220880   2.264   4.659  11.877  1.0486 -2.1339  0.1491
 3082SOL     OW20881   2.795   1.117  12.413  0.4640 -0.3125  0.2980
 3082SOL    HW120882   2.861   1.049  12.428  0.6080  0.4037  3.0058
 3082SOL    HW220883   2.723   1.078  12.461  0.1243  0.7224  0.6461
 3083SOL     OW20884   3.023   1.901  14.997 -0.3575  0.0005 -0.4498
 3083SOL    HW120885   2.978   1.977  14.959 -0.7928 -1.2189 -2.3616
 3083SOL    HW220886   3.088   1.940  15.055 -0.8793  0.5742 -0.2482
 3084SOL     OW20887   3.425   0.078   5.844  0.0875 -0.0667 -0.5195
 3084SOL    HW120888   3.458   4.734   5.876 -1.0595 -1.3837 -2.8509
 3084SOL    HW220889   3.347   0.052   5.796 -3.1569  4.0416  2.5113
 3085SOL     OW20890   4.258   2.601   8.157  0.1941 -0.1473 -0.0826
 3085SOL    HW120891   4.198   2.674   8.175  1.3759  0.7129  0.3792
 3085SOL    HW220892   4.261   2.587   8.063 -0.7565  2.7566 -0.5506
 3086SOL     OW20893   2.849   4.090   6.844 -0.1102  0.2405 -0.1786
 3086SOL    HW120894   2.917   4.153   6.821 -0.6905  0.5832 -1.0028
 3086SOL    HW220895   2.793   4.089   6.766 -3.3396  0.2823  2.1399
 3087SOL     OW20896   1.623   2.734   3.722 -0.0648  0.3743  0.5273
 3087SOL    HW120897   1.580   2.652   3.747 -1.6611  1.7187  2.1953
 3087SOL    HW220898   1.581   2.769   3.644  0.4232 -2.6016 -1.0618
 3088SOL     OW20899   3.212   2.669   6.893  0.1101 -1.0489  0.3038
 3088SOL    HW120900   3.283   2.623   6.939 -0.2282  1.7084  3.6040
 3088SOL    HW220901   3.147   2.635   6.954 -0.4800 -2.0950 -0.9188
 3089SOL     OW20902   1.381   3.799   9.313 -0.0449  0.1263  0.3517
 3089SOL    HW120903   1.369   3.772   9.222 -2.9548  0.9244  0.5122
 3089SOL    HW220904   1.292   3.831   9.325 -0.3416 -0.6982  0.3495
 3090SOL     OW20905   3.256   4.100  11.919 -0.8426  0.3334 -0.2516
 3090SOL    HW120906   3.217   4.080  12.004  0.8005 -0.8936  0.2167
 3090SOL    HW220907   3.335   4.145  11.948 -0.1318  0.3228 -2.2110
 3091SOL     OW20908   0.279   2.241  15.495  0.0051 -0.4199 -0.1279
 3091SOL    HW120909   0.200   2.190  15.476 -0.6285 -0.5132  2.7681
 3091SOL    HW220910   0.350   2.180  15.476  1.0819  1.4361 -2.0950
 3092SOL     OW20911   1.909   0.949   5.966  0.2408  0.2572  0.5653
 3092SOL    HW120912   1.910   0.871   6.023 -1.2460  1.2730  1.9844
 3092SOL    HW220913   1.820   0.953   5.930  0.8481 -1.2514 -1.0956
 3093SOL     OW20914   0.335   2.937   9.753  0.4714  0.2527  0.2533
 3093SOL    HW120915   0.415   2.986   9.771  0.0179  0.6834  1.1182
 3093SOL    HW220916   0.281   2.992   9.810  1.0827  2.0173 -0.8488
 3094SOL     OW20917   1.839   3.183   6.630  0.1480 -0.2069  0.0708
 3094SOL    HW120918   1.808   3.157   6.543 -1.3906  2.5396 -0.2056
 3094SOL    HW220919   1.919   3.234   6.616  0.3921 -0.3957  0.7648
 3095SOL     OW20920   1.775   4.072  10.192  0.1701 -0.1790  0.4179
 3095SOL    HW120921   1.809   4.076  10.281 -0.0426 -1.0743  0.5403
 3095SOL    HW220922   1.684   4.090  10.215  0.1174  0.3283 -0.1863
 3096SOL     OW20923   1.529   2.710   8.454  0.4642 -0.0478  0.5348
 3096SOL    HW120924   1.537   2.737   8.362 -2.4227  0.9768  0.6049
 3096SOL    HW220925   1.515   2.797   8.491  0.8748  1.3708 -2.6397
 3097SOL     OW20926   3.075   3.980  12.103 -0.1803  0.2939 -0.1569
 3097SOL    HW120927   3.001   3.931  12.140  2.0871 -1.5412  1.9269
 3097SOL    HW220928   3.109   4.033  12.175  0.7891 -0.6757  0.0949
 3098SOL     OW20929   2.600   3.512   4.374  0.1234 -0.1651 -0.4992
 3098SOL    HW120930   2.673   3.522   4.435  0.0860 -1.7603 -0.1930
 3098SOL    HW220931   2.588   3.418   4.392 -1.8150  0.1684 -0.0077
 3099SOL     OW20932   1.352   0.436   1.683  0.6674 -0.0051  0.1401
 3099SOL    HW120933   1.288   0.505   1.698 -0.6423 -1.6103  1.8532
 3099SOL    HW220934   1.299   0.357   1.675  1.4397 -0.5869  0.7694
 3100SOL     OW20935   3.111   1.115   3.953  0.4404  0.3110  0.5683
 3100SOL    HW120936   3.063   1.127   4.035  1.9008 -0.3085  1.5064
 3100SOL    HW220937   3.038   1.112   3.891 -1.4319 -2.1032  2.8961
 3101SOL     OW20938   0.906   2.572   2.112  0.1105 -0.2303  0.2886
 3101SOL    HW120939   0.885   2.656   2.154 -1.9953 -0.6955  0.1498
 3101SOL    HW220940   0.926   2.601   2.023 -1.9588  0.7997  0.1543
 3102SOL     OW20941   0.066   4.135  11.200 -0.1506  0.2889 -0.4456
 3102SOL    HW120942   4.724   4.087  11.203 -0.2102  0.4011 -0.2413
 3102SOL    HW220943   0.116   4.099  11.127 -0.4288 -0.1219 -0.4340
 3103SOL     OW20944   0.204   1.872   2.369  0.4630 -0.1830  0.0730
 3103SOL    HW120945   0.125   1.841   2.326 -0.7177  2.2769  0.4273
 3103SOL    HW220946   0.216   1.962   2.338  0.6374 -0.5293 -0.8549
 3104SOL     OW20947   3.752   3.760   2.135 -0.1868  0.0350  0.6358
 3104SOL    HW120948   3.847   3.771   2.126 -0.0105 -1.3449  0.7745
 3104SOL    HW220949   3.729   3.850   2.156  0.6483  0.7140 -1.3194
 3105SOL     OW20950   2.301   4.727  15.494  0.3020 -0.1646  0.0609
 3105SOL    HW120951   2.336   0.052  15.434  1.1414 -1.5845 -1.0106
 3105SOL    HW220952   2.384   4.681  15.500 -0.1887 -1.2627 -1.5349
 3106SOL     OW20953   0.235   1.810   4.551 -0.2297 -0.1814  0.6039
 3106SOL    HW120954   0.198   1.722   4.546 -1.3949  0.3077  0.5401
 3106SOL    HW220955   0.311   1.783   4.500 -0.2971  1.1551 -0.2040
 3107SOL     OW20956   4.366   2.269   3.410 -0.4091 -0.3292  0.7483
 3107SOL    HW120957   4.392   2.202   3.474 -1.1725 -0.0755  1.3214
 3107SOL    HW220958   4.285   2.301   3.449  0.1507  1.3800  0.4788
 3108SOL     OW20959   1.662   2.767   4.766  0.2616 -0.1189 -0.1886
 3108SOL    HW120960   1.624   2.855   4.770  1.0295  0.2151 -0.3150
 3108SOL    HW220961   1.689   2.768   4.674  0.4839 -3.3616 -0.1636
 3109SOL     OW20962   2.071   3.406   7.532  0.3854  0.4506  0.3983
 3109SOL    HW120963   2.106   3.486   7.493  1.6821 -0.3909 -0.1588
 3109SOL    HW220964   1.979   3.431   7.524  0.2803 -0.1697 -0.2982
 3110SOL     OW20965   0.906   2.538   2.997  0.4425  0.4126 -0.1748
 3110SOL    HW120966   0.933   2.592   3.072 -1.4526  3.8063 -1.9236
 3110SOL    HW220967   0.867   2.464   3.044  2.4468 -2.3223 -2.8600
 3111SOL     OW20968   3.209   3.173   9.599 -0.1623  0.0444  0.3893
 3111SOL    HW120969   3.270   3.149   9.530 -1.3547  2.5302 -1.5571
 3111SOL    HW220970   3.136   3.127   9.559  0.9710 -1.9382  0.6041
 3112SOL     OW20971   1.278   4.263   2.304  0.0286 -0.2775 -0.3597
 3112SOL    HW120972   1.291   4.332   2.368 -1.4197  0.0646 -0.4322
 3112SOL    HW220973   1.366   4.242   2.273 -0.4672 -0.3836 -1.6959
 3113SOL     OW20974   4.056   4.641  11.551  0.3464 -0.1647 -0.2441
 3113SOL    HW120975   3.978   4.696  11.545  0.8625  0.8779  2.4128
 3113SOL    HW220976   4.126   4.702  11.577 -0.0034  0.2059 -0.1746
 3114SOL     OW20977   3.927   2.928  13.089 -0.2626  0.4179 -0.3080
 3114SOL    HW120978   3.838   2.893  13.087 -0.3723  0.7318 -1.2611
 3114SOL    HW220979   3.919   2.994  13.020  3.3452  2.0544  0.8364
 3115SOL     OW20980   4.241   3.334   9.570  1.4691  0.7669 -0.5315
 3115SOL    HW120981   4.152   3.314   9.598  1.6407 -0.4386 -0.8540
 3115SOL    HW220982   4.237   3.426   9.596  2.5299  0.6559  0.0444
 3116SOL     OW20983   3.912   1.155   3.989  0.0707  0.0455 -0.5734
 3116SOL    HW120984   3.833   1.175   4.038  1.8492 -0.2020  2.4086
 3116SOL    HW220985   3.911   1.207   3.909 -1.8446 -1.0451 -1.2523
 3117SOL     OW20986   2.103   3.313   8.463 -0.5751 -0.0094 -0.4312
 3117SOL    HW120987   2.110   3.307   8.368  1.1562  1.6986 -0.3882
 3117SOL    HW220988   2.074   3.403   8.474  3.6727  1.2251  0.6164
 3118SOL     OW20989   0.287   2.667   8.543  0.2305 -0.8199  0.4635
 3118SOL    HW120990   0.352   2.651   8.611 -1.9866 -0.6861  2.6063
 3118SOL    HW220991   0.322   2.601   8.482  2.3400  1.5269 -0.9136
 3119SOL     OW20992   1.402   2.327  11.989  0.3831  0.0371 -0.5360
 3119SOL    HW120993   1.387   2.269  11.914  1.5761 -3.0335  1.5789
 3119SOL    HW220994   1.465   2.392  11.959  1.0012 -0.5469 -0.5013
 3120SOL     OW20995   4.450   2.700   2.978  0.2592 -0.2826  0.0787
 3120SOL    HW120996   4.513   2.709   2.907  0.3333  1.5874  0.3747
 3120SOL    HW220997   4.413   2.786   2.999  0.2085 -0.6747  1.5815
 3121SOL     OW20998   2.540   0.192   5.008  1.0902 -0.6497  0.3160
 3121SOL    HW120999   2.569   0.135   5.079  0.7171 -0.2974  0.7523
 3121SOL    HW221000   2.562   0.273   5.054 -0.3755  0.1190 -0.3262
 3122SOL     OW21001   2.248   2.350   0.134  0.5147  0.0285  0.1020
 3122SOL    HW121002   2.317   2.399   0.177 -0.5029  0.8558  0.8035
 3122SOL    HW221003   2.216   2.285   0.197 -2.3379 -1.5096 -2.9282
 3123SOL     OW21004   3.156   3.436   9.624 -1.1250 -0.0030 -0.0157
 3123SOL    HW121005   3.236   3.471   9.584 -0.4013 -0.7673  0.7842
 3123SOL    HW221006   3.178   3.343   9.623  0.2870  0.3139  2.4161
 3124SOL     OW21007   1.197   2.606   2.061  0.1680 -0.6790  0.2567
 3124SOL    HW121008   1.136   2.643   2.125  1.4042  1.3771  0.2312
 3124SOL    HW221009   1.222   2.535   2.121  2.2187 -0.9256 -0.8857
 3125SOL     OW21010   4.130   3.103   2.388  0.3093  0.0724 -0.1740
 3125SOL    HW121011   4.170   3.189   2.372 -1.0156  0.6736 -0.2363
 3125SOL    HW221012   4.208   3.048   2.396  0.8575  1.0342  1.0962
 3126SOL     OW21013   1.706   1.334   8.998 -0.4986  0.2088  0.0149
 3126SOL    HW121014   1.729   1.364   8.910 -0.2895 -1.6879 -0.5724
 3126SOL    HW221015   1.780   1.362   9.052 -0.6170 -1.1095  0.8742
 3127SOL     OW21016   2.626   1.816   8.839  0.0418 -0.7479 -0.3052
 3127SOL    HW121017   2.678   1.798   8.917  3.3645  0.6616 -2.1768
 3127SOL    HW221018   2.635   1.735   8.788 -2.2671 -0.4258 -1.2132
 3128SOL     OW21019   1.871   2.433   8.328 -0.2869 -0.3242 -0.3368
 3128SOL    HW121020   1.880   2.436   8.233 -0.8603 -1.5233 -0.4227
 3128SOL    HW221021   1.949   2.479   8.359 -0.6524  1.0850 -1.4975
 3129SOL     OW21022   2.684   4.011   4.675 -0.2714  0.1841  0.3247
 3129SOL    HW121023   2.661   3.931   4.627  0.3270 -0.7062  1.4992
 3129SOL    HW221024   2.608   4.067   4.660  0.2516  0.5625 -0.9088
 3130SOL     OW21025   1.982   0.823   7.176 -0.0372  0.0760 -0.4392
 3130SOL    HW121026   1.995   0.910   7.213  1.8833 -0.1693 -0.5361
 3130SOL    HW221027   1.962   0.771   7.254 -1.4326 -1.1610 -1.6464
 3131SOL     OW21028   2.642   0.997   2.184 -0.5550 -0.4832  0.1641
 3131SOL    HW121029   2.668   0.919   2.135 -0.4792 -1.0089  1.0304
 3131SOL    HW221030   2.550   1.002   2.155 -0.1182  0.9634 -0.9204
 3132SOL     OW21031   2.238   3.484   4.645  0.1508 -0.2150  0.3544
 3132SOL    HW121032   2.143   3.496   4.643  0.2548  0.5456  0.3379
 3132SOL    HW221033   2.253   3.518   4.557  0.3915 -1.4848 -0.1068
 3133SOL     OW21034   3.853   1.437   2.328  0.4189 -0.1536 -0.0453
 3133SOL    HW121035   3.811   1.411   2.410 -0.0662 -0.1096 -0.2756
 3133SOL    HW221036   3.776   1.429   2.271 -0.2433 -1.4615  1.0373
 3134SOL     OW21037   4.377   1.190   2.543 -1.0381  0.1978 -0.3951
 3134SOL    HW121038   4.415   1.230   2.464 -0.5986  0.4542 -0.0544
 3134SOL    HW221039   4.342   1.267   2.588  0.5130  0.3497  0.5354
 3135SOL     OW21040   3.229   0.819  13.657  0.3273 -0.6629 -0.2496
 3135SOL    HW121041   3.285   0.883  13.614 -0.2696  0.5286  0.7539
 3135SOL    HW221042   3.160   0.874  13.695 -1.2399 -2.1300 -0.9940
 3136SOL     OW21043   3.412   3.926   3.613 -0.8715  0.0084 -0.0753
 3136SOL    HW121044   3.411   3.832   3.635 -2.2280  0.3621  1.3366
 3136SOL    HW221045   3.491   3.915   3.560 -1.4856 -1.7440 -0.6232
 3137SOL     OW21046   2.922   4.678   3.573  0.1370  0.2168 -0.2888
 3137SOL    HW121047   2.850   4.733   3.601  2.4896  3.1250  0.0608
 3137SOL    HW221048   2.973   0.004   3.525 -0.4676  1.4671  0.8153
 3138SOL     OW21049   2.699   2.721  15.495 -0.3749  0.4681 -0.2262
 3138SOL    HW121050   2.604   2.730  15.502 -0.4101  0.6272 -0.8996
 3138SOL    HW221051   2.703   2.629  15.522  0.7250  1.2070  2.0744
 3139SOL     OW21052   3.421   0.125   5.236 -0.4635 -0.7198  0.7937
 3139SOL    HW121053   3.466   0.068   5.174 -0.5200 -0.5800  0.6251
 3139SOL    HW221054   3.346   0.070   5.258 -0.4826 -0.6679  0.8584
 3140SOL     OW21055   1.776   4.717   7.821 -0.5151 -0.1279 -0.3787
 3140SOL    HW121056   1.685   0.005   7.828 -0.7043 -0.8572  0.1252
 3140SOL    HW221057   1.785   4.726   7.726  3.2801 -1.3318 -0.1247
 3141SOL     OW21058   1.205   0.840   5.644  0.3136 -0.3895 -0.2902
 3141SOL    HW121059   1.133   0.777   5.654 -0.1579  0.2038  0.0771
 3141SOL    HW221060   1.234   0.842   5.736 -0.6019 -0.2302 -0.0016
 3142SOL     OW21061   1.936   2.564  11.150  0.0944 -0.5822 -0.1343
 3142SOL    HW121062   1.882   2.495  11.187 -0.5023  0.0291  0.1455
 3142SOL    HW221063   2.001   2.503  11.114  0.5166 -0.0279 -0.3300
 3143SOL     OW21064   0.178   3.667   2.077 -0.5521 -0.2454 -0.1208
 3143SOL    HW121065   0.164   3.748   2.028  0.7151  1.2459  2.0241
 3143SOL    HW221066   0.138   3.682   2.163  1.0233 -1.8549  0.8816
 3144SOL     OW21067   0.354   4.124   3.101  0.2301 -0.6003  0.0504
 3144SOL    HW121068   0.436   4.168   3.124  0.0982 -0.4561  0.2437
 3144SOL    HW221069   0.316   4.178   3.032  2.6544 -2.0424 -2.4067
 3145SOL     OW21070   0.203   0.888   7.147 -0.5785  0.1023  0.3397
 3145SOL    HW121071   0.201   0.895   7.243 -0.0424  0.3542  0.3257
 3145SOL    HW221072   0.164   0.974   7.132  0.8076  0.6993  0.2551
 3146SOL     OW21073   2.682   3.912   4.232  0.3701  0.3348  0.5522
 3146SOL    HW121074   2.764   3.889   4.275  1.8458  0.8979 -1.9089
 3146SOL    HW221075   2.657   3.826   4.198  2.2666  0.0370 -0.1062
 3147SOL     OW21076   1.707   3.023   2.428  0.2211 -0.3148 -0.2012
 3147SOL    HW121077   1.787   2.986   2.393  0.4530  0.9273 -0.9815
 3147SOL    HW221078   1.644   3.009   2.357 -1.6723  1.7888  1.0610
 3148SOL     OW21079   0.178   1.854   1.967 -0.1891 -0.1527  0.7430
 3148SOL    HW121080   0.086   1.829   1.970 -0.3337  0.4326  1.2233
 3148SOL    HW221081   0.172   1.948   1.955 -0.7253 -0.2737  0.1007
 3149SOL     OW21082   4.630   1.437   5.097  0.6815  0.8296  0.6975
 3149SOL    HW121083   4.649   1.463   5.007 -1.0734 -1.3747 -0.3276
 3149SOL    HW221084   4.602   1.515   5.144 -0.5686  1.1194 -0.5450
 3150SOL     OW21085   3.149   2.646   8.501 -0.2189  0.1979 -0.9331
 3150SOL    HW121086   3.087   2.584   8.463  0.1935 -0.0381 -1.2274
 3150SOL    HW221087   3.217   2.584   8.530  1.0139  1.4032 -1.2596
 3151SOL     OW21088   2.544   2.999   2.100 -0.2215  0.0467 -0.0345
 3151SOL    HW121089   2.627   3.026   2.061 -1.7655  1.0682 -2.5859
 3151SOL    HW221090   2.571   2.934   2.165  1.4879  1.4640  0.6788
 3152SOL     OW21091   2.521   0.095  10.225  0.9068 -0.0782 -0.2056
 3152SOL    HW121092   2.610   0.071  10.250  0.9015 -1.7608 -1.8734
 3152SOL    HW221093   2.513   0.071  10.133  0.9019 -3.4318  0.6985
 3153SOL     OW21094   1.742   0.547   5.917  0.3521 -0.1320 -0.6559
 3153SOL    HW121095   1.674   0.481   5.902  1.3058 -0.6909 -2.5301
 3153SOL    HW221096   1.758   0.575   5.827 -0.6406  0.0581 -0.7716
 3154SOL     OW21097   3.284   4.562  12.705  0.0349 -0.0959  0.2157
 3154SOL    HW121098   3.305   4.654  12.689 -2.5053  0.4124 -0.1727
 3154SOL    HW221099   3.360   4.537  12.758  0.3905  1.4998  0.4572
 3155SOL     OW21100   4.349   1.348   9.330  0.1397  0.0840  0.2984
 3155SOL    HW121101   4.425   1.315   9.378  1.3377  0.4987 -1.3027
 3155SOL    HW221102   4.299   1.403   9.390 -1.7940  0.9975 -2.1262
 3156SOL     OW21103   4.363   0.903   6.285  0.2221 -0.1332 -0.2912
 3156SOL    HW121104   4.363   0.868   6.196 -0.2142 -1.9041  0.4090
 3156SOL    HW221105   4.279   0.948   6.282  1.1647  1.6977  0.3471
 3157SOL     OW21106   4.101   2.330   8.015  0.3138 -0.0040 -0.2424
 3157SOL    HW121107   4.156   2.376   7.952  1.8359  0.6388  1.5648
 3157SOL    HW221108   4.074   2.407   8.064  1.0808  0.0564  0.0802
 3158SOL     OW21109   3.271   4.139  17.537  0.1784 -0.2542 -0.2245
 3158SOL    HW121110   3.225   4.059  17.511  3.0759 -1.5281 -1.4282
 3158SOL    HW221111   3.349   4.094  17.570  0.7094  1.4445  0.8354
 3159SOL     OW21112   4.132   1.695   6.430 -0.0620 -0.0298  0.7103
 3159SOL    HW121113   4.097   1.637   6.362  2.1464 -1.5705  0.8833
 3159SOL    HW221114   4.223   1.666   6.427 -0.7259 -1.8631 -1.6314
 3160SOL     OW21115   2.154   0.340   8.847  0.3737 -0.5809 -0.2189
 3160SOL    HW121116   2.191   0.321   8.760 -0.0807  2.4213 -1.0537
 3160SOL    HW221117   2.064   0.359   8.821  0.5706 -0.6147 -0.9273
 3161SOL     OW21118   3.413   1.170   2.704 -0.0307  0.0151 -0.3191
 3161SOL    HW121119   3.390   1.100   2.644  0.6957 -0.0860 -0.4750
 3161SOL    HW221120   3.330   1.201   2.742  1.0333  2.8879 -0.2921
 3162SOL     OW21121   2.270   1.979   8.208  0.5334 -0.0825 -0.5841
 3162SOL    HW121122   2.312   1.895   8.226  0.9117  0.1560 -0.3671
 3162SOL    HW221123   2.232   1.971   8.120  2.9141  0.5096 -1.6693
 3163SOL     OW21124   0.948   0.014   8.136  0.2650 -0.0729  0.2373
 3163SOL    HW121125   0.919   0.038   8.048 -1.1486 -0.4225  0.5998
 3163SOL    HW221126   1.023   0.073   8.135  0.4804 -0.4117 -2.2335
 3164SOL     OW21127   4.729   3.437   9.143  0.1244  0.3361 -0.0578
 3164SOL    HW121128   4.694   3.521   9.114  2.5767  1.2261 -0.4109
 3164SOL    HW221129   0.083   3.451   9.155  0.2593 -1.5470  1.1911
 3165SOL     OW21130   0.077   1.253   5.150  0.3902  0.1818  0.0631
 3165SOL    HW121131   4.740   1.306   5.130 -0.2715 -0.9321 -0.3337
 3165SOL    HW221132   0.046   1.201   5.225  2.5520 -2.3697 -0.7944
 3166SOL     OW21133   0.172   1.530   3.415  0.1869 -0.3774 -0.2229
 3166SOL    HW121134   0.083   1.563   3.401 -0.4640 -1.5032  1.2449
 3166SOL    HW221135   0.221   1.609   3.389  0.0531  0.4177  1.9614
 3167SOL     OW21136   0.181   4.506   2.884 -0.1057  0.4345 -0.1091
 3167SOL    HW121137   0.167   4.600   2.875 -0.5077  0.4232  0.4266
 3167SOL    HW221138   0.110   4.482   2.943  0.1961 -2.5210 -0.9174
 3168SOL     OW21139   2.640   2.124  12.842  0.2325  0.2390 -0.6501
 3168SOL    HW121140   2.723   2.148  12.801  0.1844  1.0993 -0.2335
 3168SOL    HW221141   2.672   2.043  12.883 -0.2593  0.1324 -0.4701
 3169SOL     OW21142   2.585   0.347   9.951 -0.5281 -0.1458  0.4656
 3169SOL    HW121143   2.534   0.371  10.028  0.6664 -0.9044  1.4915
 3169SOL    HW221144   2.640   0.422   9.930  0.2655 -0.8408  0.0489
 3170SOL     OW21145   3.273   1.618   6.893 -0.3972 -0.4474  0.6128
 3170SOL    HW121146   3.349   1.600   6.948 -0.3916  0.8039  1.0206
 3170SOL    HW221147   3.210   1.617   6.964 -1.5581  3.7708 -0.3454
 3171SOL     OW21148   1.177   4.162   5.937 -0.0424 -0.1539  0.0352
 3171SOL    HW121149   1.191   4.111   5.858  2.4152 -1.5222  1.3507
 3171SOL    HW221150   1.083   4.145   5.940  0.1279 -0.8671  1.3865
 3172SOL     OW21151   2.315   0.663   2.947 -0.5942  0.0491 -0.6058
 3172SOL    HW121152   2.254   0.737   2.957  1.4562  1.5843  0.8230
 3172SOL    HW221153   2.294   0.651   2.855 -0.0237  0.2323 -0.7574
 3173SOL     OW21154   1.901   1.423   6.579 -0.0057  0.0965 -0.2877
 3173SOL    HW121155   1.814   1.454   6.602 -0.6510 -2.1770  0.3181
 3173SOL    HW221156   1.873   1.343   6.534  1.2836  0.0519 -1.0262
 3174SOL     OW21157   0.656   2.459   4.749  0.0111  0.1252 -0.0651
 3174SOL    HW121158   0.672   2.550   4.722 -0.4071  0.1090 -0.3683
 3174SOL    HW221159   0.745   2.435   4.776 -0.0553 -1.4068 -1.1988
 3175SOL     OW21160   0.576   0.388   6.477  0.3485  0.6563  0.1869
 3175SOL    HW121161   0.651   0.329   6.479  0.2716  0.5542  0.0293
 3175SOL    HW221162   0.518   0.339   6.419  1.2194 -0.1792  0.0223
 3176SOL     OW21163   3.645   2.188  11.884  0.4037 -0.4066  0.0616
 3176SOL    HW121164   3.552   2.169  11.873  0.3766 -0.1340 -0.1738
 3176SOL    HW221165   3.665   2.180  11.977  0.8035  1.2931  0.1356
 3177SOL     OW21166   0.684   1.942  12.831  0.2069  0.5770  0.3645
 3177SOL    HW121167   0.634   1.932  12.750  1.2131 -1.4409 -0.0042
 3177SOL    HW221168   0.612   1.952  12.893 -0.2105  0.1078 -0.0458
 3178SOL     OW21169   1.383   3.961   3.265 -0.1469 -0.4967 -0.5635
 3178SOL    HW121170   1.437   3.973   3.187  0.2883 -0.7613 -0.3032
 3178SOL    HW221171   1.295   3.965   3.227 -0.8890  0.0763  1.2213
 3179SOL     OW21172   4.277   1.046   8.245 -0.0886 -0.0955 -0.2948
 3179SOL    HW121173   4.268   1.105   8.320 -0.7120  1.1483 -1.3479
 3179SOL    HW221174   4.202   0.986   8.252  0.5748 -0.8979 -0.0556
 3180SOL     OW21175   0.042   2.133   7.923 -0.3318 -0.0178  0.2609
 3180SOL    HW121176   0.080   2.217   7.898 -2.1805  0.5064 -0.8592
 3180SOL    HW221177   4.724   2.156   7.995 -2.7470  1.5622 -2.1954
 3181SOL     OW21178   3.358   1.565   6.398  0.1173 -0.0153 -0.4265
 3181SOL    HW121179   3.388   1.507   6.468 -1.8541  1.5028  1.6578
 3181SOL    HW221180   3.424   1.634   6.403 -0.2156  0.3057 -0.4109
 3182SOL     OW21181   3.934   4.625   7.834 -0.4999  0.9087  0.0803
 3182SOL    HW121182   3.919   4.680   7.757  0.2908  0.8865 -0.0974
 3182SOL    HW221183   3.862   4.643   7.894 -0.9918 -1.1248  0.0921
 3183SOL     OW21184   4.155   4.046   8.965 -0.5492  0.5084 -0.0702
 3183SOL    HW121185   4.136   4.088   8.881  1.4321  1.8912  0.1756
 3183SOL    HW221186   4.250   4.060   8.971 -0.3519 -0.7849 -0.0910
 3184SOL     OW21187   1.245   4.491   8.514 -0.0950 -0.6926 -1.0149
 3184SOL    HW121188   1.200   4.409   8.535  1.4701 -1.5900 -1.1813
 3184SOL    HW221189   1.196   4.553   8.568  0.8181  0.5632 -1.6264
 3185SOL     OW21190   4.531   2.180   1.945  0.1621  0.5412 -0.8258
 3185SOL    HW121191   4.501   2.091   1.964  0.3173  0.6629 -0.0080
 3185SOL    HW221192   4.492   2.229   2.018  0.4973  1.3371 -1.1892
 3186SOL     OW21193   3.808   3.664  16.911 -0.1076 -0.1352 -0.4406
 3186SOL    HW121194   3.751   3.587  16.911 -0.2745 -0.0152 -2.2351
 3186SOL    HW221195   3.749   3.739  16.898  1.0571  0.6981 -0.8484
 3187SOL     OW21196   4.591   2.981  14.531 -0.4332  0.0348 -0.0249
 3187SOL    HW121197   4.589   3.057  14.473  1.0576 -0.8048 -1.1980
 3187SOL    HW221198   4.539   3.028  14.595  0.1301  1.7338 -0.8257
 3188SOL     OW21199   2.778   1.431  14.214  0.5241  0.4778 -0.7519
 3188SOL    HW121200   2.683   1.438  14.218  0.5576 -0.2960  1.7248
 3188SOL    HW221201   2.800   1.524  14.216  4.0384 -0.3730  0.0836
 3189SOL     OW21202   2.033   2.752   5.568  0.4152  0.0736 -0.3727
 3189SOL    HW121203   2.005   2.796   5.648 -1.0512 -1.4975 -0.0329
 3189SOL    HW221204   2.024   2.658   5.583 -0.8195 -0.0336 -1.7710
 3190SOL     OW21205   1.781   2.691   6.155 -0.4248 -0.6142  0.4051
 3190SOL    HW121206   1.736   2.719   6.075 -0.0100 -3.2234 -0.7750
 3190SOL    HW221207   1.847   2.759   6.167 -2.3090  0.9796  1.5121
 3191SOL     OW21208   3.998   0.368   8.455  0.2385  0.3210 -0.2162
 3191SOL    HW121209   3.969   0.334   8.539 -0.9197  0.6503 -0.4793
 3191SOL    HW221210   4.027   0.453   8.486 -0.1898  0.5489 -0.4343
 3192SOL     OW21211   4.468   1.668   5.668 -0.5019 -0.5044 -0.1496
 3192SOL    HW121212   4.443   1.606   5.735 -1.2707 -1.1152 -1.0073
 3192SOL    HW221213   4.382   1.700   5.640 -0.3711  0.3614  0.4156
 3193SOL     OW21214   1.609   3.549   7.256  0.2983 -0.2444  0.0138
 3193SOL    HW121215   1.547   3.559   7.183 -1.2752 -2.2118  1.1030
 3193SOL    HW221216   1.604   3.638   7.290  1.4599 -0.6532  1.2198
 3194SOL     OW21217   2.654   0.591   2.910  0.6228  0.6293  0.3293
 3194SOL    HW121218   2.599   0.661   2.874  0.7149  0.2984 -0.4519
 3194SOL    HW221219   2.717   0.601   2.838 -2.7426 -0.1622 -2.7019
 3195SOL     OW21220   1.867   3.676  13.384 -0.2586  0.0294  0.1426
 3195SOL    HW121221   1.826   3.684  13.470 -0.1017  0.1577  0.2055
 3195SOL    HW221222   1.952   3.717  13.401  0.2034 -0.3484 -1.2717
 3196SOL     OW21223   3.952   0.110   7.391  0.2461  0.3459  0.5435
 3196SOL    HW121224   3.933   0.061   7.311 -0.3144 -1.5945  1.8751
 3196SOL    HW221225   3.950   0.196   7.348  2.0995 -0.3439 -0.9425
 3197SOL     OW21226   3.168   2.927   5.704 -0.4463 -0.1574  0.5274
 3197SOL    HW121227   3.222   2.859   5.664  1.3037  0.3988  1.9448
 3197SOL    HW221228   3.225   2.957   5.775 -0.0460  1.0352 -0.2850
 3198SOL     OW21229   1.910   1.225   9.595 -0.3234 -0.5472  0.3122
 3198SOL    HW121230   1.844   1.292   9.614  0.3895  0.6441 -1.4084
 3198SOL    HW221231   1.978   1.242   9.659  0.0256  2.3899 -0.8274
 3199SOL     OW21232   4.214   4.177   8.612  0.3791 -0.1184  0.4015
 3199SOL    HW121233   4.276   4.136   8.551  0.1726 -1.2676  0.9614
 3199SOL    HW221234   4.238   4.270   8.606  3.6091 -0.6914  4.3804
 3200SOL     OW21235   2.537   0.140   7.489 -0.2404 -0.2993  0.4104
 3200SOL    HW121236   2.500   0.067   7.540  1.1660 -1.0947  0.3011
 3200SOL    HW221237   2.570   0.194   7.561 -0.0401  0.6131 -0.3612
 3201SOL     OW21238   2.542   3.782   4.587  0.3971  0.2468 -0.9295
 3201SOL    HW121239   2.560   3.727   4.662 -2.9767  0.6846  0.2369
 3201SOL    HW221240   2.446   3.793   4.588  0.5753  1.8324  0.0056
 3202SOL     OW21241   1.637   0.754   3.866  0.1447  0.4730 -0.2021
 3202SOL    HW121242   1.678   0.714   3.943 -3.8604 -1.0758  1.1496
 3202SOL    HW221243   1.713   0.795   3.826  0.3610 -0.4746 -0.7698
 3203SOL     OW21244   0.392   2.602   5.312  0.8366  0.3812 -0.0359
 3203SOL    HW121245   0.305   2.636   5.332  0.7048 -0.2753  0.5116
 3203SOL    HW221246   0.373   2.541   5.241 -0.7665  0.3511  0.4191
 3204SOL     OW21247   3.142   3.304   6.558  0.4574 -0.6143 -0.4208
 3204SOL    HW121248   3.063   3.356   6.566  0.6641 -0.2824 -0.5453
 3204SOL    HW221249   3.125   3.229   6.616  0.6892  0.0364  0.4823
 3205SOL     OW21250   0.944   0.132   2.725  0.2165  0.3781  0.1970
 3205SOL    HW121251   0.953   0.174   2.639  0.1133 -2.9400 -1.4793
 3205SOL    HW221252   1.022   0.077   2.739 -0.3367 -0.2714  0.7052
 3206SOL     OW21253   0.245   1.914   7.902  0.0450 -0.8862  0.1426
 3206SOL    HW121254   0.202   1.907   7.987 -0.9913  2.0307 -0.1590
 3206SOL    HW221255   0.198   1.990   7.868  0.9068  1.0982  3.3537
 3207SOL     OW21256   2.212   3.613   5.205 -0.2133  0.5959 -0.3424
 3207SOL    HW121257   2.181   3.534   5.160  2.7814 -0.2288 -1.0031
 3207SOL    HW221258   2.262   3.668   5.144  0.9611 -1.5518 -1.3652
 3208SOL     OW21259   1.183   4.658   4.416 -0.1281  0.2174 -0.6699
 3208SOL    HW121260   1.154   4.709   4.492 -0.3196 -1.6585  0.5144
 3208SOL    HW221261   1.136   4.576   4.425  0.3090 -0.2766 -2.8625
 3209SOL     OW21262   0.988   0.004  11.001  0.1515 -0.3714  0.0899
 3209SOL    HW121263   0.921   4.686  11.037 -0.3240  1.1116  1.6359
 3209SOL    HW221264   0.935   0.083  10.999 -1.2139 -1.3698 -3.2854
 3210SOL     OW21265   1.525   1.075   2.943 -0.0075 -0.0673  0.3918
 3210SOL    HW121266   1.486   1.152   2.902  0.1023 -0.2746 -0.0947
 3210SOL    HW221267   1.529   1.015   2.869 -0.6501  0.6150 -0.1995
 3211SOL     OW21268   0.685   0.345   5.149 -0.3311 -0.3635  0.3134
 3211SOL    HW121269   0.694   0.299   5.233  0.5343  1.2128  1.0840
 3211SOL    HW221270   0.660   0.281   5.082 -0.0810 -1.1336  0.9440
 3212SOL     OW21271   0.623   3.909   5.012 -0.5513  0.5407 -0.5706
 3212SOL    HW121272   0.557   3.841   5.027  0.3674 -0.4265 -0.8482
 3212SOL    HW221273   0.690   3.841   5.001 -0.0717  0.9628 -0.2625
 3213SOL     OW21274   2.918   0.863   7.161  0.1533 -0.2884  0.4522
 3213SOL    HW121275   2.971   0.923   7.213  1.2234 -1.0727  0.2694
 3213SOL    HW221276   2.889   0.930   7.099  0.2068 -1.9195 -1.3138
 3214SOL     OW21277   3.508   2.521   1.460  0.0101  0.1738  0.7448
 3214SOL    HW121278   3.549   2.435   1.460 -0.9552 -0.2743 -1.1669
 3214SOL    HW221279   3.421   2.496   1.431 -0.0009 -0.4154  1.2878
 3215SOL     OW21280   3.370   2.885  14.359 -0.1837 -0.0197  0.6511
 3215SOL    HW121281   3.402   2.886  14.268 -2.1534 -1.1238 -0.0599
 3215SOL    HW221282   3.354   2.979  14.369  2.4134  0.5066 -0.2217
 3216SOL     OW21283   1.967   2.202   2.368  0.7366 -0.1393 -0.0109
 3216SOL    HW121284   2.052   2.241   2.346  1.9240 -2.1303  0.9782
 3216SOL    HW221285   1.918   2.211   2.286  0.0205  0.6875  0.5113
 3217SOL     OW21286   4.471   2.361   2.155  0.3901  0.2863 -0.0859
 3217SOL    HW121287   4.503   2.424   2.091 -2.5668  2.7245  0.8610
 3217SOL    HW221288   4.507   2.401   2.235 -0.9102 -2.0097  1.6570
 3218SOL     OW21289   0.799   3.459   7.936  0.2470 -0.2076 -0.0623
 3218SOL    HW121290   0.752   3.381   7.966 -2.4141  2.0971  1.7677
 3218SOL    HW221291   0.721   3.490   7.892  0.3660  0.3395  0.1165
 3219SOL     OW21292   4.032   2.738   1.886  0.5675  0.5416  0.2994
 3219SOL    HW121293   4.034   2.723   1.980  1.4047  0.8667  0.3298
 3219SOL    HW221294   4.093   2.666   1.871  1.6011  1.6899 -0.9179
 3220SOL     OW21295   0.222   2.428   2.077  0.3259  0.0065  0.2339
 3220SOL    HW121296   0.164   2.360   2.111 -0.7669  1.4623  1.3182
 3220SOL    HW221297   0.272   2.454   2.155  1.7670 -1.5397 -0.1654
 3221SOL     OW21298   0.049   3.474   1.438  0.2851  0.2750  0.6861
 3221SOL    HW121299   0.066   3.567   1.427 -0.2696  0.0375 -2.1183
 3221SOL    HW221300   0.123   3.433   1.483  0.6922 -1.2511 -1.3891
 3222SOL     OW21301   4.292   1.282   8.427 -0.9906  0.0759  0.2990
 3222SOL    HW121302   4.307   1.314   8.516  0.0131  0.4616 -0.0133
 3222SOL    HW221303   4.267   1.364   8.384  0.3187  0.1263 -0.3680
 3223SOL     OW21304   1.536   2.406   5.022  0.0586  0.3958  0.0926
 3223SOL    HW121305   1.567   2.426   5.110 -0.3560 -0.2783  0.3915
 3223SOL    HW221306   1.577   2.468   4.962  1.0589 -0.3148  0.0424
 3224SOL     OW21307   2.591   0.191   8.783 -0.2018 -0.2893  0.3547
 3224SOL    HW121308   2.589   0.269   8.727  0.0595 -1.6834 -1.5689
 3224SOL    HW221309   2.654   0.138   8.734  1.1881  1.5862  0.1012
 3225SOL     OW21310   3.149   2.516   5.776  0.1303  0.2831  0.3493
 3225SOL    HW121311   3.222   2.515   5.838  0.3472  0.4217  0.0924
 3225SOL    HW221312   3.073   2.501   5.833 -1.2727 -2.8267 -2.3295
 3226SOL     OW21313   3.361   2.771   4.168  0.1100 -0.1978  0.0294
 3226SOL    HW121314   3.315   2.691   4.142  1.9591 -2.2351  3.0164
 3226SOL    HW221315   3.339   2.834   4.100  1.2559 -0.9079 -0.9749
 3227SOL     OW21316   0.076   3.546   4.144 -0.0477 -0.0277 -0.1637
 3227SOL    HW121317   0.075   3.451   4.146 -0.2899  0.0027  1.3517
 3227SOL    HW221318   0.013   3.570   4.213  0.6405 -2.1070  1.1888
 3228SOL     OW21319   4.219   2.729   3.703 -0.3124 -0.1002 -0.1790
 3228SOL    HW121320   4.168   2.773   3.634 -1.2980  0.6680  1.0358
 3228SOL    HW221321   4.281   2.678   3.652  0.6678  0.6516  0.2625
 3229SOL     OW21322   1.900   4.387   5.477 -0.3815 -0.3014  0.0636
 3229SOL    HW121323   1.862   4.462   5.523 -1.3671 -1.7850  1.6197
 3229SOL    HW221324   1.945   4.434   5.407  0.4238  0.5331  1.1258
 3230SOL     OW21325   2.986   2.323  15.394  0.2445 -0.3060  0.3299
 3230SOL    HW121326   2.938   2.256  15.345  0.9412 -1.5845  1.3841
 3230SOL    HW221327   3.071   2.279  15.403  1.4402  1.5984 -1.6871
 3231SOL     OW21328   0.746   4.558  13.632  0.2682 -0.2903  0.1435
 3231SOL    HW121329   0.751   4.574  13.726 -0.7080 -1.9356  0.4795
 3231SOL    HW221330   0.680   4.489  13.624  1.4802 -1.1597 -2.3817
 3232SOL     OW21331   4.032   3.247   5.457 -0.4666 -0.0500  0.3583
 3232SOL    HW121332   4.057   3.335   5.484 -2.4144  0.7740 -0.4944
 3232SOL    HW221333   4.022   3.254   5.362  0.4585 -1.6154  0.1497
 3233SOL     OW21334   4.698   4.522   0.870 -0.1166 -0.1756 -0.0346
 3233SOL    HW121335   4.696   4.610   0.909 -0.1780 -0.0531 -0.3133
 3233SOL    HW221336   4.620   4.519   0.814 -1.1295  1.8639  1.2570
 3234SOL     OW21337   1.589   4.336  15.229 -0.5851  0.0554 -0.5092
 3234SOL    HW121338   1.666   4.363  15.179 -0.4455  2.4388  1.0084
 3234SOL    HW221339   1.611   4.355  15.320  1.8314 -1.2718 -0.8116
 3235SOL     OW21340   0.742   0.906   1.910 -0.1755  0.3297 -0.3460
 3235SOL    HW121341   0.666   0.848   1.918 -0.6219  0.9613 -0.0799
 3235SOL    HW221342   0.734   0.936   1.819  0.1058 -3.4100 -1.6321
 3236SOL     OW21343   2.552   3.620   4.142  0.0583 -0.6786 -0.7266
 3236SOL    HW121344   2.626   3.601   4.084  0.2014  0.2749 -0.8587
 3236SOL    HW221345   2.575   3.562   4.215  0.7213 -1.1970 -1.3441
 3237SOL     OW21346   0.328   4.281   7.901  0.0042 -0.3804  0.1048
 3237SOL    HW121347   0.355   4.239   7.820  1.8288  0.7750  0.1212
 3237SOL    HW221348   0.256   4.336   7.870 -0.8838 -0.9225  1.1701
 3238SOL     OW21349   1.669   4.704   2.049  0.1378 -0.4948 -0.1952
 3238SOL    HW121350   1.670   0.053   2.015  0.5903 -0.6871 -0.6879
 3238SOL    HW221351   1.760   4.682   2.070 -0.3824 -0.2883  2.2605
 3239SOL     OW21352   1.322   2.211   3.832 -0.4462  0.3972 -0.2353
 3239SOL    HW121353   1.363   2.138   3.786 -1.4239 -0.1471 -0.2533
 3239SOL    HW221354   1.235   2.177   3.853  0.4194 -1.8420 -0.2689
 3240SOL     OW21355   1.991   0.513   9.222  0.3496 -0.2541 -0.2176
 3240SOL    HW121356   1.978   0.516   9.127 -3.1067 -0.0375  0.2711
 3240SOL    HW221357   1.909   0.555   9.247  1.1187  0.3538  1.2796
 3241SOL     OW21358   1.553   0.551   8.070 -0.3045 -0.0009  0.0096
 3241SOL    HW121359   1.603   0.547   7.988  1.4434 -0.6065  1.1169
 3241SOL    HW221360   1.473   0.599   8.048 -1.7439 -1.6131  1.7554
 3242SOL     OW21361   0.488   1.414   0.989  0.5819  0.5635 -0.0925
 3242SOL    HW121362   0.449   1.451   0.910 -2.1880 -0.0459  0.9792
 3242SOL    HW221363   0.534   1.486   1.031 -1.1249  0.8940  1.2131
 3243SOL     OW21364   4.103   2.447   9.424  0.5271 -0.3369 -0.0170
 3243SOL    HW121365   4.067   2.362   9.397 -2.4565  1.8063 -2.8155
 3243SOL    HW221366   4.037   2.509   9.392  1.8659 -0.1352 -2.3640
 3244SOL     OW21367   4.037   0.347   3.492  0.5916  0.4823  0.2308
 3244SOL    HW121368   4.000   0.434   3.505  0.8570  0.4814  0.9861
 3244SOL    HW221369   4.041   0.313   3.581  0.2140  1.3191  0.5635
 3245SOL     OW21370   2.036   2.398   9.498 -0.2703  0.0211  0.4268
 3245SOL    HW121371   1.996   2.378   9.413  1.1117  0.0833 -0.2366
 3245SOL    HW221372   2.089   2.322   9.519 -1.5312 -1.5787 -2.2074
 3246SOL     OW21373   3.350   2.048   7.847  0.3059  0.5764  0.1488
 3246SOL    HW121374   3.283   2.113   7.870 -2.3807 -1.4951 -1.8849
 3246SOL    HW221375   3.299   1.984   7.797  0.8470  0.0246  0.3033
 3247SOL     OW21376   3.828   3.585   5.141  0.1230  1.0848  0.3753
 3247SOL    HW121377   3.742   3.573   5.101  0.5705  2.1226 -0.8959
 3247SOL    HW221378   3.803   3.574   5.232  0.1178  1.9231  0.4784
 3248SOL     OW21379   1.966   3.253  16.082 -0.6870 -0.8938 -0.3829
 3248SOL    HW121380   2.034   3.230  16.018 -2.7711 -1.6132 -2.3296
 3248SOL    HW221381   1.889   3.270  16.029 -0.5915 -0.3706 -0.3541
 3249SOL     OW21382   1.503   2.569   9.501 -0.6390  0.1243 -0.8911
 3249SOL    HW121383   1.543   2.622   9.433  2.1945 -0.1567  0.5605
 3249SOL    HW221384   1.464   2.495   9.453 -0.7067 -0.6234  0.3046
 3250SOL     OW21385   2.778   2.813   6.716 -0.3175  0.1052  0.8021
 3250SOL    HW121386   2.869   2.784   6.721 -0.9355 -1.7321  1.5910
 3250SOL    HW221387   2.759   2.823   6.809 -0.7834 -2.1763  0.9541
 3251SOL     OW21388   0.482   4.395   5.943 -0.0250  0.0610  0.1171
 3251SOL    HW121389   0.448   4.479   5.913  0.7602 -0.2940 -1.7497
 3251SOL    HW221390   0.402   4.355   5.977  0.6289 -0.3894  1.1388
 3252SOL     OW21391   3.472   1.249   0.247 -0.1967  0.0252 -0.0150
 3252SOL    HW121392   3.558   1.290   0.259 -0.8920  1.4217  0.1449
 3252SOL    HW221393   3.412   1.302   0.300 -1.1306 -0.4474 -0.5989
 3253SOL     OW21394   3.703   2.512   9.846  0.1559  0.1549 -0.2668
 3253SOL    HW121395   3.689   2.531   9.939 -1.0108  0.6316 -0.5441
 3253SOL    HW221396   3.757   2.580   9.806 -0.1852  0.2481 -0.5722
 3254SOL     OW21397   1.453   0.725   8.293 -0.6389  0.1964  0.1074
 3254SOL    HW121398   1.398   0.651   8.320 -2.0894  0.4736 -2.0865
 3254SOL    HW221399   1.413   0.795   8.344 -1.6116  0.8135 -1.5004
 3255SOL     OW21400   3.978   1.955  11.245 -0.2306 -0.2093  0.0661
 3255SOL    HW121401   4.032   1.889  11.201  1.1166  0.2036  1.1159
 3255SOL    HW221402   4.025   2.021  11.195  1.2256 -2.5724 -1.7220
 3256SOL     OW21403   1.859   1.192  10.805 -0.2102  0.1388 -0.4219
 3256SOL    HW121404   1.879   1.101  10.782 -0.4011 -0.0174  0.0403
 3256SOL    HW221405   1.775   1.175  10.848 -0.9800  0.8073 -1.6842
 3257SOL     OW21406   2.190   2.807   6.969 -0.3159  0.0143  0.0550
 3257SOL    HW121407   2.125   2.739   6.949 -0.0042 -0.4172  0.5061
 3257SOL    HW221408   2.267   2.755   6.993 -1.1976 -1.6260 -0.6526
 3258SOL     OW21409   0.888   2.182   5.597  0.2955  0.2241  0.5444
 3258SOL    HW121410   0.928   2.247   5.655  0.2518 -1.5198  2.5190
 3258SOL    HW221411   0.827   2.235   5.547  2.2018  0.6279 -1.3582
 3259SOL     OW21412   0.204   2.131  14.039 -0.1961  0.2117  0.0189
 3259SOL    HW121413   0.116   2.121  14.002 -0.5885  0.4200  0.8852
 3259SOL    HW221414   0.187   2.128  14.134  1.1074 -0.5959  0.2225
 3260SOL     OW21415   1.333   4.256   8.723 -0.1495 -0.1023 -0.2542
 3260SOL    HW121416   1.373   4.247   8.810 -1.0792 -0.5917  0.1280
 3260SOL    HW221417   1.318   4.350   8.728  1.1051  0.0048  1.6727
 3261SOL     OW21418   2.706   0.023   9.557  0.1401 -0.3442  0.2467
 3261SOL    HW121419   2.625   0.065   9.528 -0.2431  0.4583  2.5136
 3261SOL    HW221420   2.690   4.672   9.533  2.1312 -0.3448 -1.0489
 3262SOL     OW21421   2.780   3.890   1.302  0.3552  0.4778 -0.1560
 3262SOL    HW121422   2.865   3.847   1.299 -0.1066 -0.4910  0.8496
 3262SOL    HW221423   2.722   3.837   1.248 -0.1445  1.5721 -0.7130
 3263SOL     OW21424   1.408   1.113   5.778  0.4768 -0.6883  0.2460
 3263SOL    HW121425   1.344   1.045   5.800  4.0055 -4.4070 -1.1532
 3263SOL    HW221426   1.367   1.174   5.840  4.0463  1.7906  0.1750
 3264SOL     OW21427   1.781   4.395   7.048  0.0506  0.4989  0.2004
 3264SOL    HW121428   1.700   4.343   7.048  0.3608  0.0152  0.4123
 3264SOL    HW221429   1.757   4.483   7.077  1.1008  0.4254  1.2987
 3265SOL     OW21430   2.413   3.374   8.052  0.4440 -0.4508 -0.4605
 3265SOL    HW121431   2.397   3.469   8.045  0.3444 -0.3354  1.5325
 3265SOL    HW221432   2.499   3.350   8.018  1.5691  1.3356  1.1106
 3266SOL     OW21433   2.885   4.408   3.467  0.1742  0.1285 -0.3884
 3266SOL    HW121434   2.895   4.493   3.511 -0.5762  0.1379 -0.2373
 3266SOL    HW221435   2.801   4.390   3.509  1.3460 -0.8242  1.5831
 3267SOL     OW21436   1.236   4.280  10.387 -0.1736 -0.3446 -0.0902
 3267SOL    HW121437   1.220   4.309  10.297 -1.8775 -1.2398 -0.0727
 3267SOL    HW221438   1.327   4.307  10.401  0.6236 -3.6608  1.1151
 3268SOL     OW21439   2.392   1.312  13.358 -0.1734 -0.2018  0.1819
 3268SOL    HW121440   2.304   1.285  13.386 -1.0232  2.5730  0.1838
 3268SOL    HW221441   2.435   1.227  13.367 -2.0517 -1.0329  1.4221
 3269SOL     OW21442   1.528   3.839  10.480  0.1899  0.5166  0.2390
 3269SOL    HW121443   1.469   3.784  10.531 -2.7648  0.3064 -3.4026
 3269SOL    HW221444   1.540   3.908  10.545  2.7835 -1.0663  1.4326
 3270SOL     OW21445   0.629   0.672   2.659 -0.5624  0.0200  0.4903
 3270SOL    HW121446   0.536   0.651   2.673 -0.7744 -0.6219 -1.9009
 3270SOL    HW221447   0.625   0.763   2.630 -2.2051  0.0391  0.7331
 3271SOL     OW21448   2.763   3.574   3.983 -0.1325  0.0877  0.0881
 3271SOL    HW121449   2.840   3.631   3.983 -0.3263  0.3411 -1.2716
 3271SOL    HW221450   2.796   3.494   4.023 -0.1209 -0.1457 -0.3904
 3272SOL     OW21451   2.276   0.198   5.494 -0.1993  0.3710 -0.0665
 3272SOL    HW121452   2.267   0.245   5.576  1.1927 -0.2180  0.4188
 3272SOL    HW221453   2.279   0.274   5.436  0.8747 -0.7364 -1.4780
 3273SOL     OW21454   0.975   0.855  17.551  0.0941 -0.2904 -0.3575
 3273SOL    HW121455   1.048   0.871  17.490  0.3859 -0.6753 -0.1111
 3273SOL    HW221456   0.999   0.766  17.578  0.4793  0.0738  0.4870
 3274SOL     OW21457   0.349   3.324   7.391  0.1609  0.0793 -0.3555
 3274SOL    HW121458   0.441   3.332   7.364 -0.2538 -0.4138 -1.9295
 3274SOL    HW221459   0.311   3.312   7.303  2.1828  1.7215 -1.4486
 3275SOL     OW21460   4.094   0.834   4.817 -0.1468  0.3103  0.2566
 3275SOL    HW121461   4.169   0.839   4.876 -0.3755  2.1133  0.3951
 3275SOL    HW221462   4.090   0.919   4.774 -0.4387  0.7324  1.1308
 3276SOL     OW21463   1.933   0.417  13.035  0.2451 -0.2984  0.3285
 3276SOL    HW121464   1.986   0.448  13.109 -0.2564 -0.2911  0.6830
 3276SOL    HW221465   1.903   0.333  13.069  0.1239  0.5483  2.3556
 3277SOL     OW21466   1.052   1.198   2.445 -0.0341 -0.2506 -0.8055
 3277SOL    HW121467   1.051   1.230   2.355  1.0749  0.6990 -0.4648
 3277SOL    HW221468   0.972   1.144   2.440  1.4972 -2.5280 -0.7968
 3278SOL     OW21469   2.105   3.413  16.560 -0.2516  0.7712 -0.1681
 3278SOL    HW121470   2.131   3.494  16.602 -4.3801  1.5416  0.9168
 3278SOL    HW221471   2.018   3.383  16.587 -0.2901 -1.0060 -2.2336
 3279SOL     OW21472   0.636   1.762   7.889  0.2076 -0.3357  0.1928
 3279SOL    HW121473   0.549   1.757   7.928 -0.2195  1.7391 -0.4921
 3279SOL    HW221474   0.693   1.726   7.956 -0.6173 -1.1348  0.4592
 3280SOL     OW21475   2.916   4.320   9.901 -0.0235 -0.1170 -1.2095
 3280SOL    HW121476   2.864   4.363   9.834 -1.0738 -0.6237 -0.7119
 3280SOL    HW221477   3.005   4.335   9.869 -0.0111  0.1161 -1.0650
 3281SOL     OW21478   0.907   1.711  16.356  0.3240  0.0418  0.1487
 3281SOL    HW121479   0.828   1.761  16.337 -0.6179 -1.2824  0.5403
 3281SOL    HW221480   0.897   1.682  16.447  0.4179 -0.3373  0.0372
 3282SOL     OW21481   0.160   2.589   8.870  0.4576  0.0412  0.5368
 3282SOL    HW121482   0.213   2.650   8.819 -1.3923  1.4119  0.2477
 3282SOL    HW221483   0.161   2.512   8.814  0.7864 -1.2017  2.2657
 3283SOL     OW21484   2.736   3.610   8.615 -0.4457  0.5736 -0.1949
 3283SOL    HW121485   2.807   3.599   8.677 -0.9765 -0.2420  0.2557
 3283SOL    HW221486   2.669   3.559   8.661 -0.4732  0.1120 -0.7362
 3284SOL     OW21487   4.668   0.095   1.691 -0.0676 -0.1051  0.0453
 3284SOL    HW121488   4.686   0.003   1.709 -0.1209 -0.4346 -1.5879
 3284SOL    HW221489   0.006   0.130   1.733 -0.9401 -0.0862  1.6662
 3285SOL     OW21490   2.628   4.645   6.800 -0.6484  0.5133 -0.2919
 3285SOL    HW121491   2.704   4.693   6.767 -1.1364  2.2356  1.0814
 3285SOL    HW221492   2.561   4.712   6.812  0.2014  1.6258 -1.7599
 3286SOL     OW21493   1.104   2.509   4.076 -0.9273  0.1387 -0.2046
 3286SOL    HW121494   1.094   2.467   3.990  2.1085 -2.0272  0.4943
 3286SOL    HW221495   1.012   2.503   4.103 -0.8454 -3.2053 -0.6389
 3287SOL     OW21496   0.796   4.709  13.219 -0.0522 -0.7232 -0.1797
 3287SOL    HW121497   0.769   4.617  13.223 -0.7400 -0.4434  2.0049
 3287SOL    HW221498   0.827   4.727  13.308 -2.4631 -0.1595  0.5578
 3288SOL     OW21499   0.064   4.420   6.169 -0.1494  0.0422 -0.3871
 3288SOL    HW121500   0.037   4.350   6.228  0.7360  0.7726  0.8873
 3288SOL    HW221501   0.010   4.490   6.206 -0.2894 -0.2504 -0.0388
 3289SOL     OW21502   2.676   0.422   7.550  0.9693 -0.4760  0.1505
 3289SOL    HW121503   2.766   0.391   7.555  0.8719 -0.8216 -0.2109
 3289SOL    HW221504   2.671   0.444   7.457 -1.8661 -3.0203 -0.3061
 3290SOL     OW21505   0.315   1.114   4.466 -0.0484  0.0657  0.3433
 3290SOL    HW121506   0.342   1.036   4.416  0.2319  0.5431 -0.2494
 3290SOL    HW221507   0.252   1.152   4.405 -0.8974 -1.0417  0.5159
 3291SOL     OW21508   2.403   1.339   5.953  0.1967 -0.4309 -0.2997
 3291SOL    HW121509   2.426   1.247   5.966 -0.2779 -0.3726  0.9843
 3291SOL    HW221510   2.388   1.342   5.858  0.5258  1.2111 -0.3089
 3292SOL     OW21511   2.125   2.209   1.939  0.1297  0.2413 -0.1424
 3292SOL    HW121512   2.152   2.133   1.989 -1.6267  0.2206  0.7906
 3292SOL    HW221513   2.069   2.167   1.874  1.7798 -0.2803 -1.2328
 3293SOL     OW21514   4.332   1.227  15.003  0.4601  0.5637  0.6528
 3293SOL    HW121515   4.286   1.300  15.044  1.2552  0.4682  1.6975
 3293SOL    HW221516   4.282   1.152  15.036 -0.8058 -0.1835 -2.9415
 3294SOL     OW21517   3.857   0.238  16.972 -0.4448 -0.0938 -0.1782
 3294SOL    HW121518   3.894   0.325  16.956 -0.7982  0.3848  1.5730
 3294SOL    HW221519   3.764   0.257  16.975 -0.4105  0.0771 -0.2053
 3295SOL     OW21520   1.566   1.197   2.548 -0.0884 -0.2329 -0.3373
 3295SOL    HW121521   1.559   1.134   2.476  2.3313  0.6293 -1.3211
 3295SOL    HW221522   1.645   1.245   2.522  0.7161 -1.4587 -0.1720
 3296SOL     OW21523   3.659   1.637   7.284 -0.0603  0.4976  0.6613
 3296SOL    HW121524   3.709   1.719   7.288  0.2387  0.5014 -3.7932
 3296SOL    HW221525   3.723   1.575   7.318  0.5572  0.1618 -1.1213
 3297SOL     OW21526   3.905   0.338   8.966 -0.6991  0.5136  0.3845
 3297SOL    HW121527   3.967   0.392   9.016 -0.1895  1.5736 -1.3979
 3297SOL    HW221528   3.831   0.328   9.025 -0.3457  0.0480  0.7519
 3298SOL     OW21529   0.755   4.409   6.091  0.0552 -0.2498 -0.5563
 3298SOL    HW121530   0.740   4.369   6.176 -0.1884 -1.2065 -1.0578
 3298SOL    HW221531   0.683   4.367   6.043 -1.7888  1.0557  1.0668
 3299SOL     OW21532   0.593   0.971   5.366 -0.2711  0.2143 -0.1585
 3299SOL    HW121533   0.611   1.050   5.314  0.7701  0.5704  0.7401
 3299SOL    HW221534   0.540   0.914   5.310 -1.0611  0.1881  0.6042
 3300SOL     OW21535   2.196   0.263   8.051  0.4382 -0.3117  0.2524
 3300SOL    HW121536   2.194   0.208   8.128  0.4166  1.2460  1.3674
 3300SOL    HW221537   2.133   0.227   7.988  0.1411 -0.4296  0.6216
 3301SOL     OW21538   0.966   4.237  15.433 -0.0567  0.5179  0.6721
 3301SOL    HW121539   0.923   4.161  15.473 -1.1202  0.8114  0.0894
 3301SOL    HW221540   0.977   4.209  15.342 -1.2963  0.8234  0.4300
 3302SOL     OW21541   2.324   4.419  14.455 -0.2253  0.1946  0.4478
 3302SOL    HW121542   2.390   4.352  14.476  1.4297  1.8290  0.5015
 3302SOL    HW221543   2.358   4.462  14.376 -1.1083 -2.6491 -1.5059
 3303SOL     OW21544   0.923   1.891   3.883 -0.4157  0.1973  0.3095
 3303SOL    HW121545   0.908   1.799   3.904  1.0608  0.0960  0.9550
 3303SOL    HW221546   0.979   1.894   3.805 -2.1612  1.2292 -0.9137
 3304SOL     OW21547   0.393   2.680  15.998  0.2454 -0.1379  0.1595
 3304SOL    HW121548   0.380   2.745  15.929 -0.0893 -0.9390 -0.5171
 3304SOL    HW221549   0.450   2.729  16.058  0.5755  0.1156 -0.3602
 3305SOL     OW21550   4.611   2.244   4.635 -0.2567  0.3032  0.0308
 3305SOL    HW121551   4.690   2.233   4.583 -0.4620  0.0703 -0.2295
 3305SOL    HW221552   4.629   2.203   4.720  0.6702  0.2426 -0.1947
 3306SOL     OW21553   0.232   2.402   3.931 -0.1842 -0.1499 -0.1078
 3306SOL    HW121554   0.139   2.422   3.937  0.3239  1.7678  1.6980
 3306SOL    HW221555   0.265   2.470   3.990  1.2278 -1.8312  1.0410
 3307SOL     OW21556   4.704   1.873  13.959  0.0336 -0.5849  0.4005
 3307SOL    HW121557   4.697   1.957  13.914 -0.5477 -1.0543 -0.3931
 3307SOL    HW221558   0.039   1.840  13.911  0.1602  0.4874 -0.1314
 3308SOL     OW21559   4.480   0.188  11.235  0.0259 -0.1393  0.4335
 3308SOL    HW121560   4.470   0.094  11.246  0.0044 -0.4530 -2.2567
 3308SOL    HW221561   4.573   0.209  11.238 -0.0086  0.0912 -0.1685
 3309SOL     OW21562   3.185   2.174   6.549  0.0569 -0.1514  0.6855
 3309SOL    HW121563   3.160   2.099   6.495 -1.3164  1.8293 -1.4437
 3309SOL    HW221564   3.123   2.177   6.622 -1.4243  0.1911 -0.5923
 3310SOL     OW21565   4.200   3.621   6.096  0.0085 -0.4184 -0.7130
 3310SOL    HW121566   4.273   3.573   6.135 -0.1574 -0.0473  0.0454
 3310SOL    HW221567   4.255   3.666   6.032  0.0003 -0.2808 -0.6221
 3311SOL     OW21568   4.344   3.129   3.877  0.7668  0.8144  0.2468
 3311SOL    HW121569   4.402   3.111   3.951  2.2550  0.4140 -1.0002
 3311SOL    HW221570   4.351   3.044   3.832 -1.8912  0.7225 -0.0111
 3312SOL     OW21571   4.546   1.309   0.817 -0.2726 -0.6662  0.2570
 3312SOL    HW121572   4.521   1.342   0.903  3.2465  0.7774  0.7364
 3312SOL    HW221573   4.461   1.275   0.792  0.4469 -1.8926 -0.5146
 3313SOL     OW21574   4.181   1.702   5.614 -0.1865 -0.4995 -0.1097
 3313SOL    HW121575   4.176   1.611   5.585  1.3922 -0.7272  0.3569
 3313SOL    HW221576   4.128   1.706   5.694 -1.8307 -1.2615 -1.1768
 3314SOL     OW21577   2.178   3.024   4.527  0.0147  0.0749 -0.3111
 3314SOL    HW121578   2.149   3.080   4.455 -1.8709  1.6800  1.7140
 3314SOL    HW221579   2.248   3.082   4.558 -0.2344  0.5824 -0.7005
 3315SOL     OW21580   3.705   3.594  13.444  0.8020  0.2445  0.1122
 3315SOL    HW121581   3.770   3.616  13.511  0.1025  0.1112  0.8432
 3315SOL    HW221582   3.748   3.630  13.367 -0.7691 -0.8364 -1.2567
 3316SOL     OW21583   2.238   3.647   0.535  0.1856  0.6162 -0.1753
 3316SOL    HW121584   2.313   3.683   0.584 -0.9799 -1.1906  2.9537
 3316SOL    HW221585   2.187   3.726   0.517  0.4923  1.0225  0.7000
 3317SOL     OW21586   2.892   1.602   4.250  0.2613  0.2430  0.1973
 3317SOL    HW121587   2.931   1.518   4.228  0.7608  0.7549 -0.8280
 3317SOL    HW221588   2.811   1.578   4.296  0.5134  0.4983  0.7697
 3318SOL     OW21589   4.322   2.305   9.546 -0.0206 -0.3086 -0.5103
 3318SOL    HW121590   4.245   2.342   9.503 -2.2862 -1.5165  2.5375
 3318SOL    HW221591   4.393   2.352   9.502  0.7716 -0.1743  0.9133
 3319SOL     OW21592   3.883   3.591   7.650 -0.6619 -0.0048 -0.3030
 3319SOL    HW121593   3.941   3.550   7.586 -0.5081 -1.0540  0.5135
 3319SOL    HW221594   3.877   3.525   7.719 -0.8143  0.9797  0.6349
 3320SOL     OW21595   3.283   4.671   8.161  0.3981  0.3380 -0.1427
 3320SOL    HW121596   3.231   0.004   8.130 -0.4184  0.4226  1.4120
 3320SOL    HW221597   3.239   4.595   8.123 -1.4055  1.1953  0.2091
 3321SOL     OW21598   0.442   4.381   6.894 -0.2489 -0.4566 -0.4932
 3321SOL    HW121599   0.512   4.331   6.934 -0.4151  1.0537  1.6727
 3321SOL    HW221600   0.483   4.460   6.859  0.9241 -0.8543  0.0078
 3322SOL     OW21601   4.117   3.912  13.841 -0.7158  0.1551 -0.6595
 3322SOL    HW121602   4.179   3.965  13.791  0.3652  0.2728  0.8146
 3322SOL    HW221603   4.080   3.856  13.773 -2.1173  1.6772 -1.1607
 3323SOL     OW21604   0.516   0.496   4.762 -0.7191 -0.0687  0.0265
 3323SOL    HW121605   0.556   0.541   4.687 -1.1925  0.8003  0.2910
 3323SOL    HW221606   0.584   0.531   4.820 -0.2810 -0.6917 -0.1118
 3324SOL     OW21607   0.816   2.408   3.579 -0.0574 -0.3649 -0.2112
 3324SOL    HW121608   0.745   2.472   3.586  0.1177 -0.0811 -1.0179
 3324SOL    HW221609   0.870   2.450   3.512  2.3887  0.4971  2.3070
 3325SOL     OW21610   4.489   2.349   6.439  0.6014 -0.7552  0.2555
 3325SOL    HW121611   4.519   2.274   6.389  1.2189 -0.6085  0.4069
 3325SOL    HW221612   4.432   2.304   6.500  2.1042 -2.8748  0.0780
 3326SOL     OW21613   3.479   2.874   6.209 -0.0290 -0.3263 -0.0152
 3326SOL    HW121614   3.539   2.948   6.203  0.2224 -0.4267  1.3112
 3326SOL    HW221615   3.399   2.910   6.171  0.6482  2.1020  0.8965
 3327SOL     OW21616   2.241   1.031   9.047 -0.0657  0.5008  0.2740
 3327SOL    HW121617   2.287   1.102   9.092  2.4605  0.7290 -2.6213
 3327SOL    HW221618   2.314   1.003   8.991 -1.4896  0.1860 -1.3860
 3328SOL     OW21619   2.498   0.501  17.363  0.0054  0.4166 -0.2066
 3328SOL    HW121620   2.453   0.540  17.438 -0.2788 -0.3305  0.0018
 3328SOL    HW221621   2.439   0.428  17.347 -0.6035  0.9225 -0.2440
 3329SOL     OW21622   0.577   3.510   1.857  0.3114 -0.2892  0.1862
 3329SOL    HW121623   0.643   3.443   1.872  1.0722  0.4686  0.2207
 3329SOL    HW221624   0.614   3.590   1.895 -2.0032  0.7371  0.3012
 3330SOL     OW21625   0.931   4.123  13.649  0.3178  0.3712 -0.1152
 3330SOL    HW121626   0.908   4.187  13.581  0.2867  2.4965  1.9339
 3330SOL    HW221627   0.887   4.048  13.610  0.6014  0.1404  0.0119
 3331SOL     OW21628   2.525   1.900  11.071  0.0000 -0.9852  0.1409
 3331SOL    HW121629   2.589   1.966  11.042 -1.8892  0.7857  0.0362
 3331SOL    HW221630   2.475   1.952  11.133 -1.4251 -3.1585  0.8048
 3332SOL     OW21631   2.721   0.455   8.342  0.2104  0.3619  0.3760
 3332SOL    HW121632   2.656   0.412   8.397  2.7910 -2.6867  1.0242
 3332SOL    HW221633   2.663   0.513   8.293  0.8604  0.5734 -0.1513
 3333SOL     OW21634   1.553   2.113  14.913  0.2306  0.5745 -0.2889
 3333SOL    HW121635   1.626   2.173  14.926  0.2848  0.2812  0.8020
 3333SOL    HW221636   1.507   2.154  14.840 -0.0885  0.9255  0.1066
 3334SOL     OW21637   3.479   0.908  14.050  0.5203 -0.3898 -0.2022
 3334SOL    HW121638   3.405   0.856  14.083  0.3866  0.0547  0.1855
 3334SOL    HW221639   3.430   0.972  13.999 -2.7505  0.1177  3.5046
 3335SOL     OW21640   2.900   0.235  13.110 -0.0207 -0.2737  0.0783
 3335SOL    HW121641   2.919   0.182  13.187 -2.4274 -0.5618  0.4513
 3335SOL    HW221642   2.915   0.326  13.136  0.4927 -0.6629  1.1528
 3336SOL     OW21643   1.215   3.959   6.926 -0.4723  0.1913 -0.0272
 3336SOL    HW121644   1.224   3.927   7.016  1.1366 -1.0167 -0.6288
 3336SOL    HW221645   1.149   4.028   6.930 -0.5476  0.1149  0.0410
 3337SOL     OW21646   3.120   1.363   9.238  0.2504 -0.1569 -0.4223
 3337SOL    HW121647   3.111   1.324   9.325 -0.6824  0.3591 -0.2887
 3337SOL    HW221648   3.201   1.410   9.255  1.5219 -2.4102 -0.2698
 3338SOL     OW21649   3.754   3.039   7.389 -0.1614  0.2162 -0.4318
 3338SOL    HW121650   3.836   3.070   7.351 -1.3168  0.3698 -2.8144
 3338SOL    HW221651   3.698   3.113   7.365 -1.4196 -0.5287  0.2497
 3339SOL     OW21652   0.310   3.413   7.858  0.6015 -0.4103  0.2150
 3339SOL    HW121653   0.286   3.368   7.940 -0.6723  1.5096  0.8908
 3339SOL    HW221654   0.266   3.497   7.868 -0.4658 -1.1109  1.5251
 3340SOL     OW21655   2.573   3.498  17.549  0.5991  0.1686  0.6698
 3340SOL    HW121656   2.667   3.502  17.561  0.8100 -0.6798 -0.6483
 3340SOL    HW221657   2.563   3.553  17.471  0.7428 -1.4173 -0.4653
 3341SOL     OW21658   1.536   4.339  16.916 -0.2203  0.1243  0.0873
 3341SOL    HW121659   1.556   4.270  16.979 -0.9819 -0.2970 -0.1279
 3341SOL    HW221660   1.607   4.399  16.936 -0.3982  0.2284  0.4006
 3342SOL     OW21661   1.627   1.927  12.836 -0.3904  0.2947  0.5214
 3342SOL    HW121662   1.668   1.915  12.922  0.8839 -1.2531 -0.2990
 3342SOL    HW221663   1.701   1.904  12.781 -2.4939 -1.3060 -1.6464
 3343SOL     OW21664   3.579   1.814  12.626  0.2555  0.3470 -0.2038
 3343SOL    HW121665   3.527   1.860  12.692 -0.0721 -1.9582  1.1533
 3343SOL    HW221666   3.538   1.727  12.625 -1.2301  1.0099  1.8367
 3344SOL     OW21667   2.509   3.360   7.559  0.1230 -0.3271  0.1496
 3344SOL    HW121668   2.512   3.266   7.580 -0.9299  0.3569  3.3926
 3344SOL    HW221669   2.466   3.366   7.474  0.6273 -1.9030 -0.2159
 3345SOL     OW21670   1.540   3.111   8.097  1.0874  0.1624  0.5816
 3345SOL    HW121671   1.451   3.101   8.062  1.1716 -0.0224  0.4178
 3345SOL    HW221672   1.580   3.030   8.066  0.6726 -0.1544  0.8857
 3346SOL     OW21673   3.639   2.946   4.969  0.0005 -0.1684  0.0116
 3346SOL    HW121674   3.693   2.881   4.923 -0.5013  0.0811 -0.9380
 3346SOL    HW221675   3.666   2.928   5.059 -1.5104 -1.4265  0.2076
 3347SOL     OW21676   0.138   0.439   6.666  0.4495 -0.2144  0.4649
 3347SOL    HW121677   0.216   0.483   6.634 -0.7554  2.2627  0.8692
 3347SOL    HW221678   0.164   0.348   6.657  2.6529  0.5770 -1.0525
 3348SOL     OW21679   0.417   0.751   3.586  0.1674 -0.1163  0.4205
 3348SOL    HW121680   0.490   0.710   3.538 -0.2826  0.1635 -0.4966
 3348SOL    HW221681   0.445   0.835   3.622 -2.6078  1.3282 -0.8163
 3349SOL     OW21682   0.488   2.280   4.214  0.8050 -0.2420  0.0392
 3349SOL    HW121683   0.478   2.315   4.302 -0.2390  0.5112 -0.3710
 3349SOL    HW221684   0.557   2.331   4.171 -2.2969  2.4802 -1.7099
 3350SOL     OW21685   1.650   3.794   2.747  0.7744 -0.0757  0.1186
 3350SOL    HW121686   1.633   3.701   2.733 -1.9484  0.4934 -0.3556
 3350SOL    HW221687   1.571   3.827   2.789 -0.2732 -0.6925 -1.3637
 3351SOL     OW21688   3.225   0.755   2.208 -0.4818  0.0087 -0.2797
 3351SOL    HW121689   3.254   0.664   2.208 -0.2631  0.0774  0.2579
 3351SOL    HW221690   3.307   0.792   2.239 -1.1290 -0.8580  2.4957
 3352SOL     OW21691   4.238   3.263   8.648 -0.2031  0.4746 -0.0621
 3352SOL    HW121692   4.293   3.277   8.725 -1.3084  1.0722  0.6264
 3352SOL    HW221693   4.285   3.315   8.584  0.6649  0.1374  0.3050
 3353SOL     OW21694   1.115   2.394   2.895  0.6113  0.0929  0.0179
 3353SOL    HW121695   1.158   2.453   2.957 -1.0213  3.3471 -1.9681
 3353SOL    HW221696   1.022   2.408   2.913  0.3779 -0.1398 -1.0187
 3354SOL     OW21697   1.568   2.567   5.735 -0.1843 -0.4132 -0.1648
 3354SOL    HW121698   1.630   2.547   5.665  0.3161 -0.5409  0.3160
 3354SOL    HW221699   1.605   2.508   5.800  3.1475  1.3488 -0.3934
 3355SOL     OW21700   2.491   0.180   6.594  0.0165  0.6080  0.1378
 3355SOL    HW121701   2.449   0.141   6.670 -0.5163 -0.7456 -0.8470
 3355SOL    HW221702   2.551   0.114   6.560 -1.1985  0.4927 -1.7888
 3356SOL     OW21703   1.128   3.920   5.144  0.9042  0.1872  0.7800
 3356SOL    HW121704   1.183   3.988   5.104  0.9108  0.5277  1.3583
 3356SOL    HW221705   1.130   3.952   5.235  1.5082  0.8878  0.5245
 3357SOL     OW21706   1.510   2.424   7.399  0.0401 -0.5345  0.5675
 3357SOL    HW121707   1.426   2.381   7.411  0.8903 -1.7913  1.9049
 3357SOL    HW221708   1.559   2.351   7.361 -1.8359 -0.9644 -1.0272
 3358SOL     OW21709   4.390   2.893   1.819 -0.2174  0.1391 -0.3897
 3358SOL    HW121710   4.322   2.828   1.840 -0.1785 -0.3963 -1.8660
 3358SOL    HW221711   4.417   2.850   1.737 -0.6584  1.2119 -1.0963
 3359SOL     OW21712   0.076   1.149   4.700 -0.7178 -0.2674  0.1899
 3359SOL    HW121713   0.070   1.242   4.722 -1.1865 -0.9044  2.7202
 3359SOL    HW221714   0.168   1.147   4.674 -0.3594 -0.2693  1.4408
 3360SOL     OW21715   0.587   2.794   4.075  0.0492 -0.0600 -0.5398
 3360SOL    HW121716   0.591   2.877   4.123  1.3662 -0.5695  0.2070
 3360SOL    HW221717   0.638   2.808   3.995 -1.7050  1.0483 -1.4877
 3361SOL     OW21718   2.411   1.949   6.390  0.3510 -0.0722 -0.0763
 3361SOL    HW121719   2.401   1.915   6.301  1.5357 -1.0082  0.1573
 3361SOL    HW221720   2.395   1.881   6.455  1.9983 -0.0445  0.3572
 3362SOL     OW21721   0.908   3.997   1.643 -0.2425 -0.2677  0.1065
 3362SOL    HW121722   0.992   3.969   1.677 -0.2474 -0.3347  0.0629
 3362SOL    HW221723   0.853   3.921   1.659 -1.8403  0.5598 -1.3754
 3363SOL     OW21724   1.464   0.687   4.945 -0.1619  0.5164  0.4444
 3363SOL    HW121725   1.380   0.710   4.984  0.7641  1.2319  2.0043
 3363SOL    HW221726   1.508   0.643   5.018  1.8079  1.1304 -0.3635
 3364SOL     OW21727   3.688   0.123   8.128 -0.1604  0.1876  0.4701
 3364SOL    HW121728   3.727   0.051   8.178 -2.7713 -0.8388  1.0043
 3364SOL    HW221729   3.721   0.193   8.186 -1.2255  0.7482  0.4076
 3365SOL     OW21730   2.665   4.587  10.735  0.2348  0.1367  0.2556
 3365SOL    HW121731   2.696   4.612  10.822 -3.5829 -0.8058  1.8473
 3365SOL    HW221732   2.590   4.645  10.723 -0.5535 -0.9177  0.0292
 3366SOL     OW21733   1.154   2.112   2.927 -0.4061 -0.1557  0.1044
 3366SOL    HW121734   1.127   2.058   2.852  1.1239  0.0826 -0.6208
 3366SOL    HW221735   1.148   2.204   2.900  1.0277 -0.0341  0.2292
 3367SOL     OW21736   2.416   4.359   0.745 -0.1634 -0.0181 -0.1903
 3367SOL    HW121737   2.346   4.338   0.807  1.4508 -1.8443  1.0375
 3367SOL    HW221738   2.435   4.274   0.705  2.4468 -0.7451  2.5948
 3368SOL     OW21739   2.948   4.508   4.144 -0.3461  0.0176 -0.3559
 3368SOL    HW121740   2.890   4.565   4.093 -0.2595 -0.5371 -1.0643
 3368SOL    HW221741   2.885   4.448   4.185  1.1874 -0.2451  1.5963
 3369SOL     OW21742   2.204   0.105   7.433  0.0356  0.7083  0.2523
 3369SOL    HW121743   2.263   0.062   7.370 -1.8927 -0.6205 -0.6347
 3369SOL    HW221744   2.163   0.025   7.466  0.9817 -0.5313 -1.5244
 3370SOL     OW21745   1.967   3.891   9.373 -0.0869 -0.1623  0.0201
 3370SOL    HW121746   1.919   3.972   9.386  0.9993  0.7665 -1.8381
 3370SOL    HW221747   2.005   3.894   9.286 -1.7936  0.2601 -0.7162
 3371SOL     OW21748   4.357   2.963   3.000  0.3247 -0.1792 -0.1866
 3371SOL    HW121749   4.280   2.944   2.946  0.4448  3.8136 -1.7797
 3371SOL    HW221750   4.400   3.031   2.948  0.0925  0.7748  0.8755
 3372SOL     OW21751   0.511   1.866  13.067  0.0323  0.2342 -0.0711
 3372SOL    HW121752   0.532   1.951  13.106  0.4733  1.0880 -2.1751
 3372SOL    HW221753   0.571   1.806  13.111 -1.1074 -0.2286  0.8464
 3373SOL     OW21754   2.400   3.560   7.191  0.8005  0.6143 -0.1278
 3373SOL    HW121755   2.366   3.629   7.133 -0.7534 -0.3160 -0.3368
 3373SOL    HW221756   2.353   3.485   7.153 -0.9892 -0.1699  3.6185
 3374SOL     OW21757   2.707   1.813   9.857  0.4758 -0.1994  0.1035
 3374SOL    HW121758   2.736   1.892   9.902  1.7175  0.0498 -1.1249
 3374SOL    HW221759   2.703   1.854   9.770  3.1541 -0.4529 -0.1238
 3375SOL     OW21760   3.379   3.875   3.983 -0.2123 -0.2842  0.2282
 3375SOL    HW121761   3.349   3.784   3.989 -0.5251 -0.2048 -0.1310
 3375SOL    HW221762   3.453   3.854   3.926  0.6344  0.1147  1.1798
 3376SOL     OW21763   3.277   1.934   7.285 -0.2234 -0.0934 -0.3906
 3376SOL    HW121764   3.257   2.021   7.249  1.2215  1.2050  1.9535
 3376SOL    HW221765   3.368   1.946   7.311 -0.1880 -0.7213 -0.2366
 3377SOL     OW21766   2.890   0.942   7.928 -0.1610 -0.1007 -0.7244
 3377SOL    HW121767   2.889   1.028   7.969 -0.7050 -0.9528  1.0639
 3377SOL    HW221768   2.900   0.962   7.835  2.5425  0.6624 -0.2659
 3378SOL     OW21769   3.935   1.838   3.969 -0.2213  0.5477  0.1611
 3378SOL    HW121770   3.925   1.801   4.057 -0.0421  1.2788  0.4904
 3378SOL    HW221771   3.990   1.915   3.980 -1.2187  1.2961 -0.1698
 3379SOL     OW21772   3.804   2.288   6.290  0.2337  0.5549  0.3108
 3379SOL    HW121773   3.792   2.243   6.207 -1.1610  0.5148  0.5392
 3379SOL    HW221774   3.717   2.298   6.327  0.1357 -0.6982  0.4181
 3380SOL     OW21775   4.262   0.051  11.683 -0.0569  0.0863 -0.3717
 3380SOL    HW121776   4.353   0.041  11.654  0.0012  0.0803 -0.1864
 3380SOL    HW221777   4.268   0.143  11.706  3.6056 -0.4069  0.7120
 3381SOL     OW21778   2.703   2.246   0.005  0.9558 -0.1440 -0.4361
 3381SOL    HW121779   2.736   2.226   0.093 -1.1096  1.0013  0.6014
 3381SOL    HW221780   2.760   2.193  17.709 -1.1257 -2.2795 -0.5256
 3382SOL     OW21781   1.584   1.222   8.097 -0.1923  0.4162  0.6831
 3382SOL    HW121782   1.638   1.150   8.066 -2.6315 -0.0091 -2.5553
 3382SOL    HW221783   1.635   1.303   8.105 -1.8366  1.3888  1.3696
 3383SOL     OW21784   2.866   2.725  16.879 -0.1352 -0.7226  0.6294
 3383SOL    HW121785   2.774   2.747  16.891 -0.2111 -0.8044  0.2135
 3383SOL    HW221786   2.858   2.633  16.903  0.9544 -0.1891  3.0290
 3384SOL     OW21787   0.200   4.299   6.820 -0.1205  0.3841  0.0830
 3384SOL    HW121788   0.223   4.344   6.739  0.8160 -1.0682 -0.4751
 3384SOL    HW221789   0.289   4.310   6.853 -0.0804 -1.2696  0.5437
 3385SOL     OW21790   3.707   3.322   8.291 -0.1247 -0.5572 -0.3011
 3385SOL    HW121791   3.755   3.314   8.374  0.3706 -2.8456 -0.8330
 3385SOL    HW221792   3.626   3.356   8.331  0.7358 -0.8200  1.6702
 3386SOL     OW21793   2.429   0.569  13.478 -0.0739  0.8431 -0.1103
 3386SOL    HW121794   2.386   0.534  13.556  0.8827  2.0420  0.9614
 3386SOL    HW221795   2.488   0.496  13.460 -0.6419  0.4226 -0.2608
 3387SOL     OW21796   4.104   4.157  16.163 -0.0400 -0.3828 -0.0450
 3387SOL    HW121797   4.121   4.070  16.127 -0.6134 -0.7310  0.5156
 3387SOL    HW221798   4.027   4.180  16.112 -2.0797 -2.2348  2.1810
 3388SOL     OW21799   3.492   3.120   4.208  0.5489 -0.1588  0.2246
 3388SOL    HW121800   3.437   3.178   4.261 -1.2489 -2.7749  1.2299
 3388SOL    HW221801   3.550   3.182   4.164  0.8791  0.9478  2.2037
 3389SOL     OW21802   0.757   3.121   8.896  0.3009  0.3496  0.0870
 3389SOL    HW121803   0.698   3.162   8.833 -0.0908 -0.8183 -0.2997
 3389SOL    HW221804   0.779   3.194   8.955  2.1660 -0.3136  0.2149
 3390SOL     OW21805   1.689   0.887   3.337  0.1596 -0.0789 -0.2716
 3390SOL    HW121806   1.668   0.887   3.430  0.7204 -0.6301 -0.1457
 3390SOL    HW221807   1.758   0.821   3.331  0.1988  0.0819 -1.5583
 3391SOL     OW21808   4.334   4.337   2.254  0.1207  0.0579 -0.1660
 3391SOL    HW121809   4.353   4.409   2.194  0.8981  0.0260  0.0436
 3391SOL    HW221810   4.413   4.283   2.256  0.8530  1.0973 -1.0731
 3392SOL     OW21811   3.879   4.490   2.825  0.2426  0.9664  0.2380
 3392SOL    HW121812   3.790   4.524   2.835 -0.3423 -0.0449 -1.4620
 3392SOL    HW221813   3.880   4.485   2.729 -0.0649 -1.2415  0.3578
 3393SOL     OW21814   2.088   4.434   4.825 -0.1617  0.1048 -0.4347
 3393SOL    HW121815   2.125   4.522   4.829  0.0623 -0.0804  1.5017
 3393SOL    HW221816   2.119   4.414   4.737 -0.7989  1.3159 -0.9310
 3394SOL     OW21817   2.296   3.832   7.040  0.2682  0.0804 -0.1751
 3394SOL    HW121818   2.303   3.927   7.026  3.8782 -0.5198 -2.5971
 3394SOL    HW221819   2.203   3.817   7.055  0.6108 -0.5973  1.3117
 3395SOL     OW21820   0.552   3.058   7.427  0.2153 -0.5305 -0.0201
 3395SOL    HW121821   0.513   3.038   7.342 -2.4657 -1.3823  1.4021
 3395SOL    HW221822   0.467   3.049   7.471 -0.5424  1.5397 -1.0885
 3396SOL     OW21823   1.105   3.296   4.439  0.2465 -0.1653  0.7862
 3396SOL    HW121824   1.058   3.305   4.522  0.8521 -0.0185  1.1188
 3396SOL    HW221825   1.097   3.388   4.414 -1.5345 -0.0049  1.9900
 3397SOL     OW21826   0.465   1.306   6.144  0.5488 -0.5237 -0.3257
 3397SOL    HW121827   0.417   1.263   6.073  0.9747  1.3533 -1.7457
 3397SOL    HW221828   0.545   1.329   6.098  0.0671 -0.7049 -1.2480
 3398SOL     OW21829   1.827   3.163   8.403  0.6257 -0.2867 -0.5038
 3398SOL    HW121830   1.845   3.199   8.490  0.5732 -0.2304 -0.5156
 3398SOL    HW221831   1.834   3.069   8.415  0.5571  0.0641  2.2451
 3399SOL     OW21832   4.334   4.418   2.891 -0.7115 -0.5542 -0.8212
 3399SOL    HW121833   4.351   4.497   2.840 -0.7829  0.0708  0.1146
 3399SOL    HW221834   4.421   4.378   2.888 -0.5920 -0.4084  0.9072
 3400SOL     OW21835   1.660   2.158   9.159 -0.3610 -0.5723 -0.5774
 3400SOL    HW121836   1.629   2.151   9.068  0.0089  0.3979 -0.7756
 3400SOL    HW221837   1.677   2.252   9.162  2.2049 -1.0287 -1.1297
 3401SOL     OW21838   1.379   1.606  13.857  0.2087 -0.0491 -0.5442
 3401SOL    HW121839   1.294   1.647  13.874  0.8170  0.8829  0.3122
 3401SOL    HW221840   1.358   1.513  13.852  1.2222 -0.3546  0.7327
 3402SOL     OW21841   3.318   3.485   1.684 -0.7913  0.1743 -1.1462
 3402SOL    HW121842   3.334   3.391   1.677 -1.3898 -0.1395  1.5748
 3402SOL    HW221843   3.398   3.520   1.724  0.3878 -2.4330 -1.2553
 3403SOL     OW21844   1.242   3.416   0.892 -0.3620  0.2589 -0.0677
 3403SOL    HW121845   1.198   3.403   0.808  0.0631  2.7588 -0.6783
 3403SOL    HW221846   1.239   3.510   0.911 -1.2593  0.2891 -0.3662
 3404SOL     OW21847   4.524   1.113   4.689  0.3012 -0.3583  0.1719
 3404SOL    HW121848   4.618   1.118   4.706  0.6371 -0.3286 -1.6367
 3404SOL    HW221849   4.483   1.069   4.764 -1.1257  1.4269  0.4284
 3405SOL     OW21850   0.599   3.333   7.296  0.1163  0.3129 -0.0308
 3405SOL    HW121851   0.686   3.299   7.319 -0.9434 -2.1006  0.3975
 3405SOL    HW221852   0.614   3.346   7.203  2.4007 -0.8340  0.1724
 3406SOL     OW21853   0.723   2.661   2.567  0.0883  0.0916  0.0167
 3406SOL    HW121854   0.717   2.683   2.660 -0.4172  1.9175 -0.4654
 3406SOL    HW221855   0.703   2.569   2.586 -0.1882  0.2055  0.2738
 3407SOL     OW21856   2.027   2.074   9.152  0.4386 -0.3313  0.8414
 3407SOL    HW121857   2.026   2.169   9.144 -0.8533 -0.1725  2.8857
 3407SOL    HW221858   1.991   2.053   9.065  2.5602  1.1247 -0.3956
 3408SOL     OW21859   2.368   3.878   6.328  0.3645  0.1461 -0.1444
 3408SOL    HW121860   2.431   3.944   6.357  1.6535  0.3963 -3.5970
 3408SOL    HW221861   2.372   3.812   6.397  0.2328  1.3607  1.0268
 3409SOL     OW21862   1.091   3.223  15.672  0.1107 -0.5703 -0.6183
 3409SOL    HW121863   1.033   3.287  15.630  0.9614  1.3741  1.1629
 3409SOL    HW221864   1.167   3.277  15.690 -0.3286 -0.0376 -0.3575
 3410SOL     OW21865   1.393   2.457   4.059  0.8078 -0.0002  0.1854
 3410SOL    HW121866   1.432   2.530   4.011  2.3693  0.2053  1.7736
 3410SOL    HW221867   1.302   2.460   4.030  0.5739 -0.7527  0.8248
 3411SOL     OW21868   3.961   3.910   4.879 -0.2788  0.3296 -0.4309
 3411SOL    HW121869   3.886   3.894   4.937 -0.5872  1.0083 -0.6536
 3411SOL    HW221870   4.018   3.839   4.909 -0.4703  0.5563  0.4708
 3412SOL     OW21871   2.417   1.507   7.363 -0.2997 -0.7096  0.0835
 3412SOL    HW121872   2.419   1.429   7.308 -1.9820 -0.4526 -0.3503
 3412SOL    HW221873   2.409   1.575   7.296  2.1554 -0.4030  0.1154
 3413SOL     OW21874   2.019   2.991  16.488 -0.6996  0.2166  0.0741
 3413SOL    HW121875   2.111   3.017  16.491 -0.8918  0.9404 -0.2159
 3413SOL    HW221876   2.008   3.000  16.393  0.1315 -0.2650 -0.0683
 3414SOL     OW21877   2.563   2.718   2.817 -0.1310 -0.8459  0.5218
 3414SOL    HW121878   2.581   2.728   2.910  0.0446  1.7080  0.1945
 3414SOL    HW221879   2.607   2.635   2.796 -0.1366 -0.6190 -0.3727
 3415SOL     OW21880   0.673   0.681   2.193  0.0942  0.7330  0.1594
 3415SOL    HW121881   0.604   0.622   2.161  0.8290 -0.7670  1.3301
 3415SOL    HW221882   0.625   0.761   2.213 -1.3899 -0.8019  2.6113
 3416SOL     OW21883   4.522   2.458   7.161  0.2225 -0.2469  0.3369
 3416SOL    HW121884   4.605   2.416   7.185 -0.2584 -0.7552  1.0924
 3416SOL    HW221885   4.558   2.471   7.073 -0.5666 -0.1506  0.0340
 3417SOL     OW21886   2.027   1.619   3.820  0.6579  0.0340 -0.6608
 3417SOL    HW121887   2.060   1.707   3.841 -0.8479  0.3563  0.4005
 3417SOL    HW221888   2.109   1.571   3.807  0.7438 -0.4529  1.6284
 3418SOL     OW21889   3.118   4.528   5.490  0.5207  0.4297 -0.3431
 3418SOL    HW121890   3.163   4.443   5.493 -1.5131 -0.6170  0.6961
 3418SOL    HW221891   3.196   4.573   5.523  0.5326 -1.1331  1.7910
 3419SOL     OW21892   4.425   0.194   2.125 -0.7314  0.5757 -0.3554
 3419SOL    HW121893   4.511   0.227   2.100  0.3890 -1.6189  0.5774
 3419SOL    HW221894   4.453   0.124   2.185  2.5931  3.3752  1.3077
 3420SOL     OW21895   0.211   4.512   9.037  0.6583 -0.2766 -0.3870
 3420SOL    HW121896   0.131   4.471   9.005  1.3581 -0.2750 -2.1508
 3420SOL    HW221897   0.206   4.484   9.128  1.2497  1.5198  0.1878
 3421SOL     OW21898   4.132   1.511   1.101  0.5166 -0.0467  0.2755
 3421SOL    HW121899   4.067   1.468   1.045 -0.4485  1.7566  0.0161
 3421SOL    HW221900   4.078   1.528   1.179  0.4914  2.2438 -0.2591
 3422SOL     OW21901   3.710   3.767  17.462 -1.0213 -0.5856  0.0411
 3422SOL    HW121902   3.676   3.788  17.549  0.2561  1.0590  0.1469
 3422SOL    HW221903   3.693   3.851  17.419 -1.5065 -0.6543  0.0967
 3423SOL     OW21904   3.909   2.780   7.723 -0.2610 -0.3245 -0.4086
 3423SOL    HW121905   3.934   2.759   7.813  1.7269  1.3234 -0.5621
 3423SOL    HW221906   3.995   2.806   7.691 -0.3781 -1.6989 -1.8253
 3424SOL     OW21907   0.880   1.694   8.580  0.6409 -0.2625  0.2632
 3424SOL    HW121908   0.935   1.616   8.574 -0.4847 -1.0067 -0.4063
 3424SOL    HW221909   0.889   1.710   8.674  0.9800  2.0365 -0.1629
 3425SOL     OW21910   4.049   0.224   8.211 -0.1145  0.6511  0.0787
 3425SOL    HW121911   4.014   0.267   8.289 -2.8194 -1.1675 -0.1206
 3425SOL    HW221912   3.994   0.146   8.210 -0.6559  1.0431 -0.8385
 3426SOL     OW21913   3.807   0.108   5.273 -0.0455 -0.3625 -0.3081
 3426SOL    HW121914   3.891   0.083   5.311 -1.6590 -0.3509  3.2823
 3426SOL    HW221915   3.757   0.130   5.352  0.2986  1.4188 -0.5834
 3427SOL     OW21916   2.629   4.552   9.419  0.6240 -0.3101 -0.0777
 3427SOL    HW121917   2.652   4.556   9.326  3.1979 -2.5232  0.4544
 3427SOL    HW221918   2.585   4.468   9.430  0.3945 -0.3114 -1.0239
 3428SOL     OW21919   3.023   0.397   1.737  0.6306  0.9160  0.1269
 3428SOL    HW121920   3.075   0.394   1.656  0.0788 -1.8360 -0.1127
 3428SOL    HW221921   2.940   0.360   1.709  1.0319  0.0906  0.0042
 3429SOL     OW21922   0.804   0.165   6.440  0.3558 -0.0602 -0.0764
 3429SOL    HW121923   0.802   0.069   6.438  1.3699 -0.0959  0.5352
 3429SOL    HW221924   0.860   0.190   6.367 -0.2392 -0.0981 -0.5405
 3430SOL     OW21925   4.195   0.972   5.433 -0.3328  0.1606  0.0438
 3430SOL    HW121926   4.242   0.890   5.420  0.7992  0.1859  3.9533
 3430SOL    HW221927   4.111   0.942   5.469 -0.4382  0.2687 -0.1100
 3431SOL     OW21928   1.527   3.302   9.462  0.0790  0.4503 -0.0372
 3431SOL    HW121929   1.443   3.308   9.507 -0.0999 -0.2895 -0.2887
 3431SOL    HW221930   1.564   3.389   9.481  0.0674  0.8237 -1.7053
 3432SOL     OW21931   0.687   2.113   6.281 -0.7523  0.0171 -0.3044
 3432SOL    HW121932   0.739   2.107   6.201 -2.0323 -0.9587 -1.0504
 3432SOL    HW221933   0.643   2.028   6.277 -0.6573 -0.0286 -0.3814
 3433SOL     OW21934   0.796   0.221   4.628 -0.1863  0.1216  0.4436
 3433SOL    HW121935   0.748   0.138   4.630  0.2706 -0.1243  1.5474
 3433SOL    HW221936   0.770   0.253   4.542  1.5735  0.0573 -0.1108
 3434SOL     OW21937   3.327   1.985   3.440  0.0419 -0.2986 -0.2758
 3434SOL    HW121938   3.277   2.047   3.387  0.3735  0.5749  0.4321
 3434SOL    HW221939   3.330   2.030   3.524 -0.5900 -0.1463 -0.3326
 3435SOL     OW21940   2.021   3.010  10.867 -0.9735 -0.0984  0.1716
 3435SOL    HW121941   2.032   2.934  10.923 -1.2850 -0.3339 -0.0862
 3435SOL    HW221942   2.099   2.990  10.815 -1.4258  1.2817 -1.0329
 3436SOL     OW21943   1.585   0.970   3.583  0.1974  0.1762  0.5017
 3436SOL    HW121944   1.540   0.887   3.562 -1.1099  0.8710  0.5370
 3436SOL    HW221945   1.530   1.023   3.640  2.6319  3.2910 -0.0495
 3437SOL     OW21946   1.177   0.174   8.170  0.3137 -0.5855 -0.2856
 3437SOL    HW121947   1.258   0.221   8.148  0.9983 -0.7788  1.8109
 3437SOL    HW221948   1.139   0.233   8.235  0.2354  1.2924 -2.0455
 3438SOL     OW21949   0.107   3.654   0.276  0.0287  0.0710 -0.5430
 3438SOL    HW121950   0.131   3.566   0.248  2.2892  0.7384 -0.7533
 3438SOL    HW221951   0.068   3.691   0.197  0.9146 -0.4937 -1.2478
 3439SOL     OW21952   4.324   1.699   4.171 -0.0249  0.1166 -0.2200
 3439SOL    HW121953   4.357   1.671   4.256  3.8626 -0.4025 -1.8674
 3439SOL    HW221954   4.258   1.766   4.186  0.4164  0.2295  1.2392
 3440SOL     OW21955   0.204   2.161   3.080  0.2712  0.1415  0.0665
 3440SOL    HW121956   0.227   2.242   3.124  0.8924  0.3361 -0.6248
 3440SOL    HW221957   0.215   2.177   2.986 -1.1561 -2.2522 -0.5100
 3441SOL     OW21958   1.916   0.779   4.634  0.2473 -0.5276 -0.2704
 3441SOL    HW121959   1.842   0.794   4.693 -0.4491 -0.2981 -1.1939
 3441SOL    HW221960   1.891   0.810   4.547  0.0920 -0.7420 -0.3026
 3442SOL     OW21961   1.194   2.515   4.776  0.0142 -0.3836  0.1156
 3442SOL    HW121962   1.219   2.452   4.844  0.8538 -1.3286 -1.0904
 3442SOL    HW221963   1.278   2.561   4.774 -0.2789  0.0371 -2.0971
 3443SOL     OW21964   4.469   2.295   0.079 -0.2534  0.0377  0.2741
 3443SOL    HW121965   4.452   2.389   0.083  0.1271  0.0846  0.8410
 3443SOL    HW221966   4.468   2.265   0.170 -0.0552 -2.2432 -0.4704
 3444SOL     OW21967   0.823   4.590  11.119 -0.4036  0.2886  0.5705
 3444SOL    HW121968   0.735   4.553  11.113 -0.7727  0.8525  2.4240
 3444SOL    HW221969   0.848   4.546  11.200 -2.1588  1.8441  1.9836
 3445SOL     OW21970   1.778   2.518   4.532 -0.2830  0.6569 -0.0706
 3445SOL    HW121971   1.855   2.463   4.517 -1.2470 -0.6738 -0.1912
 3445SOL    HW221972   1.819   2.600   4.561  2.5007 -0.3467 -1.2077
 3446SOL     OW21973   2.805   2.835   5.722 -0.4911 -0.9452  0.2139
 3446SOL    HW121974   2.783   2.881   5.641 -2.8060 -0.9627  0.8282
 3446SOL    HW221975   2.869   2.775   5.684 -1.2801 -1.5204 -0.2364
 3447SOL     OW21976   0.001   0.316   8.606 -0.4032 -0.0677 -0.0755
 3447SOL    HW121977   0.057   0.268   8.667 -0.4351  0.9045  0.7300
 3447SOL    HW221978   0.024   0.408   8.622  1.6910 -0.6178  0.1286
 3448SOL     OW21979   4.362   1.556   1.438  0.7546  0.4920 -0.1302
 3448SOL    HW121980   4.447   1.550   1.482 -0.0978  2.7933  1.7927
 3448SOL    HW221981   4.310   1.578   1.516 -0.1689 -0.5586 -0.4487
 3449SOL     OW21982   4.721   0.638   4.052 -0.1757 -0.4148  0.0343
 3449SOL    HW121983   4.636   0.681   4.062 -0.0464 -0.4592  1.3623
 3449SOL    HW221984   0.026   0.721   4.065 -0.6897 -0.4504  2.1235
 3450SOL     OW21985   3.053   0.574   5.487 -0.2802  0.1006 -0.3988
 3450SOL    HW121986   3.024   0.664   5.472 -2.0601 -0.5789 -0.9881
 3450SOL    HW221987   3.031   0.563   5.579  1.3884  0.5247  0.0517
 3451SOL     OW21988   2.533   1.735   1.381 -0.2255 -0.2161  0.1608
 3451SOL    HW121989   2.605   1.679   1.351  0.6425  0.1180  1.6139
 3451SOL    HW221990   2.475   1.664   1.409 -1.8939  1.8223  1.8506
 3452SOL     OW21991   0.941   0.488   5.305 -0.1397  0.3568  0.6347
 3452SOL    HW121992   0.871   0.442   5.351 -0.4353  0.4921  0.3217
 3452SOL    HW221993   0.929   0.467   5.212  0.0623  0.3164  0.6164
 3453SOL     OW21994   3.322   2.113   8.485 -0.6973  0.5545  0.0324
 3453SOL    HW121995   3.321   2.174   8.559  0.7649  0.3673  0.1928
 3453SOL    HW221996   3.414   2.115   8.461 -1.0815 -0.1816 -1.4476
 3454SOL     OW21997   2.267   0.891  11.728 -0.1684 -0.2708 -0.2596
 3454SOL    HW121998   2.313   0.838  11.663  0.3388 -1.0802  0.7662
 3454SOL    HW221999   2.235   0.820  11.784  1.3636  1.4998  2.8217
 3455SOL     OW22000   0.804   3.333   9.031 -0.2241 -1.0938  0.1508
 3455SOL    HW122001   0.802   3.349   9.125 -4.2782 -0.1076 -0.1081
 3455SOL    HW222002   0.788   3.419   8.992 -0.1493 -0.9653  0.4039
 3456SOL     OW22003   0.064   2.417  17.002 -0.4253 -0.1554 -0.2805
 3456SOL    HW122004   0.011   2.478  17.054 -0.3654  0.7652 -1.2965
 3456SOL    HW222005   0.153   2.443  17.026 -0.9343  1.1217  0.2140
 3457SOL     OW22006   1.310   4.363  15.501 -0.8422 -0.1821  0.5178
 3457SOL    HW122007   1.279   4.274  15.490  1.1792 -0.6078 -1.6614
 3457SOL    HW222008   1.379   4.350  15.567 -0.5122  3.5333  0.9121
 3458SOL     OW22009   3.591   2.739   6.883  0.6310  0.3416  0.1761
 3458SOL    HW122010   3.598   2.771   6.793  0.5555  2.3355  0.8673
 3458SOL    HW222011   3.507   2.769   6.918 -0.4525  0.3463 -2.4344
 3459SOL     OW22012   1.402   3.544   7.061  0.2358 -0.2599 -0.3294
 3459SOL    HW122013   1.336   3.500   7.008  0.3272  1.5892 -2.0042
 3459SOL    HW222014   1.391   3.636   7.034  0.7147 -0.6135 -1.7136
 3460SOL     OW22015   0.019   2.134   3.681  0.4231  0.2824 -0.4043
 3460SOL    HW122016   0.046   2.051   3.640 -0.1524 -0.7990  1.4127
 3460SOL    HW222017   0.104   2.143   3.723  0.7625 -2.2100 -0.5441
 3461SOL     OW22018   2.531   2.019   5.627  0.0517 -0.6887  0.0999
 3461SOL    HW122019   2.530   2.001   5.721 -1.1408  0.8322  0.3734
 3461SOL    HW222020   2.621   2.004   5.599  0.4974  1.2675  0.5087
 3462SOL     OW22021   4.344   4.616   9.313 -0.0191  0.0697 -0.0076
 3462SOL    HW122022   4.314   4.559   9.242  1.0026 -0.0646 -0.3435
 3462SOL    HW222023   4.436   4.628   9.290 -0.4094  0.4820 -1.3431
 3463SOL     OW22024   0.714   4.716   4.558 -0.5624 -0.0327  0.0279
 3463SOL    HW122025   0.675   4.657   4.623 -1.0005 -0.1721 -0.3606
 3463SOL    HW222026   0.673   4.694   4.474  0.2531  1.9092 -0.8673
 3464SOL     OW22027   4.720   0.405  13.652  0.2901  0.0419  0.7935
 3464SOL    HW122028   0.002   0.313  13.666  0.2795  0.0747  1.0323
 3464SOL    HW222029   0.037   0.455  13.709  0.4389  0.4540  0.2721
 3465SOL     OW22030   2.442   0.542  15.304  0.0093  0.8189 -0.0642
 3465SOL    HW122031   2.405   0.538  15.216  1.6423  2.5000 -0.8371
 3465SOL    HW222032   2.411   0.627  15.333 -0.6337  0.3925  0.4935
 3466SOL     OW22033   4.363   2.012   9.143 -0.1845 -0.3871 -0.7660
 3466SOL    HW122034   4.399   1.925   9.125  0.0981 -0.3352 -0.4311
 3466SOL    HW222035   4.435   2.046   9.196 -2.0574  1.9313  0.2648
 3467SOL     OW22036   1.249   0.306   3.550 -0.3975  0.3729 -0.3425
 3467SOL    HW122037   1.285   0.304   3.462 -1.0472 -0.9284 -0.5700
 3467SOL    HW222038   1.156   0.318   3.526 -0.6570 -3.0488 -0.9672
 3468SOL     OW22039   1.777   1.033  12.213  0.8733 -0.5041 -0.9950
 3468SOL    HW122040   1.704   1.081  12.175  0.9595  0.9250  0.6581
 3468SOL    HW222041   1.782   1.067  12.302  1.5870 -1.3738 -0.7047
 3469SOL     OW22042   4.422   1.355   4.599 -0.1030 -0.0951  0.0628
 3469SOL    HW122043   4.402   1.416   4.671  2.5219  1.5105 -0.5694
 3469SOL    HW222044   4.439   1.270   4.640 -1.0562 -0.4510 -0.3005
 3470SOL     OW22045   3.891   1.848   5.235 -0.1526  0.3855  0.0797
 3470SOL    HW122046   3.927   1.784   5.174 -0.4796  1.1439 -0.9065
 3470SOL    HW222047   3.965   1.853   5.295  0.0504  0.7608 -0.2059
 3471SOL     OW22048   3.684   0.164   4.521  0.6360 -0.3773  0.2801
 3471SOL    HW122049   3.671   0.082   4.473  1.5328 -0.3981  0.0724
 3471SOL    HW222050   3.709   0.137   4.609  0.6473  1.6748  0.9080
 3472SOL     OW22051   1.266   2.250   5.342  0.5139  0.2179  0.1149
 3472SOL    HW122052   1.357   2.278   5.349  0.4907  0.4328 -0.4155
 3472SOL    HW222053   1.249   2.198   5.420  0.7243 -0.2372 -0.1428
 3473SOL     OW22054   4.515   0.101   2.963 -0.6852  0.7939 -0.1696
 3473SOL    HW122055   4.508   0.125   3.056 -0.3135  0.1955  0.0133
 3473SOL    HW222056   4.430   0.122   2.924 -0.4570  0.0454 -1.0668
 3474SOL     OW22057   1.488   0.274   3.189  0.2621 -0.0824 -0.1221
 3474SOL    HW122058   1.403   0.305   3.220  0.0928 -0.9100  0.2405
 3474SOL    HW222059   1.456   0.235   3.108 -3.9516 -0.1400  1.5877
 3475SOL     OW22060   2.028   3.440  11.299  0.0865  0.1344  0.1339
 3475SOL    HW122061   1.989   3.525  11.276 -1.3926 -0.2887  1.0691
 3475SOL    HW222062   2.111   3.461  11.341 -1.6800  2.5147  2.4435
 3476SOL     OW22063   0.396   4.253   8.612 -0.2474  0.4924 -0.4551
 3476SOL    HW122064   0.329   4.277   8.548 -0.2143  1.6048 -0.0759
 3476SOL    HW222065   0.384   4.322   8.678  0.2883 -0.8229  1.0264
 3477SOL     OW22066   4.115   0.036   5.106 -0.0590 -0.0318  0.1594
 3477SOL    HW122067   4.038   0.086   5.134  0.4488  1.1819 -0.6300
 3477SOL    HW222068   4.160   0.102   5.054 -1.4387  0.7672 -0.0253
 3478SOL     OW22069   3.032   3.085   8.409 -0.4469  0.7523 -0.5399
 3478SOL    HW122070   3.004   3.067   8.319 -2.6786 -0.3298  0.3717
 3478SOL    HW222071   2.947   3.120   8.438  0.4073  1.6322  0.9009
 3479SOL     OW22072   1.788   2.808   6.404  0.2860 -0.0373 -0.1016
 3479SOL    HW122073   1.767   2.778   6.493  1.4598 -1.9408 -0.4747
 3479SOL    HW222074   1.792   2.733   6.346 -0.0627  0.0528 -0.2464
 3480SOL     OW22075   1.938   4.595   2.298 -0.3953  0.5512  0.3162
 3480SOL    HW122076   1.937   4.676   2.349  2.4949  2.3041 -2.4404
 3480SOL    HW222077   1.977   4.533   2.359 -1.5808 -2.1260 -1.6189
 3481SOL     OW22078   3.523   0.029   4.987 -0.3193 -0.0914  0.3274
 3481SOL    HW122079   3.617   0.010   4.993 -0.0696  0.4097 -1.8683
 3481SOL    HW222080   3.492   4.683   4.960  2.6362 -1.4124  1.1085
 3482SOL     OW22081   1.136   2.024  17.571 -0.1368  0.4476  0.1802
 3482SOL    HW122082   1.134   1.929  17.581 -0.0102  0.2752 -1.4816
 3482SOL    HW222083   1.042   2.036  17.559 -0.3082 -0.9301  0.1394
 3483SOL     OW22084   3.618   1.415   4.191 -0.4338  0.3288  0.0928
 3483SOL    HW122085   3.606   1.508   4.208  3.8000  0.7113  1.0300
 3483SOL    HW222086   3.634   1.414   4.096 -0.8468 -1.4862  0.0431
 3484SOL     OW22087   2.720   2.894   8.220 -0.3140 -0.1249 -0.7859
 3484SOL    HW122088   2.773   2.973   8.215 -0.4737 -0.0375 -1.1410
 3484SOL    HW222089   2.709   2.895   8.315  1.1250 -0.1758 -0.6263
 3485SOL     OW22090   4.189   4.567   3.089  0.2288 -0.1709  0.3787
 3485SOL    HW122091   4.235   4.533   3.012  0.0627 -0.1703  0.2797
 3485SOL    HW222092   4.241   4.644   3.111  0.1506 -0.3143  1.0537
 3486SOL     OW22093   0.122   3.748   3.829  0.2626 -0.2854 -0.1954
 3486SOL    HW122094   0.083   3.662   3.844 -1.7193  0.8187  1.0277
 3486SOL    HW222095   0.161   3.774   3.912 -0.5633  0.3382 -0.0015
 3487SOL     OW22096   4.508   2.204  16.954 -0.5496  0.2936 -0.5358
 3487SOL    HW122097   4.546   2.225  17.040  3.5861 -1.0336 -2.0135
 3487SOL    HW222098   4.498   2.110  16.966 -0.8584  0.3126 -0.6555
 3488SOL     OW22099   1.683   3.865   8.228  0.0008  0.1604 -0.3169
 3488SOL    HW122100   1.608   3.833   8.278 -2.3023  0.8737 -3.3105
 3488SOL    HW222101   1.746   3.874   8.299  0.7206 -1.3621 -0.7572
 3489SOL     OW22102   3.238   1.129   5.824  0.0525 -0.7664  0.5710
 3489SOL    HW122103   3.280   1.195   5.880 -0.6024 -1.0742  1.4126
 3489SOL    HW222104   3.286   1.048   5.841  2.5530  0.7522  0.7100
 3490SOL     OW22105   4.460   2.060   8.620  0.2330 -0.0281  0.3027
 3490SOL    HW122106   4.532   2.069   8.558 -1.0311 -2.7225 -1.5438
 3490SOL    HW222107   4.507   2.006   8.684 -1.9825 -0.3094  1.6810
 3491SOL     OW22108   1.820   3.071   7.210 -0.1886 -0.0322 -0.6106
 3491SOL    HW122109   1.764   3.113   7.276  0.4382  2.3907 -1.6508
 3491SOL    HW222110   1.879   3.142   7.185  1.4656 -0.9252  0.6993
 3492SOL     OW22111   3.197   0.555   9.867  0.7249 -0.3615  0.5128
 3492SOL    HW122112   3.104   0.532   9.865  0.6377  0.0063  0.4402
 3492SOL    HW222113   3.236   0.472   9.840  0.2943 -0.8439  1.3626
 3493SOL     OW22114   2.046   0.742  15.194  0.1230 -0.0210 -0.1353
 3493SOL    HW122115   1.977   0.697  15.145  0.0653 -0.2157  0.1223
 3493SOL    HW222116   2.048   0.677  15.264 -1.0764 -0.9166 -0.9268
 3494SOL     OW22117   3.553   0.510  16.994  0.6516  0.4360 -0.1961
 3494SOL    HW122118   3.645   0.518  17.018  1.1683 -2.2151 -1.2792
 3494SOL    HW222119   3.531   0.419  17.016 -3.7802  1.5261  0.0617
 3495SOL     OW22120   3.556   4.351   5.909 -0.1814 -0.4472  0.0664
 3495SOL    HW122121   3.521   4.408   5.977  1.1161  0.0733  0.3038
 3495SOL    HW222122   3.521   4.264   5.928 -0.4565 -0.0856  1.2295
 3496SOL     OW22123   1.324   4.740   7.598  0.3892  0.5290  0.1265
 3496SOL    HW122124   1.306   4.662   7.545 -0.6496  0.7464  0.1655
 3496SOL    HW222125   1.241   0.044   7.616  0.8449  0.7364  1.7768
 3497SOL     OW22126   2.054   2.020   2.123  0.2521  0.0563  0.4135
 3497SOL    HW122127   1.970   2.047   2.161 -0.9586 -3.1851  0.1118
 3497SOL    HW222128   2.036   1.948   2.062  1.1690  0.9307 -0.9030
 3498SOL     OW22129   2.565   2.956   6.652  0.4531 -0.1209  0.0940
 3498SOL    HW122130   2.496   2.905   6.610  0.5076  2.1413 -2.6967
 3498SOL    HW222131   2.627   2.884   6.666 -0.9135 -1.2773  0.1691
 3499SOL     OW22132   2.867   0.517   8.845  0.3448  0.2145 -0.1908
 3499SOL    HW122133   2.865   0.428   8.880 -0.4346  0.5177  0.5309
 3499SOL    HW222134   2.837   0.509   8.755  1.0110  2.1145 -0.5899
 3500SOL     OW22135   3.139   4.262   7.058  0.0925 -0.0526  0.4161
 3500SOL    HW122136   3.084   4.192   7.091 -1.7172  1.2535  0.1676
 3500SOL    HW222137   3.209   4.253   7.122  1.0361 -0.4198 -0.6689
 3501SOL     OW22138   1.121   0.478   6.884  0.1821 -0.2303  0.0324
 3501SOL    HW122139   1.098   0.564   6.850 -0.6076 -1.0255 -1.4269
 3501SOL    HW222140   1.064   0.422   6.831 -2.6184  2.8435 -0.1917
 3502SOL     OW22141   0.680   1.619   7.661  0.1807 -0.2185 -0.1931
 3502SOL    HW122142   0.762   1.668   7.652 -0.5983  1.0123 -0.4470
 3502SOL    HW222143   0.641   1.668   7.733 -0.1010  0.3240 -0.7111
 3503SOL     OW22144   3.466   0.950   2.118  0.5088 -0.1393  0.1763
 3503SOL    HW122145   3.544   0.994   2.152 -0.6947 -0.4054  3.2158
 3503SOL    HW222146   3.492   0.859   2.132 -1.5075 -0.2784  2.8657
 3504SOL     OW22147   3.234   0.951   0.473  0.1470 -0.0859 -0.2684
 3504SOL    HW122148   3.324   0.980   0.455 -0.1175  0.2642 -1.0207
 3504SOL    HW222149   3.233   0.979   0.564  0.5423  1.6851 -0.8077
 3505SOL     OW22150   3.502   2.876   6.627 -0.1091  0.3904 -0.1339
 3505SOL    HW122151   3.499   2.969   6.650 -1.3323 -0.3942  2.7948
 3505SOL    HW222152   3.408   2.862   6.623  0.1529 -1.3217 -0.0854
 3506SOL     OW22153   0.977   1.622   4.711 -0.1797 -0.7215  0.0808
 3506SOL    HW122154   0.940   1.708   4.728  0.3648  0.0113 -2.5378
 3506SOL    HW222155   0.921   1.569   4.768  0.8335 -1.1011  0.7401
 3507SOL     OW22156   2.540   4.003   3.371  0.3773 -0.2487  0.0002
 3507SOL    HW122157   2.518   3.922   3.324 -2.3128 -0.8711  2.3430
 3507SOL    HW222158   2.635   4.003   3.386  0.2810  0.0519  0.5999
 3508SOL     OW22159   4.526   3.040   4.068 -0.0998  0.1184  0.2260
 3508SOL    HW122160   4.528   2.955   4.024 -0.6822  0.4560 -0.4494
 3508SOL    HW222161   4.483   3.024   4.152  0.0867 -0.2250  0.2565
 3509SOL     OW22162   3.538   3.254  10.193  0.0137  0.2390 -0.2160
 3509SOL    HW122163   3.621   3.215  10.166 -0.4589  0.1661 -1.5677
 3509SOL    HW222164   3.524   3.226  10.283 -3.2476  1.1343 -0.4244
 3510SOL     OW22165   1.016   2.103   4.252 -0.2602  0.1306 -0.1515
 3510SOL    HW122166   1.092   2.138   4.206 -1.4258  1.8735 -0.7780
 3510SOL    HW222167   1.051   2.040   4.314 -2.2867  1.2621  2.1617
 3511SOL     OW22168   3.607   3.552   7.107 -0.0104 -0.1715  0.1083
 3511SOL    HW122169   3.521   3.593   7.119 -1.2274 -3.3101  1.9228
 3511SOL    HW222170   3.660   3.559   7.186 -1.8092  1.6482  1.1427
 3512SOL     OW22171   1.386   2.654  16.150 -0.7332  0.2358 -0.4080
 3512SOL    HW122172   1.398   2.668  16.056 -0.2030  1.8794 -0.0809
 3512SOL    HW222173   1.464   2.600  16.162 -2.2842 -2.1373 -0.9820
 3513SOL     OW22174   1.179   1.013   3.052  0.1878  0.2404  0.2338
 3513SOL    HW122175   1.213   1.013   2.963 -2.2921 -3.6926 -0.7374
 3513SOL    HW222176   1.248   1.068   3.089 -0.3603  0.8052  0.4162
 3514SOL     OW22177   2.911   1.344  15.675 -0.4033  0.1102  0.5628
 3514SOL    HW122178   2.980   1.410  15.683 -0.2827  0.1973 -1.1559
 3514SOL    HW222179   2.863   1.377  15.599 -1.5317  1.8971  2.0101
 3515SOL     OW22180   4.064   1.442   7.258 -0.2523  0.5307 -0.5212
 3515SOL    HW122181   3.975   1.407   7.264 -0.4107  0.9006 -0.6914
 3515SOL    HW222182   4.079   1.448   7.353 -2.1600  1.3318 -0.2775
 3516SOL     OW22183   4.702   2.356   4.318 -0.2157  0.3024 -0.2021
 3516SOL    HW122184   4.730   2.282   4.371  1.2323  3.1775  3.0559
 3516SOL    HW222185   0.000   2.429   4.365  0.5162 -0.2267  0.0051
 3517SOL     OW22186   3.991   0.928   5.603  0.0442  0.5130 -0.1199
 3517SOL    HW122187   3.956   0.852   5.557 -1.6180  0.9453  0.4326
 3517SOL    HW222188   3.922   0.953   5.665 -0.1360  0.0290 -0.1271
 3518SOL     OW22189   2.825   1.466  10.163  0.4190  0.0057 -0.2825
 3518SOL    HW122190   2.828   1.383  10.210 -1.9646  0.8634  1.3812
 3518SOL    HW222191   2.832   1.516  10.244 -0.4607 -0.5792  0.1598
 3519SOL     OW22192   1.565   2.099   6.960 -0.0594 -0.3123 -0.3222
 3519SOL    HW122193   1.621   2.175   6.971 -2.4283  1.4172 -0.3771
 3519SOL    HW222194   1.477   2.133   6.943 -0.4011  0.6652  3.4199
 3520SOL     OW22195   2.157   4.543  12.756 -0.8718  0.8582 -0.1856
 3520SOL    HW122196   2.173   4.575  12.667  0.1229 -0.7605 -0.5850
 3520SOL    HW222197   2.247   4.524  12.782 -1.1808 -0.1049  0.1787
 3521SOL     OW22198   3.508   2.250   2.467  0.1339 -0.4978  0.1778
 3521SOL    HW122199   3.414   2.267   2.471  0.3921  0.5453  1.6136
 3521SOL    HW222200   3.530   2.274   2.557  0.1631  0.7460 -0.1732
 3522SOL     OW22201   0.632   3.962   4.061  0.2767 -0.1124  0.2389
 3522SOL    HW122202   0.704   4.025   4.056 -0.4491  0.8916  2.6692
 3522SOL    HW222203   0.663   3.896   4.124  0.2736 -0.3375  0.0037
 3523SOL     OW22204   1.155   4.102   4.334  0.0689  0.6244  0.2479
 3523SOL    HW122205   1.060   4.085   4.339  0.1404  0.3317  0.6333
 3523SOL    HW222206   1.169   4.087   4.241  1.8871 -1.3660  0.8367
 3524SOL     OW22207   2.355   1.534   9.017 -0.2644 -0.2280 -0.0436
 3524SOL    HW122208   2.431   1.550   9.072  0.4849  0.4203 -1.2624
 3524SOL    HW222209   2.396   1.554   8.932 -1.3603  0.3650 -0.4387
 3525SOL     OW22210   3.291   2.803   2.556  0.2906  0.1505 -0.3407
 3525SOL    HW122211   3.336   2.737   2.608  1.6908  1.4196  0.0664
 3525SOL    HW222212   3.331   2.885   2.584  1.1488 -0.3992  0.0238
 3526SOL     OW22213   3.199   0.575   8.849 -0.4596  0.1834 -0.7111
 3526SOL    HW122214   3.135   0.558   8.919  0.4178 -0.0041  0.0362
 3526SOL    HW222215   3.203   0.489   8.807 -0.2602 -0.0386 -0.2372
 3527SOL     OW22216   2.111   3.952   3.946 -0.1480  0.0113 -0.5987
 3527SOL    HW122217   2.057   4.019   3.987 -1.8541 -1.2690 -0.7692
 3527SOL    HW222218   2.053   3.905   3.886  0.9841  1.2776 -2.6797
 3528SOL     OW22219   0.559   0.225   5.600 -0.1023  0.0056 -0.0454
 3528SOL    HW122220   0.486   0.202   5.543 -0.7261  1.8113  0.0228
 3528SOL    HW222221   0.514   0.256   5.678  0.2807  0.4516  0.0027
 3529SOL     OW22222   4.045   0.607  13.845  0.4666  0.0285 -0.2215
 3529SOL    HW122223   3.972   0.635  13.789 -0.7603 -1.4702  0.6383
 3529SOL    HW222224   4.114   0.657  13.802 -0.0491  1.0027  0.0800
 3530SOL     OW22225   4.387   3.783   9.886 -0.3676 -0.2610  0.4650
 3530SOL    HW122226   4.423   3.757   9.801 -0.1099 -0.9339  0.7749
 3530SOL    HW222227   4.441   3.726   9.941  0.0612  0.5314  0.8583
 3531SOL     OW22228   0.560   4.053   0.678  0.2044  0.1778 -0.0783
 3531SOL    HW122229   0.560   4.147   0.695  3.5062  0.2550 -0.3773
 3531SOL    HW222230   0.579   4.052   0.584 -0.9380  0.2129 -0.3095
 3532SOL     OW22231   3.085   1.639  13.444  0.2826  0.2757 -0.7866
 3532SOL    HW122232   3.049   1.552  13.426 -2.0575  1.2451 -0.7930
 3532SOL    HW222233   3.076   1.682  13.359 -1.3476  2.4988  0.4973
 3533SOL     OW22234   0.137   1.147   7.141 -0.1456  0.7130 -0.1497
 3533SOL    HW122235   0.172   1.233   7.164  0.9657  0.1706  0.1540
 3533SOL    HW222236   0.077   1.131   7.214 -0.1390 -1.5302 -0.6246
 3534SOL     OW22237   0.336   2.894   9.493 -0.4357 -0.1547 -0.3260
 3534SOL    HW122238   0.245   2.923   9.489 -0.8955 -1.2470  2.3050
 3534SOL    HW222239   0.350   2.899   9.587  0.9114 -4.9223 -0.2512
 3535SOL     OW22240   1.201   4.704   6.071 -0.2655 -0.1719 -0.4348
 3535SOL    HW122241   1.160   4.697   6.157 -0.8447 -3.8629 -0.9945
 3535SOL    HW222242   1.166   4.632   6.018 -1.1582 -0.9344  1.1980
 3536SOL     OW22243   3.469   0.297   4.920 -0.1146 -0.5299  0.6768
 3536SOL    HW122244   3.375   0.295   4.934 -0.2157  2.0638  0.4533
 3536SOL    HW222245   3.495   0.207   4.939  0.1380 -0.1781  2.0071
 3537SOL     OW22246   3.678   0.150   2.783  0.7659 -0.8145  0.1269
 3537SOL    HW122247   3.693   0.190   2.869  3.9219 -2.5368  0.3494
 3537SOL    HW222248   3.594   0.106   2.799 -0.7476  1.8602 -0.3908
 3538SOL     OW22249   3.612   3.015   3.820  0.0101  0.1726  0.2667
 3538SOL    HW122250   3.702   3.035   3.795 -0.2384 -1.7857 -2.3115
 3538SOL    HW222251   3.576   2.988   3.735  0.7557 -1.0616  0.3403
 3539SOL     OW22252   1.984   1.665   6.409 -0.1610 -0.1180 -0.5285
 3539SOL    HW122253   1.947   1.588   6.366 -1.7525  0.5148 -0.3020
 3539SOL    HW222254   2.058   1.690   6.353 -0.4688  0.7972 -0.5353
 3540SOL     OW22255   0.719   3.110   6.323  0.0024  0.3636  0.4590
 3540SOL    HW122256   0.739   3.118   6.416 -2.1321  3.1549  0.6811
 3540SOL    HW222257   0.675   3.025   6.319 -0.0722  0.5191 -2.2273
 3541SOL     OW22258   0.468   2.639   9.015  0.1242  1.0069  0.2452
 3541SOL    HW122259   0.562   2.650   9.027  0.4893 -1.9349 -0.0655
 3541SOL    HW222260   0.424   2.674   9.092  0.0502 -1.0550  1.1444
 3542SOL     OW22261   2.992   0.759  10.726 -0.5793 -0.6399  0.5398
 3542SOL    HW122262   2.933   0.704  10.675  2.4964 -2.8483 -0.6156
 3542SOL    HW222263   3.072   0.752  10.674 -0.5190  1.0408  0.4126
 3543SOL     OW22264   0.018   3.582   1.167  0.1387 -0.4754  0.1874
 3543SOL    HW122265   4.705   3.538   1.233 -2.6453 -0.0108 -1.7976
 3543SOL    HW222266   0.016   3.510   1.103  1.3090 -0.5480  0.2266
 3544SOL     OW22267   2.808   3.732  17.403  0.0079 -0.3267  0.2055
 3544SOL    HW122268   2.722   3.774  17.412  1.2705  2.6425 -1.5809
 3544SOL    HW222269   2.858   3.754  17.481  0.4248  0.1134 -0.1856
 3545SOL     OW22270   1.894   2.759   8.636 -0.1474  0.1490  0.3741
 3545SOL    HW122271   1.859   2.736   8.722  1.2961  2.7484  1.6596
 3545SOL    HW222272   1.902   2.673   8.594  0.7855  1.7615 -2.7828
 3546SOL     OW22273   1.591   2.113   5.859  0.3823 -0.2249 -0.1909
 3546SOL    HW122274   1.537   2.133   5.936 -1.1774  2.1917 -1.9110
 3546SOL    HW222275   1.634   2.029   5.879 -2.2652 -1.4010  0.5762
 3547SOL     OW22276   3.105   4.143   4.261 -0.3528 -0.0251 -0.7865
 3547SOL    HW122277   3.050   4.181   4.330 -0.3790  0.2791 -0.9736
 3547SOL    HW222278   3.115   4.057   4.301  0.2298  0.4201  0.0241
 3548SOL     OW22279   0.875   2.727   3.608  0.0787 -0.7464 -0.1898
 3548SOL    HW122280   0.892   2.648   3.661  2.3221  0.3915  0.7706
 3548SOL    HW222281   0.779   2.733   3.611  0.0377 -1.7972  0.8377
 3549SOL     OW22282   1.594   2.945  14.006  0.5930  0.2498 -0.1508
 3549SOL    HW122283   1.612   2.943  14.100 -0.0552 -0.1021 -0.0347
 3549SOL    HW222284   1.652   3.013  13.971 -1.1803  1.2342 -1.2420
 3550SOL     OW22285   3.965   2.849  14.292 -0.1180  0.4019  0.2873
 3550SOL    HW122286   3.910   2.921  14.324  1.5642  1.3078  1.1418
 3550SOL    HW222287   4.010   2.896  14.222  0.2781  1.5767  1.3324
 3551SOL     OW22288   3.562   3.800   5.132  0.3754  0.4705  0.1714
 3551SOL    HW122289   3.562   3.764   5.221  0.1448  0.7212  0.2739
 3551SOL    HW222290   3.480   3.767   5.095  0.4453  1.5125 -0.9113
 3552SOL     OW22291   3.699   1.737   9.150  0.2809  0.0403 -0.4732
 3552SOL    HW122292   3.618   1.710   9.194  0.8344 -2.2768 -0.8719
 3552SOL    HW222293   3.681   1.830   9.162 -0.3694 -0.4901  2.6472
 3553SOL     OW22294   2.810   1.688  16.520 -0.0915  0.2503 -0.0424
 3553SOL    HW122295   2.849   1.689  16.607  0.8125  1.8300 -0.4568
 3553SOL    HW222296   2.721   1.692  16.553  0.4100  1.4228  1.1652
 3554SOL     OW22297   2.108   4.164   9.396 -0.2424 -0.2874  0.3961
 3554SOL    HW122298   2.049   4.165   9.321 -1.0235  0.0594  1.0182
 3554SOL    HW222299   2.077   4.243   9.439  0.0783 -0.6891  1.3569
 3555SOL     OW22300   4.722   0.919   3.761 -0.2559  0.3452  0.3866
 3555SOL    HW122301   0.016   0.993   3.713 -0.6718  0.1020 -0.2790
 3555SOL    HW222302   0.031   0.929   3.842  2.0996 -0.7988 -0.9372
 3556SOL     OW22303   1.342   3.516   5.408 -0.1830 -0.5660  0.3014
 3556SOL    HW122304   1.354   3.479   5.496 -2.0244 -0.0794  0.7651
 3556SOL    HW222305   1.424   3.490   5.366 -0.6867  0.8970 -1.5396
 3557SOL     OW22306   0.249   1.630   3.970  0.1993  0.1826 -0.2916
 3557SOL    HW122307   0.334   1.629   3.926  0.0730  1.2879 -0.5605
 3557SOL    HW222308   0.215   1.719   3.960 -0.1884 -0.0616 -1.1596
 3558SOL     OW22309   1.857   1.508   8.018 -0.4679  0.5057  0.2024
 3558SOL    HW122310   1.763   1.507   8.037 -0.4365  2.2061  0.4433
 3558SOL    HW222311   1.898   1.443   8.075  0.4116  1.1781  0.3398
 3559SOL     OW22312   3.071   2.668   7.435 -0.0671  0.1453 -0.0331
 3559SOL    HW122313   3.141   2.679   7.498 -0.4421  0.3487  0.3478
 3559SOL    HW222314   3.064   2.572   7.439  0.2175  0.0694 -1.1952
 3560SOL     OW22315   4.118   3.734   6.898 -0.2163  0.4188  0.1798
 3560SOL    HW122316   4.064   3.661   6.868  1.3124 -0.0726 -1.3702
 3560SOL    HW222317   4.182   3.726   6.828 -2.0981  1.2921 -1.6337
 3561SOL     OW22318   2.901   2.759   2.805 -0.1716  0.8310 -0.6329
 3561SOL    HW122319   2.807   2.754   2.823  0.1580 -0.1356  0.7166
 3561SOL    HW222320   2.937   2.695   2.865 -0.7064  1.1559  0.0307
 3562SOL     OW22321   2.863   0.760   8.970  0.3499 -0.3695 -0.4932
 3562SOL    HW122322   2.862   0.675   8.926  1.0199  0.2274 -1.6714
 3562SOL    HW222323   2.781   0.761   9.019  0.6837 -2.9570  0.0830
 3563SOL     OW22324   3.892   1.009   3.149  0.3153 -0.4867  0.0067
 3563SOL    HW122325   3.881   1.046   3.237  0.7224  0.7312 -0.4614
 3563SOL    HW222326   3.967   1.062   3.122 -0.9016  0.1508 -2.1171
 3564SOL     OW22327   2.048   2.530   3.254 -0.3369  0.2740 -0.4048
 3564SOL    HW122328   2.108   2.597   3.222 -0.4427  0.1705 -0.8084
 3564SOL    HW222329   2.005   2.518   3.170 -0.8244 -1.6364  0.1036
 3565SOL     OW22330   1.729   0.338   3.462 -0.6343  0.4277 -0.1260
 3565SOL    HW122331   1.663   0.270   3.468  0.4522 -0.6604 -0.4839
 3565SOL    HW222332   1.796   0.299   3.406 -2.6854 -1.4616 -1.2504
 3566SOL     OW22333   0.631   3.150  16.938  0.2521  0.1136 -0.9003
 3566SOL    HW122334   0.572   3.086  16.977  1.6827 -0.6507  0.0215
 3566SOL    HW222335   0.627   3.128  16.845 -1.0617 -0.1296 -0.7762
 3567SOL     OW22336   3.796   2.876  17.487 -0.2215 -0.3563 -0.2283
 3567SOL    HW122337   3.872   2.913  17.443 -1.6733  2.4194 -0.4532
 3567SOL    HW222338   3.740   2.954  17.484 -0.5410 -0.5865 -0.3875
 3568SOL     OW22339   1.566   2.348   6.194  0.6489  0.3812  0.3808
 3568SOL    HW122340   1.527   2.313   6.114 -0.7007 -0.9893  1.6515
 3568SOL    HW222341   1.525   2.305   6.269  1.4783  0.1360  0.6946
 3569SOL     OW22342   2.618   1.717   3.266  0.5035  0.7959  0.3539
 3569SOL    HW122343   2.642   1.625   3.280  0.0467  0.7050  0.5378
 3569SOL    HW222344   2.564   1.716   3.187  2.8079  0.5917 -1.2312
 3570SOL     OW22345   3.894   2.174   2.956  0.1379 -0.4572 -0.0521
 3570SOL    HW122346   3.900   2.246   2.893  1.5219  0.1536  0.7914
 3570SOL    HW222347   3.938   2.096   2.921 -0.9179 -0.3115 -1.7004
 3571SOL     OW22348   0.865   1.338   7.108  0.2039 -0.4007  0.0326
 3571SOL    HW122349   0.838   1.423   7.073  1.7829 -0.5968 -1.6618
 3571SOL    HW222350   0.781   1.315   7.148 -1.9751  0.5354 -4.0059
 3572SOL     OW22351   4.571   3.196   4.754 -0.9866  0.2469  0.0226
 3572SOL    HW122352   4.518   3.238   4.822 -3.0922 -1.4558 -0.5621
 3572SOL    HW222353   4.509   3.146   4.700 -1.0675  2.8415 -2.3188
 3573SOL     OW22354   1.393   4.084   8.359  0.1272 -0.2886 -0.3420
 3573SOL    HW122355   1.379   4.178   8.347  1.9363 -0.0123 -0.3078
 3573SOL    HW222356   1.314   4.049   8.317 -0.1396 -0.0350 -0.0551
 3574SOL     OW22357   0.000   2.214   6.639 -0.2963 -0.0770 -0.6700
 3574SOL    HW122358   4.651   2.189   6.661 -0.1013  0.4871  0.8253
 3574SOL    HW222359   0.010   2.197   6.546 -1.3169  2.7679 -1.2853
 3575SOL     OW22360   4.563   4.123   5.619 -0.1106 -0.5656  0.6145
 3575SOL    HW122361   4.491   4.170   5.576  1.0528  0.7673  0.1134
 3575SOL    HW222362   4.636   4.155   5.566  0.2087 -2.0071  0.2046
 3576SOL     OW22363   3.187   2.469   3.873 -0.0491 -0.4613 -0.3153
 3576SOL    HW122364   3.104   2.423   3.864 -0.1744  0.1751 -2.4689
 3576SOL    HW222365   3.193   2.509   3.960  2.4642  1.7113 -1.4635
 3577SOL     OW22366   4.685   3.501  17.457  0.9954  0.1450  0.2868
 3577SOL    HW122367   4.631   3.532  17.384  2.8450 -1.3111 -1.7075
 3577SOL    HW222368   0.013   3.452  17.411 -0.7383  0.2697 -2.3994
 3578SOL     OW22369   1.360   4.548   8.787  0.1472  0.1133 -0.2125
 3578SOL    HW122370   1.371   4.620   8.849  1.6286  0.3870 -0.7971
 3578SOL    HW222371   1.266   4.563   8.776 -0.3864 -2.8372  0.2648
 3579SOL     OW22372   2.661   4.723   6.409 -0.5634 -1.0872 -0.3776
 3579SOL    HW122373   2.736   4.690   6.458  0.0018 -0.6148 -0.9142
 3579SOL    HW222374   2.671   4.676   6.326 -2.8343  0.4740 -1.5100
 3580SOL     OW22375   2.819   1.682   8.436  0.2263 -0.0480  0.6923
 3580SOL    HW122376   2.806   1.628   8.513 -0.1804 -1.8401 -0.6204
 3580SOL    HW222377   2.838   1.613   8.372 -0.7154  0.9954 -0.7340
 3581SOL     OW22378   0.863   4.507  16.570  0.1802  0.5072  0.4181
 3581SOL    HW122379   0.957   4.494  16.583  0.3607  1.0069 -0.3495
 3581SOL    HW222380   0.863   4.536  16.478 -0.6476 -0.6110  0.0552
 3582SOL     OW22381   0.443   4.735  14.757  0.7187 -0.0933  0.4081
 3582SOL    HW122382   0.421   4.736  14.663  3.6192 -0.4106 -0.2608
 3582SOL    HW222383   0.537   4.727  14.742  0.7325  1.9623 -0.5887
 3583SOL     OW22384   0.440   1.852   2.119 -0.0177 -0.0242 -0.7099
 3583SOL    HW122385   0.469   1.920   2.058 -0.2595 -0.3673 -1.2008
 3583SOL    HW222386   0.356   1.837   2.075 -1.4242  0.7847  1.6806
 3584SOL     OW22387   1.939   3.708   5.115 -0.7210 -0.0765  0.0068
 3584SOL    HW122388   1.916   3.630   5.064 -2.8767  1.0564 -0.7682
 3584SOL    HW222389   2.024   3.691   5.156  0.2992  0.0942 -2.0292
 3585SOL     OW22390   0.644   2.333   5.511 -0.0178 -0.0797 -0.7516
 3585SOL    HW122391   0.661   2.376   5.594 -0.2470  1.6428 -1.6064
 3585SOL    HW222392   0.552   2.314   5.524  0.1636 -0.9664 -0.7246
 3586SOL     OW22393   3.608   1.750   5.932 -0.5119 -0.6868  0.4882
 3586SOL    HW122394   3.559   1.811   5.877  2.2642  1.8847  0.8608
 3586SOL    HW222395   3.543   1.707   5.988  0.0074 -1.0733  0.7943
 3587SOL     OW22396   4.655   4.624   5.669  0.2902  0.4248  0.1275
 3587SOL    HW122397   4.648   4.599   5.761  1.1993 -0.7173 -0.1102
 3587SOL    HW222398   4.692   4.546   5.627 -0.8709  0.2548 -0.5889
 3588SOL     OW22399   3.549   3.536   4.164  0.1907  0.0155 -0.1043
 3588SOL    HW122400   3.515   3.491   4.086  1.6889  1.8060 -1.7918
 3588SOL    HW222401   3.600   3.612   4.137  0.1349  0.2737  0.5149
 3589SOL     OW22402   3.294   1.357   5.972 -0.4328 -0.4712  0.3397
 3589SOL    HW122403   3.258   1.376   6.059 -1.8103  1.3469 -0.6306
 3589SOL    HW222404   3.256   1.432   5.925 -1.4852 -1.5099 -0.4431
 3590SOL     OW22405   1.563   3.620   4.427 -0.4037 -0.2077  0.2211
 3590SOL    HW122406   1.557   3.560   4.501  1.8864  1.6843  1.9637
 3590SOL    HW222407   1.625   3.571   4.372 -1.9421  0.1718 -1.8626
 3591SOL     OW22408   3.055   4.470  13.712 -0.5119  0.7390  0.3905
 3591SOL    HW122409   3.102   4.470  13.629 -1.6159 -0.2564 -0.2205
 3591SOL    HW222410   3.035   4.377  13.722  0.9029  0.4249  0.4077
 3592SOL     OW22411   4.093   4.017   1.718 -0.0460  0.4360 -0.0793
 3592SOL    HW122412   4.015   4.043   1.670 -0.0481 -1.0062 -0.8501
 3592SOL    HW222413   4.116   3.948   1.656 -0.8665  0.7159 -0.6876
 3593SOL     OW22414   4.253   3.056   1.371  0.0851  0.0008 -0.3213
 3593SOL    HW122415   4.319   3.120   1.343  0.9139 -1.5720 -1.9206
 3593SOL    HW222416   4.251   3.087   1.462 -0.7153 -2.4683  0.4893
 3594SOL     OW22417   2.148   2.047   5.432 -0.0010 -0.1944 -0.1375
 3594SOL    HW122418   2.079   2.104   5.467  1.3241  1.2900  0.0049
 3594SOL    HW222419   2.160   2.087   5.346 -0.1682 -2.0334 -1.0320
 3595SOL     OW22420   0.838   0.682   4.288 -0.1400  0.0357 -0.7434
 3595SOL    HW122421   0.913   0.719   4.242 -0.2479 -1.2786 -1.9830
 3595SOL    HW222422   0.873   0.666   4.375  0.7365  1.1646 -0.9002
 3596SOL     OW22423   2.880   2.821  11.676 -0.0314  0.4919  0.2529
 3596SOL    HW122424   2.929   2.787  11.600 -1.5873 -3.0910  0.8662
 3596SOL    HW222425   2.794   2.782  11.666  1.2994 -2.4246  0.1497
 3597SOL     OW22426   1.923   3.985   7.562 -0.3860 -0.1712 -0.6095
 3597SOL    HW122427   1.927   4.053   7.629  1.1293 -0.0202 -0.8680
 3597SOL    HW222428   1.988   3.919   7.585  0.7712  0.9559 -0.6821
 3598SOL     OW22429   2.167   0.244   4.557  0.9907 -0.0550 -0.2555
 3598SOL    HW122430   2.239   0.181   4.561  0.0044 -1.1746 -0.3306
 3598SOL    HW222431   2.213   0.328   4.565 -0.7549  0.7142  1.6196
 3599SOL     OW22432   0.966   0.886   2.456  0.5650  0.2988  0.2958
 3599SOL    HW122433   0.937   0.891   2.365  1.0578  0.0974  0.1253
 3599SOL    HW222434   0.927   0.800   2.473  0.9309 -0.0053 -0.3876
 3600SOL     OW22435   0.406   1.145   7.304 -0.3356 -0.3799  0.4827
 3600SOL    HW122436   0.356   1.211   7.351  0.7367  1.3285 -0.7873
 3600SOL    HW222437   0.442   1.094   7.376 -2.6782 -0.7819  1.3796
 3601SOL     OW22438   0.956   3.658   7.134 -0.0410  0.2232  0.4746
 3601SOL    HW122439   0.985   3.573   7.168 -1.6253 -0.9549 -1.1447
 3601SOL    HW222440   1.001   3.662   7.049 -1.3717 -1.6977 -0.3261
 3602SOL     OW22441   3.850   3.271   4.339 -0.0245  0.5394 -0.4386
 3602SOL    HW122442   3.850   3.362   4.368 -1.0473  0.6164 -0.6633
 3602SOL    HW222443   3.827   3.223   4.419 -0.8342  1.1085 -0.3241
 3603SOL     OW22444   1.107   1.832   7.456  0.3811 -0.0636  0.0533
 3603SOL    HW122445   1.105   1.800   7.366  2.4588  0.2467 -0.0840
 3603SOL    HW222446   1.030   1.788   7.493 -0.7923  0.0591 -2.2318
 3604SOL     OW22447   1.036   0.379   6.099  0.4603 -0.0487  0.1559
 3604SOL    HW122448   1.126   0.372   6.067 -0.2999 -2.0019 -1.5311
 3604SOL    HW222449   0.994   0.334   6.026  0.8307 -0.5706  0.2705
 3605SOL     OW22450   2.061   4.434   6.121  0.3255  0.8519  0.6361
 3605SOL    HW122451   1.983   4.379   6.117 -1.3459  3.3929 -1.3446
 3605SOL    HW222452   2.071   4.474   6.035 -1.1022 -2.2662 -0.9541
 3606SOL     OW22453   3.181   3.654  14.771  0.2238  0.0414  0.1689
 3606SOL    HW122454   3.235   3.680  14.696 -1.9061  2.2209 -0.6065
 3606SOL    HW222455   3.129   3.733  14.786 -1.5102 -1.2207  0.7848
 3607SOL     OW22456   0.027   4.091   9.169 -0.0560 -0.0029  0.2010
 3607SOL    HW122457   0.116   4.083   9.135 -0.3523  0.5928 -0.7446
 3607SOL    HW222458   0.017   4.012   9.223  1.2365 -0.8764 -0.8366
 3608SOL     OW22459   2.560   0.653   3.581  0.7472  0.0322  0.2149
 3608SOL    HW122460   2.637   0.672   3.527  1.1653 -0.5404  0.6149
 3608SOL    HW222461   2.508   0.733   3.571  1.2423  0.4027  0.6112
 3609SOL     OW22462   3.257   3.929   1.577 -0.4172  0.1368  0.1843
 3609SOL    HW122463   3.297   3.991   1.638 -0.7975 -0.6145  1.1794
 3609SOL    HW222464   3.224   3.866   1.640  1.1254  0.7737  1.6348
 3610SOL     OW22465   4.443   2.580   6.311 -0.0271 -0.8722 -1.2759
 3610SOL    HW122466   4.489   2.510   6.357 -0.0334  0.0131  0.0538
 3610SOL    HW222467   4.379   2.526   6.265 -1.1489  0.4864 -1.3011
 3611SOL     OW22468   3.562   1.013   6.839  0.3282 -0.0342  0.2569
 3611SOL    HW122469   3.571   0.937   6.897 -2.3062 -0.2400  0.3888
 3611SOL    HW222470   3.653   1.037   6.822  1.0458 -1.8366  1.4528
 3612SOL     OW22471   3.542   1.131   4.431  0.6678  0.2816 -0.3015
 3612SOL    HW122472   3.451   1.148   4.454  0.9786  1.3539  0.1318
 3612SOL    HW222473   3.536   1.058   4.369  1.5070  0.0695 -0.1333
 3613SOL     OW22474   2.624   0.089   9.031 -0.2248 -0.3764  0.2437
 3613SOL    HW122475   2.662   0.173   9.058  1.3070 -1.4470  1.3663
 3613SOL    HW222476   2.593   0.115   8.944 -0.2859  0.5922  0.5562
 3614SOL     OW22477   2.354   2.204   2.717 -0.3930  0.7162 -0.1390
 3614SOL    HW122478   2.362   2.224   2.624  0.9995 -0.0221 -0.1836
 3614SOL    HW222479   2.393   2.117   2.732  0.9308  1.3680  0.2240
 3615SOL     OW22480   1.438   4.697  15.101  0.0560  0.0359 -0.1537
 3615SOL    HW122481   1.484   0.026  15.147  1.2311 -1.1080  0.4228
 3615SOL    HW222482   1.410   4.636  15.169  0.4519  0.6754  0.5787
 3616SOL     OW22483   3.638   2.963   9.629 -0.0378  0.1330  0.0623
 3616SOL    HW122484   3.657   3.015   9.707  0.9251  0.7011 -0.5458
 3616SOL    HW222485   3.617   3.032   9.566 -1.1437 -0.1614  0.1128
 3617SOL     OW22486   0.839   0.969  14.768 -0.2087  0.1509 -0.1373
 3617SOL    HW122487   0.931   0.995  14.767 -0.3159  0.3971 -2.5417
 3617SOL    HW222488   0.812   0.959  14.677 -0.4536  0.1218 -0.0609
 3618SOL     OW22489   0.478   4.242  12.604 -0.1127  0.7685 -0.7510
 3618SOL    HW122490   0.555   4.207  12.559  1.4328  3.3946 -0.1455
 3618SOL    HW222491   0.456   4.323  12.558 -0.7128 -1.2054 -3.9472
 3619SOL     OW22492   2.348   3.234  11.761 -0.7326  0.6207  0.2356
 3619SOL    HW122493   2.253   3.249  11.761 -1.2323 -2.6336 -0.3828
 3619SOL    HW222494   2.362   3.165  11.696  1.5913  1.0926  0.2396
 3620SOL     OW22495   2.916   1.320   4.656  0.4127 -0.4317 -0.1876
 3620SOL    HW122496   2.831   1.278   4.646  0.5660 -0.6714 -0.5080
 3620SOL    HW222497   2.885   1.411   4.654 -0.6351 -0.8833 -3.4905
 3621SOL     OW22498   4.579   4.077  10.817 -0.7683 -0.4385  0.3253
 3621SOL    HW122499   4.535   4.160  10.802  0.2535  0.1578  0.6447
 3621SOL    HW222500   4.641   4.104  10.884  0.4347 -0.9169 -0.5902
 3622SOL     OW22501   1.360   1.159   7.190  0.0713  0.1232  0.0728
 3622SOL    HW122502   1.350   1.131   7.281 -0.9264  0.6906  0.1323
 3622SOL    HW222503   1.273   1.182   7.159 -0.3117 -1.6713 -0.2053
 3623SOL     OW22504   1.519   1.060   2.307 -0.0763 -0.2428  0.2916
 3623SOL    HW122505   1.474   0.988   2.262  0.7385 -0.5453 -0.0505
 3623SOL    HW222506   1.593   1.078   2.249  0.4969 -0.0303  1.0862
 3624SOL     OW22507   1.266   2.078   4.961 -0.7618 -0.4181 -0.1129
 3624SOL    HW122508   1.318   1.998   4.970  1.8167  1.0754 -1.6006
 3624SOL    HW222509   1.224   2.081   4.875  0.7717  0.5800 -0.8208
 3625SOL     OW22510   0.961   0.663   6.535 -0.3358  0.6456  0.0108
 3625SOL    HW122511   1.033   0.696   6.481 -0.1836 -2.3064 -1.5700
 3625SOL    HW222512   0.923   0.603   6.470 -0.8557  1.1201 -0.1303
 3626SOL     OW22513   0.722   0.717   5.275  0.0838 -0.0803 -0.2209
 3626SOL    HW122514   0.764   0.742   5.193 -0.3651 -0.3690 -0.5420
 3626SOL    HW222515   0.709   0.803   5.314 -0.7904  0.5958 -1.9689
 3627SOL     OW22516   0.247   3.731   4.066 -0.4068  0.7080 -0.0839
 3627SOL    HW122517   0.165   3.693   4.096  1.7979 -0.6151  4.1901
 3627SOL    HW222518   0.313   3.690   4.121  1.5715  1.1124 -2.1425
 3628SOL     OW22519   3.190   2.530   8.096 -0.0361  1.0426 -0.0013
 3628SOL    HW122520   3.218   2.564   8.011  0.9586 -1.9006 -0.8236
 3628SOL    HW222521   3.143   2.602   8.140 -3.4934 -2.0834  1.3500
 3629SOL     OW22522   3.746   1.088   4.920 -0.3640  0.2258 -0.3015
 3629SOL    HW122523   3.826   1.067   4.968 -1.9303  0.4109  2.4273
 3629SOL    HW222524   3.784   1.172   4.894  3.1591 -1.1796  0.3324
 3630SOL     OW22525   1.541   3.573   2.685 -0.6317 -0.1106 -0.8336
 3630SOL    HW122526   1.606   3.526   2.632  1.5461 -1.2080  2.7542
 3630SOL    HW222527   1.494   3.616   2.614 -1.0920  1.6437  0.5340
 3631SOL     OW22528   0.085   1.948   3.421  0.1494  0.5095 -0.7408
 3631SOL    HW122529   0.068   1.881   3.354 -1.3906  0.4101 -0.2592
 3631SOL    HW222530   0.167   1.988   3.392 -0.7839  3.2631  0.4453
 3632SOL     OW22531   3.384   4.116   8.482  0.1990 -0.4667 -0.1443
 3632SOL    HW122532   3.329   4.038   8.486  0.2639 -0.4468  1.4692
 3632SOL    HW222533   3.344   4.160   8.407  1.7887  0.9441 -0.1702
 3633SOL     OW22534   1.893   4.494   7.906  0.0874 -0.7244 -0.2355
 3633SOL    HW122535   1.868   4.585   7.894  0.9327 -0.2850  1.3363
 3633SOL    HW222536   1.820   4.466   7.850 -0.9475  1.1958  0.1697
 3634SOL     OW22537   0.324   2.105   9.481  0.1147 -1.3201  0.2874
 3634SOL    HW122538   0.380   2.033   9.506  0.0774 -1.9538 -1.4216
 3634SOL    HW222539   0.358   2.123   9.393 -0.2385  0.6289  0.5431
 3635SOL     OW22540   3.677   0.790   3.977 -0.7954 -0.2470  0.5223
 3635SOL    HW122541   3.755   0.811   4.027 -0.3992  0.8092 -0.5635
 3635SOL    HW222542   3.701   0.703   3.946 -1.3103  0.4057 -1.7405
 3636SOL     OW22543   4.204   0.752  17.283 -0.1622 -0.0905 -0.1163
 3636SOL    HW122544   4.277   0.806  17.251 -0.3568  0.3556  0.1903
 3636SOL    HW222545   4.233   0.673  17.238  0.2356 -0.6560  1.1436
 3637SOL     OW22546   2.832   3.406   8.149  0.1125  0.2988 -0.1857
 3637SOL    HW122547   2.765   3.344   8.122  1.5684 -0.9750 -0.8705
 3637SOL    HW222548   2.898   3.407   8.079  0.5925  0.8801  0.2737
 3638SOL     OW22549   3.428   2.933   9.223  0.7785 -0.0423 -0.2828
 3638SOL    HW122550   3.518   2.901   9.227  1.2723  1.5383  1.1758
 3638SOL    HW222551   3.388   2.881   9.154 -2.4836  0.8029  0.9397
 3639SOL     OW22552   0.318   3.133   9.297  0.5776 -0.0345  0.0109
 3639SOL    HW122553   0.408   3.117   9.268  0.0796 -2.2602 -0.3510
 3639SOL    HW222554   0.304   3.053   9.348  0.4107  1.2440  1.9669
 3640SOL     OW22555   1.586   3.015   2.190  0.5902  0.3333  0.7837
 3640SOL    HW122556   1.633   3.032   2.108  0.0964 -1.1169  0.2028
 3640SOL    HW222557   1.501   3.014   2.148  1.5124  0.5640 -1.1007
 3641SOL     OW22558   1.618   1.628   5.833 -0.2276  0.0500  0.0715
 3641SOL    HW122559   1.577   1.566   5.894  0.2097  1.3114  1.6329
 3641SOL    HW222560   1.636   1.701   5.891  2.1837 -1.2558  0.9662
 3642SOL     OW22561   3.676   1.339   7.587  0.2522 -0.6822 -0.1774
 3642SOL    HW122562   3.686   1.367   7.678 -1.8725  3.2223 -1.1449
 3642SOL    HW222563   3.687   1.247   7.608  0.6864 -0.4573  0.5908
 3643SOL     OW22564   3.397   0.349   4.590 -0.1311  0.8634  0.0815
 3643SOL    HW122565   3.354   0.288   4.650 -1.7288 -0.1960 -2.1754
 3643SOL    HW222566   3.347   0.430   4.582 -0.2956  0.5623 -1.8377
 3644SOL     OW22567   0.682   3.399   2.111  0.1896 -0.6655  0.1506
 3644SOL    HW122568   0.612   3.456   2.144  2.4303  2.1679  0.0072
 3644SOL    HW222569   0.736   3.462   2.065  0.1850 -2.0631 -1.7554
 3645SOL     OW22570   2.143   2.874   9.406  0.1045 -0.4859  0.1227
 3645SOL    HW122571   2.176   2.787   9.384  0.7097  0.1147 -1.3382
 3645SOL    HW222572   2.208   2.930   9.362  1.1820 -1.0394  0.9938
 3646SOL     OW22573   1.131   1.686  13.160 -0.6185 -0.0822 -0.0980
 3646SOL    HW122574   1.080   1.663  13.238  0.1883  1.0004  0.7383
 3646SOL    HW222575   1.125   1.600  13.117 -0.3790  0.9185 -2.0901
 3647SOL     OW22576   4.681   4.500   3.011  0.0310  0.0288  0.3601
 3647SOL    HW122577   4.628   4.527   3.086  0.1249 -1.5425  0.9998
 3647SOL    HW222578   4.660   4.570   2.950 -0.6373 -1.4167 -1.0487
 3648SOL     OW22579   4.048   2.925   3.597  0.3184  0.6092 -0.0384
 3648SOL    HW122580   4.080   2.952   3.511 -0.6820  3.1742  0.3880
 3648SOL    HW222581   3.979   2.863   3.575 -1.3720  1.3074  3.1983
 3649SOL     OW22582   3.047   3.827   7.320 -0.0559 -0.0335 -0.4383
 3649SOL    HW122583   3.132   3.793   7.347 -0.9638 -1.5525  0.4681
 3649SOL    HW222584   2.999   3.843   7.401  1.9394 -2.7414  1.2387
 3650SOL     OW22585   3.154   4.500   7.531  0.3766 -0.7149 -0.2698
 3650SOL    HW122586   3.225   4.445   7.566  0.3607 -0.3484  0.3497
 3650SOL    HW222587   3.092   4.495   7.604 -1.8529  3.8290 -1.8833
 3651SOL     OW22588   2.750   3.980  16.124  0.4626  0.2391 -0.1527
 3651SOL    HW122589   2.678   3.925  16.155 -0.3500  0.9882 -0.7368
 3651SOL    HW222590   2.721   4.067  16.149 -0.9186 -0.4322  0.5751
 3652SOL     OW22591   1.518   3.858   5.099  0.5607  0.4791  0.5696
 3652SOL    HW122592   1.562   3.803   5.163  0.5268  2.1164  2.0120
 3652SOL    HW222593   1.456   3.901   5.158  0.5540  0.4498  0.5840
 3653SOL     OW22594   4.702   3.320  11.648 -0.4603  0.1612  0.4805
 3653SOL    HW122595   0.038   3.334  11.593 -0.6881 -2.6745 -0.5300
 3653SOL    HW222596   4.706   3.395  11.707 -1.9777  0.7822 -0.1897
 3654SOL     OW22597   0.271   1.707   6.363  0.8694 -0.1964 -0.3116
 3654SOL    HW122598   0.176   1.706   6.375  0.8247 -3.8457 -1.0196
 3654SOL    HW222599   0.295   1.679   6.451 -1.3849  1.1841  0.7540
 3655SOL     OW22600   3.849   0.712  13.691  0.3456 -1.0708 -0.2724
 3655SOL    HW122601   3.807   0.629  13.668  0.6688 -1.1163 -0.7031
 3655SOL    HW222602   3.852   0.733  13.598  2.9689  0.0518  0.0546
 3656SOL     OW22603   1.830   4.344   9.579  0.1440  0.7361  0.2190
 3656SOL    HW122604   1.751   4.382   9.542  1.0083  1.2220 -1.1260
 3656SOL    HW222605   1.901   4.397   9.543 -0.8742 -0.0818 -2.9568
 3657SOL     OW22606   3.566   2.011  12.413  0.0018 -0.2211  0.1760
 3657SOL    HW122607   3.635   2.064  12.452  1.3718 -1.1376 -1.0084
 3657SOL    HW222608   3.577   1.936  12.471 -2.4452  0.8591  2.0116
 3658SOL     OW22609   1.943   2.563   2.261 -0.3606  0.1799 -0.2427
 3658SOL    HW122610   2.024   2.562   2.211  0.2747 -0.4224  0.8036
 3658SOL    HW222611   1.941   2.649   2.303 -2.2400 -0.1235  0.3189
 3659SOL     OW22612   1.747   2.051   4.021  0.1761 -0.8767 -0.9123
 3659SOL    HW122613   1.652   2.037   4.018  0.2160 -1.0873 -1.1990
 3659SOL    HW222614   1.775   1.963   3.994  1.8158 -0.4163 -0.7129
 3660SOL     OW22615   0.506   3.838   2.359  0.4014  0.1433 -0.1659
 3660SOL    HW122616   0.452   3.884   2.424  0.8325  0.8904 -0.3310
 3660SOL    HW222617   0.594   3.862   2.388 -0.3649  3.1078 -0.2476
 3661SOL     OW22618   1.598   0.896  13.581  0.0296 -0.0828  0.4587
 3661SOL    HW122619   1.638   0.813  13.607  0.7955 -0.3957 -1.7655
 3661SOL    HW222620   1.623   0.904  13.489  1.7225  1.1419  1.0182
 3662SOL     OW22621   0.313   4.193   1.032 -0.0248 -0.2022  0.3623
 3662SOL    HW122622   0.224   4.218   1.009 -0.0528 -1.0613 -0.4952
 3662SOL    HW222623   0.335   4.124   0.969  1.8172  0.3546  0.3804
 3663SOL     OW22624   0.732   3.953   5.711 -0.4760  0.5843  0.2008
 3663SOL    HW122625   0.742   3.998   5.794 -0.7013 -0.1620  0.6332
 3663SOL    HW222626   0.757   3.861   5.725 -1.6352  0.3410  0.6063
 3664SOL     OW22627   4.705   3.387   9.403 -0.4995  0.2237  0.7214
 3664SOL    HW122628   4.704   3.404   9.308  0.6316 -0.4001  0.5982
 3664SOL    HW222629   4.615   3.354   9.404 -1.4585  2.8047 -1.4458
 3665SOL     OW22630   2.823   1.675  11.905  0.5967 -0.3239  0.3668
 3665SOL    HW122631   2.784   1.760  11.889  0.0862 -0.9103 -1.5691
 3665SOL    HW222632   2.863   1.684  11.991 -1.1275 -0.3044  1.1597
 3666SOL     OW22633   3.626   2.420  12.313 -0.3942 -0.3980 -0.1121
 3666SOL    HW122634   3.621   2.434  12.218  0.7381  0.1985 -0.0798
 3666SOL    HW222635   3.709   2.374  12.325  1.2012  2.8004  1.1237
 3667SOL     OW22636   0.480   3.724   6.049 -0.3254  0.1145  0.6582
 3667SOL    HW122637   0.545   3.664   6.013 -0.9631 -0.0139 -0.2734
 3667SOL    HW222638   0.438   3.760   5.971 -1.5138  0.9524  1.6863
 3668SOL     OW22639   4.343   0.998   6.918 -0.1631  0.0244 -0.3013
 3668SOL    HW122640   4.261   1.022   6.874 -0.1195 -0.6007 -0.7216
 3668SOL    HW222641   4.411   1.057   6.887 -0.5406 -0.8482 -2.7889
 3669SOL     OW22642   0.676   3.301  12.049 -0.5195 -0.1562 -0.2961
 3669SOL    HW122643   0.617   3.271  11.979 -0.7918 -4.1772  1.6420
 3669SOL    HW222644   0.739   3.230  12.033 -1.5328 -1.0442 -0.3504
 3670SOL     OW22645   3.737   0.202   7.120  0.0440  1.0663 -0.3156
 3670SOL    HW122646   3.812   0.211   7.061 -1.0958 -0.6456 -2.0227
 3670SOL    HW222647   3.750   0.274   7.182  0.3267  0.3595  0.4522
 3671SOL     OW22648   1.370   0.891   0.682 -0.4804 -0.2500 -0.5788
 3671SOL    HW122649   1.299   0.918   0.740 -1.0375 -1.2896 -0.7828
 3671SOL    HW222650   1.427   0.839   0.739  1.5487  2.5182 -0.0851
 3672SOL     OW22651   1.006   2.281   4.612  0.2289 -0.0528 -0.1575
 3672SOL    HW122652   0.915   2.270   4.583  0.1606  0.0977  0.0036
 3672SOL    HW222653   0.982   2.330   4.690  1.1019 -1.0154  0.7236
 3673SOL     OW22654   0.292   1.250   3.010 -0.1767 -0.1276 -0.1976
 3673SOL    HW122655   0.385   1.245   2.987  0.1093  2.8475  0.4281
 3673SOL    HW222656   0.256   1.187   2.946 -1.4546  0.6297 -0.2222
 3674SOL     OW22657   1.593   3.955  17.293 -0.3057  0.4442  0.0898
 3674SOL    HW122658   1.508   3.937  17.334  0.8021 -2.9625  0.8776
 3674SOL    HW222659   1.647   4.000  17.358  1.2322  0.0960 -0.9597
 3675SOL     OW22660   3.491   3.535   3.429  0.2574  0.0689 -0.3693
 3675SOL    HW122661   3.479   3.576   3.514  0.3673  1.6425 -1.1054
 3675SOL    HW222662   3.583   3.551   3.406 -0.2434 -1.1351 -3.2317
 3676SOL     OW22663   3.572   0.726  15.182 -0.0161  0.3597  0.4493
 3676SOL    HW122664   3.651   0.677  15.161 -0.2035 -0.1670  0.9634
 3676SOL    HW222665   3.527   0.657  15.231  0.1928  2.2659  3.2917
 3677SOL     OW22666   1.067   3.553   5.383 -0.8986 -0.5218 -0.0530
 3677SOL    HW122667   1.160   3.530   5.384 -0.4397  1.0710 -4.0630
 3677SOL    HW222668   1.047   3.551   5.477 -0.2944 -0.7287  0.0706
 3678SOL     OW22669   1.010   4.308   7.631  0.2620 -0.2496  0.4318
 3678SOL    HW122670   1.033   4.265   7.713 -0.2080 -0.4786  0.4425
 3678SOL    HW222671   0.935   4.365   7.648 -0.9824 -1.7502 -0.0904
 3679SOL     OW22672   2.981   2.407   7.829  0.3237 -0.5253  0.4101
 3679SOL    HW122673   2.909   2.362   7.873  0.0546  0.0708  0.5828
 3679SOL    HW222674   2.923   2.471   7.787  1.1742 -0.4360 -0.6253
 3680SOL     OW22675   0.354   2.449   8.195 -0.0793  0.5237 -0.4875
 3680SOL    HW122676   0.259   2.464   8.197 -0.0692  0.5892 -0.4912
 3680SOL    HW222677   0.366   2.394   8.273 -2.8696 -1.1588 -1.2420
 3681SOL     OW22678   0.401   2.960  11.517 -0.1789 -0.7103  0.8248
 3681SOL    HW122679   0.351   3.026  11.468  1.7979 -0.8237 -1.3378
 3681SOL    HW222680   0.404   2.887  11.455  1.1682 -1.7141  2.1099
 3682SOL     OW22681   4.400   0.694   0.919 -0.1485 -0.1146  0.5962
 3682SOL    HW122682   4.425   0.643   0.842 -0.4167  1.4510 -0.5396
 3682SOL    HW222683   4.449   0.776   0.911  0.7426 -0.9112 -2.2866
 3683SOL     OW22684   2.022   2.411   7.020 -0.0051  0.3312  0.4753
 3683SOL    HW122685   2.023   2.498   6.979  0.7533  0.3766  0.5764
 3683SOL    HW222686   2.100   2.418   7.076  1.5717 -3.6068 -1.2236
 3684SOL     OW22687   3.042   4.251   6.319  0.5457  0.1261  0.2515
 3684SOL    HW122688   3.096   4.326   6.340  1.1695 -0.4035  0.5380
 3684SOL    HW222689   3.107   4.190   6.283 -1.4376 -1.1203 -1.2670
 3685SOL     OW22690   4.301   2.416   8.556  0.1512 -0.5857 -0.4871
 3685SOL    HW122691   4.223   2.370   8.525 -1.3900  0.5119  1.7828
 3685SOL    HW222692   4.345   2.454   8.480 -0.1082 -2.1617 -1.4209
 3686SOL     OW22693   0.408   3.607  17.425 -0.1228  0.3817 -0.4684
 3686SOL    HW122694   0.488   3.635  17.469  0.3613 -1.5487 -0.0894
 3686SOL    HW222695   0.364   3.566  17.501 -0.2718 -1.1315 -1.3646
 3687SOL     OW22696   4.191   4.603   6.218  0.4125  0.9230 -0.5683
 3687SOL    HW122697   4.263   4.559   6.172  1.6593  0.1173  2.1825
 3687SOL    HW222698   4.237   4.672   6.265  1.4602  1.3314 -2.1802
 3688SOL     OW22699   0.785   1.297  11.098 -0.4397  0.0074 -0.3261
 3688SOL    HW122700   0.698   1.298  11.139 -0.8113  1.9062 -1.1474
 3688SOL    HW222701   0.843   1.325  11.169 -0.6677  1.1759 -0.5940
 3689SOL     OW22702   4.393   1.009  15.352 -0.1527  0.0121 -0.5151
 3689SOL    HW122703   4.309   1.055  15.347  0.0500  0.3518 -0.8523
 3689SOL    HW222704   4.375   0.931  15.299 -1.5195 -0.2159  0.2839
 3690SOL     OW22705   0.159   1.551   4.495 -0.1931 -0.4083  0.3826
 3690SOL    HW122706   0.151   1.576   4.403  0.6048 -0.7860  0.2159
 3690SOL    HW222707   0.136   1.458   4.499 -1.1729 -0.1373  1.1637
 3691SOL     OW22708   3.478   1.398   5.559  0.0695  0.2020 -0.4601
 3691SOL    HW122709   3.387   1.373   5.571  0.8569 -2.3826  0.2866
 3691SOL    HW222710   3.498   1.387   5.652 -0.0131  1.1114 -0.3337
 3692SOL     OW22711   2.474   0.298   5.818 -0.0441 -0.6040 -0.0676
 3692SOL    HW122712   2.497   0.363   5.752  0.9742  0.1640  1.0604
 3692SOL    HW222713   2.393   0.272   5.773  0.4091 -2.6276  0.2682
 3693SOL     OW22714   2.029   2.616   3.516 -0.4926 -0.3866  0.4861
 3693SOL    HW122715   2.101   2.678   3.523 -2.4615  2.0438 -0.9684
 3693SOL    HW222716   2.046   2.583   3.428  1.2927 -1.5289  1.2590
 3694SOL     OW22717   2.267   0.914   2.630  0.1127  0.3101  0.3795
 3694SOL    HW122718   2.282   1.002   2.664 -1.3658  0.0198  1.7662
 3694SOL    HW222719   2.328   0.921   2.556 -0.1699  0.7698  0.1906
 3695SOL     OW22720   0.931   4.337   2.332 -0.2394  0.4849 -0.3692
 3695SOL    HW122721   0.990   4.264   2.315 -1.2235 -0.7894  1.6827
 3695SOL    HW222722   0.998   4.403   2.344 -0.9089  1.1356 -0.2031
 3696SOL     OW22723   0.993   4.699   5.551  0.3945  0.2384 -0.1338
 3696SOL    HW122724   1.002   4.641   5.476 -0.6800 -1.1516  0.8190
 3696SOL    HW222725   0.998   4.638   5.624  4.6672 -1.0287 -1.4938
 3697SOL     OW22726   2.149   3.012   9.680 -0.2812 -0.6877  0.2608
 3697SOL    HW122727   2.153   2.965   9.596  0.1722 -1.3659  0.6666
 3697SOL    HW222728   2.239   3.012   9.713  0.0376 -1.9694 -0.5852
 3698SOL     OW22729   2.898   0.090   8.778 -0.2930 -0.4425  0.1324
 3698SOL    HW122730   2.982   0.060   8.811  1.0296  1.0249 -1.9002
 3698SOL    HW222731   2.876   0.140   8.856  0.9195  2.2225 -1.2172
 3699SOL     OW22732   3.659   2.237   1.484 -0.4820  0.0681  0.1588
 3699SOL    HW122733   3.673   2.204   1.396 -0.6950  1.7194 -0.4899
 3699SOL    HW222734   3.739   2.210   1.529  1.7574 -0.2969 -4.1000
 3700SOL     OW22735   0.117   0.485   9.213 -0.3841  0.2744  0.0152
 3700SOL    HW122736   0.173   0.562   9.218  1.0899 -0.8240  0.5317
 3700SOL    HW222737   0.089   0.491   9.122  0.7697  3.7272 -0.1250
 3701SOL     OW22738   2.536   4.062   8.385 -0.3092 -0.6931  0.7012
 3701SOL    HW122739   2.571   3.979   8.418  1.1453  0.8699  3.1045
 3701SOL    HW222740   2.442   4.048   8.378 -0.1533 -0.1671 -2.4859
 3702SOL     OW22741   2.229   0.406   8.594 -0.2143  0.1667  0.3927
 3702SOL    HW122742   2.284   0.479   8.564 -0.8310  0.5787  0.2480
 3702SOL    HW222743   2.151   0.414   8.539  0.5960 -0.1196 -0.7915
 3703SOL     OW22744   4.527   1.529   7.717 -0.2859  0.2031  0.4515
 3703SOL    HW122745   4.499   1.507   7.628 -0.4864  1.4100  0.2119
 3703SOL    HW222746   4.535   1.438   7.745  0.1791 -0.4415 -1.7760
 3704SOL     OW22747   0.057   3.817   6.635 -0.3320  0.2378 -0.3309
 3704SOL    HW122748   0.146   3.804   6.601 -1.3006 -2.0184 -2.0059
 3704SOL    HW222749   0.077   3.827   6.728 -0.3895  0.8538 -0.3851
 3705SOL     OW22750   3.398   2.991   2.133 -0.4343 -0.1857  0.4274
 3705SOL    HW122751   3.420   2.897   2.135  0.7887  0.0966  0.2893
 3705SOL    HW222752   3.303   2.999   2.129 -0.4671 -0.4928  0.5342
 3706SOL     OW22753   0.690   4.327  11.585 -0.5294  0.7348  0.0187
 3706SOL    HW122754   0.685   4.406  11.531  1.7847  0.9038  0.0584
 3706SOL    HW222755   0.704   4.363  11.673 -1.3014 -3.0004  1.6858
 3707SOL     OW22756   3.213   2.493   2.283 -0.3126 -0.0612 -0.3142
 3707SOL    HW122757   3.293   2.489   2.231  0.3049  3.7146  0.4045
 3707SOL    HW222758   3.224   2.424   2.349  1.1667  0.0702 -0.4131
 3708SOL     OW22759   0.566   2.768   8.126  0.0424  1.0314  0.1592
 3708SOL    HW122760   0.651   2.813   8.132  0.9527 -0.8264  1.1599
 3708SOL    HW222761   0.538   2.784   8.216 -0.1911 -1.8674  0.5957
 3709SOL     OW22762   3.430   4.207   6.602 -0.1475 -0.5814 -0.0680
 3709SOL    HW122763   3.387   4.213   6.688  1.1227  1.6678  0.4104
 3709SOL    HW222764   3.480   4.289   6.609 -3.1773  1.1666  0.8819
 3710SOL     OW22765   4.444   3.161   2.854  0.7839 -0.1131  0.0353
 3710SOL    HW122766   4.361   3.203   2.873 -0.5818 -2.6812 -0.2601
 3710SOL    HW222767   4.499   3.227   2.898 -0.7145  2.5820 -2.1342
 3711SOL     OW22768   1.264   3.045   5.630  0.1125 -0.1541 -0.2320
 3711SOL    HW122769   1.329   3.101   5.587  0.6888 -2.2120 -2.0436
 3711SOL    HW222770   1.307   2.959   5.627  2.7836  1.1744 -0.5447
 3712SOL     OW22771   3.265   3.188   3.600  0.2445 -0.1205  0.0332
 3712SOL    HW122772   3.279   3.098   3.629 -1.7838 -0.8003 -1.0810
 3712SOL    HW222773   3.174   3.187   3.568  0.2316 -1.1326  0.0916
 3713SOL     OW22774   4.460   3.824  15.830  0.0300 -0.0072 -0.2919
 3713SOL    HW122775   4.397   3.774  15.777  1.3936 -0.5637 -1.3908
 3713SOL    HW222776   4.485   3.891  15.766  0.2944 -0.4794 -0.6877
 3714SOL     OW22777   4.685   1.118   6.934 -0.2146  0.0299 -0.0682
 3714SOL    HW122778   0.020   1.149   6.984 -0.9374  0.2647  0.9003
 3714SOL    HW222779   4.627   1.108   7.010  2.2663 -0.8181  1.7164
 3715SOL     OW22780   0.076   3.822   9.124  0.2759  0.0005  0.5170
 3715SOL    HW122781   0.157   3.792   9.167  1.5829  3.2369  0.3260
 3715SOL    HW222782   0.116   3.854   9.043 -2.9027 -0.2980 -1.1414
 3716SOL     OW22783   3.725   0.733   7.302  0.0416  0.2785  0.0378
 3716SOL    HW122784   3.636   0.759   7.327  0.2726  1.0239  0.0950
 3716SOL    HW222785   3.769   0.720   7.386  0.5709 -0.3252 -0.3399
 3717SOL     OW22786   1.851   3.836   0.541 -0.2747 -0.6291 -0.0033
 3717SOL    HW122787   1.822   3.924   0.563 -2.1304 -1.1234 -0.5092
 3717SOL    HW222788   1.778   3.796   0.495  1.1963 -0.7692 -2.2258
 3718SOL     OW22789   2.951   2.377  17.637 -0.3588 -0.1888 -0.6411
 3718SOL    HW122790   3.006   2.347  17.709 -0.1154 -0.2959 -0.8723
 3718SOL    HW222791   2.915   2.295  17.605  1.2454 -0.4773 -1.6904
 3719SOL     OW22792   2.224   0.312   5.726  0.2009 -0.1027  0.5462
 3719SOL    HW122793   2.209   0.386   5.785  0.9069  0.8823 -0.5144
 3719SOL    HW222794   2.137   0.273   5.729  0.4026 -0.5282  0.8360
 3720SOL     OW22795   0.951   4.046   9.792 -1.1045  0.3747 -0.1321
 3720SOL    HW122796   1.019   3.980   9.800 -0.1565  1.3077 -0.5811
 3720SOL    HW222797   0.968   4.101   9.868  1.1522 -0.9370  0.3124
 3721SOL     OW22798   0.756   2.562   8.068 -0.3421  0.8279  0.3218
 3721SOL    HW122799   0.705   2.482   8.069  2.7715 -1.1625 -0.8238
 3721SOL    HW222800   0.702   2.628   8.113 -0.5961 -0.3816  1.7815
 3722SOL     OW22801   0.524   2.339   5.946 -0.1915  0.2651  0.6254
 3722SOL    HW122802   0.579   2.263   5.968 -2.2798 -1.2068  0.7446
 3722SOL    HW222803   0.443   2.293   5.926 -0.2538  0.4633  0.4345
 3723SOL     OW22804   1.324   3.634   7.699 -0.2277  0.1289  0.0187
 3723SOL    HW122805   1.242   3.672   7.730  0.4491  3.2084 -1.8805
 3723SOL    HW222806   1.375   3.705   7.659 -0.2698  1.1639  1.8214
 3724SOL     OW22807   0.766   2.968   8.118 -0.3015  0.2375 -0.1109
 3724SOL    HW122808   0.809   2.977   8.034 -0.8912 -0.1452 -0.4551
 3724SOL    HW222809   0.837   2.998   8.175  0.7171  0.4695 -1.5213
 3725SOL     OW22810   2.909   0.575   3.033  0.2503 -0.7549 -0.5891
 3725SOL    HW122811   2.871   0.573   2.945  0.9114 -2.1672 -0.8517
 3725SOL    HW222812   2.962   0.654   3.035  0.0471 -0.6156 -0.6592
 3726SOL     OW22813   3.203   0.492  16.285  0.1928 -0.0389  0.3508
 3726SOL    HW122814   3.191   0.562  16.221  1.3965 -0.1999 -0.0371
 3726SOL    HW222815   3.242   0.547  16.353  0.9190 -0.3604  0.1880
 3727SOL     OW22816   0.334   3.804  13.782  0.5572  0.4700 -0.1746
 3727SOL    HW122817   0.429   3.795  13.777  0.5593  0.7419 -0.6824
 3727SOL    HW222818   0.314   3.800  13.875 -0.6532  2.8621 -0.3302
 3728SOL     OW22819   0.963   1.121  15.893  0.4036 -0.3975  0.3990
 3728SOL    HW122820   1.005   1.090  15.973  1.6479 -1.5718 -0.7121
 3728SOL    HW222821   1.031   1.175  15.854  0.1683 -0.4775 -0.1271
 3729SOL     OW22822   4.160   4.599   5.609  0.1838  0.8469  0.2307
 3729SOL    HW122823   4.249   4.628   5.628  1.0262 -2.6745  1.6235
 3729SOL    HW222824   4.148   4.572   5.700  1.8999  1.4541  0.6341
 3730SOL     OW22825   3.471   0.799   7.433  0.1379  0.5464  0.0852
 3730SOL    HW122826   3.429   0.730   7.383 -2.0051  1.3217  0.8482
 3730SOL    HW222827   3.479   0.874   7.374 -1.8348  1.0638  0.4924
 3731SOL     OW22828   2.307   1.430  17.451 -0.1900 -0.4353  0.2724
 3731SOL    HW122829   2.380   1.369  17.456  0.6700  0.6722  1.0967
 3731SOL    HW222830   2.333   1.481  17.374 -0.3115 -0.8607 -0.0554
 3732SOL     OW22831   1.008   1.044   9.416 -0.1564  0.3521  0.0858
 3732SOL    HW122832   1.085   1.097   9.391 -0.1665  0.4975  0.3600
 3732SOL    HW222833   0.997   1.071   9.507 -0.8774  0.5480 -0.0599
 3733SOL     OW22834   0.219   3.386   3.220 -0.2095  0.1154  0.3795
 3733SOL    HW122835   0.180   3.308   3.259 -0.2659 -1.0225 -1.9599
 3733SOL    HW222836   0.211   3.357   3.129  1.0741  0.4730  0.1552
 3734SOL     OW22837   0.672   1.034   8.131 -0.0218 -0.2401  0.3342
 3734SOL    HW122838   0.726   1.058   8.056 -0.4834 -0.8442 -0.1863
 3734SOL    HW222839   0.680   0.938   8.135 -1.2578 -0.3622 -0.4117
 3735SOL     OW22840   1.946   0.898   9.852  0.0742 -0.2091  0.2934
 3735SOL    HW122841   2.027   0.848   9.855  0.9309  1.1312 -0.5552
 3735SOL    HW222842   1.907   0.874   9.767 -1.2459  2.7486  0.0567
 3736SOL     OW22843   4.038   3.289   2.140 -0.1766 -0.8948 -0.5296
 3736SOL    HW122844   4.111   3.249   2.093  0.5124 -1.2696  0.8608
 3736SOL    HW222845   4.023   3.373   2.096 -1.0159  0.5492  2.5207
 3737SOL     OW22846   3.211   2.365   5.573 -0.1269  0.0441  0.5159
 3737SOL    HW122847   3.192   2.282   5.616 -1.1644  1.1729  2.2400
 3737SOL    HW222848   3.188   2.426   5.644 -0.3885  0.7276 -0.1483
 3738SOL     OW22849   3.801   3.157   8.085  0.1135 -0.3615 -0.7035
 3738SOL    HW122850   3.734   3.091   8.069  0.2163 -0.7241  0.3639
 3738SOL    HW222851   3.754   3.214   8.146  0.6115 -0.4250 -0.2567
 3739SOL     OW22852   4.615   3.244   1.491  0.2832 -0.0428  0.0274
 3739SOL    HW122853   4.656   3.331   1.484 -1.2912  0.6522 -0.5124
 3739SOL    HW222854   4.593   3.246   1.584 -1.5802  0.3927 -0.4340
 3740SOL     OW22855   3.971   1.445  11.980 -0.1201 -0.3481 -0.4634
 3740SOL    HW122856   3.878   1.434  11.961 -0.3093  0.2572  0.1165
 3740SOL    HW222857   3.985   1.537  11.958  0.6022 -0.6960 -1.4664
 3741SOL     OW22858   1.206   2.845   7.512  0.2309 -0.0301  0.1899
 3741SOL    HW122859   1.221   2.939   7.519  0.0547 -0.1233  1.8823
 3741SOL    HW222860   1.124   2.834   7.561 -0.0235  0.2754 -0.1688
 3742SOL     OW22861   1.089   1.810   5.484 -0.2295 -0.1091  0.6102
 3742SOL    HW122862   1.134   1.778   5.406 -2.6636 -1.7988 -0.0738
 3742SOL    HW222863   1.076   1.727   5.531  0.3785 -0.7947 -0.4414
 3743SOL     OW22864   3.442   0.538   9.455 -0.3073 -0.0510  0.1907
 3743SOL    HW122865   3.443   0.633   9.452 -0.3631 -0.0171  1.1502
 3743SOL    HW222866   3.536   0.521   9.460 -0.2256  0.2559 -0.3499
 3744SOL     OW22867   1.524   0.414   2.905  0.4475  0.2034 -0.4743
 3744SOL    HW122868   1.618   0.396   2.897  0.1432 -2.4282  1.8537
 3744SOL    HW222869   1.482   0.329   2.915  0.7340  0.1362  0.1844
 3745SOL     OW22870   2.661   4.281   5.090 -1.0695 -0.0034  0.2879
 3745SOL    HW122871   2.588   4.294   5.029 -0.1734  2.1903 -0.3264
 3745SOL    HW222872   2.623   4.217   5.151  0.2558 -1.5259 -0.4748
 3746SOL     OW22873   2.141   3.931  15.207 -0.0658 -0.8597  0.8723
 3746SOL    HW122874   2.216   3.930  15.147  0.7663 -0.9315  1.9280
 3746SOL    HW222875   2.142   4.023  15.234 -0.3531 -0.1950 -1.3886
 3747SOL     OW22876   1.235   0.346   3.268  0.7201 -0.4937 -0.1189
 3747SOL    HW122877   1.259   0.431   3.231 -0.4833  0.5120  1.3723
 3747SOL    HW222878   1.148   0.363   3.304  0.8150  0.4785 -0.3480
 3748SOL     OW22879   2.421   0.892   2.410 -0.1561 -0.8671  0.4167
 3748SOL    HW122880   2.365   0.844   2.349 -2.1727  3.6832 -1.3437
 3748SOL    HW222881   2.469   0.949   2.350 -0.2605 -1.3321 -0.1118
 3749SOL     OW22882   4.161   1.910   1.738 -0.4010  0.1444  0.2435
 3749SOL    HW122883   4.144   1.903   1.832  2.9522 -2.0853  0.6943
 3749SOL    HW222884   4.257   1.904   1.738 -0.4818 -1.1340 -0.0835
 3750SOL     OW22885   4.706   0.641  15.105 -0.8692  0.8077  0.2086
 3750SOL    HW122886   0.033   0.701  15.136  1.6069 -2.0030  0.2854
 3750SOL    HW222887   4.706   0.658  15.011 -2.7982 -0.6548 -0.0663
 3751SOL     OW22888   1.934   3.887   2.902 -0.2686 -0.3186  0.2850
 3751SOL    HW122889   1.901   3.912   2.815  0.4081 -1.7379 -0.3889
 3751SOL    HW222890   2.006   3.833   2.871  0.6190  1.9872 -1.6575
 3752SOL     OW22891   3.998   3.131   8.669 -0.1747 -0.6300 -0.0402
 3752SOL    HW122892   3.995   3.098   8.759 -2.7642  0.2641  0.1919
 3752SOL    HW222893   4.080   3.181   8.672  0.3256 -1.4065 -0.8872
 3753SOL     OW22894   3.958   1.804   3.682  0.0271 -0.3409  0.5319
 3753SOL    HW122895   3.952   1.710   3.663 -0.8924 -0.5248  1.7042
 3753SOL    HW222896   3.964   1.809   3.778  0.7056  0.7871  0.4137
 3754SOL     OW22897   0.751   2.085   8.510 -0.0951  0.0909 -0.1972
 3754SOL    HW122898   0.843   2.093   8.486 -0.2403 -0.6843 -1.0013
 3754SOL    HW222899   0.726   2.177   8.525  0.4765  0.3921 -1.1019
 3755SOL     OW22900   1.076   1.002   5.260 -0.1224 -0.1060 -0.1243
 3755SOL    HW122901   1.104   1.061   5.330  0.5253 -1.0162  0.3765
 3755SOL    HW222902   1.045   0.925   5.307 -0.9440 -0.1076 -0.6672
 3756SOL     OW22903   1.097   0.385   4.010  0.2844  0.3258 -0.0560
 3756SOL    HW122904   1.188   0.406   3.989  0.6966 -2.1229 -0.6345
 3756SOL    HW222905   1.071   0.342   3.928 -0.0761 -1.3667  0.9488
 3757SOL     OW22906   0.282   1.077   3.220 -0.1422 -0.2275 -0.3873
 3757SOL    HW122907   0.297   1.141   3.151  3.3383  0.3041  0.8917
 3757SOL    HW222908   0.293   1.129   3.300  0.7728  0.5876 -1.0442
 3758SOL     OW22909   1.765   1.002   5.246 -0.1930  0.1427 -0.4477
 3758SOL    HW122910   1.829   1.067   5.274  1.0275 -1.8721  1.4373
 3758SOL    HW222911   1.821   0.960   5.181 -0.4556  0.7267 -1.0506
 3759SOL     OW22912   3.840   1.614  11.622 -0.2283 -0.2345  0.1394
 3759SOL    HW122913   3.796   1.689  11.662  0.6357 -1.3079  3.1223
 3759SOL    HW222914   3.871   1.641  11.536  2.0503  1.5821  1.5298
 3760SOL     OW22915   2.621   1.294  13.617  0.3594  0.1419  0.2324
 3760SOL    HW122916   2.571   1.259  13.691  0.3635 -0.5902 -0.1096
 3760SOL    HW222917   2.540   1.304  13.567  0.7172 -0.4692 -0.4718
 3761SOL     OW22918   3.501   4.223  12.744 -0.5117 -0.2766  0.4623
 3761SOL    HW122919   3.596   4.229  12.740 -0.5150  1.1994  2.4214
 3761SOL    HW222920   3.475   4.257  12.659  1.5691 -0.1432 -0.1133
 3762SOL     OW22921   1.286   3.873  13.686 -0.3847 -0.1239 -0.6484
 3762SOL    HW122922   1.326   3.947  13.732 -1.3496  1.1443 -1.8713
 3762SOL    HW222923   1.216   3.853  13.748 -0.0842 -1.1339 -0.6367
 3763SOL     OW22924   1.835   0.724   7.741 -0.3393 -0.4704 -0.0764
 3763SOL    HW122925   1.919   0.766   7.760 -1.7750  1.6726  1.4781
 3763SOL    HW222926   1.851   0.636   7.704 -0.8209 -0.5652 -0.0558
 3764SOL     OW22927   3.115   0.788  16.667 -0.9381  0.3506 -0.6482
 3764SOL    HW122928   3.090   0.873  16.631 -1.5435 -0.1132 -1.3276
 3764SOL    HW222929   3.152   0.825  16.747  1.4323  0.6385 -1.8706
 3765SOL     OW22930   3.674   1.106   6.268 -0.1237  0.1941 -0.7069
 3765SOL    HW122931   3.721   1.188   6.252  0.3718 -0.2414 -1.4631
 3765SOL    HW222932   3.590   1.127   6.227 -0.0585 -1.8232 -1.8565
 3766SOL     OW22933   0.510   1.226  15.666 -0.9603  0.0429  0.5850
 3766SOL    HW122934   0.511   1.283  15.743  0.9745  0.0834  0.5390
 3766SOL    HW222935   0.567   1.159  15.704  0.3994  1.5667  1.2690
 3767SOL     OW22936   1.377   3.620   8.232 -0.0742  0.3756 -0.7167
 3767SOL    HW122937   1.288   3.582   8.227 -0.4244  1.2457 -1.0181
 3767SOL    HW222938   1.434   3.551   8.199 -0.3233 -0.2209  0.1003
 3768SOL     OW22939   4.202   0.182   5.944 -0.2391  0.3384 -0.6416
 3768SOL    HW122940   4.194   0.102   5.892  0.6958  0.2582 -0.6666
 3768SOL    HW222941   4.286   0.156   5.982  0.0282  1.5128 -0.4407
 3769SOL     OW22942   0.090   2.515   9.147 -0.1394 -0.4454  0.0617
 3769SOL    HW122943   0.171   2.500   9.196  1.8331  3.6802 -1.9099
 3769SOL    HW222944   0.124   2.545   9.063 -0.5834 -0.2054 -0.0317
 3770SOL     OW22945   0.571   4.173   5.597 -0.0763  0.2270 -0.5440
 3770SOL    HW122946   0.476   4.164   5.607 -0.2710  0.7502 -1.9484
 3770SOL    HW222947   0.609   4.086   5.607 -1.7687 -0.6116 -1.4306
 3771SOL     OW22948   1.985   2.456   0.266  0.7109  0.5601 -0.7073
 3771SOL    HW122949   2.073   2.419   0.264  1.1610  1.7038 -2.0858
 3771SOL    HW222950   1.999   2.547   0.294 -0.1276  1.2047 -2.3817
 3772SOL     OW22951   2.495   4.056   2.452  0.1397  0.2851  0.6743
 3772SOL    HW122952   2.535   4.055   2.365  0.5567  2.0655  0.8443
 3772SOL    HW222953   2.510   3.966   2.481  0.7512  0.3363  0.5057
 3773SOL     OW22954   0.539   3.725   3.955 -0.5598 -0.5571  0.2879
 3773SOL    HW122955   0.462   3.719   4.012  0.2897  1.7819  1.6991
 3773SOL    HW222956   0.562   3.813   3.985  0.6908 -0.5674 -0.6825
 3774SOL     OW22957   4.259   1.669  10.127  0.5159  0.0030 -0.7117
 3774SOL    HW122958   4.164   1.660  10.131  0.3911  0.5982 -2.1343
 3774SOL    HW222959   4.279   1.725  10.202 -5.7244  1.7368 -0.3671
 3775SOL     OW22960   3.630   3.791  10.173  0.3999  0.5264 -0.6318
 3775SOL    HW122961   3.599   3.703  10.153  2.4904 -0.4136  0.2295
 3775SOL    HW222962   3.594   3.812  10.259 -0.9655  0.8848 -1.2905
 3776SOL     OW22963   1.978   1.035   9.392 -0.0091  0.5742  0.1016
 3776SOL    HW122964   1.974   1.110   9.453 -2.1498 -2.2335  3.4475
 3776SOL    HW222965   2.017   0.966   9.446  0.2835  0.5788 -0.1062
 3777SOL     OW22966   2.720   0.175   1.467 -0.2205 -0.1196  0.4633
 3777SOL    HW122967   2.661   0.244   1.435 -0.5161 -1.3620 -1.7094
 3777SOL    HW222968   2.789   0.181   1.401 -2.0123  0.1401 -1.3759
 3778SOL     OW22969   1.546   4.522   8.570  0.4307 -0.0856 -0.8867
 3778SOL    HW122970   1.513   4.571   8.495  0.8694  0.7053 -0.5638
 3778SOL    HW222971   1.475   4.547   8.629  1.4355  0.3536  0.1355
 3779SOL     OW22972   3.733   2.333  16.512  0.2701  0.6672  0.2881
 3779SOL    HW122973   3.664   2.267  16.519 -0.6928  1.6856  0.4094
 3779SOL    HW222974   3.803   2.272  16.537 -2.4767 -1.3767  2.9406
 3780SOL     OW22975   3.452   3.282   7.626  0.0816  0.0875  0.2747
 3780SOL    HW122976   3.386   3.227   7.584 -1.3013  1.0535  1.1772
 3780SOL    HW222977   3.406   3.366   7.615  1.0741  0.7728  1.3221
 3781SOL     OW22978   2.751   3.256   0.565 -0.9121  0.2736  0.4379
 3781SOL    HW122979   2.683   3.260   0.498 -1.9705  0.8630  1.5448
 3781SOL    HW222980   2.830   3.232   0.517  0.4893  0.9676  2.3879
 3782SOL     OW22981   2.160   1.696   6.202  0.2586  0.0390 -0.5036
 3782SOL    HW122982   2.165   1.634   6.130  0.8290  0.4681 -0.8426
 3782SOL    HW222983   2.244   1.742   6.208  1.3339 -2.1253  1.1308
 3783SOL     OW22984   0.476   2.990   9.093  0.3085  0.4109 -0.0577
 3783SOL    HW122985   0.470   2.984   8.998  1.0160 -0.1865 -0.0615
 3783SOL    HW222986   0.427   2.911   9.113  1.2057 -0.3976 -1.0968
 3784SOL     OW22987   1.513   1.936   8.800  0.1775  0.5445 -0.5766
 3784SOL    HW122988   1.514   1.973   8.711  1.5572  1.2616 -0.2645
 3784SOL    HW222989   1.427   1.971   8.824  0.0158  0.1418 -0.5785
 3785SOL     OW22990   4.524   3.326   9.713  0.0690 -0.1213  0.2118
 3785SOL    HW122991   4.434   3.336   9.684  0.1445  1.3599  0.4791
 3785SOL    HW222992   4.521   3.327   9.809 -1.0305 -1.4166  0.1927
 3786SOL     OW22993   4.349   3.238  10.269 -0.1357  0.0002 -0.2941
 3786SOL    HW122994   4.287   3.312  10.274 -0.3035 -0.1375 -0.3302
 3786SOL    HW222995   4.427   3.276  10.230  0.2271 -2.0099 -1.4901
 3787SOL     OW22996   2.627   1.340   0.845  0.3670  0.1782  0.5097
 3787SOL    HW122997   2.578   1.290   0.780 -1.2109 -0.2861  2.0695
 3787SOL    HW222998   2.574   1.357   0.923 -1.9475 -0.6929 -0.8778
 3788SOL     OW22999   0.491   2.722   7.361  0.4642 -0.6029  0.3215
 3788SOL    HW123000   0.425   2.777   7.318  0.1416 -1.3018 -0.0796
 3788SOL    HW223001   0.519   2.682   7.278  0.1964  0.5003 -0.3071
 3789SOL     OW23002   1.895   3.516   4.896 -0.0119  0.1585  0.2516
 3789SOL    HW123003   1.805   3.528   4.926  0.3329 -1.2424  1.8505
 3789SOL    HW223004   1.898   3.448   4.828 -0.4360  0.3929  0.0013
 3790SOL     OW23005   0.777   2.966   1.577 -0.0843  0.0102  0.4116
 3790SOL    HW123006   0.863   2.924   1.587 -0.0658 -0.0599 -0.0418
 3790SOL    HW223007   0.797   3.057   1.553  0.6639 -0.0449  0.8031
 3791SOL     OW23008   0.511   0.777   1.635  0.2481  0.3746  0.2378
 3791SOL    HW123009   0.586   0.720   1.616  2.4217  3.1671  0.4601
 3791SOL    HW223010   0.519   0.783   1.730 -1.0472 -1.1839  0.4480
 3792SOL     OW23011   0.590   3.716   8.485  0.1615  0.0871 -0.1164
 3792SOL    HW123012   0.668   3.772   8.482 -0.3254  0.8090  0.5447
 3792SOL    HW223013   0.519   3.780   8.476  0.1210 -0.1742 -1.6510
 3793SOL     OW23014   1.861   4.541  16.215  0.2426  0.0250  0.8734
 3793SOL    HW123015   1.917   4.609  16.252  1.1868 -0.0812 -0.3663
 3793SOL    HW223016   1.790   4.589  16.174  1.7979 -0.1334 -2.0596
 3794SOL     OW23017   2.047   4.669  15.495 -0.1287  0.3724 -0.6709
 3794SOL    HW123018   2.143   4.666  15.492 -0.1483 -0.1856 -0.6828
 3794SOL    HW223019   2.040   0.020  15.522  1.2495  0.5845 -1.0234
 3795SOL     OW23020   4.299   4.664   5.255 -0.4680  0.0406 -0.4655
 3795SOL    HW123021   4.234   4.689   5.190 -1.6285 -0.5150  0.4981
 3795SOL    HW223022   4.262   4.706   5.332 -1.9366  0.1964 -1.2608
 3796SOL     OW23023   2.900   3.102   8.165  0.0572 -0.3776 -0.5698
 3796SOL    HW123024   2.945   3.088   8.082  0.5832  1.7247 -0.6393
 3796SOL    HW223025   2.896   3.197   8.162 -0.4480 -0.3327  1.4250
 3797SOL     OW23026   2.703   1.252  13.009  0.1616  0.2614 -0.3709
 3797SOL    HW123027   2.696   1.295  13.094  1.8366 -0.4038  0.0965
 3797SOL    HW223028   2.789   1.287  12.987  1.2812 -2.1860  0.0464
 3798SOL     OW23029   2.898   1.372   6.924 -0.1091  0.5142  0.0513
 3798SOL    HW123030   2.904   1.399   7.016  2.1475 -1.9421  0.6208
 3798SOL    HW223031   2.978   1.399   6.880  1.2979 -2.1349  1.0275
 3799SOL     OW23032   2.884   0.313  10.258  0.2238 -0.1957 -0.0263
 3799SOL    HW123033   2.855   0.386  10.203 -0.9970  1.4502  2.8234
 3799SOL    HW223034   2.842   0.331  10.342 -0.7668  1.2810 -0.8184
 3800SOL     OW23035   0.724   4.554   5.193  0.7298  0.5773  0.2106
 3800SOL    HW123036   0.702   4.486   5.257 -2.6883  1.5481  0.0601
 3800SOL    HW223037   0.819   4.560   5.201  0.8876 -0.1830 -1.1174
 3801SOL     OW23038   4.055   3.607   8.464  0.0688  0.3181  0.1491
 3801SOL    HW123039   3.996   3.664   8.415  0.1795  1.0989  0.9338
 3801SOL    HW223040   4.137   3.624   8.417  0.1168 -1.0421 -0.2819
 3802SOL     OW23041   0.000   0.347   2.933 -0.0595 -0.1401  0.4908
 3802SOL    HW123042   4.647   0.339   2.915 -0.1502 -1.3423  1.4693
 3802SOL    HW223043   0.003   0.371   3.025 -0.9117 -0.6291  0.6431
 3803SOL     OW23044   4.602   4.469   5.954 -0.1144 -0.2822 -0.3643
 3803SOL    HW123045   4.683   4.516   5.975 -1.5627  0.9717  2.3798
 3803SOL    HW223046   4.646   4.392   5.919  0.5622  0.2078 -0.6032
 3804SOL     OW23047   1.715   1.684   4.911 -0.4324  0.3734 -0.3197
 3804SOL    HW123048   1.747   1.744   4.978 -0.6018 -1.3931  1.3532
 3804SOL    HW223049   1.648   1.735   4.865 -0.9521 -0.7328 -0.7847
 3805SOL     OW23050   3.031   1.805  16.224  0.1756  0.2343  0.0863
 3805SOL    HW123051   3.103   1.779  16.282 -0.0715 -1.2345 -0.2627
 3805SOL    HW223052   3.081   1.841  16.151  0.8155 -0.9020 -0.0507
 3806SOL     OW23053   3.520   1.178   1.512 -0.1012 -0.4294  0.3045
 3806SOL    HW123054   3.572   1.107   1.549  0.4170 -0.4229 -0.4089
 3806SOL    HW223055   3.505   1.236   1.587 -0.1441 -1.2076  0.8976
 3807SOL     OW23056   2.299   3.856  12.546  0.2094  0.5058 -0.7079
 3807SOL    HW123057   2.274   3.800  12.472 -2.7364 -0.3474  0.9113
 3807SOL    HW223058   2.342   3.929  12.502  1.3460 -0.0392 -0.4931
 3808SOL     OW23059   0.173   4.388   7.685  0.1476  0.0800 -0.0183
 3808SOL    HW123060   0.078   4.396   7.693  0.3238 -0.8725  2.8197
 3808SOL    HW223061   0.177   4.333   7.606  2.2541  1.4137 -0.8158
 3809SOL     OW23062   1.160   1.445   7.513 -0.2067 -0.5321 -0.1439
 3809SOL    HW123063   1.110   1.468   7.591  2.2070 -0.6002  1.4366
 3809SOL    HW223064   1.087   1.414   7.459 -1.8869 -1.2666  2.5790
 3810SOL     OW23065   3.209   4.173  14.061  0.3007  0.2750 -0.8900
 3810SOL    HW123066   3.233   4.088  14.096 -1.5069  0.0963 -0.0993
 3810SOL    HW223067   3.273   4.178  13.990  0.6016  0.6652 -0.5871
 3811SOL     OW23068   0.069   0.328  11.882  0.1941 -0.5472  0.0601
 3811SOL    HW123069   0.128   0.284  11.943  0.8470  0.8128  0.4188
 3811SOL    HW223070   4.726   0.295  11.915  1.0334 -2.1973  0.5494
 3812SOL     OW23071   2.916   2.977   6.447  0.3614 -0.3183  0.3962
 3812SOL    HW123072   2.942   2.912   6.381  1.1177 -0.1493  0.5299
 3812SOL    HW223073   2.834   2.944   6.485  0.6898 -0.2182  1.1803
 3813SOL     OW23074   1.877   4.616   6.373  0.2261 -0.6524  0.2438
 3813SOL    HW123075   1.850   4.697   6.416  1.2642  0.1130 -0.5662
 3813SOL    HW223076   1.942   4.584   6.435 -0.9241 -1.2952  1.1180
 3814SOL     OW23077   2.878   0.838  10.409  0.4762  0.6316  0.3472
 3814SOL    HW123078   2.833   0.814  10.329 -1.1962 -1.0686  1.8206
 3814SOL    HW223079   2.879   0.763  10.468  0.3388  0.4883  0.1630
 3815SOL     OW23080   1.538   2.189  12.863 -0.4781 -0.0505  0.4303
 3815SOL    HW123081   1.564   2.100  12.839  0.5299 -0.0614  1.5626
 3815SOL    HW223082   1.461   2.187  12.805 -0.6072  1.8058  0.5280
 3816SOL     OW23083   2.137   2.026  15.003  0.1348 -0.2922  0.3450
 3816SOL    HW123084   2.126   2.112  14.964 -2.1592 -1.1788 -1.0140
 3816SOL    HW223085   2.178   2.048  15.086 -1.1448  1.5684  0.4866
 3817SOL     OW23086   4.420   1.730   8.567 -0.0997  0.1696  0.3753
 3817SOL    HW123087   4.457   1.669   8.631 -0.6248 -3.2662 -2.6180
 3817SOL    HW223088   4.330   1.703   8.552 -0.1366  1.2335 -1.2729
 3818SOL     OW23089   4.091   0.587   3.079  0.0399  0.7541  0.3491
 3818SOL    HW123090   4.090   0.601   3.174  1.0875  0.5876  0.3773
 3818SOL    HW223091   3.998   0.574   3.056  1.0976 -3.4812 -1.5348
 3819SOL     OW23092   4.088   3.762  15.464 -0.0985 -0.2631  0.2964
 3819SOL    HW123093   4.124   3.721  15.543  0.6064  1.1588  0.7024
 3819SOL    HW223094   3.997   3.782  15.481 -0.4207 -2.0027  0.6562
 3820SOL     OW23095   3.092   4.347  15.291  0.0122  0.4179 -0.1601
 3820SOL    HW123096   3.171   4.361  15.343 -0.6639  0.1339  0.9444
 3820SOL    HW223097   3.091   4.251  15.286  0.0530  0.2992  2.1724
 3821SOL     OW23098   3.219   2.609  13.000  0.1732 -0.0371 -0.1698
 3821SOL    HW123099   3.215   2.683  13.061  2.5481  0.6349 -0.7984
 3821SOL    HW223100   3.267   2.646  12.926  1.5674 -0.8619  0.3094
 3822SOL     OW23101   3.441   2.596   2.681  0.3483 -0.3621 -1.0352
 3822SOL    HW123102   3.510   2.574   2.744 -1.0975 -0.8106  0.3877
 3822SOL    HW223103   3.389   2.515   2.679  0.5364 -0.5317  0.6001
 3823SOL     OW23104   3.917   3.609  17.152  0.2658  0.9930 -0.8844
 3823SOL    HW123105   3.887   3.632  17.064 -0.9747 -0.1339 -0.7398
 3823SOL    HW223106   3.999   3.659  17.158  0.5231  0.0214  3.7733
 3824SOL     OW23107   1.780   3.726   0.316 -0.2402  0.2698  0.4768
 3824SOL    HW123108   1.830   3.796   0.274 -0.0933 -0.9665 -1.4091
 3824SOL    HW223109   1.704   3.727   0.258  2.6641  1.4878 -3.3894
 3825SOL     OW23110   3.077   0.549   7.643 -0.5098  0.6387 -0.2378
 3825SOL    HW123111   3.018   0.574   7.714 -3.3660 -1.2229 -1.9589
 3825SOL    HW223112   3.027   0.528   7.564 -0.0246 -1.5948  0.0632
 3826SOL     OW23113   2.364   1.264  13.706 -0.3213 -0.5882 -0.0891
 3826SOL    HW123114   2.303   1.335  13.685 -0.2274  0.6439  3.8117
 3826SOL    HW223115   2.373   1.264  13.801  1.1911 -2.1723 -0.2204
 3827SOL     OW23116   1.623   3.916   6.448  0.1037  0.1177  0.7750
 3827SOL    HW123117   1.572   3.905   6.368  1.2352  1.4826 -0.1447
 3827SOL    HW223118   1.562   3.882   6.513 -0.8604 -0.9362 -0.6754
 3828SOL     OW23119   0.922   2.915   6.911  0.4885  0.4970  0.1137
 3828SOL    HW123120   0.833   2.951   6.909  0.0180 -0.7771 -1.7768
 3828SOL    HW223121   0.964   2.970   6.845 -1.0460 -1.4859 -2.4931
 3829SOL     OW23122   0.051   3.817   4.519  0.2503 -0.0149 -0.1252
 3829SOL    HW123123   0.013   3.886   4.573  1.0265  1.7981 -1.8784
 3829SOL    HW223124   0.095   3.876   4.458  0.5181 -1.7083 -1.5911
 3830SOL     OW23125   3.130   3.252  10.759  0.0101 -0.3145  0.0407
 3830SOL    HW123126   3.211   3.304  10.756  0.7710 -1.5715 -1.4679
 3830SOL    HW223127   3.066   3.323  10.750  0.2453 -0.1628 -0.4883
 3831SOL     OW23128   1.469   3.203   3.597 -0.0324 -0.4453  0.4978
 3831SOL    HW123129   1.400   3.236   3.540 -0.6290 -1.8672  0.4061
 3831SOL    HW223130   1.442   3.250   3.676 -3.3725  0.2006 -1.0359
 3832SOL     OW23131   0.641   1.001   3.465 -0.0899 -0.3969 -0.0531
 3832SOL    HW123132   0.625   1.040   3.379  0.1618 -0.9354 -0.3485
 3832SOL    HW223133   0.690   0.922   3.442 -1.5091 -1.6225  1.1826
 3833SOL     OW23134   3.062   1.623   7.088  0.1015 -0.1392  0.0638
 3833SOL    HW123135   3.011   1.555   7.131  2.4904 -1.3882  0.8931
 3833SOL    HW223136   3.040   1.696   7.145 -1.6867 -1.4786  1.0834
 3834SOL     OW23137   0.593   3.529   6.729 -0.3769  0.1687 -0.3634
 3834SOL    HW123138   0.536   3.483   6.667  3.1303 -1.0763 -2.6314
 3834SOL    HW223139   0.651   3.571   6.665 -1.0640  1.4622 -0.1499
 3835SOL     OW23140   1.516   3.723   3.575  0.1628  0.9827  0.0433
 3835SOL    HW123141   1.462   3.802   3.570 -0.2200  0.6269 -1.5915
 3835SOL    HW223142   1.482   3.681   3.655 -2.6677  1.5868 -0.8337
 3836SOL     OW23143   3.759   2.802   5.191  0.2651  0.0556  0.1511
 3836SOL    HW123144   3.854   2.812   5.193  0.2106  0.2105  1.9698
 3836SOL    HW223145   3.746   2.710   5.165 -2.7254  0.2828  0.8771
 3837SOL     OW23146   1.489   2.888  15.153  0.1988  0.5388  0.1043
 3837SOL    HW123147   1.490   2.797  15.125  1.1186  1.2071 -2.0873
 3837SOL    HW223148   1.449   2.943  15.086 -0.7059 -0.0004  0.2122
 3838SOL     OW23149   0.708   0.745   8.488  0.0373  0.0803  0.1310
 3838SOL    HW123150   0.657   0.826   8.476  1.6837  0.6349 -3.1916
 3838SOL    HW223151   0.694   0.731   8.582 -1.3323 -0.2604 -0.1221
 3839SOL     OW23152   2.412   2.165   2.063 -0.5371 -0.6112  0.0768
 3839SOL    HW123153   2.447   2.230   2.002  0.9776  0.4392  2.0853
 3839SOL    HW223154   2.405   2.089   2.005 -1.8888 -1.5316  1.4584
 3840SOL     OW23155   2.710   2.719   9.609 -0.6591 -0.6539  0.1136
 3840SOL    HW123156   2.716   2.796   9.666 -0.4076 -1.3376  1.0246
 3840SOL    HW223157   2.681   2.755   9.526 -0.1692 -0.1295  0.1787
 3841SOL     OW23158   4.675   1.568   9.481  0.4234  0.9137 -0.2089
 3841SOL    HW123159   4.648   1.626   9.409 -0.0536 -1.7128 -2.1594
 3841SOL    HW223160   4.688   1.626   9.555 -0.9723 -1.1486  1.6719
 3842SOL     OW23161   2.921   4.521   9.190  0.4068  0.2695 -0.3275
 3842SOL    HW123162   2.950   4.611   9.174  1.0143 -0.0290 -0.8935
 3842SOL    HW223163   2.828   4.521   9.168  1.0433 -0.4478 -3.0207
 3843SOL     OW23164   4.699   1.696   9.731 -0.3327  0.0868 -0.2799
 3843SOL    HW123165   0.024   1.763   9.710 -0.0130 -0.8041 -2.0741
 3843SOL    HW223166   4.707   1.685   9.826  1.0753 -0.0482 -0.4084
 3844SOL     OW23167   4.043   1.534   6.243 -0.1924 -0.2600 -0.3924
 3844SOL    HW123168   4.029   1.514   6.150 -0.7872  1.6138 -0.6990
 3844SOL    HW223169   3.992   1.470   6.291  0.2003  0.7937  1.4235
 3845SOL     OW23170   2.080   2.774   4.055 -1.2830  0.6682 -0.2970
 3845SOL    HW123171   2.002   2.825   4.034 -1.4670  0.1887 -0.7699
 3845SOL    HW223172   2.105   2.807   4.141 -0.9491 -2.7596  0.9154
 3846SOL     OW23173   2.754   0.809   7.574  0.1038  0.3504 -0.1858
 3846SOL    HW123174   2.691   0.844   7.637 -0.1283  0.1545 -0.3050
 3846SOL    HW223175   2.836   0.841   7.611 -1.0234 -0.8526  3.3667
 3847SOL     OW23176   0.970   3.956   2.490 -0.1507  0.0826  0.6081
 3847SOL    HW123177   0.875   3.958   2.495 -0.1906 -0.7016  0.1872
 3847SOL    HW223178   0.988   3.997   2.405 -1.4700  0.1515  0.3659
 3848SOL     OW23179   1.858   4.588  16.635 -0.1270  0.1888  0.4360
 3848SOL    HW123180   1.951   4.606  16.644 -0.7759  4.1103 -0.4595
 3848SOL    HW223181   1.825   4.660  16.580 -0.0564 -0.9756 -1.1081
 3849SOL     OW23182   2.562   2.494   0.000  0.2573  0.8574 -0.4653
 3849SOL    HW123183   2.625   2.565   0.013  2.6549 -1.7071  1.8261
 3849SOL    HW223184   2.619   2.419  17.745  0.5891  0.7215  1.4266
 3850SOL     OW23185   4.218   0.080   1.347  0.0329 -0.1369 -0.2769
 3850SOL    HW123186   4.247   0.152   1.290 -2.1328 -0.7186 -2.1274
 3850SOL    HW223187   4.125   0.085   1.323 -0.4641 -2.7899  1.1445
 3851SOL     OW23188   2.488   4.518   4.162 -0.3938  0.1136 -0.3854
 3851SOL    HW123189   2.410   4.522   4.108  0.8336  0.2097 -2.1733
 3851SOL    HW223190   2.460   4.575   4.233 -0.5401 -1.1694  0.5810
 3852SOL     OW23191   3.070   2.091   6.298 -0.1007  0.4298  0.4299
 3852SOL    HW123192   2.983   2.130   6.295  0.0685  0.6520 -1.5581
 3852SOL    HW223193   3.053   2.013   6.244 -1.8324  1.0161  0.1468
 3853SOL     OW23194   2.933   2.999   0.252 -0.4554  0.0311 -0.5454
 3853SOL    HW123195   2.983   3.062   0.303 -1.8382  0.9093 -0.2586
 3853SOL    HW223196   3.005   2.980   0.192  0.1845  1.4806 -0.2273
 3854SOL     OW23197   2.971   0.384   2.334 -0.2009 -0.3154 -0.3037
 3854SOL    HW123198   2.908   0.331   2.285  0.1686 -1.0111 -0.0251
 3854SOL    HW223199   3.049   0.374   2.279 -0.6314 -5.4192 -0.0049
 3855SOL     OW23200   2.797   1.911   6.201  0.4660  0.0935  0.0870
 3855SOL    HW123201   2.875   1.859   6.179  0.8069  0.4721  0.3948
 3855SOL    HW223202   2.743   1.839   6.234 -1.4071  2.6765  2.5668
 3856SOL     OW23203   3.599   4.134   3.697 -0.1893 -0.4361  0.2292
 3856SOL    HW123204   3.566   4.076   3.630  0.0293  0.0380 -0.2895
 3856SOL    HW223205   3.518   4.165   3.737 -0.9444 -0.1395 -1.5378
 3857SOL     OW23206   0.284   0.185  13.718 -0.3505 -0.4551 -0.0500
 3857SOL    HW123207   0.231   0.158  13.644 -0.9082  0.6452 -0.0644
 3857SOL    HW223208   0.359   0.126  13.713 -0.2957 -0.4458  0.5706
 3858SOL     OW23209   0.401   4.578   4.972 -0.2772 -0.0269 -0.4880
 3858SOL    HW123210   0.316   4.577   4.928  0.0777  0.0406 -1.1863
 3858SOL    HW223211   0.449   4.619   4.899  1.6587  0.0992  0.8487
 3859SOL     OW23212   4.706   0.738  13.385  0.7990 -0.5098 -0.1123
 3859SOL    HW123213   0.036   0.796  13.358  0.2870  0.4588  0.6442
 3859SOL    HW223214   0.005   0.650  13.388  0.6889 -0.5459  0.3578
 3860SOL     OW23215   3.964   4.064   3.807  0.2320 -0.8380 -0.0972
 3860SOL    HW123216   4.001   4.140   3.761  0.6559  1.2195  3.6882
 3860SOL    HW223217   4.020   3.996   3.770  1.9297  0.5667 -0.1143
 3861SOL     OW23218   0.498   0.776   8.912  0.2441 -0.4123  0.2335
 3861SOL    HW123219   0.543   0.732   8.985 -0.5860 -1.1868  0.2791
 3861SOL    HW223220   0.550   0.740   8.841 -0.5075 -0.6301 -0.2058
 3862SOL     OW23221   3.387   1.402   9.364 -0.4229 -0.0247 -0.7015
 3862SOL    HW123222   3.403   1.316   9.324  0.0683  0.7388 -2.1246
 3862SOL    HW223223   3.451   1.406   9.436 -0.1646 -1.0100 -0.8774
 3863SOL     OW23224   2.733   2.220  10.729 -0.3557  0.2806 -0.4775
 3863SOL    HW123225   2.680   2.154  10.686 -1.0515 -0.7190  1.9427
 3863SOL    HW223226   2.809   2.216  10.671  1.2134  0.3144  1.5690
 3864SOL     OW23227   1.380   4.104  17.429 -0.2138 -0.0242 -0.0847
 3864SOL    HW123228   1.380   4.173  17.362  0.3578  1.9546  1.9416
 3864SOL    HW223229   1.387   4.156  17.509  1.0899  1.2108 -1.0013
 3865SOL     OW23230   0.393   1.063   4.704 -0.7346  0.0136  0.1906
 3865SOL    HW123231   0.427   0.979   4.672  0.9979  0.2410  1.4501
 3865SOL    HW223232   0.349   1.094   4.625  0.9310 -2.0342 -1.5389
 3866SOL     OW23233   4.042   1.940   6.315  0.1626  0.0035 -0.2299
 3866SOL    HW123234   4.109   2.006   6.295  1.3393 -1.1864 -0.2053
 3866SOL    HW223235   4.088   1.875   6.368 -2.0243 -1.7746 -0.4958
 3867SOL     OW23236   4.369   4.631   8.836  0.8887 -0.0261  0.2093
 3867SOL    HW123237   4.368   4.697   8.767 -0.1568 -1.1498 -0.8448
 3867SOL    HW223238   4.365   4.674   8.922  1.0237 -0.0757  0.2403
 3868SOL     OW23239   4.074   3.260  11.125  0.1340 -0.3613  0.0571
 3868SOL    HW123240   4.108   3.182  11.082 -0.2353  0.3378 -1.4756
 3868SOL    HW223241   4.131   3.260  11.202 -0.4388  1.9661  0.5029
 3869SOL     OW23242   3.222   1.675   2.993 -0.2179 -0.2703  0.6684
 3869SOL    HW123243   3.258   1.754   3.034  0.0246 -0.5345  0.9712
 3869SOL    HW223244   3.153   1.651   3.055  1.6363  0.2972  2.9585
 3870SOL     OW23245   4.123   4.423   7.778  0.2606  0.3830  0.0293
 3870SOL    HW123246   4.112   4.365   7.853 -0.2844 -0.8328 -0.9917
 3870SOL    HW223247   4.060   4.495   7.784  0.2945  0.5649 -1.8322
 3871SOL     OW23248   0.459   3.192   2.166  0.2458  0.5903  0.2571
 3871SOL    HW123249   0.450   3.174   2.259  1.7121  1.1773  0.5236
 3871SOL    HW223250   0.549   3.224   2.159  0.1376  0.8754  0.1710
 3872SOL     OW23251   0.556   0.877  17.206  0.3266 -0.4279  0.3269
 3872SOL    HW123252   0.553   0.973  17.209  0.1764 -0.3952 -0.8961
 3872SOL    HW223253   0.560   0.864  17.301  3.2429  1.3705  0.4748
 3873SOL     OW23254   0.105   3.932   7.895  0.7815  0.2237  0.1112
 3873SOL    HW123255   0.186   3.922   7.845  1.8671  1.1070  1.6846
 3873SOL    HW223256   0.034   3.914   7.833 -0.5020  0.6066  1.4664
 3874SOL     OW23257   4.125   1.276   6.479 -0.1208 -0.3220  0.3088
 3874SOL    HW123258   4.192   1.331   6.519 -0.5534  1.3354 -1.2105
 3874SOL    HW223259   4.053   1.282   6.543 -1.6866  0.2739 -1.4977
 3875SOL     OW23260   4.020   4.584   7.261  0.3735 -0.5277 -0.4165
 3875SOL    HW123261   4.113   4.604   7.277 -0.4102  2.3122  0.5894
 3875SOL    HW223262   3.992   4.547   7.344 -0.5627  0.9118 -0.0882
 3876SOL     OW23263   3.566   1.687   8.239 -0.1290  0.1926  0.3117
 3876SOL    HW123264   3.612   1.727   8.312  0.9352 -1.8581  0.7667
 3876SOL    HW223265   3.509   1.763   8.226  0.6895  0.6966 -0.3797
 3877SOL     OW23266   3.969   0.508   2.623  0.3861 -0.1608  0.0556
 3877SOL    HW123267   3.977   0.603   2.628  1.5618 -0.3085  1.0310
 3877SOL    HW223268   4.060   0.477   2.627  0.3455 -0.1492  1.0023
 3878SOL     OW23269   2.325   3.911   2.106 -0.0243  0.0432 -0.4722
 3878SOL    HW123270   2.368   3.843   2.158  0.7096  0.1842 -0.8849
 3878SOL    HW223271   2.317   3.864   2.023  0.4738 -2.8965  1.1653
 3879SOL     OW23272   1.789   3.309   4.584  0.4149  0.0853 -0.3039
 3879SOL    HW123273   1.819   3.227   4.545 -0.5233 -1.3573  2.0379
 3879SOL    HW223274   1.717   3.322   4.522  0.9876 -0.7648 -1.1450
 3880SOL     OW23275   3.008   1.980   4.498  0.3672  0.1064  0.4901
 3880SOL    HW123276   3.036   1.971   4.589  0.1211 -1.9678  0.3467
 3880SOL    HW223277   2.919   2.015   4.511  0.9546  1.1341  1.8141
 3881SOL     OW23278   0.350   3.314   9.510 -0.0297  0.2510  0.0414
 3881SOL    HW123279   0.338   3.245   9.444  0.2939  0.6450 -0.4313
 3881SOL    HW223280   0.423   3.364   9.475 -1.4493  2.6242  0.5075
 3882SOL     OW23281   2.458   4.222   4.653  0.1562 -0.6497 -0.4109
 3882SOL    HW123282   2.405   4.302   4.643  1.2842  0.1075 -0.3710
 3882SOL    HW223283   2.393   4.172   4.702  0.1324 -2.2845 -2.1211
 3883SOL     OW23284   0.551   0.524   5.400  0.1610  0.9847  0.0586
 3883SOL    HW123285   0.613   0.569   5.344  3.0296 -2.1487  0.7345
 3883SOL    HW223286   0.602   0.447   5.425  0.3797  0.3964 -2.1939
 3884SOL     OW23287   0.900   1.630   3.817 -0.0093 -0.1874 -0.3855
 3884SOL    HW123288   0.992   1.639   3.791  0.0764 -1.0767 -0.3898
 3884SOL    HW223289   0.861   1.674   3.742  2.2399 -1.0823 -2.0839
 3885SOL     OW23290   0.305   3.559   3.388 -0.4407  0.0793 -0.0280
 3885SOL    HW123291   0.225   3.611   3.401 -0.2985  0.3119 -0.0888
 3885SOL    HW223292   0.281   3.490   3.327  0.3822  1.4842 -1.9357
 3886SOL     OW23293   4.116   2.155  15.162 -0.1646 -0.8587 -0.1977
 3886SOL    HW123294   4.084   2.151  15.072  1.7930  1.6671 -1.0033
 3886SOL    HW223295   4.203   2.115  15.159  0.3367  0.0942  1.5232
 3887SOL     OW23296   0.564   4.095  13.082  0.9366  0.0076 -0.2717
 3887SOL    HW123297   0.585   4.007  13.051 -0.8783 -0.1730 -0.9954
 3887SOL    HW223298   0.499   4.135  13.025  1.5833  1.2038 -0.1658
 3888SOL     OW23299   3.736   0.625   2.103 -0.0355 -0.5807 -0.3617
 3888SOL    HW123300   3.829   0.601   2.106 -0.3041 -1.4907  0.7548
 3888SOL    HW223301   3.688   0.542   2.111 -0.2612 -0.4768 -0.6289
 3889SOL     OW23302   4.721   2.761   8.181 -0.1872  0.5892  0.2365
 3889SOL    HW123303   4.656   2.776   8.250  1.4822 -0.8062  2.1163
 3889SOL    HW223304   0.058   2.807   8.214 -0.3336  1.0962 -0.1291
 3890SOL     OW23305   3.523   1.753   2.154  0.2203  0.1135  0.0648
 3890SOL    HW123306   3.508   1.824   2.217  0.2056 -1.5177  1.9124
 3890SOL    HW223307   3.530   1.685   2.221 -1.0480  0.1715  0.2725
 3891SOL     OW23308   2.633   3.131   5.089  0.8306 -0.1940 -0.1889
 3891SOL    HW123309   2.647   3.069   5.161 -0.1274 -0.3262 -0.1131
 3891SOL    HW223310   2.678   3.205   5.130  0.8822 -0.5921  0.4857
 3892SOL     OW23311   1.433   4.077   2.570 -0.6784 -0.3264 -0.3973
 3892SOL    HW123312   1.441   4.096   2.476 -1.3933  2.6619  0.1469
 3892SOL    HW223313   1.484   4.152   2.601 -0.7337 -0.1617 -0.7020
 3893SOL     OW23314   4.604   4.482   8.686  0.4294 -0.0811  0.2865
 3893SOL    HW123315   4.646   4.565   8.663  1.4147 -1.5955 -3.3842
 3893SOL    HW223316   4.624   4.481   8.780  1.5492  0.6321  0.0661
 3894SOL     OW23317   1.114   0.418  12.431 -0.1766 -0.0985  0.3616
 3894SOL    HW123318   1.083   0.442  12.343  2.9515  2.3909 -0.0742
 3894SOL    HW223319   1.189   0.477  12.436 -1.1149  1.2689 -1.1858
 3895SOL     OW23320   1.069   0.743   6.783 -0.0646  0.3769 -0.0019
 3895SOL    HW123321   1.064   0.838   6.792  0.0211  0.2933  0.9198
 3895SOL    HW223322   1.050   0.733   6.689 -0.4245 -0.1002  0.1230
 3896SOL     OW23323   4.393   4.709   5.699  0.4102  0.0121  0.2716
 3896SOL    HW123324   4.383   0.060   5.674  1.4612 -0.3343 -1.4010
 3896SOL    HW223325   4.483   4.682   5.677  0.5474  0.5932  0.1180
 3897SOL     OW23326   0.418   0.901   5.164 -0.5645 -0.1330 -0.1121
 3897SOL    HW123327   0.441   0.839   5.095 -0.5873 -0.4892  0.2027
 3897SOL    HW223328   0.342   0.946   5.127  0.8886  1.3120 -1.3374
 3898SOL     OW23329   1.574   0.353   1.507 -0.5061  0.4611  0.2000
 3898SOL    HW123330   1.518   0.279   1.483 -0.0543 -0.3414  1.6493
 3898SOL    HW223331   1.511   0.404   1.558 -0.6143  0.7294 -0.2008
 3899SOL     OW23332   4.648   0.201   7.923  0.0695  0.2602 -0.1063
 3899SOL    HW123333   4.610   0.119   7.892 -2.3352  0.9684  0.9771
 3899SOL    HW223334   4.734   0.191   7.882  0.3054  0.4235  0.3448
 3900SOL     OW23335   3.800   4.534  15.798 -0.4838 -0.0631  0.7402
 3900SOL    HW123336   3.756   4.454  15.824  0.2396 -0.9341 -0.7129
 3900SOL    HW223337   3.765   4.586  15.871 -0.6810 -2.5120  2.3806
 3901SOL     OW23338   2.234   3.872   7.906 -0.7157 -0.0142  0.4890
 3901SOL    HW123339   2.300   3.932   7.941 -0.2319  0.5036 -1.2761
 3901SOL    HW223340   2.152   3.910   7.937  0.1306  1.1372  1.3007
 3902SOL     OW23341   0.077   1.099   5.969 -0.4004 -0.2251  0.5285
 3902SOL    HW123342   0.092   1.120   6.061  0.7080 -1.4802  0.6159
 3902SOL    HW223343   0.006   1.035   5.966 -0.1054 -0.5250 -0.0208
 3903SOL     OW23344   2.664   4.249  13.867 -0.2287 -0.2680  0.2374
 3903SOL    HW123345   2.665   4.326  13.923  0.2849 -1.3651  1.7430
 3903SOL    HW223346   2.755   4.241  13.837 -0.4405 -0.0616 -0.4478
 3904SOL     OW23347   3.952   4.122   7.612  0.3845  0.0387  0.1489
 3904SOL    HW123348   3.902   4.044   7.588  0.1645  0.3448 -0.4065
 3904SOL    HW223349   3.896   4.189   7.571  0.1636  0.1590  0.6447
 3905SOL     OW23350   0.239   3.187  17.426 -0.8535 -0.2405  0.2511
 3905SOL    HW123351   0.259   3.260  17.367  1.6786 -1.4662 -0.4038
 3905SOL    HW223352   0.324   3.148  17.447  0.2284  1.2651 -1.3619
 3906SOL     OW23353   4.206   2.968  12.952  0.1269  0.2995  0.2611
 3906SOL    HW123354   4.227   2.969  13.045 -0.5915  2.2456  0.4035
 3906SOL    HW223355   4.182   2.878  12.930 -0.9847  0.9836 -1.3848
 3907SOL     OW23356   1.765   2.673  15.099  0.0884 -0.0607 -0.8134
 3907SOL    HW123357   1.689   2.635  15.055 -0.6150 -0.0124  0.3619
 3907SOL    HW223358   1.745   2.763  15.075  1.6508  0.3415 -0.5870
 3908SOL     OW23359   0.460   0.146   3.671 -0.1825 -0.1037 -0.3962
 3908SOL    HW123360   0.439   0.236   3.647 -0.1312  0.1842  0.6098
 3908SOL    HW223361   0.379   0.114   3.711  0.5476 -0.9926  0.3899
 3909SOL     OW23362   1.680   0.815   7.177  0.4587  0.5465 -0.4616
 3909SOL    HW123363   1.776   0.812   7.177  0.3661 -2.3340 -0.3764
 3909SOL    HW223364   1.670   0.910   7.180  0.4250  0.5199  0.3515
 3910SOL     OW23365   0.380   2.283   0.346  0.1720  0.1961  0.0417
 3910SOL    HW123366   0.306   2.264   0.405  0.0476 -0.1641 -0.2267
 3910SOL    HW223367   0.411   2.361   0.391 -2.6580  1.5486 -0.3081
 3911SOL     OW23368   3.235   0.545   3.907 -0.4516 -0.4299  0.4894
 3911SOL    HW123369   3.148   0.508   3.897 -1.3918  1.4806  1.7420
 3911SOL    HW223370   3.286   0.464   3.918 -1.1607 -1.1172 -1.3089
 3912SOL     OW23371   1.669   2.051   5.277 -0.3544 -0.4197 -0.3961
 3912SOL    HW123372   1.719   2.017   5.203 -1.8944 -0.5887 -1.3602
 3912SOL    HW223373   1.577   2.045   5.251 -0.7007 -1.5174  1.0961
 3913SOL     OW23374   3.662   2.344   0.972 -0.3359 -0.1471 -0.4352
 3913SOL    HW123375   3.705   2.283   0.912  1.1225  0.5537 -0.1181
 3913SOL    HW223376   3.676   2.425   0.922 -0.6058 -0.1234 -0.4712
 3914SOL     OW23377   2.807   1.956   8.570  0.5791 -0.4812 -0.6469
 3914SOL    HW123378   2.873   2.011   8.529  1.0099 -1.1010 -0.7947
 3914SOL    HW223379   2.840   1.869   8.549  1.2458 -0.5354  0.6878
 3915SOL     OW23380   2.606   1.072   7.014 -0.3548 -0.1704  0.0035
 3915SOL    HW123381   2.517   1.079   7.050 -0.7039 -1.1354 -0.6632
 3915SOL    HW223382   2.601   0.993   6.959 -2.0224  0.0470 -0.1758
 3916SOL     OW23383   1.809   3.569  13.151 -0.2345  0.0440  0.1187
 3916SOL    HW123384   1.831   3.639  13.212 -2.8763 -0.9670  2.2256
 3916SOL    HW223385   1.790   3.496  13.210  0.2627  1.1553  1.6540
 3917SOL     OW23386   0.644   1.427   3.587  0.4922 -0.1423 -0.2273
 3917SOL    HW123387   0.720   1.402   3.535  2.5762  3.0297  1.2674
 3917SOL    HW223388   0.629   1.337   3.614 -2.7794 -0.0804 -1.8218
 3918SOL     OW23389   3.137   0.455   7.356  0.3480 -0.1497 -0.4155
 3918SOL    HW123390   3.062   0.405   7.323  0.8560 -1.7157  0.7623
 3918SOL    HW223391   3.190   0.389   7.402  1.9844  0.4040 -1.5254
 3919SOL     OW23392   0.236   3.584   4.446 -0.2130  0.3934  0.3335
 3919SOL    HW123393   0.260   3.646   4.515 -1.0434  1.7053 -0.5561
 3919SOL    HW223394   0.142   3.576   4.462  0.0381 -0.3246  1.4503
 3920SOL     OW23395   3.054   3.297   4.523  0.4140  0.0526 -0.2647
 3920SOL    HW123396   3.100   3.232   4.470  1.1889  0.7752 -0.4777
 3920SOL    HW223397   2.965   3.295   4.490 -0.4147  3.0072  1.8263
 3921SOL     OW23398   2.652   3.201   9.336  0.5625  0.0062 -0.2661
 3921SOL    HW123399   2.636   3.288   9.302  0.5395 -0.3369 -1.1300
 3921SOL    HW223400   2.709   3.219   9.411  0.9316 -3.0458  0.2186
 3922SOL     OW23401   3.442   1.491   3.706  0.3958 -0.1198 -0.0984
 3922SOL    HW123402   3.500   1.518   3.777  1.7598  0.8263 -1.5703
 3922SOL    HW223403   3.475   1.403   3.686 -1.1879 -0.9542  1.0015
 3923SOL     OW23404   0.375   4.239  11.694  0.1976 -0.3284 -0.7678
 3923SOL    HW123405   0.383   4.218  11.601  0.9683  0.4289 -0.8738
 3923SOL    HW223406   0.397   4.332  11.697 -0.1767 -0.2570 -0.2943
 3924SOL     OW23407   2.780   1.304   7.289 -0.0775  0.3237  0.0470
 3924SOL    HW123408   2.694   1.264   7.304  0.2036 -0.7483 -1.1445
 3924SOL    HW223409   2.762   1.372   7.224  0.6584 -0.1180 -0.6170
 3925SOL     OW23410   2.166   0.437  16.889  0.5442  0.1030  0.1536
 3925SOL    HW123411   2.202   0.369  16.832  0.1846  0.4119 -0.4403
 3925SOL    HW223412   2.097   0.392  16.937 -0.1218  1.0929  0.1266
 3926SOL     OW23413   0.655   2.775  16.609 -0.4387 -0.0764 -0.7177
 3926SOL    HW123414   0.591   2.712  16.640  0.1810  0.6222  2.0625
 3926SOL    HW223415   0.731   2.746  16.660 -1.7260  0.3344  1.4320
 3927SOL     OW23416   2.107   2.528   4.342  0.2483  0.0176 -0.0289
 3927SOL    HW123417   2.099   2.533   4.246  0.6075 -3.3125 -0.2130
 3927SOL    HW223418   2.109   2.618   4.374 -5.7116 -0.3127  1.3277
 3928SOL     OW23419   1.739   4.046   7.913 -0.0232  0.0988  0.4972
 3928SOL    HW123420   1.701   3.967   7.876 -0.5115  0.1968  0.7772
 3928SOL    HW223421   1.672   4.068   7.978 -0.4460 -2.1868  0.8056
 3929SOL     OW23422   1.019   2.204  16.293  0.4604  0.2818  0.1445
 3929SOL    HW123423   1.064   2.269  16.348  0.2386 -1.4772  2.3998
 3929SOL    HW223424   1.025   2.245  16.207 -2.1673  0.3261 -0.0120
 3930SOL     OW23425   1.188   3.865   0.121 -0.1956 -0.4353 -0.1079
 3930SOL    HW123426   1.156   3.778   0.145  2.7898 -1.5997 -0.3330
 3930SOL    HW223427   1.252   3.842   0.054  0.9470 -0.9207  1.1490
 3931SOL     OW23428   0.945   3.895   9.246  0.0797 -0.1269 -0.1879
 3931SOL    HW123429   0.975   3.985   9.238  1.9301 -0.5220  2.4251
 3931SOL    HW223430   0.910   3.900   9.335  2.5060 -1.9313  0.8680
 3932SOL     OW23431   2.302   1.261   8.790 -0.6529 -0.2455  0.1049
 3932SOL    HW123432   2.278   1.268   8.697 -1.6456 -1.6934  0.2359
 3932SOL    HW223433   2.223   1.224   8.831  0.0010 -2.0587 -0.2391
 3933SOL     OW23434   1.868   4.403   1.889 -0.5880  0.4258 -0.1371
 3933SOL    HW123435   1.864   4.491   1.928 -0.3088  1.1783 -1.7724
 3933SOL    HW223436   1.824   4.356   1.959 -0.7059 -0.8059 -1.0413
 3934SOL     OW23437   4.332   3.219   3.583  0.6796  0.4566  0.0204
 3934SOL    HW123438   4.318   3.207   3.677 -0.3280 -0.6723 -0.2724
 3934SOL    HW223439   4.287   3.146   3.542 -0.5784  0.9038  0.6227
 3935SOL     OW23440   1.310   1.366   5.863 -0.1067  0.6147  0.0035
 3935SOL    HW123441   1.215   1.360   5.859 -0.0707 -0.3489  0.5648
 3935SOL    HW223442   1.306   1.449   5.815  2.6199  0.6956 -0.0896
 3936SOL     OW23443   0.705   2.370   4.076 -0.2573  0.5408 -0.4917
 3936SOL    HW123444   0.672   2.431   4.009  1.5637 -0.0362 -1.9282
 3936SOL    HW223445   0.778   2.411   4.122 -0.4845  0.0881  0.2621
 3937SOL     OW23446   1.325   4.093   6.583 -0.1689 -0.9693  0.0200
 3937SOL    HW123447   1.363   4.155   6.645  1.4195  0.2426 -2.1911
 3937SOL    HW223448   1.318   4.139   6.499  1.9469 -1.6172 -0.4875
 3938SOL     OW23449   0.702   0.610   4.594 -0.6845  0.5444  0.0239
 3938SOL    HW123450   0.702   0.531   4.540  0.5191  0.4123  0.2172
 3938SOL    HW223451   0.792   0.642   4.593 -0.2069 -0.6863  1.5148
 3939SOL     OW23452   1.833   0.412   4.393  0.2771 -0.3906 -0.9686
 3939SOL    HW123453   1.815   0.424   4.300  1.6606 -0.8511 -1.2914
 3939SOL    HW223454   1.752   0.446   4.432  0.7485 -1.1433  0.6811
 3940SOL     OW23455   2.116   1.643   8.958 -0.1310  0.1302 -0.8287
 3940SOL    HW123456   2.194   1.602   8.996 -1.8023 -2.9814 -0.7143
 3940SOL    HW223457   2.167   1.674   8.883 -0.9853 -1.1773 -1.9495
 3941SOL     OW23458   2.469   0.153   8.419  0.7472  0.7796  0.2982
 3941SOL    HW123459   2.392   0.107   8.387  0.5976  1.4654 -0.3354
 3941SOL    HW223460   2.520   0.145   8.338  1.9153 -0.3034  1.1303
 3942SOL     OW23461   4.012   0.763   8.537 -0.3984  0.4280  0.2911
 3942SOL    HW123462   4.096   0.768   8.491  0.3745 -0.5176  1.5980
 3942SOL    HW223463   4.038   0.771   8.629  0.3348  0.7447  0.0627
 3943SOL     OW23464   1.483   4.471   3.055  0.5007  0.9241 -0.9765
 3943SOL    HW123465   1.472   4.398   3.116 -0.7119  1.1000 -0.9821
 3943SOL    HW223466   1.439   4.539   3.106 -0.0015  0.6820 -1.0883
 3944SOL     OW23467   2.110   1.292  13.433  0.3410  0.0515 -0.2659
 3944SOL    HW123468   2.126   1.358  13.501 -0.9392 -0.3489  0.4209
 3944SOL    HW223469   2.097   1.340  13.351  0.3209 -1.4924 -1.1501
 3945SOL     OW23470   3.115   4.723   9.729 -0.2738 -0.3301 -0.1366
 3945SOL    HW123471   3.208   4.720   9.707 -0.4065  1.4432 -0.9319
 3945SOL    HW223472   3.095   4.631   9.711  0.3423 -0.6213  0.6644
 3946SOL     OW23473   2.165   0.205   3.347  0.6357  0.4199 -0.2726
 3946SOL    HW123474   2.240   0.210   3.288  0.4706  0.4737 -0.4755
 3946SOL    HW223475   2.201   0.130   3.395 -0.8611 -0.0100  0.1699
 3947SOL     OW23476   3.529   3.359   8.754 -0.1606  0.1124 -0.3024
 3947SOL    HW123477   3.563   3.449   8.752  1.7904 -0.6112 -0.3523
 3947SOL    HW223478   3.613   3.312   8.754  0.8586  1.9404 -0.5082
 3948SOL     OW23479   4.243   4.246   9.181  0.0650  0.1550 -0.0891
 3948SOL    HW123480   4.180   4.266   9.250 -1.3976 -1.5644 -0.9301
 3948SOL    HW223481   4.181   4.212   9.116 -1.7647  1.4471  0.9816
 3949SOL     OW23482   0.009   4.635  15.137  0.0166 -0.0398 -0.2169
 3949SOL    HW123483   0.068   4.565  15.163 -0.7583 -1.7534 -3.1080
 3949SOL    HW223484   0.029   4.695  15.208  0.7255  0.3407 -0.7351
 3950SOL     OW23485   0.488   1.497   5.580 -0.2403  0.3533 -0.1649
 3950SOL    HW123486   0.571   1.492   5.533  0.0575  0.2961  0.3644
 3950SOL    HW223487   0.462   1.588   5.590 -2.7597 -0.0500 -2.8171
 3951SOL     OW23488   1.617   2.448  11.835 -0.2445 -0.1764  0.1295
 3951SOL    HW123489   1.710   2.426  11.831  0.0472  0.5931  2.2968
 3951SOL    HW223490   1.599   2.496  11.754  0.9204 -2.0406 -1.2296
 3952SOL     OW23491   1.229   0.606   7.958  0.2540 -0.2517 -0.3726
 3952SOL    HW123492   1.140   0.630   7.984 -0.4395 -2.2108 -0.9363
 3952SOL    HW223493   1.268   0.690   7.934 -0.0094 -0.0758 -0.1851
 3953SOL     OW23494   4.278   3.024   0.289  1.0064  0.3456  0.2326
 3953SOL    HW123495   4.221   3.094   0.321 -0.5782 -0.1835 -1.4182
 3953SOL    HW223496   4.362   3.061   0.315  2.0635 -0.2268 -2.3675
 3954SOL     OW23497   4.296   1.794   5.955 -0.8878  0.2003 -0.2291
 3954SOL    HW123498   4.221   1.769   5.900 -0.8824  1.0105 -0.6073
 3954SOL    HW223499   4.275   1.755   6.040  1.8391 -2.2562 -0.6772
 3955SOL     OW23500   4.530   4.712  11.696 -0.0158 -0.3467 -0.2097
 3955SOL    HW123501   4.559   4.662  11.620  0.9655  0.8699 -0.6331
 3955SOL    HW223502   4.528   0.059  11.656  2.7450  0.8833  2.4265
 3956SOL     OW23503   2.620   3.972   5.480  0.0677 -0.7382  0.2195
 3956SOL    HW123504   2.617   3.896   5.538  1.1604  0.0233  1.2760
 3956SOL    HW223505   2.713   3.996   5.482 -0.1226  0.1116 -0.9550
 3957SOL     OW23506   0.475   1.834  14.597 -0.2174 -0.1639 -0.6681
 3957SOL    HW123507   0.401   1.895  14.601  0.3819  0.4467  0.9635
 3957SOL    HW223508   0.546   1.897  14.594  0.3198 -0.6717  1.5750
 3958SOL     OW23509   4.288   2.561   7.477  0.1932  0.1571  0.5023
 3958SOL    HW123510   4.192   2.561   7.481  0.1177  1.0661 -1.6889
 3958SOL    HW223511   4.309   2.487   7.534 -0.3252 -2.0051 -2.0908
 3959SOL     OW23512   0.444   2.177   4.514  0.3604 -0.8648  0.2007
 3959SOL    HW123513   0.502   2.126   4.457 -0.6405 -2.5255  0.6549
 3959SOL    HW223514   0.421   2.116   4.584  0.8627  0.6066  1.6248
 3960SOL     OW23515   3.426   3.121  15.933  0.2178  0.4868 -0.3188
 3960SOL    HW123516   3.519   3.135  15.951  0.6945 -0.4180 -2.0698
 3960SOL    HW223517   3.418   3.184  15.861 -1.8509  0.2171 -0.3370
 3961SOL     OW23518   4.417   0.055   6.416 -0.1987  0.0433 -0.0193
 3961SOL    HW123519   4.343   0.116   6.415 -0.2887 -0.1488 -2.7114
 3961SOL    HW223520   4.399   0.016   6.502  0.0134  0.0186  0.0138
 3962SOL     OW23521   1.877   4.728   7.286 -0.1892  0.5332 -0.1519
 3962SOL    HW123522   1.853   4.678   7.208 -2.7948  1.1602  0.2576
 3962SOL    HW223523   1.962   4.692   7.309 -0.5808 -0.6589 -0.5834
 3963SOL     OW23524   2.609   3.210   6.535  0.0236  0.1120 -0.1093
 3963SOL    HW123525   2.534   3.193   6.479  1.1161 -1.8416 -0.9885
 3963SOL    HW223526   2.603   3.128   6.584 -1.1716  0.1312 -0.2140
 3964SOL     OW23527   4.231   3.180   0.488  0.5426  0.0439 -0.1320
 3964SOL    HW123528   4.280   3.260   0.469  1.9933 -0.4344  1.5723
 3964SOL    HW223529   4.222   3.202   0.581  0.8411  3.0648 -0.8420
 3965SOL     OW23530   3.774   4.069   5.376  0.2964 -0.5917 -0.0542
 3965SOL    HW123531   3.813   4.120   5.304 -0.4115  0.0693  0.0277
 3965SOL    HW223532   3.829   3.991   5.374 -2.3679 -2.4421  0.8472
 3966SOL     OW23533   3.837   3.347  12.251 -0.1907  0.1985  1.1225
 3966SOL    HW123534   3.795   3.330  12.167 -1.1836  4.7327  0.7096
 3966SOL    HW223535   3.913   3.290  12.249 -2.2271 -2.4767 -0.0415
 3967SOL     OW23536   0.636   2.496  12.858 -0.1470 -0.2206  0.2638
 3967SOL    HW123537   0.658   2.528  12.945 -0.4125  0.9963 -0.1100
 3967SOL    HW223538   0.719   2.463  12.825  0.2938 -1.7633  3.0063
 3968SOL     OW23539   4.636   1.028   2.411  0.3849 -0.4395  0.5331
 3968SOL    HW123540   4.563   1.082   2.441  1.3343  0.0750  1.9785
 3968SOL    HW223541   4.654   1.075   2.330  2.7224  0.2760  1.4550
 3969SOL     OW23542   0.258   3.327   8.409 -1.0357  0.3449 -0.1793
 3969SOL    HW123543   0.186   3.270   8.383 -0.5806 -0.8835  1.2560
 3969SOL    HW223544   0.210   3.386   8.467  1.2234 -0.4115  2.4828
 3970SOL     OW23545   4.524   3.211   9.099 -0.2293 -0.9942 -0.2567
 3970SOL    HW123546   4.527   3.271   9.174  0.9762 -1.1188 -0.2101
 3970SOL    HW223547   4.532   3.123   9.134  0.3561 -1.1330 -0.7400
 3971SOL     OW23548   2.109   0.478   5.184  0.6504 -0.3178  0.7470
 3971SOL    HW123549   2.171   0.496   5.113  0.0475 -0.2699  0.2297
 3971SOL    HW223550   2.034   0.457   5.129 -0.1939  0.0929  1.7396
 3972SOL     OW23551   0.360   3.853  11.409 -0.1628 -0.2554 -0.0227
 3972SOL    HW123552   0.417   3.854  11.486 -0.3069  1.0085  0.0764
 3972SOL    HW223553   0.275   3.862  11.454  0.0377  0.9388  0.1279
 3973SOL     OW23554   4.140   1.785   8.271  0.3513  0.4785 -0.3890
 3973SOL    HW123555   4.052   1.793   8.309  1.1730 -0.8306  1.8139
 3973SOL    HW223556   4.109   1.754   8.186 -1.2975 -0.7231  0.6347
 3974SOL     OW23557   2.185   3.879  16.910  0.1037  0.1977 -0.0824
 3974SOL    HW123558   2.272   3.917  16.893  0.3779 -0.1567  0.5223
 3974SOL    HW223559   2.187   3.793  16.868 -2.4370 -0.0187  0.2475
 3975SOL     OW23560   3.691   0.087  13.995  0.3547 -0.1119 -0.1586
 3975SOL    HW123561   3.621   0.145  14.022 -0.5096 -1.1130 -0.2382
 3975SOL    HW223562   3.767   0.114  14.046  1.1367  0.3948 -1.5664
 3976SOL     OW23563   1.579   4.219   4.874 -0.0067 -0.3958  0.2904
 3976SOL    HW123564   1.670   4.243   4.894 -0.5159  0.9257  1.0610
 3976SOL    HW223565   1.563   4.272   4.796  0.6726 -2.1365 -1.0225
 3977SOL     OW23566   0.097   0.883   3.189  0.2223 -0.2977 -0.2981
 3977SOL    HW123567   0.091   0.852   3.279  1.2782  0.3598  0.0037
 3977SOL    HW223568   0.149   0.963   3.195  1.3092 -1.1086  1.2040
 3978SOL     OW23569   2.932   3.831   4.345 -0.1259 -0.2212  0.2842
 3978SOL    HW123570   3.023   3.830   4.373 -0.7229  0.2950  2.2656
 3978SOL    HW223571   2.913   3.742   4.375  0.7576 -1.4597 -2.8216
 3979SOL     OW23572   1.981   0.209   5.775  0.1153  0.1066 -0.1931
 3979SOL    HW123573   1.987   0.138   5.839  0.2078 -0.0443 -0.3695
 3979SOL    HW223574   1.889   0.196   5.752  0.3243 -2.7343  0.5578
 3980SOL     OW23575   1.047   2.315   9.182 -0.1389 -0.2050  0.3568
 3980SOL    HW123576   1.102   2.312   9.260 -0.5563  0.8188  0.6901
 3980SOL    HW223577   1.054   2.405   9.151 -0.3155 -0.4596 -0.4201
 3981SOL     OW23578   1.337   2.590   0.466  0.4773 -0.6399  0.2541
 3981SOL    HW123579   1.291   2.539   0.531  0.8423 -0.1835  0.8746
 3981SOL    HW223580   1.422   2.604   0.508 -0.3311  1.0173  1.3364
 3982SOL     OW23581   1.735   3.678   8.034  0.1929  0.4613  0.3989
 3982SOL    HW123582   1.720   3.748   8.097  0.7129  0.4193  0.5637
 3982SOL    HW223583   1.739   3.610   8.101 -1.5054 -2.3900 -2.3999
 3983SOL     OW23584   3.014   0.707   2.026  0.1470 -0.7499  0.1916
 3983SOL    HW123585   3.070   0.735   2.098  0.7796  1.6229 -1.2151
 3983SOL    HW223586   3.084   0.683   1.965  0.9248  0.6631  0.5212
 3984SOL     OW23587   0.186   1.004   1.712 -0.0108  0.0171  0.4803
 3984SOL    HW123588   0.170   1.055   1.792 -1.1102  1.4083 -0.6393
 3984SOL    HW223589   0.281   1.018   1.709 -0.1432  1.2093  1.8833
 3985SOL     OW23590   3.193   3.673  15.955  0.0311  0.0732 -0.0007
 3985SOL    HW123591   3.107   3.700  15.988  0.9459  1.9486  0.8892
 3985SOL    HW223592   3.198   3.578  15.964 -1.8620 -0.1181 -0.7785
 3986SOL     OW23593   2.944   0.206   7.961  0.0398  0.9503  0.6005
 3986SOL    HW123594   3.005   0.253   7.904 -1.2569  1.4548 -0.3810
 3986SOL    HW223595   2.951   0.247   8.047 -0.5327 -0.3126  1.2563
 3987SOL     OW23596   2.786   1.886   2.979 -0.1073 -0.0757 -0.1837
 3987SOL    HW123597   2.763   1.795   2.996  1.0777 -0.9281 -3.1099
 3987SOL    HW223598   2.762   1.926   3.063  0.0235  1.5468 -0.9207
 3988SOL     OW23599   2.455   3.522   9.556 -0.3136 -0.4512  0.3712
 3988SOL    HW123600   2.434   3.432   9.580 -0.0858 -0.7230 -0.4417
 3988SOL    HW223601   2.410   3.573   9.624  1.1214 -0.2453  1.1677
 3989SOL     OW23602   1.273   2.575   3.052  0.2859 -0.0082 -0.0054
 3989SOL    HW123603   1.350   2.629   3.072  0.6409 -0.4794 -0.1056
 3989SOL    HW223604   1.295   2.497   3.102  0.5410 -0.3100 -0.5852
 3990SOL     OW23605   4.721   0.425   4.240  1.1294  0.7527  0.1621
 3990SOL    HW123606   4.727   0.482   4.317  0.5535  1.6684 -0.4685
 3990SOL    HW223607   4.727   0.480   4.162  0.6069  0.4802 -0.0711
 3991SOL     OW23608   0.309   3.043  12.234  0.0117  0.4734  0.1898
 3991SOL    HW123609   0.401   3.044  12.209  0.0658  1.6169  0.4465
 3991SOL    HW223610   0.259   3.076  12.159 -0.2425 -2.7707 -1.0529
 3992SOL     OW23611   2.461   1.506   4.831 -0.7434 -0.1012 -0.0435
 3992SOL    HW123612   2.398   1.503   4.902  2.1815  0.4583  2.6107
 3992SOL    HW223613   2.402   1.482   4.761  0.0508  2.3147 -1.5446
 3993SOL     OW23614   4.490   2.146   6.687 -0.7469 -0.3056 -0.0369
 3993SOL    HW123615   4.441   2.072   6.724 -0.3505 -0.3433  0.4008
 3993SOL    HW223616   4.418   2.208   6.689 -0.3832  0.0981  0.3181
 3994SOL     OW23617   1.266   0.055   3.937  0.0931  0.3109 -0.2475
 3994SOL    HW123618   1.342   0.093   3.982  1.2340  1.4813 -3.1818
 3994SOL    HW223619   1.229   0.127   3.886  1.5485  0.5097 -1.0213
 3995SOL     OW23620   1.910   2.042   5.759  0.4322  0.3201  0.0700
 3995SOL    HW123621   1.925   1.975   5.694  2.1222 -0.3995  1.2010
 3995SOL    HW223622   1.964   2.016   5.834  2.0710  0.0339 -1.2378
 3996SOL     OW23623   1.437   4.181   3.634 -0.2120 -0.4678 -0.3043
 3996SOL    HW123624   1.506   4.197   3.569 -0.1730 -2.3312 -0.7198
 3996SOL    HW223625   1.394   4.098   3.612  2.2094 -1.6620 -0.4675
 3997SOL     OW23626   2.579   3.312   6.935  0.3924  0.1852 -0.6395
 3997SOL    HW123627   2.656   3.270   6.975  2.8421  2.0000 -3.4423
 3997SOL    HW223628   2.513   3.248   6.909 -1.8687  2.1815  0.1684
 3998SOL     OW23629   4.110   1.958   0.412 -0.0875 -0.0761  0.0862
 3998SOL    HW123630   4.077   1.946   0.501 -0.8701  0.0197 -0.1939
 3998SOL    HW223631   4.199   1.990   0.424 -0.4737  1.0767 -0.1454
 3999SOL     OW23632   3.014   0.361  13.637 -0.2631 -0.1694  0.4751
 3999SOL    HW123633   3.034   0.439  13.585 -0.7068 -1.3407 -1.4708
 3999SOL    HW223634   2.935   0.325  13.595 -0.3074  1.9054 -1.2285
 4000SOL     OW23635   2.716   2.174   3.515  0.1312  0.5310  0.0006
 4000SOL    HW123636   2.725   2.149   3.424 -1.9372  1.0639 -0.3514
 4000SOL    HW223637   2.662   2.252   3.505  0.3486  0.9042  1.7238
 4001SOL     OW23638   4.599   3.275   3.916  0.1007 -0.0862 -0.2352
 4001SOL    HW123639   4.574   3.202   3.973  1.0169  0.6601  1.1348
 4001SOL    HW223640   4.532   3.333   3.953  0.4515 -0.0414  0.3253
 4002SOL     OW23641   1.537   3.683   2.005  0.6877 -0.6315  0.0850
 4002SOL    HW123642   1.538   3.614   2.071 -2.1362 -1.3585 -0.6059
 4002SOL    HW223643   1.445   3.708   1.996  0.9192  0.4436  0.8264
 4003SOL     OW23644   0.671   3.180   5.069 -0.0669 -0.4008  0.3945
 4003SOL    HW123645   0.576   3.185   5.075 -0.0627 -0.6692  0.7131
 4003SOL    HW223646   0.683   3.085   5.059  2.4996 -0.0212 -0.1358
 4004SOL     OW23647   2.619   0.183   8.176 -0.5330  0.0262  0.0651
 4004SOL    HW123648   2.584   0.098   8.150 -1.9792  0.1599  1.6343
 4004SOL    HW223649   2.595   0.239   8.103 -0.4496  0.9275  0.7335
 4005SOL     OW23650   2.473   1.983  17.303  0.2427 -0.6016  0.1008
 4005SOL    HW123651   2.387   1.994  17.342 -0.4353 -0.8158 -1.3436
 4005SOL    HW223652   2.510   2.070  17.316 -0.1201  0.0438 -3.1446
 4006SOL     OW23653   1.091   1.192   7.056 -0.1217  0.3981 -0.5356
 4006SOL    HW123654   1.022   1.257   7.045  1.6431  2.5812  1.3999
 4006SOL    HW223655   1.042   1.112   7.037 -1.1026  1.6444 -3.2269
 4007SOL     OW23656   2.392   2.011   1.791 -0.3230  0.0758  0.2446
 4007SOL    HW123657   2.483   2.005   1.764 -0.2514 -1.3780  0.8275
 4007SOL    HW223658   2.348   1.930   1.765  0.8562 -0.5062  0.0624
 4008SOL     OW23659   1.494   4.646   5.257  0.1116 -0.6602 -0.4494
 4008SOL    HW123660   1.560   4.695   5.306  0.6788 -3.1059  1.2793
 4008SOL    HW223661   1.558   4.599   5.202  0.5372  0.2440 -0.7211
 4009SOL     OW23662   3.144   0.375   1.482  0.1983  0.3934 -0.1387
 4009SOL    HW123663   3.102   0.303   1.434  1.5735  1.1188 -2.4268
 4009SOL    HW223664   3.120   0.453   1.433  0.0354  0.1212 -0.4938
 4010SOL     OW23665   0.431   2.568   4.060 -1.1031  0.0698  0.0448
 4010SOL    HW123666   0.397   2.595   4.145 -1.8317  2.5242 -1.0152
 4010SOL    HW223667   0.459   2.653   4.028  0.4435 -0.0698  1.0223
 4011SOL     OW23668   4.545   3.392   6.899 -0.0566  0.4469  0.7791
 4011SOL    HW123669   4.548   3.322   6.835  0.5565  1.0581  0.1308
 4011SOL    HW223670   4.567   3.467   6.843 -0.9258  1.5025  1.8620
 4012SOL     OW23671   2.658   0.847   9.720 -0.0483 -0.3685 -0.0787
 4012SOL    HW123672   2.643   0.885   9.633 -3.6934 -2.5756 -0.4251
 4012SOL    HW223673   2.602   0.900   9.776 -3.0026 -5.9664  2.2619
 4013SOL     OW23674   1.917   1.194  17.115 -0.1294 -0.1606 -0.1061
 4013SOL    HW123675   1.826   1.164  17.119  0.4491 -1.9887 -0.9600
 4013SOL    HW223676   1.907   1.249  17.037  0.1519 -0.4796 -0.3648
 4014SOL     OW23677   0.306   0.445   1.858  0.2299  0.0532  0.1652
 4014SOL    HW123678   0.327   0.477   1.771  3.9505 -2.0077  0.3164
 4014SOL    HW223679   0.286   0.356   1.827 -0.2643 -0.3294  1.5732
 4015SOL     OW23680   0.430   2.018   0.696  0.1861  0.6439  0.5731
 4015SOL    HW123681   0.359   1.963   0.662  1.4387 -0.4877 -0.2127
 4015SOL    HW223682   0.401   2.109   0.698 -0.0923  0.6303 -2.9606
 4016SOL     OW23683   3.277   0.011  13.531 -0.5125  0.6296  0.3525
 4016SOL    HW123684   3.364   0.034  13.497  0.1005 -1.4683  0.5029
 4016SOL    HW223685   3.299   4.684  13.595 -0.2090  1.1239  0.7752
 4017SOL     OW23686   0.324   0.585   1.588 -0.1692 -0.8935  0.6363
 4017SOL    HW123687   0.389   0.655   1.593 -0.6750 -0.3929  0.1693
 4017SOL    HW223688   0.253   0.645   1.563  0.3589 -0.2746  0.6341
 4018SOL     OW23689   0.083   4.281   0.886  0.2459  0.0247  0.4651
 4018SOL    HW123690   4.739   4.238   0.876 -0.3161  1.4918 -1.1729
 4018SOL    HW223691   0.068   4.352   0.948 -0.1095 -0.2971  0.7408
 4019SOL     OW23692   2.520   4.137   7.359  0.5911 -0.6619 -0.3543
 4019SOL    HW123693   2.544   4.095   7.442 -0.8549 -1.0027 -0.1198
 4019SOL    HW223694   2.450   4.082   7.323 -0.0157  0.6430 -1.1687
 4020SOL     OW23695   3.008   4.189   5.325 -0.5342 -0.2370  0.1018
 4020SOL    HW123696   2.959   4.253   5.273  0.0796 -0.1527 -0.3728
 4020SOL    HW223697   2.991   4.225   5.412 -0.4541  1.6814 -0.6826
 4021SOL     OW23698   0.875   3.057  12.155  0.0216 -0.2677 -0.2845
 4021SOL    HW123699   0.895   3.050  12.062 -2.2593  1.1482 -0.8746
 4021SOL    HW223700   0.928   2.989  12.198  0.3312  0.1109 -0.0712
 4022SOL     OW23701   2.001   3.745   2.238 -0.0487 -0.1681  0.2532
 4022SOL    HW123702   1.992   3.753   2.143  0.2908 -0.5494  0.1867
 4022SOL    HW223703   1.927   3.697   2.273 -0.6204 -0.5601 -1.4897
 4023SOL     OW23704   3.222   2.308   2.491 -0.0600 -0.3191 -0.3467
 4023SOL    HW123705   3.216   2.215   2.512 -0.7797 -0.0959  0.4184
 4023SOL    HW223706   3.208   2.349   2.576 -0.1649 -1.4372  0.1691
 4024SOL     OW23707   4.265   3.864  14.804 -0.1558  0.7071  0.4217
 4024SOL    HW123708   4.258   3.887  14.896 -0.4582  1.2346  0.2671
 4024SOL    HW223709   4.350   3.820  14.810 -0.5384 -0.4598 -2.5473
 4025SOL     OW23710   0.071   0.884   5.692  0.3243 -0.4946  0.3389
 4025SOL    HW123711   0.144   0.903   5.633 -0.3966 -0.8521 -0.6678
 4025SOL    HW223712   0.029   0.969   5.687 -2.0396 -1.6904  0.0167
 4026SOL     OW23713   2.285   1.111   3.276 -0.0229  0.1191  0.0722
 4026SOL    HW123714   2.210   1.082   3.328 -1.5080  1.5206 -1.2766
 4026SOL    HW223715   2.327   1.029   3.251 -1.7174 -0.4882 -0.7562
 4027SOL     OW23716   3.095   0.683   2.478 -0.4391  0.5186  0.9960
 4027SOL    HW123717   3.157   0.734   2.426 -3.5690  2.8794 -0.3947
 4027SOL    HW223718   3.040   0.756   2.504 -2.6592 -0.3655 -1.2983
 4028SOL     OW23719   4.651   0.998   3.046 -0.0324  0.0747  0.0335
 4028SOL    HW123720   4.723   0.950   3.087 -1.1508  0.7699  2.7569
 4028SOL    HW223721   4.691   1.077   3.008 -0.4352 -0.3017 -1.1830
 4029SOL     OW23722   4.701   2.610  13.793 -0.4812  0.1926 -0.3721
 4029SOL    HW123723   4.652   2.649  13.865  1.9623  0.9132  0.9096
 4029SOL    HW223724   0.002   2.690  13.762  2.7112 -1.3060  0.0183
 4030SOL     OW23725   3.301   0.634   2.874 -0.5259 -0.0756  0.4544
 4030SOL    HW123726   3.364   0.678   2.818  0.6794 -2.5830 -0.1920
 4030SOL    HW223727   3.351   0.587   2.941 -1.1167 -2.3176 -0.6588
 4031SOL     OW23728   1.609   3.824   8.847  0.1067  0.4587  0.2824
 4031SOL    HW123729   1.647   3.868   8.770 -0.0755 -1.4541 -0.8984
 4031SOL    HW223730   1.537   3.884   8.865  1.1228  1.5068  0.9017
 4032SOL     OW23731   3.766   1.786   9.965 -0.5960 -0.4074  0.2177
 4032SOL    HW123732   3.836   1.824  10.017 -0.5252 -1.9392  1.2328
 4032SOL    HW223733   3.715   1.863   9.940  0.7137  0.1541 -0.7339
 4033SOL     OW23734   0.532   1.969   4.028  0.0446  0.2756 -0.2223
 4033SOL    HW123735   0.611   2.013   4.059 -1.0129  1.4933  0.7238
 4033SOL    HW223736   0.477   2.044   4.007  0.7461  0.2588 -2.0939
 4034SOL     OW23737   2.201   1.702   4.844  0.4724 -0.1888  0.6108
 4034SOL    HW123738   2.215   1.746   4.760 -1.6064  0.2172  0.4655
 4034SOL    HW223739   2.218   1.776   4.902 -1.8072  1.0618 -0.3234
 4035SOL     OW23740   1.809   3.563   1.953 -0.2545  0.3852 -0.0808
 4035SOL    HW123741   1.745   3.580   2.022  0.4124  1.4410  0.2754
 4035SOL    HW223742   1.836   3.472   1.960  0.4459  0.5345 -0.8307
 4036SOL     OW23743   0.720   4.274   3.622 -0.4122  0.1220 -0.4666
 4036SOL    HW123744   0.786   4.309   3.563  0.5456  0.3257  0.7342
 4036SOL    HW223745   0.650   4.262   3.557 -0.7852  0.6114 -0.1571
 4037SOL     OW23746   0.348   0.564   3.807 -0.0858 -0.0322 -0.1963
 4037SOL    HW123747   0.318   0.620   3.736 -0.0571  1.6381  1.1184
 4037SOL    HW223748   0.406   0.498   3.769  1.1108 -1.0372  3.3105
 4038SOL     OW23749   0.549   1.333   0.440 -0.1279 -0.3431 -0.2100
 4038SOL    HW123750   0.473   1.293   0.482 -0.5338  1.8370  1.1586
 4038SOL    HW223751   0.606   1.365   0.510 -1.9829  0.7008  0.8448
 4039SOL     OW23752   0.874   2.553   6.734 -0.0623 -0.4427 -0.2401
 4039SOL    HW123753   0.792   2.509   6.710 -0.3156 -0.4277  0.6138
 4039SOL    HW223754   0.889   2.610   6.658 -0.2485 -2.9646 -2.1946
 4040SOL     OW23755   3.314   3.588   3.944 -0.4405 -0.6830 -0.0841
 4040SOL    HW123756   3.248   3.629   3.889 -0.7699  0.2034  0.9575
 4040SOL    HW223757   3.322   3.504   3.900  0.6213 -0.1323 -0.9491
 4041SOL     OW23758   1.786   0.693   4.084  0.1039 -0.4078  0.0766
 4041SOL    HW123759   1.868   0.720   4.043 -1.2536  2.5318 -0.6810
 4041SOL    HW223760   1.814   0.603   4.099  3.0983  0.8075  1.6464
 4042SOL     OW23761   2.309   4.071   8.615 -0.3392  0.3565 -0.1491
 4042SOL    HW123762   2.396   4.078   8.654 -0.8909  1.9248  0.7975
 4042SOL    HW223763   2.260   4.067   8.696  0.4052 -0.4206  0.2731
 4043SOL     OW23764   3.850   3.618   2.453 -0.2895  0.3963  0.1954
 4043SOL    HW123765   3.900   3.666   2.519 -2.8206  0.6026  1.9474
 4043SOL    HW223766   3.792   3.689   2.426  1.3226  1.3444 -0.7717
 4044SOL     OW23767   0.232   2.770   1.642  0.4799 -0.0520  0.2576
 4044SOL    HW123768   0.249   2.864   1.642 -0.5863  0.1345 -0.9017
 4044SOL    HW223769   0.137   2.776   1.651  0.3398 -3.3474  1.1224
 4045SOL     OW23770   2.343   1.372   5.676  0.2557  0.5355 -0.3190
 4045SOL    HW123771   2.252   1.401   5.686  0.7456  1.0145  3.0263
 4045SOL    HW223772   2.386   1.454   5.654  1.0180  0.4111  0.7079
 4046SOL     OW23773   3.953   2.871  15.919 -0.1481  0.1833 -0.1070
 4046SOL    HW123774   3.943   2.967  15.921  0.9160  0.2948 -0.2080
 4046SOL    HW223775   3.938   2.862  15.825  0.3979  2.3599 -0.4160
 4047SOL     OW23776   0.704   1.912   7.420 -0.0588  0.2734  0.7669
 4047SOL    HW123777   0.760   1.918   7.498  0.6636  1.5315  0.1557
 4047SOL    HW223778   0.717   1.998   7.380  2.9473 -0.7160 -0.3885
 4048SOL     OW23779   0.634   0.281   7.511  0.3571 -0.2994 -0.1491
 4048SOL    HW123780   0.538   0.279   7.509  0.3560  1.3633 -1.5140
 4048SOL    HW223781   0.655   0.251   7.422  1.4606  0.5718 -0.1688
 4049SOL     OW23782   4.527   0.538   0.752  0.3654 -0.2866  0.3284
 4049SOL    HW123783   4.612   0.575   0.777  0.0219  1.9012 -1.6416
 4049SOL    HW223784   4.545   0.460   0.700 -1.4880 -1.5073  1.5663
 4050SOL     OW23785   4.172   3.442  12.954  0.1043 -0.0770  0.1241
 4050SOL    HW123786   4.228   3.492  13.013  0.6678 -1.3201  0.6402
 4050SOL    HW223787   4.226   3.430  12.876  0.9794  3.0430  0.2730
 4051SOL     OW23788   2.969   3.535   8.788 -0.3939  0.4969 -0.3699
 4051SOL    HW123789   3.030   3.529   8.863 -0.6306 -0.3957 -0.2416
 4051SOL    HW223790   3.011   3.484   8.718  1.3688 -0.1180  1.1288
 4052SOL     OW23791   1.638   1.359   8.397  0.2255  0.4395 -0.1117
 4052SOL    HW123792   1.567   1.395   8.344 -0.4029 -0.1760  0.3310
 4052SOL    HW223793   1.678   1.431   8.447 -0.1075  0.5276  0.0260
 4053SOL     OW23794   1.851   0.010   2.894  0.3729 -0.0809 -0.2577
 4053SOL    HW123795   1.779   4.689   2.907  0.2489  0.1357  0.0774
 4053SOL    HW223796   1.912   4.698   2.843  0.5145 -0.5854  0.4354
 4054SOL     OW23797   0.031   2.962   4.583  0.4892 -0.0858 -0.6559
 4054SOL    HW123798   4.696   2.904   4.599 -1.3632  1.9006 -2.2678
 4054SOL    HW223799   0.030   2.948   4.488 -1.0236 -2.5873 -0.2986
 4055SOL     OW23800   1.104   1.518   2.486 -0.1358  0.0115 -0.7091
 4055SOL    HW123801   1.160   1.450   2.449 -1.1429 -0.8907 -0.5748
 4055SOL    HW223802   1.177   1.567   2.523 -1.2201 -0.3694  1.9385
 4056SOL     OW23803   2.843   0.511   4.798  0.2544  0.7180 -0.1655
 4056SOL    HW123804   2.881   0.428   4.825  0.6405  0.5417 -1.2702
 4056SOL    HW223805   2.848   0.501   4.703 -0.3459 -0.4503 -0.0754
 4057SOL     OW23806   1.850   0.686   2.689 -0.3235  0.5914  0.1558
 4057SOL    HW123807   1.828   0.617   2.627  0.8054 -1.5996  2.2209
 4057SOL    HW223808   1.896   0.637   2.757  1.4386  1.9431 -0.0467
 4058SOL     OW23809   1.172   2.087   7.526  0.5004  0.0908  0.7263
 4058SOL    HW123810   1.078   2.103   7.522  0.6740  0.7607 -0.4743
 4058SOL    HW223811   1.163   1.994   7.504 -2.1770  1.0685 -2.2052
 4059SOL     OW23812   0.160   0.738   5.907 -0.2151  0.7736 -0.0529
 4059SOL    HW123813   0.153   0.645   5.886  0.1911  0.6300  0.4425
 4059SOL    HW223814   0.133   0.771   5.822 -0.8869  1.6729  0.5030
 4060SOL     OW23815   4.738   2.917  10.897  0.2640 -0.1172 -0.5230
 4060SOL    HW123816   4.653   2.905  10.854  0.4054 -1.6519 -0.3973
 4060SOL    HW223817   0.026   3.002  10.864  0.1945 -0.7303 -2.1376
 4061SOL     OW23818   4.471   2.246   5.731  0.1045 -0.8183  1.1271
 4061SOL    HW123819   4.437   2.159   5.753  0.0293 -1.1284 -0.2401
 4061SOL    HW223820   4.466   2.296   5.813 -3.1076  1.1823 -0.2831
 4062SOL     OW23821   3.406   0.146   8.301 -0.2582  0.3864 -0.1614
 4062SOL    HW123822   3.368   0.069   8.258 -1.1213  0.6941  0.0565
 4062SOL    HW223823   3.497   0.121   8.315  0.0301  1.2451 -0.4927
 4063SOL     OW23824   0.711   3.153   4.489 -0.2013  0.1167 -0.5068
 4063SOL    HW123825   0.630   3.102   4.498  0.6701 -1.0275  0.7805
 4063SOL    HW223826   0.765   3.075   4.502 -2.4930 -1.2564  0.7745
 4064SOL     OW23827   0.868   4.251   0.735 -0.0631  0.6069  0.1352
 4064SOL    HW123828   0.797   4.297   0.778  0.1267  1.6190 -0.6454
 4064SOL    HW223829   0.858   4.291   0.649 -2.3670 -2.6063 -1.1148
 4065SOL     OW23830   2.586   3.843   8.554 -0.1753  0.1242 -0.0320
 4065SOL    HW123831   2.643   3.774   8.590  0.2986  0.4155 -0.2204
 4065SOL    HW223832   2.571   3.889   8.636  0.2457 -2.5256  1.5219
 4066SOL     OW23833   4.270   3.328   2.521  0.4753 -0.1732 -0.3255
 4066SOL    HW123834   4.230   3.392   2.463  0.1231  0.0503  0.1653
 4066SOL    HW223835   4.195   3.292   2.568  0.6925  0.1148  0.2432
 4067SOL     OW23836   4.700   0.001  11.898 -0.2480 -0.3441  0.1599
 4067SOL    HW123837   4.642   4.718  11.826  1.0526  0.1128 -1.0427
 4067SOL    HW223838   0.027   4.675  11.885  1.1289  1.1723 -0.3506
 4068SOL     OW23839   3.006   4.063   7.173 -0.4055  0.1132 -0.2995
 4068SOL    HW123840   3.032   3.997   7.238  1.9782  0.6656 -0.6881
 4068SOL    HW223841   2.978   3.995   7.112  0.0165 -1.4041  1.1791
 4069SOL     OW23842   1.992   4.426  10.667  0.7954 -0.2872 -0.0135
 4069SOL    HW123843   2.064   4.490  10.669  0.3251  0.2250  0.4924
 4069SOL    HW223844   2.015   4.370  10.741  1.2751  0.9661  0.7824
 4070SOL     OW23845   2.869   1.643   9.606 -0.0494  0.7063 -0.2613
 4070SOL    HW123846   2.819   1.567   9.637 -0.6873  0.7948 -1.0574
 4070SOL    HW223847   2.870   1.697   9.685  0.0785  1.2375 -0.6247
 4071SOL     OW23848   0.864   1.325   5.218 -1.1598  0.1988  0.5537
 4071SOL    HW123849   0.943   1.345   5.268  0.2260  1.0780 -1.9455
 4071SOL    HW223850   0.813   1.401   5.245 -0.1046  1.5954 -1.3260
 4072SOL     OW23851   4.097   2.382  11.911  0.6001  0.6701 -0.4923
 4072SOL    HW123852   4.066   2.470  11.890 -1.8619 -0.6593 -2.3697
 4072SOL    HW223853   4.143   2.358  11.830  0.6269  0.6299 -0.4653
 4073SOL     OW23854   2.808   2.941  12.622 -0.1793 -0.1894 -0.5452
 4073SOL    HW123855   2.771   2.854  12.610  0.7914 -1.1685  3.5958
 4073SOL    HW223856   2.866   2.958  12.547  1.6913  0.0896  0.9440
 4074SOL     OW23857   3.780   4.698   5.034  0.6685  0.2675  0.3175
 4074SOL    HW123858   3.781   0.005   5.116 -2.6567 -0.9736  1.1016
 4074SOL    HW223859   3.780   4.612   5.077 -0.8823 -0.3600 -0.9156
 4075SOL     OW23860   0.924   0.676   1.302 -0.5028 -0.2968 -0.0356
 4075SOL    HW123861   0.976   0.757   1.301 -1.3312  0.2274 -0.5242
 4075SOL    HW223862   0.978   0.608   1.262 -1.3523 -1.5827  1.0234
 4076SOL     OW23863   4.494   1.017   7.587 -0.6305 -0.0969 -0.0004
 4076SOL    HW123864   4.409   1.061   7.593 -0.6000  0.2004 -1.7046
 4076SOL    HW223865   4.467   0.946   7.646 -1.0457  0.3831  0.3891
 4077SOL     OW23866   1.721   3.799   1.318  0.0605 -0.1745  0.0087
 4077SOL    HW123867   1.790   3.733   1.321 -0.3055 -0.5355  0.6156
 4077SOL    HW223868   1.767   3.870   1.275  1.3159 -1.5179 -0.8428
 4078SOL     OW23869   1.533   4.066   8.609  0.4026 -0.1888 -0.0892
 4078SOL    HW123870   1.484   4.140   8.644 -0.9456  0.0372 -2.5019
 4078SOL    HW223871   1.514   4.067   8.516  1.4208 -2.1923 -0.3297
 4079SOL     OW23872   4.401   4.703   6.707  0.4920 -0.3966 -0.1087
 4079SOL    HW123873   4.425   0.052   6.732  3.7248 -1.0868 -0.7561
 4079SOL    HW223874   4.415   4.657   6.790  1.4188 -0.5726 -0.3569
 4080SOL     OW23875   1.512   4.311  10.396  0.3648 -0.1250  0.3040
 4080SOL    HW123876   1.527   4.219  10.374 -0.4290 -0.0083 -0.7331
 4080SOL    HW223877   1.594   4.325  10.443  0.5958 -3.2093  0.8363
 4081SOL     OW23878   4.018   3.361   6.443  0.6700  0.3167  0.3159
 4081SOL    HW123879   4.027   3.291   6.379 -2.8538  0.3573 -0.2390
 4081SOL    HW223880   4.097   3.414   6.431  0.1577  1.7338  3.1432
 4082SOL     OW23881   3.158   3.754   6.492  0.2601 -0.3899 -0.0619
 4082SOL    HW123882   3.115   3.840   6.495  0.8743 -0.0784 -0.2117
 4082SOL    HW223883   3.216   3.764   6.416  1.7927  2.1014  1.4181
 4083SOL     OW23884   1.969   4.535   9.133  0.5735 -0.0552 -0.5342
 4083SOL    HW123885   1.891   4.567   9.088 -0.0401 -1.3560 -0.3917
 4083SOL    HW223886   1.941   4.541   9.224  0.1007  0.7595 -0.7363
 4084SOL     OW23887   3.653   1.094   9.555 -0.2683  0.3523  0.1524
 4084SOL    HW123888   3.741   1.060   9.570 -1.0425 -1.1607  1.3412
 4084SOL    HW223889   3.600   1.016   9.571 -0.4452  0.4346 -0.0285
 4085SOL     OW23890   0.818   4.515  12.289 -0.8770  0.0005 -0.3856
 4085SOL    HW123891   0.904   4.541  12.253 -0.7344  0.8324  0.5683
 4085SOL    HW223892   0.819   4.419  12.293  2.2217 -0.0046 -0.9679
 4086SOL     OW23893   4.389   1.991   5.573  0.8084  0.6079 -0.0804
 4086SOL    HW123894   4.303   1.948   5.577  1.6312 -1.0056  0.2770
 4086SOL    HW223895   4.402   2.006   5.667  0.8777  0.3975 -0.0559
 4087SOL     OW23896   1.804   0.651   5.649  0.2294 -0.0119 -0.4783
 4087SOL    HW123897   1.846   0.583   5.597  1.9928  0.9522 -0.3235
 4087SOL    HW223898   1.720   0.673   5.609 -0.3543 -1.1597  0.1244
 4088SOL     OW23899   4.344   4.397   1.726 -0.5663  0.5930 -0.7477
 4088SOL    HW123900   4.268   4.339   1.727 -1.3324  1.5418 -2.8662
 4088SOL    HW223901   4.303   4.466   1.674 -0.2375  1.5926  0.3076
 4089SOL     OW23902   4.330   4.378   8.282  0.0681 -0.0849  0.1348
 4089SOL    HW123903   4.261   4.315   8.259  0.5428 -0.5963  0.1072
 4089SOL    HW223904   4.410   4.332   8.257 -0.0008  1.5014 -2.9815
 4090SOL     OW23905   4.636   3.617   6.785  0.7087  0.1732 -0.0155
 4090SOL    HW123906   4.668   3.677   6.853 -0.5535  0.7329  0.0811
 4090SOL    HW223907   4.680   3.651   6.708 -0.0023  0.1517 -0.4329
 4091SOL     OW23908   3.779   4.292   8.521  0.3089 -0.4178  0.0609
 4091SOL    HW123909   3.752   4.307   8.612  0.3470 -0.1076  0.0235
 4091SOL    HW223910   3.867   4.254   8.528  1.1200  1.2338 -1.1764
 4092SOL     OW23911   3.174   1.001   6.214  0.2142 -0.6044 -0.7075
 4092SOL    HW123912   3.118   1.079   6.208 -0.8614 -1.3406 -0.1478
 4092SOL    HW223913   3.125   0.937   6.164 -0.8308 -0.1296 -0.2817
 4093SOL     OW23914   0.634   0.417   1.774  0.1814 -0.1035  0.2497
 4093SOL    HW123915   0.582   0.338   1.787 -0.9661  0.5714 -0.2002
 4093SOL    HW223916   0.603   0.441   1.686 -2.2332 -2.1578  0.5516
 4094SOL     OW23917   0.897   2.274  11.550 -0.0561  0.5524 -0.1581
 4094SOL    HW123918   0.826   2.251  11.610 -0.0757  3.1431  0.7837
 4094SOL    HW223919   0.845   2.312  11.480  1.2275 -0.0231 -1.4230
 4095SOL     OW23920   3.266   4.711  11.840  0.0204  0.3937 -0.6904
 4095SOL    HW123921   3.357   4.694  11.815  0.3330  0.7468  0.2206
 4095SOL    HW223922   3.250   4.629  11.887  0.5077  0.8692  0.2811
 4096SOL     OW23923   0.635   1.074   4.873  0.3067 -0.2655  0.2811
 4096SOL    HW123924   0.546   1.090   4.843  0.7074  0.5483 -0.4775
 4096SOL    HW223925   0.624   1.106   4.963  0.4751  0.7348 -0.0550
 4097SOL     OW23926   4.474   2.089   2.601 -0.5218  0.2968  0.4556
 4097SOL    HW123927   4.483   2.123   2.512 -0.0378 -1.6501 -0.2296
 4097SOL    HW223928   4.540   2.143   2.645 -0.8598  1.3137 -0.2797
 4098SOL     OW23929   3.969   4.156   8.722  0.4191 -0.4824 -0.1511
 4098SOL    HW123930   3.973   4.217   8.796 -3.0286 -1.1553  0.5843
 4098SOL    HW223931   4.060   4.150   8.694  0.4784  0.5485 -0.1993
 4099SOL     OW23932   2.292   1.885   4.611  0.4995  0.3351 -0.6140
 4099SOL    HW123933   2.343   1.870   4.531 -1.1618  2.0271 -1.9826
 4099SOL    HW223934   2.286   1.979   4.595 -1.3317 -0.0369 -2.1497
 4100SOL     OW23935   4.074   4.040   7.852  0.4845 -0.1423  0.5282
 4100SOL    HW123936   4.004   4.003   7.907  0.9368 -0.4947  0.8691
 4100SOL    HW223937   4.014   4.061   7.780  1.6414 -2.3386 -1.0672
 4101SOL     OW23938   1.363   1.418   9.445  0.0722 -0.1775 -0.0311
 4101SOL    HW123939   1.401   1.336   9.415 -0.3788 -0.4339  0.0944
 4101SOL    HW223940   1.271   1.394   9.460 -0.3563  0.9524 -0.8326
 4102SOL     OW23941   3.682   1.323   9.070  0.1723  0.1965 -0.0397
 4102SOL    HW123942   3.589   1.320   9.091  0.6993  0.8018  2.4350
 4102SOL    HW223943   3.713   1.398   9.121 -1.8139  0.0076  1.4537
 4103SOL     OW23944   0.621   1.435   2.304 -0.4338 -0.0945 -0.0770
 4103SOL    HW123945   0.688   1.493   2.340  1.3742 -3.4833  2.0016
 4103SOL    HW223946   0.543   1.491   2.299  0.7954  1.5063 -1.5132
 4104SOL     OW23947   4.062   2.988   0.545 -0.5493  0.2736  0.3841
 4104SOL    HW123948   4.127   3.053   0.520  0.9921 -0.9702  1.1741
 4104SOL    HW223949   4.111   2.952   0.619 -2.6037  0.4101  1.8135
 4105SOL     OW23950   2.401   1.840   1.160 -0.5143 -0.4476  0.6876
 4105SOL    HW123951   2.448   1.814   1.239 -0.3109 -2.0298  0.0567
 4105SOL    HW223952   2.315   1.857   1.196 -0.7928 -0.7063  0.1506
 4106SOL     OW23953   4.239   4.054  12.296  0.5334 -0.2927 -0.4548
 4106SOL    HW123954   4.186   4.025  12.222 -2.1231  0.3640  1.1970
 4106SOL    HW223955   4.294   3.976  12.300  0.4284 -0.3448  0.0038
 4107SOL     OW23956   1.871   0.070  16.445 -0.4459 -0.3790 -0.1530
 4107SOL    HW123957   1.879   0.156  16.486 -2.1897 -0.4308  0.3250
 4107SOL    HW223958   1.941   0.079  16.381 -1.7814  0.3523 -1.4938
 4108SOL     OW23959   0.582   0.134   8.630  0.0497 -0.0820  0.4123
 4108SOL    HW123960   0.629   0.201   8.581  0.3325 -0.2904  0.3951
 4108SOL    HW223961   0.663   0.103   8.672 -0.7194 -0.9847  1.2336
 4109SOL     OW23962   1.918   0.128   2.342  0.2198 -0.1519 -0.0751
 4109SOL    HW123963   1.979   0.196   2.372 -1.2666  1.4722 -0.6799
 4109SOL    HW223964   1.919   0.148   2.248  1.6505 -2.3003 -0.5226
 4110SOL     OW23965   3.947   3.116   9.488  0.4737  0.5701 -0.6280
 4110SOL    HW123966   4.011   3.177   9.450 -1.4966  2.2243 -1.2568
 4110SOL    HW223967   3.998   3.041   9.519  0.6761  0.8311 -0.3240
 4111SOL     OW23968   0.478   4.709   8.205  0.3375 -0.1019  0.5713
 4111SOL    HW123969   0.452   0.060   8.215 -0.3582 -0.1799 -0.5619
 4111SOL    HW223970   0.401   4.672   8.163 -0.3884  0.9903  0.9522
 4112SOL     OW23971   1.749   2.697   2.726  1.0709  0.3604  0.4607
 4112SOL    HW123972   1.686   2.740   2.669  1.0222  0.0425  0.2746
 4112SOL    HW223973   1.817   2.685   2.659  0.2419 -1.7907  0.0079
 4113SOL     OW23974   0.367   4.670   3.896  0.1257 -0.4237 -0.4099
 4113SOL    HW123975   0.305   4.665   3.824  0.8506 -0.0747 -1.0528
 4113SOL    HW223976   0.381   4.579   3.922 -2.6187 -0.7324  0.0141
 4114SOL     OW23977   1.163   1.460   4.549  0.0471  0.1178 -0.6967
 4114SOL    HW123978   1.099   1.500   4.608 -1.1188  0.5167 -2.2436
 4114SOL    HW223979   1.241   1.511   4.572 -0.4418  0.1677  0.8303
 4115SOL     OW23980   3.060   4.263   6.782  0.1439  0.1386 -0.6417
 4115SOL    HW123981   3.113   4.243   6.859 -2.3301 -1.7875  0.5814
 4115SOL    HW223982   3.058   4.358   6.794 -0.3453  0.0225  0.1674
 4116SOL     OW23983   3.583   2.394   3.077 -0.2455  0.1028  0.2440
 4116SOL    HW123984   3.606   2.468   3.133 -1.6400  2.0255 -1.7328
 4116SOL    HW223985   3.609   2.317   3.129  0.2324  0.3380  0.3518
 4117SOL     OW23986   1.221   2.251   6.144 -0.2721  0.0648  0.1085
 4117SOL    HW123987   1.263   2.276   6.227  0.8319 -1.3014 -0.0297
 4117SOL    HW223988   1.132   2.282   6.157 -0.2951  0.0148  0.0711
 4118SOL     OW23989   0.817   3.209   7.009  0.2938  0.3289 -0.1461
 4118SOL    HW123990   0.763   3.285   7.031 -2.0225 -1.0089 -1.1553
 4118SOL    HW223991   0.770   3.170   6.934 -0.7852 -0.9055  1.1655
 4119SOL     OW23992   4.436   1.972   3.877  0.0644  0.0253 -0.4904
 4119SOL    HW123993   4.527   1.958   3.904  0.2804  0.5276 -0.9600
 4119SOL    HW223994   4.406   2.035   3.942 -0.4119 -0.4434 -0.2537
 4120SOL     OW23995   2.164   2.091   0.991 -0.1510  0.4165  0.1969
 4120SOL    HW123996   2.247   2.068   0.950 -0.7116  0.0198 -0.7215
 4120SOL    HW223997   2.102   2.070   0.921  1.0194  0.7259 -0.9289
 4121SOL     OW23998   0.746   2.407   1.730 -0.3460 -0.1992 -0.3321
 4121SOL    HW123999   0.704   2.480   1.683 -0.7732  0.2868  0.8150
 4121SOL    HW224000   0.767   2.447   1.814  0.9434 -0.7349 -0.4028
 4122SOL     OW24001   1.110   4.456   3.145  0.0294  0.4380  0.8547
 4122SOL    HW124002   1.170   4.402   3.198  1.1338  1.0339  0.2160
 4122SOL    HW224003   1.165   4.485   3.072 -0.0843 -1.9298 -0.1781
 4123SOL     OW24004   4.280   0.485  13.900  0.1366 -0.3625 -0.0581
 4123SOL    HW124005   4.189   0.489  13.870  0.1987  0.6506 -0.1084
 4123SOL    HW224006   4.317   0.514  13.816 -1.3664 -1.3772 -1.0614
 4124SOL     OW24007   1.629   0.134  16.316 -0.1159  0.0039 -0.3236
 4124SOL    HW124008   1.708   0.116  16.366 -0.4242  2.4128  1.0515
 4124SOL    HW224009   1.633   0.079  16.238  0.9680 -0.6606  0.2022
 4125SOL     OW24010   1.093   4.012   7.395 -0.0777  0.8806 -0.3015
 4125SOL    HW124011   1.023   4.071   7.367  0.6517  1.2172 -1.4286
 4125SOL    HW224012   1.060   3.924   7.375  0.6070  0.4296  0.5767
 4126SOL     OW24013   4.048   3.341   5.182  0.0993 -0.0724  0.7967
 4126SOL    HW124014   4.077   3.299   5.101  0.4037  1.5607  0.0516
 4126SOL    HW224015   3.966   3.382   5.156 -0.0183  1.5101  3.6298
 4127SOL     OW24016   3.723   0.964   3.753  0.0386  0.5301  0.5015
 4127SOL    HW124017   3.694   1.033   3.813  0.6581 -0.0779  1.4862
 4127SOL    HW224018   3.687   0.883   3.789  0.6306 -0.8870 -2.0859
 4128SOL     OW24019   4.339   3.610  15.614  0.0782  0.4876  0.3116
 4128SOL    HW124020   4.308   3.584  15.700  1.0967  0.6912  0.7464
 4128SOL    HW224021   4.299   3.545  15.557 -1.3639  2.6356 -1.1295
 4129SOL     OW24022   1.525   2.390   3.808  0.4733  0.9421 -0.5509
 4129SOL    HW124023   1.452   2.329   3.804  0.7556  0.5940 -0.4072
 4129SOL    HW224024   1.537   2.393   3.903 -0.4208 -0.2377 -0.4090
 4130SOL     OW24025   3.099   4.559  13.451 -0.1602  0.0432 -0.2766
 4130SOL    HW124026   3.119   4.652  13.455  0.0253 -0.0803  1.8397
 4130SOL    HW224027   3.187   4.528  13.431  0.4142  0.6448  1.3056
 4131SOL     OW24028   0.220   3.823   9.470 -0.5705  0.5133  0.2864
 4131SOL    HW124029   0.314   3.829   9.453 -0.4662 -0.4598  0.5133
 4131SOL    HW224030   0.209   3.728   9.465  1.1908  0.3097  0.1551
 4132SOL     OW24031   2.791   3.012   4.852 -0.2600 -0.3528 -0.2456
 4132SOL    HW124032   2.858   2.953   4.887  1.6310  0.8487 -1.8072
 4132SOL    HW224033   2.745   3.045   4.929 -0.9894 -0.2545 -0.7277
 4133SOL     OW24034   0.355   3.605  15.290 -0.2333 -1.0686 -0.2117
 4133SOL    HW124035   0.370   3.521  15.335 -0.1220 -0.6572  0.5224
 4133SOL    HW224036   0.273   3.634  15.329  1.4073 -1.0839  3.2449
 4134SOL     OW24037   1.106   4.671   6.384 -0.3305  0.1016  0.5376
 4134SOL    HW124038   1.067   4.734   6.324  1.0638 -0.9449 -1.4849
 4134SOL    HW224039   1.109   4.703   6.474 -2.0031 -0.8853  0.9608
 4135SOL     OW24040   3.281   1.306   0.426  0.3864 -0.1698  0.1430
 4135SOL    HW124041   3.229   1.292   0.505 -0.3946  0.1169 -0.3158
 4135SOL    HW224042   3.205   1.280   0.373 -1.1848  0.4335  2.0844
 4136SOL     OW24043   1.776   1.956  13.071 -0.3707  0.2186  0.2646
 4136SOL    HW124044   1.829   1.888  13.112  0.0902 -1.0805 -2.5589
 4136SOL    HW224045   1.703   1.958  13.133 -0.9112  2.7551 -0.4641
 4137SOL     OW24046   1.652   3.952   5.957 -0.0611  0.4848  0.3362
 4137SOL    HW124047   1.734   3.903   5.963 -0.4316 -0.1293  0.4030
 4137SOL    HW224048   1.686   4.030   5.913  0.9428  0.6328  1.3872
 4138SOL     OW24049   3.009   4.073   2.247  0.0682 -0.1844 -0.4092
 4138SOL    HW124050   3.095   4.033   2.237 -0.0534 -0.8181  1.0514
 4138SOL    HW224051   3.028   4.160   2.283 -2.3376  0.0521  0.2803
 4139SOL     OW24052   0.806   0.441  12.330  0.0499  0.2262  0.0369
 4139SOL    HW124053   0.874   0.508  12.339  0.6336  0.0954 -3.6033
 4139SOL    HW224054   0.722   0.488  12.334  1.4520  2.7993 -0.4060
 4140SOL     OW24055   2.146   0.909   6.643 -0.3047 -0.1291  0.2405
 4140SOL    HW124056   2.194   0.942   6.719  3.2251 -1.0046 -1.5729
 4140SOL    HW224057   2.107   0.994   6.620 -1.3983 -0.4152  1.0588
 4141SOL     OW24058   0.329   2.586  17.293 -0.5068  0.0294 -0.0043
 4141SOL    HW124059   0.345   2.571  17.199 -0.6885 -2.3509  0.3355
 4141SOL    HW224060   0.253   2.529  17.304  0.8681 -2.0631 -1.1768
 4142SOL     OW24061   2.172   1.564  12.969 -0.6446  0.3186 -0.1576
 4142SOL    HW124062   2.201   1.569  12.878  0.1529  2.4147  0.2315
 4142SOL    HW224063   2.094   1.620  12.975 -0.8593  0.3315 -2.9123
 4143SOL     OW24064   3.500   0.229  17.005 -0.8871 -0.3763 -0.0334
 4143SOL    HW124065   3.425   0.181  17.041 -0.7527  0.2669  1.1308
 4143SOL    HW224066   3.497   0.212  16.911  2.9120 -1.3994  0.0473
 4144SOL     OW24067   3.610   4.306   0.539  0.0156  0.3721  0.3962
 4144SOL    HW124068   3.671   4.241   0.503  0.0349  0.3453  0.4780
 4144SOL    HW224069   3.672   4.379   0.538 -2.6697  2.6141 -0.0975
 4145SOL     OW24070   3.946   2.548   8.090  0.0473 -0.9535 -0.3260
 4145SOL    HW124071   3.902   2.621   8.046 -2.0500 -0.9133  1.8549
 4145SOL    HW224072   3.909   2.568   8.176  0.7582 -0.6820 -0.0847
 4146SOL     OW24073   0.483   2.421   0.566  0.4631 -0.5063 -0.1903
 4146SOL    HW124074   0.525   2.485   0.622  0.5773 -0.5655 -0.2081
 4146SOL    HW224075   0.549   2.353   0.550 -0.5188 -1.7301  0.9141
 4147SOL     OW24076   4.493   4.120   1.431  0.0346 -0.2666  0.0508
 4147SOL    HW124077   4.433   4.070   1.376  1.6837 -1.9774 -0.2202
 4147SOL    HW224078   4.483   4.211   1.402 -3.6151 -1.0913 -1.2630
 4148SOL     OW24079   1.997   0.757   3.922  0.3527  0.1997 -0.4801
 4148SOL    HW124080   2.018   0.666   3.901 -0.5194 -0.4504  1.4339
 4148SOL    HW224081   1.954   0.783   3.840  1.4959  1.9128 -0.5267
 4149SOL     OW24082   3.840   0.449   3.016  0.3242 -0.5647  0.0463
 4149SOL    HW124083   3.755   0.483   2.990  1.8238  0.4696 -3.6002
 4149SOL    HW224084   3.812   0.358   3.016  1.9904 -1.0761  1.1401
 4150SOL     OW24085   3.529   0.183   6.821  0.2037  0.3052 -0.3125
 4150SOL    HW124086   3.446   0.193   6.867  1.7596 -1.3836  2.8448
 4150SOL    HW224087   3.556   0.274   6.809 -3.7224  1.6551  1.2292
 4151SOL     OW24088   4.429   3.071   2.279 -0.4728 -0.0512  0.0228
 4151SOL    HW124089   4.439   3.043   2.370  0.2113 -1.4811 -0.4890
 4151SOL    HW224090   4.516   3.100   2.253  0.1816 -2.0221  0.0330
 4152SOL     OW24091   0.755   3.843   6.192  0.0204 -0.0904  0.0112
 4152SOL    HW124092   0.841   3.882   6.174  1.1084 -1.9165  1.3070
 4152SOL    HW224093   0.773   3.749   6.190 -2.4730 -0.5531 -1.3321
 4153SOL     OW24094   4.291   2.440  13.991 -0.4277 -0.0687 -0.0533
 4153SOL    HW124095   4.328   2.487  13.916 -0.2198  2.8080  1.8550
 4153SOL    HW224096   4.279   2.508  14.056 -0.3291  0.7728 -0.9159
 4154SOL     OW24097   1.904   1.345   1.942 -0.0634  0.0640 -0.6546
 4154SOL    HW124098   1.997   1.321   1.944  0.0309  0.5319  0.8881
 4154SOL    HW224099   1.900   1.394   1.860 -0.7756 -0.8076 -1.1412
 4155SOL     OW24100   4.211   4.063  12.590  0.2225  0.1450 -0.1535
 4155SOL    HW124101   4.197   4.072  12.496 -0.5476  3.3638  0.2750
 4155SOL    HW224102   4.274   3.992  12.599 -2.2963 -2.0211  0.2851
 4156SOL     OW24103   4.188   1.759   2.403 -0.2374  0.3767  0.4130
 4156SOL    HW124104   4.119   1.825   2.415 -1.6998 -0.4816 -3.1963
 4156SOL    HW224105   4.239   1.758   2.483  0.4993  1.1071 -0.0480
 4157SOL     OW24106   1.851   1.429   7.482 -0.1773  0.3240 -0.2725
 4157SOL    HW124107   1.794   1.486   7.534 -0.6255  0.4715 -0.9180
 4157SOL    HW224108   1.796   1.350   7.475  1.0013 -0.6258  1.1162
 4158SOL     OW24109   2.422   1.632   5.250 -0.4218 -0.0596 -0.4189
 4158SOL    HW124110   2.399   1.543   5.276 -1.0880 -0.4467 -2.3244
 4158SOL    HW224111   2.478   1.670   5.318  0.1274  1.3846 -1.6846
 4159SOL     OW24112   0.119   3.428   6.697  0.0369 -0.2202  0.5454
 4159SOL    HW124113   0.068   3.465   6.768 -0.2399  1.2158 -0.4043
 4159SOL    HW224114   0.059   3.431   6.622 -0.6526 -2.7437  0.9994
 4160SOL     OW24115   3.394   1.907   1.202  0.2885  0.0454 -0.5298
 4160SOL    HW124116   3.474   1.958   1.191 -1.1665  2.6938  1.0527
 4160SOL    HW224117   3.400   1.832   1.144  0.0219  0.7670 -1.4878
 4161SOL     OW24118   3.996   3.247  14.804  0.2158  0.0859 -0.1537
 4161SOL    HW124119   3.944   3.263  14.882  2.6254  2.1339  1.0352
 4161SOL    HW224120   3.975   3.154  14.795 -1.1832  0.4606 -0.7788
 4162SOL     OW24121   2.384   1.261   3.978  0.2969  0.1076 -0.8128
 4162SOL    HW124122   2.351   1.317   4.049 -1.5591 -0.9395 -0.8549
 4162SOL    HW224123   2.468   1.298   3.951 -0.6209  1.5831 -1.6657
 4163SOL     OW24124   2.545   0.924  10.891  0.0130  0.0688 -0.3007
 4163SOL    HW124125   2.511   0.854  10.946 -1.2844  1.6914  0.9757
 4163SOL    HW224126   2.618   0.954  10.946  0.2433 -0.6910 -0.1916
 4164SOL     OW24127   0.086   0.141   2.558  0.2490 -0.9407  0.2350
 4164SOL    HW124128   0.084   0.095   2.474 -0.6880  0.2525 -0.3883
 4164SOL    HW224129   0.095   0.229   2.521  0.6175 -0.4013  1.6075
 4165SOL     OW24130   1.138   3.239   2.812  0.3569  0.1032 -0.0824
 4165SOL    HW124131   1.076   3.281   2.752  0.9694  0.5062 -0.4360
 4165SOL    HW224132   1.221   3.282   2.794 -1.2472  2.3970 -2.0907
 4166SOL     OW24133   3.823   0.057   7.645 -0.2331 -0.2903 -0.2461
 4166SOL    HW124134   3.819   0.147   7.678  1.1251  0.2345 -1.4785
 4166SOL    HW224135   3.864   0.071   7.559  0.4356 -0.4731  0.0422
 4167SOL     OW24136   0.365   0.159  12.308  0.6934 -0.6252 -0.1653
 4167SOL    HW124137   0.399   0.091  12.366  2.4554  0.4175  0.0430
 4167SOL    HW224138   0.373   0.232  12.369  1.7177 -0.8760  0.0004
 4168SOL     OW24139   4.509   1.912   1.135 -0.2033  0.3662  0.0546
 4168SOL    HW124140   4.450   1.956   1.074  0.7083  2.1084  0.4377
 4168SOL    HW224141   4.466   1.827   1.145  1.2054 -0.1333  1.9416
 4169SOL     OW24142   2.835   1.704  15.012 -0.6698 -0.1758 -0.1560
 4169SOL    HW124143   2.787   1.731  14.934  0.5454  1.5586 -0.3083
 4169SOL    HW224144   2.904   1.771  15.015 -0.3417 -0.4656 -1.1753
 4170SOL     OW24145   4.086   1.884   9.158  0.0602 -0.0021 -0.4169
 4170SOL    HW124146   4.148   1.832   9.209 -1.4180 -1.3350  0.0310
 4170SOL    HW224147   4.043   1.820   9.101  0.9450 -0.2376 -0.8218
 4171SOL     OW24148   3.537   3.856   8.831 -0.7232 -0.2532  0.3072
 4171SOL    HW124149   3.459   3.886   8.785 -1.1487 -0.2659  1.0256
 4171SOL    HW224150   3.614   3.909   8.809 -0.0203 -0.4689  2.2105
 4172SOL     OW24151   4.086   2.952   4.015 -0.1818 -0.1603 -0.0882
 4172SOL    HW124152   4.084   2.872   3.962  2.1580 -1.4555  1.7302
 4172SOL    HW224153   4.015   2.941   4.079  1.2902  1.1855  1.7762
 4173SOL     OW24154   4.210   0.215   6.401 -0.1895 -0.2830 -0.2434
 4173SOL    HW124155   4.215   0.305   6.433 -0.9582 -0.1271 -0.5404
 4173SOL    HW224156   4.136   0.220   6.340  0.0990  0.6298 -0.5234
 4174SOL     OW24157   2.394   1.311   3.431  0.0144  0.3941 -0.0618
 4174SOL    HW124158   2.355   1.245   3.374 -0.2639  0.0164  0.5690
 4174SOL    HW224159   2.330   1.381   3.418  1.9176  1.8650 -1.5067
 4175SOL     OW24160   1.315   1.507  10.331 -0.0591  0.0635  0.5507
 4175SOL    HW124161   1.224   1.486  10.309  0.7564 -2.3253 -0.5502
 4175SOL    HW224162   1.334   1.417  10.357  0.5629 -0.4607 -1.6882
 4176SOL     OW24163   3.283   2.677  16.528  0.0104 -0.6659  0.1120
 4176SOL    HW124164   3.199   2.695  16.569  0.7650  1.4771  0.7258
 4176SOL    HW224165   3.345   2.709  16.594  2.4113  0.2189 -2.5536
 4177SOL     OW24166   4.248   3.144   7.837 -0.0356  0.5748  0.0303
 4177SOL    HW124167   4.337   3.146   7.801 -0.0599 -0.8572 -0.1085
 4177SOL    HW224168   4.218   3.234   7.824  0.5238  0.2307 -3.5805
 4178SOL     OW24169   4.112   2.962   7.088 -0.1589 -0.4494 -0.1448
 4178SOL    HW124170   4.128   3.057   7.084  0.8433 -0.6047  0.2114
 4178SOL    HW224171   4.135   2.941   7.178  0.3414  1.6287  0.2238
 4179SOL     OW24172   3.640   1.282   7.186 -0.4561 -0.2658 -0.1509
 4179SOL    HW124173   3.564   1.241   7.144 -0.1499 -1.5842  0.5758
 4179SOL    HW224174   3.706   1.220   7.154 -0.5177  0.6030 -2.0061
 4180SOL     OW24175   0.895   0.315   2.015  0.0166  0.7299  0.5157
 4180SOL    HW124176   0.873   0.315   2.108  0.9446  1.8759  0.7465
 4180SOL    HW224177   0.848   0.389   1.977 -2.0778 -0.3387  1.0517
 4181SOL     OW24178   0.389   1.258   5.864  0.0888 -0.1857  0.1509
 4181SOL    HW124179   0.365   1.265   5.772 -1.5341 -2.4391  0.3844
 4181SOL    HW224180   0.446   1.333   5.877 -2.2671  1.8206 -1.1655
 4182SOL     OW24181   2.964   2.320   3.288  0.1303  0.0692  0.0907
 4182SOL    HW124182   2.971   2.415   3.302  1.3782  0.0511 -0.4852
 4182SOL    HW224183   2.871   2.309   3.265  0.5225  3.8625 -3.2971
 4183SOL     OW24184   1.155   1.248  15.742 -0.2733 -0.2970 -0.6712
 4183SOL    HW124185   1.214   1.323  15.740 -0.7747  0.0560 -2.3931
 4183SOL    HW224186   1.104   1.266  15.663 -1.5932  3.5728  1.0748
 4184SOL     OW24187   0.040   2.773   7.832 -0.0025 -0.0782 -0.1677
 4184SOL    HW124188   0.066   2.685   7.862 -0.9479 -0.5550 -0.7318
 4184SOL    HW224189   0.023   2.747   7.742 -1.1201  0.1842 -0.0331
 4185SOL     OW24190   0.573   3.681   8.215  0.2840  0.4786 -0.3206
 4185SOL    HW124191   0.582   3.586   8.203  1.1035  0.6728 -1.3094
 4185SOL    HW224192   0.532   3.685   8.301  3.3326 -0.1173  1.1634
 4186SOL     OW24193   0.234   4.274   6.018 -0.0390 -0.2282 -0.2168
 4186SOL    HW124194   0.176   4.333   6.065  2.2366  1.5206  0.4246
 4186SOL    HW224195   0.179   4.248   5.944  0.2385  2.0264 -1.2045
 4187SOL     OW24196   2.773   1.767   6.550 -0.5245 -0.3742 -0.5911
 4187SOL    HW124197   2.801   1.708   6.620 -0.9922 -0.8975 -0.8473
 4187SOL    HW224198   2.813   1.850   6.575  0.1721 -1.3314  1.4423
 4188SOL     OW24199   3.711   1.000   9.039  0.4598  0.0616 -0.7747
 4188SOL    HW124200   3.621   1.028   9.026  0.4237 -0.1263 -0.9408
 4188SOL    HW224201   3.749   1.028   9.122 -4.2224 -1.0080  1.7196
 4189SOL     OW24202   3.950   4.333  16.013 -0.1613  0.2874  0.3035
 4189SOL    HW124203   3.984   4.422  16.012  0.2077  0.1457  0.4468
 4189SOL    HW224204   3.892   4.342  16.088  1.1511 -0.7154  1.4443
 4190SOL     OW24205   0.015   1.760  16.494  0.3142 -0.1520  0.5021
 4190SOL    HW124206   0.063   1.842  16.503 -0.0552  0.1174  0.0263
 4190SOL    HW224207   4.677   1.778  16.442  0.6509  0.0397  0.0679
 4191SOL     OW24208   3.880   2.328  12.403 -0.2873  0.5212 -0.1011
 4191SOL    HW124209   3.948   2.392  12.424  0.0965 -0.6437  2.1127
 4191SOL    HW224210   3.933   2.286  12.335 -1.4048  0.8610 -1.1943
 4192SOL     OW24211   3.570   2.664   4.359  0.5191  0.5288 -0.0054
 4192SOL    HW124212   3.499   2.700   4.305  0.7125 -1.4439 -1.5705
 4192SOL    HW224213   3.619   2.746   4.366  0.3557  0.7243 -1.0973
 4193SOL     OW24214   1.432   1.392   7.625  0.1194  0.4835  0.1239
 4193SOL    HW124215   1.486   1.471   7.619  2.3295 -1.1296 -1.5048
 4193SOL    HW224216   1.350   1.413   7.581 -1.4111 -0.0112  2.7174
 4194SOL     OW24217   4.100   4.239  10.985 -0.0241 -0.1252 -0.0976
 4194SOL    HW124218   4.146   4.156  10.991 -0.2112 -0.2171  0.0434
 4194SOL    HW224219   4.068   4.254  11.074  1.2455 -0.4678  0.4165
 4195SOL     OW24220   1.226   2.667   6.027  0.0053  0.0121 -0.1128
 4195SOL    HW124221   1.279   2.589   6.011 -2.7506 -2.1521  1.5558
 4195SOL    HW224222   1.298   2.713   6.071  1.0661 -0.4021 -1.3891
 4196SOL     OW24223   1.176   4.510   7.515  0.1263 -0.2515 -0.1286
 4196SOL    HW124224   1.192   4.490   7.423 -0.1020  2.3857 -0.7551
 4196SOL    HW224225   1.126   4.436   7.547 -1.0902  0.1348 -1.1442
 4197SOL     OW24226   0.312   3.693   4.728  0.3338 -0.1059  0.1110
 4197SOL    HW124227   0.309   3.657   4.817 -1.6583 -1.3955 -0.4584
 4197SOL    HW224228   0.253   3.767   4.741 -0.0393 -0.3998  0.0919
 4198SOL     OW24229   3.530   0.471   6.838  0.1736 -0.0528 -0.5850
 4198SOL    HW124230   3.617   0.507   6.824  0.1241  1.2517  2.5750
 4198SOL    HW224231   3.475   0.521   6.778 -2.0569 -2.9097 -0.9613
 4199SOL     OW24232   2.598   3.999   2.192  0.0197 -0.2197  0.0078
 4199SOL    HW124233   2.611   3.946   2.114 -1.1572  0.8716 -0.9355
 4199SOL    HW224234   2.660   3.959   2.253  0.2833  2.3565  1.4177
 4200SOL     OW24235   3.588   1.886   3.576  0.0887 -0.3523  0.4681
 4200SOL    HW124236   3.632   1.838   3.505 -0.4478  0.8029 -0.6476
 4200SOL    HW224237   3.546   1.954   3.523  1.0429 -0.2633 -0.1669
 4201SOL     OW24238   4.617   3.896   4.205 -0.9034 -0.3888  0.3613
 4201SOL    HW124239   4.613   3.970   4.145 -0.9830 -1.0522 -0.4553
 4201SOL    HW224240   4.677   3.927   4.273 -0.9247 -0.6266  0.4878
 4202SOL     OW24241   3.369   0.535   3.136  0.3501  0.1664  0.3368
 4202SOL    HW124242   3.334   0.449   3.111 -0.8586  0.4365  1.1096
 4202SOL    HW224243   3.447   0.511   3.186  0.9277 -0.8359 -1.0475
 4203SOL     OW24244   2.764   1.187   3.111 -0.6242  0.4950  0.1977
 4203SOL    HW124245   2.779   1.205   3.204 -1.0739 -0.0077  0.3667
 4203SOL    HW224246   2.765   1.091   3.116  0.0484  0.4882 -0.0185
 4204SOL     OW24247   2.777   3.661   8.959 -0.1998  0.4349  0.1934
 4204SOL    HW124248   2.840   3.728   8.985  0.9795 -1.6581  2.8065
 4204SOL    HW224249   2.821   3.630   8.880  0.3246 -2.1391  1.4745
 4205SOL     OW24250   0.308   2.988   7.802 -0.1297  0.4246  0.0888
 4205SOL    HW124251   0.384   2.931   7.798 -0.1570  0.2531  1.9797
 4205SOL    HW224252   0.243   2.930   7.764 -0.8709 -0.4111  2.6181
 4206SOL     OW24253   2.540   3.067   2.983 -0.0573  0.5076 -0.0502
 4206SOL    HW124254   2.535   3.155   3.021  0.4545  1.4555 -2.1866
 4206SOL    HW224255   2.598   3.021   3.044 -1.3731 -0.4970  0.4463
 4207SOL     OW24256   0.425   2.988   1.107 -0.8216  0.1342 -0.1384
 4207SOL    HW124257   0.518   2.965   1.096 -0.1420  1.7229  2.1785
 4207SOL    HW224258   0.383   2.920   1.055 -1.8640 -1.6129  2.9660
 4208SOL     OW24259   3.256   3.290   6.308 -0.3364  0.4896 -0.2521
 4208SOL    HW124260   3.223   3.336   6.386  0.2661  1.8479 -0.7911
 4208SOL    HW224261   3.345   3.273   6.338 -0.7468 -2.5306 -0.7311
 4209SOL     OW24262   3.791   4.147  11.635 -0.2798  0.3392  0.0566
 4209SOL    HW124263   3.804   4.225  11.582 -1.5369  0.8790  0.5482
 4209SOL    HW224264   3.701   4.156  11.665  0.2465  3.6477  0.5917
 4210SOL     OW24265   3.055   2.298   5.978  0.9522 -0.2068  0.3099
 4210SOL    HW124266   3.012   2.305   6.063 -0.7516  0.3110 -0.6071
 4210SOL    HW224267   3.139   2.263   6.010  1.5809  1.2640  0.2681
 4211SOL     OW24268   1.164   1.151  14.277 -0.1384  0.1155  0.1910
 4211SOL    HW124269   1.109   1.096  14.221 -0.2026 -0.1185  0.4899
 4211SOL    HW224270   1.124   1.137  14.362  0.5213 -3.2474 -0.0645
 4212SOL     OW24271   1.877   1.796   7.371  0.0820 -0.2656  0.6993
 4212SOL    HW124272   1.835   1.864   7.423  0.4370  0.6191 -0.1665
 4212SOL    HW224273   1.800   1.739   7.373  0.8546 -1.3509 -0.2348
 4213SOL     OW24274   0.138   4.432   2.618 -0.2430 -0.4857 -0.1007
 4213SOL    HW124275   0.153   4.459   2.709  2.2866  2.6265 -1.4389
 4213SOL    HW224276   0.050   4.398   2.635 -0.1783 -0.1155  1.0291
 4214SOL     OW24277   3.890   2.384   2.658  0.5775 -1.0335  0.1184
 4214SOL    HW124278   3.954   2.451   2.682  1.3410 -1.3352 -1.0896
 4214SOL    HW224279   3.813   2.439   2.649  0.7270 -0.6361  1.2715
 4215SOL     OW24280   0.977   3.370   6.553 -0.5705  0.1100  0.2957
 4215SOL    HW124281   0.986   3.463   6.575 -0.8008 -0.9165  4.5255
 4215SOL    HW224282   1.062   3.335   6.576 -0.6278  0.0580  0.4279
 4216SOL     OW24283   2.385   0.085  12.899 -0.3991  0.3303  0.4019
 4216SOL    HW124284   2.445   0.151  12.934 -0.5665  0.6126  0.1598
 4216SOL    HW224285   2.313   0.094  12.962 -1.0377  0.9937 -0.4192
 4217SOL     OW24286   0.303   4.354  11.164  0.6293 -0.8250 -0.3867
 4217SOL    HW124287   0.252   4.273  11.167  0.4011 -0.7508 -1.9019
 4217SOL    HW224288   0.245   4.407  11.219 -0.5680 -2.7768  0.2274
 4218SOL     OW24289   0.006   2.106   8.276 -0.1620  0.1467  0.2817
 4218SOL    HW124290   4.715   2.195   8.263 -1.3233 -0.2737  0.1600
 4218SOL    HW224291   0.046   2.116   8.362  0.7869  1.4685 -0.3161
 4219SOL     OW24292   1.330   2.664   5.463  0.0343  0.0932  0.2907
 4219SOL    HW124293   1.302   2.594   5.521  0.6917  0.1920  0.7224
 4219SOL    HW224294   1.352   2.735   5.524  1.3989 -0.6526  0.6668
 4220SOL     OW24295   1.688   4.484   7.431 -0.0312 -0.2423  0.2276
 4220SOL    HW124296   1.637   4.550   7.384  2.1091  0.0544 -1.6677
 4220SOL    HW224297   1.624   4.412   7.434 -1.7621  1.3679  2.3717
 4221SOL     OW24298   3.578   3.560   7.411 -0.1515  0.3250  0.3140
 4221SOL    HW124299   3.507   3.501   7.384 -0.1599  0.2865  0.4189
 4221SOL    HW224300   3.657   3.520   7.375  0.1615 -0.4128  1.8294
 4222SOL     OW24301   1.861   4.064   1.869 -0.7024  0.0747  0.3201
 4222SOL    HW124302   1.909   4.071   1.952 -0.8276  1.6625  0.2635
 4222SOL    HW224303   1.926   4.110   1.816 -0.7962 -0.2507 -0.0712
 4223SOL     OW24304   2.210   4.669   3.798  0.2543  0.3461  0.1971
 4223SOL    HW124305   2.297   4.706   3.783  0.5925 -0.7194 -0.4803
 4223SOL    HW224306   2.215   4.598   3.735  1.7770  1.0311 -0.4610
 4224SOL     OW24307   4.738   2.661   7.572 -0.5495 -0.6507  0.0970
 4224SOL    HW124308   4.697   2.684   7.489  3.0938  1.2404 -1.1689
 4224SOL    HW224309   0.085   2.668   7.535 -1.3892  0.9301 -1.5694
 4225SOL     OW24310   2.407   0.533   6.234  0.2208 -0.1818 -0.3290
 4225SOL    HW124311   2.375   0.611   6.279  1.4307  0.1890 -0.0925
 4225SOL    HW224312   2.327   0.488   6.208  0.5273  0.1186 -1.7572
 4226SOL     OW24313   1.858   2.215  17.097 -0.6738 -0.4171  0.2762
 4226SOL    HW124314   1.883   2.139  17.044 -0.0525 -0.7569  1.0715
 4226SOL    HW224315   1.838   2.277  17.026 -0.9214 -2.6685 -1.6318
 4227SOL     OW24316   0.438   0.200   1.634 -0.0317 -0.1670  0.1810
 4227SOL    HW124317   0.422   0.147   1.555 -0.3458 -2.9913  2.1308
 4227SOL    HW224318   0.482   0.274   1.593  0.5803 -0.1609  0.8499
 4228SOL     OW24319   3.725   4.542  11.244  0.1794 -0.2176 -0.1666
 4228SOL    HW124320   3.715   4.509  11.155  4.3059 -0.9688 -0.3576
 4228SOL    HW224321   3.644   4.518  11.290 -0.1985 -0.5857 -1.0285
 4229SOL     OW24322   0.918   0.243  11.378 -0.3404 -0.9355 -0.0746
 4229SOL    HW124323   0.976   0.180  11.336  1.9010 -0.4124  2.2977
 4229SOL    HW224324   0.943   0.333  11.359 -1.8026 -0.6934 -0.8889
 4230SOL     OW24325   0.745   0.304   3.282  0.1545  0.0761 -0.3158
 4230SOL    HW124326   0.693   0.299   3.201  2.1144 -0.7363 -1.5240
 4230SOL    HW224327   0.818   0.246   3.264  1.0622  1.2534 -0.4309
 4231SOL     OW24328   1.468   1.890   6.232  0.3259 -0.1418  0.1097
 4231SOL    HW124329   1.541   1.873   6.291 -1.1584  1.3408  2.3778
 4231SOL    HW224330   1.403   1.905   6.301  1.5942  0.9978  1.0434
 4232SOL     OW24331   4.056   2.580   9.669  0.3281 -0.3879 -0.4782
 4232SOL    HW124332   4.126   2.628   9.625 -0.4213 -1.5916 -3.0147
 4232SOL    HW224333   4.063   2.497   9.621  0.2066  1.3815 -3.4936
 4233SOL     OW24334   0.179   3.577   7.130 -0.1924 -0.5970 -0.2422
 4233SOL    HW124335   0.242   3.648   7.144 -1.9862  0.5514  1.9152
 4233SOL    HW224336   0.173   3.542   7.219 -0.3582  0.4981  0.1788
 4234SOL     OW24337   2.972   3.949   4.767  0.2868  0.0305  0.7631
 4234SOL    HW124338   2.878   3.963   4.757  0.3052 -0.1718  0.2900
 4234SOL    HW224339   2.986   3.860   4.734  0.7771  1.5537 -3.1691
 4235SOL     OW24340   2.101   3.341   3.170 -0.3949  0.0231  0.1345
 4235SOL    HW124341   2.024   3.363   3.223 -0.9542  0.9992 -1.0686
 4235SOL    HW224342   2.173   3.362   3.228  0.1539 -1.7884  0.1036
 4236SOL     OW24343   4.341   0.980   2.216  0.1981  0.4707  0.5420
 4236SOL    HW124344   4.312   0.898   2.176 -0.8996  1.8969 -1.5997
 4236SOL    HW224345   4.428   0.981   2.176 -0.7427  0.4618 -1.4993
 4237SOL     OW24346   0.671   3.533   5.932  0.0151  0.7886 -0.1883
 4237SOL    HW124347   0.613   3.457   5.921 -1.0848  1.6681 -0.5544
 4237SOL    HW224348   0.734   3.509   5.999  0.6140  1.5912 -0.4667
 4238SOL     OW24349   3.690   0.163  14.348 -0.7252  0.4857 -0.3651
 4238SOL    HW124350   3.760   0.169  14.283 -1.1733  2.2311 -0.7014
 4238SOL    HW224351   3.648   0.248  14.335  1.1350  1.3547 -0.6380
 4239SOL     OW24352   4.092   2.696   8.796  0.1892 -0.0598  0.0212
 4239SOL    HW124353   4.002   2.674   8.822  0.5353  0.6185  1.8232
 4239SOL    HW224354   4.081   2.716   8.703  1.1085  0.5784  0.0526
 4240SOL     OW24355   1.027   2.997   8.255 -0.0955  0.1117 -0.0635
 4240SOL    HW124356   1.060   3.007   8.165  0.7356 -2.3126 -0.0226
 4240SOL    HW224357   1.082   2.927   8.291  2.3720  2.9709  1.7363
 4241SOL     OW24358   2.037   4.407   4.447 -0.2632  0.0937 -0.0135
 4241SOL    HW124359   2.074   4.493   4.430  0.5756  0.0299  1.4456
 4241SOL    HW224360   1.952   4.419   4.406 -0.4022 -1.3848 -0.1653
 4242SOL     OW24361   4.376   4.558   2.084  0.2827  0.1304 -0.2326
 4242SOL    HW124362   4.415   4.633   2.039  0.9036 -0.9025 -1.4447
 4242SOL    HW224363   4.302   4.598   2.129 -0.2107 -3.0082  1.7217
 4243SOL     OW24364   3.470   2.406   5.405 -0.5717  0.8918 -0.2850
 4243SOL    HW124365   3.456   2.360   5.323  0.8664 -0.6767  0.3576
 4243SOL    HW224366   3.380   2.412   5.439 -1.2282 -2.4878 -1.4305
 4244SOL     OW24367   4.188   2.043   3.728  0.5861 -0.0724  0.4035
 4244SOL    HW124368   4.163   2.134   3.745  1.3530  0.3536 -0.7098
 4244SOL    HW224369   4.202   1.997   3.810 -1.9768 -0.3926  0.6638
 4245SOL     OW24370   1.527   0.397   5.832 -0.4746 -0.1255 -0.7864
 4245SOL    HW124371   1.545   0.320   5.777 -0.8029  0.9062 -2.3488
 4245SOL    HW224372   1.436   0.421   5.813 -1.3461 -1.7645  1.3899
 4246SOL     OW24373   4.136   4.325  16.402  0.1320  0.1478 -0.7362
 4246SOL    HW124374   4.222   4.359  16.379 -1.1629  3.4476 -0.7049
 4246SOL    HW224375   4.119   4.271  16.325  0.1437 -0.8019 -0.0753
 4247SOL     OW24376   0.157   2.906   7.054 -0.3204  0.1937 -0.7051
 4247SOL    HW124377   0.153   2.953   6.971 -0.0241  0.3795 -0.6155
 4247SOL    HW224378   0.066   2.910   7.084  0.1771 -0.3088  0.8760
 4248SOL     OW24379   1.206   0.694   4.736 -0.2443  0.2291  0.1006
 4248SOL    HW124380   1.160   0.717   4.817 -1.1528  0.1139 -0.3927
 4248SOL    HW224381   1.285   0.749   4.739 -1.1013  1.5547 -1.2445
 4249SOL     OW24382   4.423   3.885   3.039  0.1295  0.0153 -0.5086
 4249SOL    HW124383   4.516   3.899   3.023 -0.1574  1.1157 -1.2528
 4249SOL    HW224384   4.385   3.928   2.962  0.4521 -0.1662 -0.7680
 4250SOL     OW24385   3.098   4.450   0.930  0.3104  0.3151 -0.3898
 4250SOL    HW124386   3.062   4.468   1.017 -1.9602  1.1477 -1.4966
 4250SOL    HW224387   3.117   4.540   0.906  0.6929 -0.1179 -1.7290
 4251SOL     OW24388   2.206   0.705   3.533  0.6308  0.0323  0.1708
 4251SOL    HW124389   2.234   0.652   3.608 -0.4029  2.0734  2.0245
 4251SOL    HW224390   2.165   0.784   3.569  1.2619  0.6797 -0.5329
 4252SOL     OW24391   3.018   4.648   1.674 -0.3240  0.3393  0.1179
 4252SOL    HW124392   3.030   4.586   1.602  0.2717  0.5296  0.0569
 4252SOL    HW224393   3.104   4.689   1.673 -0.6508  0.9854 -0.6705
 4253SOL     OW24394   0.100   4.486   4.396  0.0918  0.3880 -0.0491
 4253SOL    HW124395   0.046   4.407   4.400  0.2809  0.2700  0.1304
 4253SOL    HW224396   0.045   4.542   4.341  2.6121  3.7967  0.8774
 4254SOL     OW24397   0.347   2.437  15.336 -0.0224 -0.1824  0.3776
 4254SOL    HW124398   0.291   2.433  15.258 -1.5428  1.2156  1.3851
 4254SOL    HW224399   0.339   2.351  15.378  0.3189 -0.2639  0.2740
 4255SOL     OW24400   1.100   4.369  11.981  0.3543 -0.2185  0.1330
 4255SOL    HW124401   1.194   4.389  11.981 -0.2176  2.4790 -0.1723
 4255SOL    HW224402   1.060   4.436  12.038 -0.2870 -0.7173  0.2685
 4256SOL     OW24403   2.183   3.186   7.426 -0.7657  0.0755 -0.1158
 4256SOL    HW124404   2.163   3.262   7.480  1.0310 -1.0585  2.1686
 4256SOL    HW224405   2.175   3.232   7.343 -1.0409 -1.7927 -1.1350
 4257SOL     OW24406   4.283   1.267   1.448 -0.0874  0.9467  0.4667
 4257SOL    HW124407   4.191   1.261   1.422 -0.1249  0.7361  0.6520
 4257SOL    HW224408   4.309   1.329   1.380 -1.4553 -0.4352 -1.3147
 4258SOL     OW24409   3.690   0.708   3.610  0.3360  0.1777 -0.6201
 4258SOL    HW124410   3.623   0.684   3.673  0.9210  0.5271  0.1365
 4258SOL    HW224411   3.637   0.744   3.539  0.0288 -0.1346 -0.5465
 4259SOL     OW24412   1.897   2.531   7.834 -0.5089 -0.0071  0.1135
 4259SOL    HW124413   1.910   2.577   7.752  0.5623 -3.2103 -1.4957
 4259SOL    HW224414   1.835   2.460   7.814  1.0487 -1.4638  0.4232
 4260SOL     OW24415   1.787   2.029   4.742  0.3295 -0.6599 -0.5027
 4260SOL    HW124416   1.761   1.939   4.722  3.2065 -1.3474 -1.0610
 4260SOL    HW224417   1.705   2.059   4.782  0.7073  0.2216 -0.3950
 4261SOL     OW24418   0.418   0.001   1.839 -0.6280 -0.1794  0.1730
 4261SOL    HW124419   0.461   0.030   1.919  1.6464 -1.0289 -0.7280
 4261SOL    HW224420   0.453   0.062   1.774  0.9567  0.7475  1.9049
 4262SOL     OW24421   4.536   2.399   4.124 -0.0913 -0.0928 -0.0262
 4262SOL    HW124422   4.596   2.394   4.198  0.2983  1.3757 -0.2494
 4262SOL    HW224423   4.593   2.357   4.059 -0.3873  0.8689 -0.9169
 4263SOL     OW24424   0.897   0.203  12.406 -0.2880  0.0644 -0.4827
 4263SOL    HW124425   0.843   0.276  12.377  1.8463  1.1114 -1.8533
 4263SOL    HW224426   0.972   0.247  12.446  1.5065 -2.5343 -0.9904
 4264SOL     OW24427   1.581   2.379  13.323 -0.3339  0.0750  0.1237
 4264SOL    HW124428   1.612   2.335  13.244  0.8490 -1.7504  1.5849
 4264SOL    HW224429   1.617   2.467  13.312 -1.0746  0.4767  0.9326
 4265SOL     OW24430   1.282   1.146  10.791 -0.0855  0.7355  0.0131
 4265SOL    HW124431   1.364   1.171  10.834 -0.7228  0.2144  1.5649
 4265SOL    HW224432   1.309   1.111  10.707 -0.6274  0.5472 -0.0822
 4266SOL     OW24433   4.294   3.074  14.688 -0.0678  0.7157 -0.2348
 4266SOL    HW124434   4.349   3.046  14.762  0.9049  0.4806 -1.0510
 4266SOL    HW224435   4.226   3.007  14.680 -1.1911  1.8062  0.3804
 4267SOL     OW24436   1.230   4.693  13.457  0.1832  0.0277 -0.6780
 4267SOL    HW124437   1.146   4.671  13.495  1.1247 -1.6375  0.4751
 4267SOL    HW224438   1.196   0.004  13.384  1.8579  0.8173 -0.9026
 4268SOL     OW24439   3.294   3.731   5.050 -0.0435 -0.1779 -0.2673
 4268SOL    HW124440   3.304   3.799   4.983 -1.1608  1.8361  1.6045
 4268SOL    HW224441   3.222   3.683   5.010 -0.8464 -0.0622  1.0123
 4269SOL     OW24442   2.137   0.202  12.722 -0.3458  0.4902  0.0391
 4269SOL    HW124443   2.122   0.165  12.809  0.4511  1.3936  0.5505
 4269SOL    HW224444   2.228   0.183  12.699  0.2181  0.6441  2.1518
 4270SOL     OW24445   4.398   3.925   2.213 -0.4449 -0.1486  0.9735
 4270SOL    HW124446   4.452   3.999   2.187  1.7040 -1.3223  2.0885
 4270SOL    HW224447   4.462   3.855   2.225  1.5159  1.9089  2.4639
 4271SOL     OW24448   3.493   1.841   5.559  0.2797  0.7282 -0.0126
 4271SOL    HW124449   3.574   1.797   5.584 -0.7896 -1.1812  0.0955
 4271SOL    HW224450   3.467   1.870   5.647  1.1194 -0.2254  0.5419
 4272SOL     OW24451   1.331   0.755  17.315 -0.1198  0.4380  0.6537
 4272SOL    HW124452   1.299   0.811  17.244 -0.9052 -1.7583 -0.7512
 4272SOL    HW224453   1.422   0.776  17.292 -0.0770  0.2085  0.6085
 4273SOL     OW24454   1.013   2.678  16.957  0.3966  0.2836  0.0812
 4273SOL    HW124455   0.972   2.735  17.022 -0.3275 -1.0502  0.7906
 4273SOL    HW224456   1.064   2.627  17.020  0.2086  1.3918  1.1367
 4274SOL     OW24457   2.153   0.518   8.303 -0.1170 -0.1722 -0.5256
 4274SOL    HW124458   2.135   0.476   8.218  1.6671 -0.5838 -0.7079
 4274SOL    HW224459   2.235   0.560   8.277  0.8884 -0.9954  1.3669
 4275SOL     OW24460   1.865   3.499   8.248  0.5823  0.0048  0.7872
 4275SOL    HW124461   1.798   3.431   8.259 -0.8667  1.2096 -0.6102
 4275SOL    HW224462   1.896   3.508   8.338  0.1429 -0.7066  1.0142
 4276SOL     OW24463   3.068   2.868   0.560 -0.0679  0.5415 -0.0567
 4276SOL    HW124464   3.130   2.811   0.605  0.4709  1.8176  0.8233
 4276SOL    HW224465   3.132   2.883   0.491  1.6470 -1.0387  1.2197
 4277SOL     OW24466   1.491   3.549   8.987 -0.7458 -0.3850 -0.8612
 4277SOL    HW124467   1.498   3.529   8.894 -0.0828  0.4428 -0.9941
 4277SOL    HW224468   1.507   3.462   9.024 -1.9934 -0.1279  0.2548
 4278SOL     OW24469   0.016   3.480   8.709  0.5876  0.0248 -0.3412
 4278SOL    HW124470   4.738   3.387   8.707 -1.4158  0.4414 -0.7317
 4278SOL    HW224471   0.107   3.480   8.680  0.3364  0.0495 -1.1489
 4279SOL     OW24472   3.078   1.919   3.640  0.7782 -0.1619  0.4433
 4279SOL    HW124473   3.083   1.959   3.727 -1.0276 -0.1171  0.5360
 4279SOL    HW224474   3.142   1.849   3.642 -0.1267 -0.9803  0.5350
 4280SOL     OW24475   4.467   0.971   0.946  0.2220  0.3564  0.4450
 4280SOL    HW124476   4.420   1.047   0.979 -1.6518  0.5192 -2.6452
 4280SOL    HW224477   4.533   0.962   1.015  0.7653 -1.5802 -0.3253
 4281SOL     OW24478   0.626   1.785   2.843 -0.0708  0.2329 -0.0647
 4281SOL    HW124479   0.684   1.781   2.767 -1.1593 -3.3011 -0.7364
 4281SOL    HW224480   0.592   1.874   2.832 -0.5874  0.0925  0.3361
 4282SOL     OW24481   1.729   1.552   2.614  0.6762 -0.5638  0.0858
 4282SOL    HW124482   1.698   1.642   2.624 -1.5847 -1.3261 -0.0837
 4282SOL    HW224483   1.668   1.503   2.670  1.1757 -0.5213  0.6637
 4283SOL     OW24484   0.104   3.852   4.880  0.5874 -0.7196  0.1433
 4283SOL    HW124485   0.047   3.776   4.894 -1.8583  0.8001 -1.5937
 4283SOL    HW224486   0.052   3.905   4.820  0.9127 -0.5134  0.0474
 4284SOL     OW24487   0.316   2.013   3.304  0.0363 -0.6743 -0.3510
 4284SOL    HW124488   0.384   2.072   3.335 -1.1972 -1.0735  3.1539
 4284SOL    HW224489   0.339   2.005   3.211  1.0948  2.2484 -0.3399
 4285SOL     OW24490   2.756   2.449   6.837 -0.1944 -0.5764 -0.3471
 4285SOL    HW124491   2.684   2.431   6.776  0.4471 -1.2496 -0.9021
 4285SOL    HW224492   2.748   2.373   6.895 -1.7346  0.1481  0.3870
 4286SOL     OW24493   3.907   1.382   9.761  0.0337  0.5898 -0.1148
 4286SOL    HW124494   3.853   1.313   9.800  0.0959 -0.5607 -2.0744
 4286SOL    HW224495   3.982   1.334   9.727 -0.3664  0.1361 -0.3482
 4287SOL     OW24496   1.139   3.474   7.236 -0.2123 -0.3847  0.3292
 4287SOL    HW124497   1.212   3.464   7.174 -1.6463 -0.8811 -1.2570
 4287SOL    HW224498   1.194   3.467   7.314 -0.3978  0.8545  0.5558
 4288SOL     OW24499   1.975   4.405   2.471 -0.0598  0.1815  0.4395
 4288SOL    HW124500   1.933   4.351   2.538  1.2648  0.4694  1.4944
 4288SOL    HW224501   2.024   4.333   2.432 -0.5315  0.0899  0.0096
 4289SOL     OW24502   2.161   2.479   8.334  0.1348 -0.1149 -0.3228
 4289SOL    HW124503   2.239   2.434   8.367 -0.6964 -0.5083  1.0770
 4289SOL    HW224504   2.199   2.561   8.302  0.3214  0.1960  0.7002
 4290SOL     OW24505   2.831   2.943   4.403 -0.1937  0.1075 -0.0252
 4290SOL    HW124506   2.891   2.875   4.375 -0.5760  0.2743 -1.2460
 4290SOL    HW224507   2.780   2.940   4.322 -0.3990 -1.3844  0.1461
 4291SOL     OW24508   2.351   0.459  11.359  0.3286  0.3210 -0.7296
 4291SOL    HW124509   2.349   0.369  11.326  3.0057 -0.1402  0.3218
 4291SOL    HW224510   2.441   0.486  11.339 -0.2054  0.5505 -2.7352
 4292SOL     OW24511   1.644   2.959  14.277 -0.2979  0.1944 -0.3025
 4292SOL    HW124512   1.649   3.054  14.289 -0.0618  0.2438 -0.8053
 4292SOL    HW224513   1.562   2.946  14.325  0.5326  0.6880  1.2552
 4293SOL     OW24514   1.907   0.624   3.464 -0.3753  0.4266 -0.3682
 4293SOL    HW124515   1.995   0.620   3.428 -0.3769  0.6893 -0.3988
 4293SOL    HW224516   1.917   0.537   3.502 -1.5003  0.3592 -0.2334
 4294SOL     OW24517   3.814   0.598   8.776 -0.0134 -0.0505  0.1622
 4294SOL    HW124518   3.876   0.525   8.786 -2.8510 -2.6246 -1.2768
 4294SOL    HW224519   3.841   0.663   8.841 -2.9151  0.4065  0.8777
 4295SOL     OW24520   2.523   2.462  15.204  0.0439  0.1759 -0.1280
 4295SOL    HW124521   2.447   2.509  15.238  1.2881  1.0112  1.5099
 4295SOL    HW224522   2.571   2.454  15.286  0.6530 -1.4816 -0.6366
 4296SOL     OW24523   1.876   0.715   6.097 -0.3418 -0.2822 -0.4730
 4296SOL    HW124524   1.835   0.659   6.031  0.2278 -0.0195 -1.0492
 4296SOL    HW224525   1.860   0.650   6.165  2.8955 -0.8490 -0.2228
 4297SOL     OW24526   1.412   1.834   5.001 -0.9209  0.0748 -0.3229
 4297SOL    HW124527   1.411   1.878   5.086  1.7683 -0.7402  0.1493
 4297SOL    HW224528   1.426   1.741   5.018 -0.9230  0.0408 -0.5031
 4298SOL     OW24529   4.083   2.030   1.420 -0.2837  0.0118  0.3888
 4298SOL    HW124530   4.147   1.971   1.459  0.7961  0.9514  0.0268
 4298SOL    HW224531   4.059   2.087   1.493  1.4278  0.4061  0.6317
 4299SOL     OW24532   1.307   2.933   3.739 -0.6151 -0.2454 -0.4033
 4299SOL    HW124533   1.305   3.029   3.742 -1.1412 -0.3187  1.6603
 4299SOL    HW224534   1.213   2.925   3.756  0.0727 -3.8918  1.6821
 4300SOL     OW24535   4.584   3.160   6.712 -0.0515  0.2771 -0.1189
 4300SOL    HW124536   4.620   3.077   6.683 -1.8368 -0.7114  0.4959
 4300SOL    HW224537   4.513   3.175   6.649  0.6153  1.6470 -0.5485
 4301SOL     OW24538   3.417   3.667  16.715 -0.2981  0.7102  0.2841
 4301SOL    HW124539   3.348   3.604  16.693  0.4901  0.6803 -2.0886
 4301SOL    HW224540   3.378   3.712  16.790 -0.7152 -2.8946  2.2372
 4302SOL     OW24541   2.333   4.348   2.463 -0.2500  0.0368  0.6050
 4302SOL    HW124542   2.405   4.362   2.525  0.6152 -0.3418 -0.2958
 4302SOL    HW224543   2.351   4.266   2.416  1.2360  1.4604 -1.2831
 4303SOL     OW24544   1.258   2.366   4.977 -0.3597  0.3706 -0.0651
 4303SOL    HW124545   1.262   2.272   4.994 -1.0491  0.2708 -0.4685
 4303SOL    HW224546   1.347   2.398   4.990 -0.0692 -0.5386  0.1932
 4304SOL     OW24547   4.093   3.601  16.136 -0.2968 -0.4172 -0.0860
 4304SOL    HW124548   4.154   3.675  16.143 -2.5871  1.2157  2.2265
 4304SOL    HW224549   4.006   3.637  16.150  0.1464  0.5236  0.3084
 4305SOL     OW24550   4.130   1.083   6.767 -0.2757  0.9329  0.1147
 4305SOL    HW124551   4.092   1.165   6.735 -1.3291  0.5869  0.4715
 4305SOL    HW224552   4.158   1.042   6.686  0.7307  1.8555  0.0012
 4306SOL     OW24553   2.602   2.576   9.270  0.4030 -0.6967  0.2801
 4306SOL    HW124554   2.551   2.576   9.189 -0.2586  0.5962  0.6991
 4306SOL    HW224555   2.550   2.517   9.324 -1.0731  0.3046 -0.0554
 4307SOL     OW24556   4.387   3.434   8.037  0.1515 -0.0612  0.0931
 4307SOL    HW124557   4.478   3.465   8.031  0.2042 -0.1421  0.4925
 4307SOL    HW224558   4.341   3.469   7.960  2.7781 -2.1203 -2.4076
 4308SOL     OW24559   4.427   3.232   1.289 -0.9558  0.4759  0.3055
 4308SOL    HW124560   4.478   3.178   1.228 -0.7719  2.2750 -1.1595
 4308SOL    HW224561   4.488   3.244   1.362 -0.6456  0.0486  0.1191
 4309SOL     OW24562   4.631   2.018  11.445 -0.7018  0.1464 -0.0733
 4309SOL    HW124563   4.570   2.083  11.412 -2.6639 -0.1312  3.0229
 4309SOL    HW224564   4.653   1.974  11.362 -1.4723 -0.9099  0.2934
 4310SOL     OW24565   4.314   4.738  10.429 -0.0267  0.1756 -0.5176
 4310SOL    HW124566   4.256   4.699  10.493  0.1460  1.0106  0.1420
 4310SOL    HW224567   4.256   0.070  10.405  1.5665  2.5033  2.8118
 4311SOL     OW24568   1.651   3.743   9.094  0.5293  0.0472  0.4344
 4311SOL    HW124569   1.598   3.663   9.091 -0.0196  0.3986  0.5843
 4311SOL    HW224570   1.638   3.758   9.001  3.0403 -1.1539 -0.0914
 4312SOL     OW24571   2.047   2.149   8.320 -0.1301  0.2334 -0.1562
 4312SOL    HW124572   2.032   2.226   8.374  0.5922  1.0040 -1.0426
 4312SOL    HW224573   2.142   2.145   8.303 -0.3087 -2.8831 -0.3432
 4313SOL     OW24574   3.271   4.351   2.172  0.5983  0.3652  0.5635
 4313SOL    HW124575   3.263   4.272   2.118  1.0471  0.9633 -0.3692
 4313SOL    HW224576   3.261   4.316   2.261  0.0219  0.0286  0.3676
 4314SOL     OW24577   2.762   2.236  13.562  0.2032  0.5821  0.4500
 4314SOL    HW124578   2.802   2.179  13.498 -0.4462  0.1766  0.4123
 4314SOL    HW224579   2.769   2.181  13.640 -2.2503  0.8742  0.8707
 4315SOL     OW24580   2.011   0.759  12.856  0.1910 -0.2478 -0.5860
 4315SOL    HW124581   2.016   0.667  12.828 -0.8228 -0.8497  1.2489
 4315SOL    HW224582   2.104   0.783  12.849 -0.0818  1.0317  0.1565
 4316SOL     OW24583   2.277   4.583   7.753 -0.0066  0.2258  0.2195
 4316SOL    HW124584   2.334   4.580   7.676 -0.9644  2.0738 -0.5621
 4316SOL    HW224585   2.239   4.495   7.748 -1.3246  0.7824  0.2298
 4317SOL     OW24586   4.230   4.568   4.887  0.5374  0.2848 -0.5261
 4317SOL    HW124587   4.216   4.596   4.796 -1.1850 -0.0854 -0.3873
 4317SOL    HW224588   4.204   4.643   4.942  1.3282  1.1470 -1.3301
 4318SOL     OW24589   2.772   2.993   9.631  0.5125  0.2252  0.3615
 4318SOL    HW124590   2.771   3.031   9.718 -1.4948 -2.4343  1.4909
 4318SOL    HW224591   2.846   3.024   9.579 -2.0899  3.9302 -1.0917
 4319SOL     OW24592   4.031   1.515   6.796 -0.1069 -0.6156 -0.1422
 4319SOL    HW124593   4.006   1.465   6.873  1.9420 -2.6369 -0.7843
 4319SOL    HW224594   3.945   1.538   6.762 -0.1642  0.8850  1.0218
 4320SOL     OW24595   3.458   2.912   7.601 -0.0304 -0.1888  0.3258
 4320SOL    HW124596   3.456   2.846   7.670  1.3653 -0.5339  0.0376
 4320SOL    HW224597   3.550   2.935   7.613 -0.6387  1.9474  0.8530
 4321SOL     OW24598   0.486   3.039   4.714  0.1855 -0.3885 -0.1243
 4321SOL    HW124599   0.513   3.119   4.759 -0.5165 -0.1822 -0.0758
 4321SOL    HW224600   0.536   2.978   4.767 -0.0800  1.2527  2.0127
 4322SOL     OW24601   4.621   4.047   8.057 -0.1130 -0.6156 -0.0657
 4322SOL    HW124602   4.707   4.006   8.052  0.8288  1.3611 -0.2230
 4322SOL    HW224603   4.605   4.069   7.965 -1.4163  0.1807  0.3531
 4323SOL     OW24604   3.312   3.187   7.303  0.1908  0.3179 -0.1309
 4323SOL    HW124605   3.313   3.197   7.208 -0.2279  2.8275  0.1118
 4323SOL    HW224606   3.339   3.096   7.312  0.3972  0.1961 -1.9869
 4324SOL     OW24607   1.566   4.153   9.015  0.1214 -0.4804  0.1050
 4324SOL    HW124608   1.651   4.190   8.993  0.0885 -2.0912 -2.7312
 4324SOL    HW224609   1.522   4.234   9.042 -1.6077 -0.8984 -1.4706
 4325SOL     OW24610   3.740   4.316   7.175 -0.6663  0.1122  0.0301
 4325SOL    HW124611   3.666   4.280   7.126  0.6044  0.6675 -2.2691
 4325SOL    HW224612   3.804   4.312   7.105  0.1660  2.3194  0.6622
 4326SOL     OW24613   2.007   4.201   7.064  0.4019  0.5211  0.4223
 4326SOL    HW124614   2.008   4.163   7.152 -1.2699  0.3994  0.3948
 4326SOL    HW224615   1.935   4.263   7.070  1.4195  1.7006  0.2779
 4327SOL     OW24616   0.185   0.568   7.432  0.2993 -0.6060 -0.4294
 4327SOL    HW124617   0.148   0.588   7.519 -0.7427 -2.5261 -0.4505
 4327SOL    HW224618   0.116   0.609   7.380  2.2630  3.3349  0.0754
 4328SOL     OW24619   4.072   0.683   4.161 -0.0691  0.0926 -0.1025
 4328SOL    HW124620   4.126   0.758   4.186 -1.4393  1.5140 -1.4359
 4328SOL    HW224621   3.987   0.727   4.155 -0.1057 -0.2803 -2.3678
 4329SOL     OW24622   2.426   2.111  16.320  0.5645 -0.1638 -0.0205
 4329SOL    HW124623   2.422   2.018  16.341 -1.2140  0.0142  0.3920
 4329SOL    HW224624   2.520   2.130  16.319  0.1945  1.7048  0.4977
 4330SOL     OW24625   3.216   1.384   1.236  0.1010  0.2270 -0.4209
 4330SOL    HW124626   3.260   1.305   1.266 -0.3060  0.8614  1.8473
 4330SOL    HW224627   3.129   1.345   1.246  0.9488 -0.9743  2.3423
 4331SOL     OW24628   1.305   3.770  13.435  0.0145  0.5114 -0.2608
 4331SOL    HW124629   1.308   3.675  13.448 -0.6453  0.6547  0.9889
 4331SOL    HW224630   1.321   3.793  13.526 -0.5808  3.0287 -0.8008
 4332SOL     OW24631   1.089   2.411  11.677  0.4627  0.0366  0.1168
 4332SOL    HW124632   1.007   2.373  11.644  1.0510 -1.9216  0.9113
 4332SOL    HW224633   1.059   2.474  11.743 -0.2954 -2.2341  1.9416
 4333SOL     OW24634   3.820   0.522   1.405 -0.1681 -0.4194  0.6075
 4333SOL    HW124635   3.738   0.565   1.431  0.1361  1.3301 -1.3146
 4333SOL    HW224636   3.883   0.540   1.474  2.4602 -1.5062 -1.4780
 4334SOL     OW24637   3.743   3.690   3.068  0.0713  0.2845 -0.3851
 4334SOL    HW124638   3.785   3.751   3.007 -3.0794  1.4871 -1.3226
 4334SOL    HW224639   3.814   3.663   3.126  0.5886  2.6109  0.0589
 4335SOL     OW24640   1.693   1.633  16.175 -0.3767  0.4342  0.4805
 4335SOL    HW124641   1.614   1.663  16.221 -1.7865 -0.7804 -1.1586
 4335SOL    HW224642   1.657   1.575  16.109 -2.6612  3.4976 -0.9659
 4336SOL     OW24643   2.827   3.073  11.699 -0.2300  0.0082 -0.2324
 4336SOL    HW124644   2.858   2.982  11.694  1.4644  0.5695  0.1062
 4336SOL    HW224645   2.823   3.075  11.794 -1.2773 -1.4249 -0.2508
 4337SOL     OW24646   1.700   3.064   5.305 -0.2939 -0.1387  0.5111
 4337SOL    HW124647   1.764   3.116   5.256  0.4900 -0.2335  1.4274
 4337SOL    HW224648   1.709   2.979   5.261  0.2931  0.1380  0.1021
 4338SOL     OW24649   0.230   1.519   5.181  0.0502 -0.2347  0.0448
 4338SOL    HW124650   0.171   1.452   5.147 -0.3280 -0.3760  0.9820
 4338SOL    HW224651   0.205   1.592   5.125 -0.6716 -0.5057  0.0164
 4339SOL     OW24652   1.434   3.312   5.587  0.0560  0.6948 -0.1567
 4339SOL    HW124653   1.456   3.299   5.679  1.8530 -0.9067 -0.8107
 4339SOL    HW224654   1.524   3.302   5.554  0.3930 -0.6663  1.2272
 4340SOL     OW24655   4.194   4.459   0.414  0.2349  0.2751  0.0860
 4340SOL    HW124656   4.187   4.498   0.502  0.3887 -0.4614  0.4216
 4340SOL    HW224657   4.145   4.524   0.364  1.5499  0.2997 -1.1491
 4341SOL     OW24658   2.835   2.653   2.559 -0.9304  0.2447 -0.2634
 4341SOL    HW124659   2.847   2.561   2.582  0.0936  0.1137 -1.3374
 4341SOL    HW224660   2.879   2.697   2.632  0.9739 -0.0704 -1.2234
 4342SOL     OW24661   1.658   3.215  14.322 -0.1858 -0.5673  0.4412
 4342SOL    HW124662   1.740   3.227  14.369  1.2844  0.2924 -2.2981
 4342SOL    HW224663   1.595   3.240  14.390  0.7024  2.9885 -0.0146
 4343SOL     OW24664   3.871   0.186   6.430  0.5091 -0.0158 -0.1522
 4343SOL    HW124665   3.909   0.132   6.498 -2.7958 -1.9089  0.1914
 4343SOL    HW224666   3.937   0.209   6.365  0.4671 -1.6539 -0.7695
 4344SOL     OW24667   1.988   0.795   5.338  0.1529  0.3211 -0.0010
 4344SOL    HW124668   1.946   0.718   5.377 -1.2992  0.8631 -0.4716
 4344SOL    HW224669   1.951   0.790   5.249 -0.5321 -1.2355  0.3672
 4345SOL     OW24670   2.640   0.368   6.232  0.2840 -0.6352 -0.1472
 4345SOL    HW124671   2.579   0.314   6.182 -0.8271 -0.3489  0.8902
 4345SOL    HW224672   2.582   0.438   6.261 -0.8262 -1.1075 -1.2403
 4346SOL     OW24673   1.034   2.643   9.434 -0.2556  0.6543  0.3140
 4346SOL    HW124674   0.942   2.624   9.413 -0.1897 -1.3953  1.9645
 4346SOL    HW224675   1.032   2.738   9.444 -0.3140  0.5982  0.8008
 4347SOL     OW24676   0.633   1.745   5.566  0.2216  0.3073  0.3705
 4347SOL    HW124677   0.697   1.796   5.516 -2.0205  0.7618 -2.0493
 4347SOL    HW224678   0.544   1.782   5.558  0.6799  0.8695 -2.4138
 4348SOL     OW24679   3.693   2.830   1.637 -0.3269  0.2041 -0.1957
 4348SOL    HW124680   3.693   2.748   1.686 -0.3357 -0.7775 -1.8495
 4348SOL    HW224681   3.733   2.895   1.695  0.0873  0.6571 -0.9879
 4349SOL     OW24682   3.179   3.358   6.026  0.6822 -0.0735  0.4616
 4349SOL    HW124683   3.198   3.341   6.118 -0.1232 -2.3296  0.2112
 4349SOL    HW224684   3.086   3.377   6.036  0.8200 -0.6538  2.9107
 4350SOL     OW24685   1.676   3.268   7.380 -0.0786  0.1998  0.2193
 4350SOL    HW124686   1.670   3.259   7.475  0.4703 -3.3686 -0.0688
 4350SOL    HW224687   1.665   3.362   7.366  0.6432 -0.0595 -2.0132
 4351SOL     OW24688   1.161   1.166   3.838 -1.1230 -0.0172  0.5442
 4351SOL    HW124689   1.140   1.259   3.841 -0.6420  0.1945 -2.7614
 4351SOL    HW224690   1.091   1.140   3.778 -0.9983 -0.5795  0.6470
 4352SOL     OW24691   3.967   2.628   4.446  0.2295 -0.2390 -0.4937
 4352SOL    HW124692   4.046   2.656   4.399  0.3143  1.6091  0.7581
 4352SOL    HW224693   3.910   2.642   4.370 -0.3659 -0.2569 -0.0428
 4353SOL     OW24694   3.994   3.877   8.087  0.0668 -0.5954  0.9157
 4353SOL    HW124695   3.978   3.830   8.169 -0.1447 -2.7261 -0.3494
 4353SOL    HW224696   3.921   3.842   8.036 -1.2578 -0.5184  2.7479
 4354SOL     OW24697   2.512   1.432   8.457 -0.1772 -0.4682  0.2954
 4354SOL    HW124698   2.527   1.513   8.408  1.2748 -1.7062 -1.3076
 4354SOL    HW224699   2.444   1.379   8.414 -0.0526  0.3186 -0.8573
 4355SOL     OW24700   0.100   0.625  12.958 -0.3268 -0.0341 -0.0530
 4355SOL    HW124701   0.086   0.539  12.918  0.9908  0.7731 -2.2342
 4355SOL    HW224702   0.012   0.662  12.960  0.1549  1.1687 -0.7907
 4356SOL     OW24703   4.442   2.716   2.467 -0.1459 -0.1761 -0.3463
 4356SOL    HW124704   4.402   2.630   2.456  2.8084 -1.8352  1.6542
 4356SOL    HW224705   4.528   2.702   2.427 -0.1678 -3.4849  0.7976
 4357SOL     OW24706   4.126   4.363   5.079  0.4850 -0.2352 -0.2121
 4357SOL    HW124707   4.042   4.329   5.111 -0.0747  2.7447  1.4617
 4357SOL    HW224708   4.113   4.455   5.058 -0.7618 -0.2324  0.5844
 4358SOL     OW24709   1.282   1.605   7.333  0.1983  0.0940 -0.5259
 4358SOL    HW124710   1.257   1.575   7.245  2.8910  2.6475 -2.1717
 4358SOL    HW224711   1.241   1.542   7.392 -0.4068 -2.2863 -3.4915
 4359SOL     OW24712   1.122   0.480  10.326 -0.2358  0.5598 -0.0755
 4359SOL    HW124713   1.045   0.518  10.369  0.0040 -0.3334  1.1486
 4359SOL    HW224714   1.193   0.503  10.385 -0.3814  2.2762 -0.5469
 4360SOL     OW24715   4.280   1.457   5.435  0.6029  0.1682 -0.4816
 4360SOL    HW124716   4.186   1.457   5.419  0.4564 -0.1715  0.4023
 4360SOL    HW224717   4.288   1.364   5.454  1.0908  0.4505  0.6578
 4361SOL     OW24718   3.338   4.266   3.141 -0.5338  0.0430  0.4012
 4361SOL    HW124719   3.365   4.337   3.083  1.2280 -0.3269  0.7751
 4361SOL    HW224720   3.314   4.200   3.076 -0.6605  0.1241  0.3660
 4362SOL     OW24721   2.579   2.543  13.094  0.3764 -0.5076  0.3008
 4362SOL    HW124722   2.643   2.581  13.034  2.3162 -0.3871  2.4267
 4362SOL    HW224723   2.634   2.545  13.172  1.1606 -1.6550 -0.2236
 4363SOL     OW24724   3.286   0.169   1.803 -0.0332 -0.0526 -0.2028
 4363SOL    HW124725   3.211   0.139   1.854  1.3818 -0.4655  1.6343
 4363SOL    HW224726   3.302   0.087   1.756 -3.2480  0.2520 -1.7787
 4364SOL     OW24727   3.251   2.098   4.092 -0.3903 -0.7516  0.0284
 4364SOL    HW124728   3.304   2.176   4.080 -1.8006  0.1567 -0.2706
 4364SOL    HW224729   3.287   2.059   4.172  1.5861  2.2438  0.5747
 4365SOL     OW24730   3.421   1.928   8.180  0.2315 -0.0905  0.3752
 4365SOL    HW124731   3.439   1.969   8.095  0.1892  1.8583  1.3231
 4365SOL    HW224732   3.412   2.011   8.225  0.9486 -0.7111  1.6644
 4366SOL     OW24733   0.330   2.308   8.420  0.8478 -0.0811 -0.6905
 4366SOL    HW124734   0.246   2.286   8.460 -0.1103  2.3386 -1.3944
 4366SOL    HW224735   0.383   2.249   8.474  0.4545 -0.5267 -0.7945
 4367SOL     OW24736   0.230   3.180   5.386  0.2291 -0.4077  0.0534
 4367SOL    HW124737   0.312   3.199   5.430  0.2236 -2.5427  0.9989
 4367SOL    HW224738   0.176   3.178   5.465 -1.7939  0.0480 -1.3137
 4368SOL     OW24739   3.763   2.282   7.651 -0.1714  0.4648  0.0537
 4368SOL    HW124740   3.680   2.235   7.663  0.9063 -1.3133  0.4663
 4368SOL    HW224741   3.766   2.313   7.561  4.4506 -0.5456 -0.0951
 4369SOL     OW24742   1.928   4.614   2.037  0.2272  0.6299  0.1975
 4369SOL    HW124743   1.999   4.678   2.028 -0.7869  1.6604 -0.5537
 4369SOL    HW224744   1.933   4.603   2.132  2.8432  0.9583  0.1021
 4370SOL     OW24745   3.853   1.264   3.279  0.3609  0.1692 -0.3868
 4370SOL    HW124746   3.882   1.255   3.370  0.7016  3.0906 -0.2060
 4370SOL    HW224747   3.932   1.256   3.226 -0.9889  0.1897 -2.3941
 4371SOL     OW24748   1.918   0.783   5.079  0.5102  0.5117  0.1954
 4371SOL    HW124749   1.931   0.697   5.040  1.0863 -0.7345  3.0893
 4371SOL    HW224750   1.836   0.808   5.036  0.6640 -1.1871 -1.0547
 4372SOL     OW24751   2.135   2.250  11.695  0.9894 -0.4044  0.0576
 4372SOL    HW124752   2.107   2.186  11.761 -1.3406  1.4206  0.8286
 4372SOL    HW224753   2.189   2.305  11.752 -2.2729  0.6867  2.0874
 4373SOL     OW24754   4.648   0.423   6.555 -0.1612  0.3431  0.3416
 4373SOL    HW124755   4.654   0.456   6.465 -2.2648  0.6372  0.3139
 4373SOL    HW224756   4.740   0.431   6.582  0.1654 -2.1673 -0.0459
 4374SOL     OW24757   2.282   3.415   3.362  0.1001 -0.4605 -0.0198
 4374SOL    HW124758   2.273   3.472   3.439 -0.1647 -3.4928  2.1893
 4374SOL    HW224759   2.346   3.354   3.396  0.5158 -0.5716 -0.9990
 4375SOL     OW24760   3.121   1.764   4.043 -0.5910 -0.0519  0.4050
 4375SOL    HW124761   3.143   1.708   3.968  0.0763  0.0027  0.5612
 4375SOL    HW224762   3.183   1.728   4.106  0.1521 -0.8486 -0.7900
 4376SOL     OW24763   2.190   1.602   2.426 -0.7609  0.3228  0.2755
 4376SOL    HW124764   2.162   1.556   2.505 -2.6657  0.6385 -0.2330
 4376SOL    HW224765   2.150   1.688   2.440  1.6182  1.5436 -0.3654
 4377SOL     OW24766   2.915   3.558   9.525  0.8165 -0.4276 -0.0687
 4377SOL    HW124767   2.946   3.648   9.530 -0.4603 -0.0303  0.8439
 4377SOL    HW224768   2.987   3.516   9.573  0.7786 -2.5503 -1.8660
 4378SOL     OW24769   3.788   2.637   7.309 -0.4277 -0.5279 -0.1198
 4378SOL    HW124770   3.710   2.618   7.257 -1.3853 -1.8608  1.8248
 4378SOL    HW224771   3.844   2.675   7.241 -1.9881  3.0828  0.5706
 4379SOL     OW24772   3.449   0.001   2.290 -0.4740 -0.7728  0.1535
 4379SOL    HW124773   3.446   4.654   2.253 -0.3547  0.1345 -2.0014
 4379SOL    HW224774   3.364   0.008   2.333 -1.9581 -1.3373 -2.7475
 4380SOL     OW24775   2.098   3.491  15.332 -0.0088 -0.5280  0.6334
 4380SOL    HW124776   2.178   3.490  15.279  1.3330  0.1682  2.6354
 4380SOL    HW224777   2.042   3.560  15.295  0.5431 -0.2373  0.3391
 4381SOL     OW24778   0.342   0.506  11.800  0.0328  0.2509  0.0066
 4381SOL    HW124779   0.307   0.559  11.728 -0.6471  1.7348  1.4275
 4381SOL    HW224780   0.436   0.507  11.783  0.4043 -1.5854  2.0674
 4382SOL     OW24781   0.467   3.711   5.121 -0.2328 -0.1225  0.6382
 4382SOL    HW124782   0.474   3.626   5.166 -0.7477 -0.5412 -0.0779
 4382SOL    HW224783   0.397   3.685   5.062  0.4669 -1.0407  0.2063
 4383SOL     OW24784   3.924   0.675   3.306  0.1048 -0.2979  0.2128
 4383SOL    HW124785   3.914   0.629   3.389 -2.7595 -0.7990 -0.4029
 4383SOL    HW224786   3.947   0.762   3.338 -0.2590 -0.2425  0.3342
 4384SOL     OW24787   0.474   0.346   2.316 -0.3073  0.1365 -0.2873
 4384SOL    HW124788   0.410   0.399   2.364  0.5666  1.5144 -0.6278
 4384SOL    HW224789   0.446   0.264   2.357 -1.3491  0.6389 -0.0022
 4385SOL     OW24790   1.648   3.759   3.935 -0.5200 -0.2151 -0.0458
 4385SOL    HW124791   1.556   3.780   3.916 -0.8443 -0.9885  0.6602
 4385SOL    HW224792   1.644   3.670   3.899 -1.7645 -0.9438  1.8845
 4386SOL     OW24793   2.967   4.028   1.553 -0.3364  0.0229  0.0706
 4386SOL    HW124794   2.950   4.114   1.591 -2.2100  0.1257 -0.9901
 4386SOL    HW224795   3.024   4.062   1.483  0.7548 -0.8103  0.5511
 4387SOL     OW24796   2.453   4.032   1.700 -0.3068  0.5225  0.5464
 4387SOL    HW124797   2.504   4.111   1.717  0.9359  0.1150 -1.3217
 4387SOL    HW224798   2.422   4.019   1.790  0.4658 -2.1846  0.4327
 4388SOL     OW24799   2.108   2.828   4.340 -0.2135 -0.2929  0.1926
 4388SOL    HW124800   2.148   2.862   4.420  2.3249  1.9164 -2.0385
 4388SOL    HW224801   2.030   2.884   4.336  0.5372  0.8427  1.2966
 4389SOL     OW24802   2.162   4.246   8.415  0.1582  0.6742  0.0971
 4389SOL    HW124803   2.227   4.258   8.347  0.0418 -0.9316 -0.3152
 4389SOL    HW224804   2.220   4.229   8.490 -0.3864 -0.1613  0.3303
 4390SOL     OW24805   3.997   4.430   1.832 -0.5389 -0.6413  0.0551
 4390SOL    HW124806   4.052   4.370   1.882 -1.0462 -0.9842  0.1972
 4390SOL    HW224807   4.039   4.414   1.747  0.0493  2.0544 -0.1758
 4391SOL     OW24808   0.957   0.651   4.577  0.3441  0.1216 -0.0392
 4391SOL    HW124809   0.992   0.702   4.650  1.2468 -2.6920  1.4981
 4391SOL    HW224810   1.033   0.594   4.564  1.2904  0.9978  1.6843
 4392SOL     OW24811   3.605   4.147   6.987 -0.2041 -0.0129 -0.4789
 4392SOL    HW124812   3.657   4.160   6.908 -0.2867 -1.2964 -0.7335
 4392SOL    HW224813   3.642   4.064   7.015  3.9143  2.9720  3.0174
 4393SOL     OW24814   3.719   2.098  15.092  0.2160  0.0924  0.4040
 4393SOL    HW124815   3.807   2.061  15.101  0.2284 -0.4638 -1.9147
 4393SOL    HW224816   3.653   2.038  15.124 -0.0938 -0.1546 -0.6914
 4394SOL     OW24817   2.565   3.050  17.498  0.4566 -0.6855 -0.4332
 4394SOL    HW124818   2.630   3.019  17.435  0.7674  0.8626 -0.8984
 4394SOL    HW224819   2.501   2.982  17.479 -1.4468  0.0942  3.2095
 4395SOL     OW24820   1.856   2.185   6.049 -0.2496  0.0342  0.2592
 4395SOL    HW124821   1.826   2.164   5.961 -0.0308  2.9340 -0.5243
 4395SOL    HW224822   1.912   2.111   6.072 -0.3462  0.6351  2.4911
 4396SOL     OW24823   4.506   3.975   5.297  0.2942 -0.1070  0.0287
 4396SOL    HW124824   4.555   4.056   5.280  0.0283  0.3003  1.1937
 4396SOL    HW224825   4.552   3.930   5.368 -1.1973 -0.3164  0.8541
 4397SOL     OW24826   0.383   3.352  17.254 -0.2773  0.4366 -0.0888
 4397SOL    HW124827   0.470   3.362  17.217  0.0037 -0.3634  0.3458
 4397SOL    HW224828   0.367   3.437  17.296  2.5421  1.6026 -1.3671
 4398SOL     OW24829   1.028   3.303   9.259  0.0317  0.5772  0.2595
 4398SOL    HW124830   1.098   3.272   9.203 -1.0604  0.4308 -1.0367
 4398SOL    HW224831   1.066   3.383   9.296 -1.3443  0.9010  0.9764
 4399SOL     OW24832   3.398   1.036   4.676  0.0880  0.0896 -1.1219
 4399SOL    HW124833   3.345   1.058   4.752 -0.4943 -2.1673 -0.8661
 4399SOL    HW224834   3.343   1.091   4.620  0.8779  0.5528 -1.4501
 4400SOL     OW24835   3.759   0.490   4.196  0.0170  0.0300 -0.0056
 4400SOL    HW124836   3.847   0.455   4.212 -0.6451 -2.2909 -1.5250
 4400SOL    HW224837   3.737   0.517   4.285  0.5400 -1.9655  0.7231
 4401SOL     OW24838   2.980   0.372   3.539 -0.2953  0.4670 -0.2345
 4401SOL    HW124839   2.941   0.285   3.526 -0.1121  0.4071 -0.3912
 4401SOL    HW224840   2.940   0.415   3.464 -0.0073 -0.0562 -0.6886
 4402SOL     OW24841   3.070   3.395   3.009 -0.3314  0.6435  0.4397
 4402SOL    HW124842   3.048   3.422   2.920  2.1779 -0.3426 -0.4908
 4402SOL    HW224843   3.127   3.467   3.038 -0.2752  1.6788 -2.2567
 4403SOL     OW24844   4.423   1.626   4.402  0.1067  0.2738 -0.2593
 4403SOL    HW124845   4.454   1.542   4.436  0.7473  0.8337  0.5492
 4403SOL    HW224846   4.501   1.662   4.359  1.9380 -1.1940  1.8199
 4404SOL     OW24847   2.606   0.596   6.034  0.2247 -0.4820 -0.7834
 4404SOL    HW124848   2.683   0.633   6.076 -0.4115  2.2665 -2.0334
 4404SOL    HW224849   2.552   0.570   6.108 -0.7461  2.1061 -0.5731
 4405SOL     OW24850   2.199   4.295  16.980  0.1254  0.5933 -0.1623
 4405SOL    HW124851   2.195   4.365  17.045 -1.8381  0.5510 -0.2171
 4405SOL    HW224852   2.293   4.287  16.966  0.5347  1.5140  2.1538
 4406SOL     OW24853   0.936   3.651   9.696 -0.1009 -0.1418 -0.2717
 4406SOL    HW124854   0.987   3.616   9.770 -0.0136 -0.3491 -0.4307
 4406SOL    HW224855   0.867   3.694   9.746  1.8914 -0.6521  2.9689
 4407SOL     OW24856   0.923   3.730   5.172 -0.4083 -0.3711  0.2340
 4407SOL    HW124857   1.003   3.782   5.172 -0.6627  0.0191  2.5560
 4407SOL    HW224858   0.941   3.674   5.248 -0.8465 -0.3943  0.3216
 4408SOL     OW24859   0.676   1.950   6.848  0.5413 -0.2944 -0.0022
 4408SOL    HW124860   0.682   1.953   6.943  1.4945  1.1673 -0.1163
 4408SOL    HW224861   0.581   1.950   6.836  0.7382 -1.1421 -1.6014
 4409SOL     OW24862   1.778   3.025   4.879  0.5376  0.1464 -0.2199
 4409SOL    HW124863   1.843   2.996   4.815 -0.8213 -3.5718  0.1200
 4409SOL    HW224864   1.751   2.947   4.928 -0.8537  0.8087  0.0393
 4410SOL     OW24865   2.397   1.901  13.413  0.0953  0.1037  0.2823
 4410SOL    HW124866   2.315   1.882  13.458 -0.3463  0.4664 -0.3755
 4410SOL    HW224867   2.464   1.882  13.478 -1.1242 -0.6431  1.3094
 4411SOL     OW24868   1.399   1.755   8.514  0.2495 -0.2668 -0.2402
 4411SOL    HW124869   1.379   1.845   8.539 -0.8821 -0.5028 -0.3070
 4411SOL    HW224870   1.317   1.714   8.544 -0.4610  0.1253 -1.6373
 4412SOL     OW24871   0.576   4.250   7.237 -0.3914  0.5193 -0.4930
 4412SOL    HW124872   0.565   4.201   7.155 -0.6941 -0.9098  0.4115
 4412SOL    HW224873   0.488   4.288   7.234 -0.8870 -0.5842 -0.0976
 4413SOL     OW24874   2.000   3.814  12.918 -0.0634 -0.1745  0.3387
 4413SOL    HW124875   1.962   3.881  12.975 -0.0706 -0.8913  1.1780
 4413SOL    HW224876   2.037   3.754  12.983 -0.6178 -1.9286 -0.9530
 4414SOL     OW24877   0.995   0.864   3.793  0.1618  0.1335 -0.4880
 4414SOL    HW124878   1.066   0.801   3.787  0.5865  0.5288  0.5195
 4414SOL    HW224879   0.943   0.840   3.716  0.8398  1.5728 -1.3981
 4415SOL     OW24880   4.315   3.431  12.611 -0.0824 -0.1439 -0.3882
 4415SOL    HW124881   4.297   3.341  12.638  0.7259 -0.6163 -1.4235
 4415SOL    HW224882   4.410   3.438  12.600  0.0624  1.6905  1.8730
 4416SOL     OW24883   3.373   2.456   3.686 -0.1300  0.0489 -0.2323
 4416SOL    HW124884   3.331   2.493   3.608  0.4210 -0.9024 -0.9816
 4416SOL    HW224885   3.307   2.455   3.755 -1.6364  0.1617 -1.6764
 4417SOL     OW24886   3.569   4.667   5.605 -0.2340 -0.6113  0.9085
 4417SOL    HW124887   3.575   4.612   5.527 -1.5639 -0.5326  0.7485
 4417SOL    HW224888   3.643   4.640   5.659  0.5793  0.7005  0.4572
 4418SOL     OW24889   2.847   4.148   9.087  0.0667 -0.8851  0.6973
 4418SOL    HW124890   2.755   4.163   9.109 -0.1002  0.7579 -1.0566
 4418SOL    HW224891   2.840   4.069   9.033 -1.0779  1.0472 -2.0190
 4419SOL     OW24892   2.315   2.380   3.118  0.3033  0.3029  0.2327
 4419SOL    HW124893   2.266   2.303   3.089  0.8376 -0.5717  1.6550
 4419SOL    HW224894   2.326   2.428   3.037 -1.0076  0.8504  0.3816
 4420SOL     OW24895   0.939   1.720   1.513  0.2699  0.0189 -0.5840
 4420SOL    HW124896   1.026   1.717   1.474  0.1872 -0.4518 -0.7283
 4420SOL    HW224897   0.919   1.627   1.521 -1.8968  0.3033 -2.6012
 4421SOL     OW24898   4.542   3.558   8.887 -0.7662  0.7472  0.5013
 4421SOL    HW124899   4.554   3.652   8.902  1.5726 -0.1229  4.0754
 4421SOL    HW224900   4.629   3.538   8.852 -2.6960  0.2813 -3.9694
 4422SOL     OW24901   0.565   2.398  12.620 -0.1612  0.2754  0.3352
 4422SOL    HW124902   0.577   2.419  12.712 -0.6291  3.0475 -0.2541
 4422SOL    HW224903   0.566   2.486  12.584  1.0705 -0.0634 -0.4411
 4423SOL     OW24904   3.433   2.054   9.663  0.5300 -0.5634 -0.1157
 4423SOL    HW124905   3.370   2.098   9.607 -0.2006 -0.5743  0.7063
 4423SOL    HW224906   3.496   2.007   9.607 -0.1546  1.6387 -2.7610
 4424SOL     OW24907   4.477   3.743  15.438 -0.0441 -0.2135 -0.0753
 4424SOL    HW124908   4.427   3.704  15.509  2.2817  0.8492  2.1204
 4424SOL    HW224909   4.413   3.809  15.410  0.7666  0.7942  0.4381
 4425SOL     OW24910   2.565   2.078   8.550 -0.3344  0.2295  0.4534
 4425SOL    HW124911   2.547   2.031   8.468 -2.1426  4.1208 -1.3759
 4425SOL    HW224912   2.653   2.044   8.562 -0.2493  0.6874  1.1097
 4426SOL     OW24913   2.578   1.227   5.572 -0.4212  0.1068 -0.3324
 4426SOL    HW124914   2.498   1.256   5.614 -0.4477  0.0752 -0.3612
 4426SOL    HW224915   2.545   1.168   5.504 -0.5551 -1.8022  1.3961
 4427SOL     OW24916   2.868   4.169   8.153  0.2439 -0.2041  0.9700
 4427SOL    HW124917   2.948   4.116   8.154 -0.8296 -1.8182  1.7395
 4427SOL    HW224918   2.905   4.257   8.144 -1.5883  0.3632 -1.1496
 4428SOL     OW24919   0.652   1.458  13.564 -0.1565  0.3925 -0.6562
 4428SOL    HW124920   0.668   1.517  13.637 -0.0837 -1.2038  0.6139
 4428SOL    HW224921   0.568   1.486  13.528 -1.6547 -2.7163  0.4864
 4429SOL     OW24922   0.996   3.118   5.601 -0.2844  0.1061  0.1340
 4429SOL    HW124923   1.087   3.089   5.605 -0.5040 -0.7631 -1.0461
 4429SOL    HW224924   0.969   3.078   5.519 -2.0405 -1.1244  1.3055
 4430SOL     OW24925   0.925   0.956   6.568  0.5313 -0.2159  0.2281
 4430SOL    HW124926   0.965   1.028   6.520 -0.9560  2.8460  3.6024
 4430SOL    HW224927   0.931   0.893   6.496  2.5560  0.6540 -0.3388
 4431SOL     OW24928   1.562   4.213   7.025  0.0556 -0.5844  0.2239
 4431SOL    HW124929   1.516   4.188   7.105  1.1641  1.2543  1.4419
 4431SOL    HW224930   1.543   4.141   6.966  1.4596 -1.1573  0.4618
 4432SOL     OW24931   2.141   3.730  16.461 -0.4053  0.1084  0.5972
 4432SOL    HW124932   2.204   3.782  16.410 -0.0220  2.3597  3.3657
 4432SOL    HW224933   2.123   3.653  16.406  2.3707 -1.2955  1.6326
 4433SOL     OW24934   0.172   3.879   9.753 -0.1657  0.0799 -0.3202
 4433SOL    HW124935   0.147   3.788   9.769 -2.8406  1.3086  2.3400
 4433SOL    HW224936   0.187   3.868   9.659  1.5149 -1.9936  0.1824
 4434SOL     OW24937   2.364   2.795   6.052  0.1798 -0.3435  0.0594
 4434SOL    HW124938   2.435   2.800   5.988 -2.3525 -2.3021 -2.8280
 4434SOL    HW224939   2.407   2.861   6.108 -1.1367 -2.2320  3.3163
 4435SOL     OW24940   2.593   4.524   7.333  0.1700 -0.4611  0.4778
 4435SOL    HW124941   2.658   4.593   7.344  0.5949 -0.8439  0.3380
 4435SOL    HW224942   2.651   4.451   7.312  1.4902  0.0945  2.1930
 4436SOL     OW24943   4.555   3.288   3.424 -0.1056  0.4625  0.0945
 4436SOL    HW124944   4.573   3.356   3.489  0.0606  1.0379 -0.5601
 4436SOL    HW224945   4.468   3.267   3.458 -0.5134  1.5915 -0.2484
 4437SOL     OW24946   1.463   4.116   4.175 -0.0036 -0.2639  0.4674
 4437SOL    HW124947   1.458   4.083   4.265  1.7185 -0.6906  0.4101
 4437SOL    HW224948   1.473   4.209   4.194 -0.5817  0.0116 -0.5582
 4438SOL     OW24949   0.896   0.083  17.267 -0.7820  0.0331  0.3620
 4438SOL    HW124950   0.840   0.159  17.282 -1.5751 -0.2480 -1.2645
 4438SOL    HW224951   0.886   0.077  17.173  3.0665 -0.7891 -0.0157
 4439SOL     OW24952   1.498   2.504   9.066  0.2028  0.0303  0.2461
 4439SOL    HW124953   1.524   2.437   9.004 -2.8648 -1.9463  1.0609
 4439SOL    HW224954   1.574   2.543   9.109  0.2447 -0.6774  0.8158
 4440SOL     OW24955   2.807   1.017   4.849  0.1646 -0.0458  0.1904
 4440SOL    HW124956   2.820   0.927   4.880  1.8242 -0.1728 -0.9025
 4440SOL    HW224957   2.890   1.017   4.802  0.0064  1.5767 -0.0615
 4441SOL     OW24958   2.662   0.329   2.957 -0.1610 -0.1438  0.6665
 4441SOL    HW124959   2.626   0.277   2.885 -1.4467  0.9190  0.5292
 4441SOL    HW224960   2.642   0.419   2.932 -2.6558 -0.8857 -0.0958
 4442SOL     OW24961   0.051   3.956   3.109 -0.1767 -0.5643 -0.3982
 4442SOL    HW124962   0.129   4.007   3.089 -0.1874 -0.9704 -1.4777
 4442SOL    HW224963   0.001   4.026   3.152  1.5591  0.5795 -0.2629
 4443SOL     OW24964   4.417   3.535   3.019 -0.1357 -0.5648  0.6041
 4443SOL    HW124965   4.465   3.612   3.048  2.1245 -1.3255 -1.1287
 4443SOL    HW224966   4.445   3.484   3.094  2.1271 -0.5616 -0.2200
 4444SOL     OW24967   4.505   1.487   6.833  0.2230  0.0739 -0.1005
 4444SOL    HW124968   4.450   1.421   6.875  1.7966 -1.0892  0.1113
 4444SOL    HW224969   4.494   1.564   6.889 -1.5710  0.1047 -0.4693
 4445SOL     OW24970   2.343   0.740   6.419 -0.4637  0.6049  0.3841
 4445SOL    HW124971   2.350   0.691   6.501  2.7146  0.8182  0.2359
 4445SOL    HW224972   2.248   0.736   6.404  0.1978  0.9755 -3.9806
 4446SOL     OW24973   0.965   3.230   6.283  0.6100  0.3400  0.3363
 4446SOL    HW124974   0.882   3.269   6.257  0.2313  1.1355  2.7429
 4446SOL    HW224975   0.982   3.280   6.363 -1.9014  1.4779  0.1283
 4447SOL     OW24976   2.079   4.234  17.580  0.2151  0.2631 -0.3787
 4447SOL    HW124977   2.026   4.279  17.514  1.0871  2.4206  0.3664
 4447SOL    HW224978   2.111   4.161  17.529 -0.7173 -3.4434  4.3440
 4448SOL     OW24979   4.644   0.589   8.709 -0.2174  0.0778 -0.0908
 4448SOL    HW124980   4.563   0.636   8.729  0.0526 -0.9114  3.3419
 4448SOL    HW224981   4.692   0.650   8.653  3.5587 -1.0214  1.9831
 4449SOL     OW24982   0.374   3.746   1.471 -0.0580  0.0357 -0.2545
 4449SOL    HW124983   0.304   3.801   1.434 -1.7862 -0.3481  2.4243
 4449SOL    HW224984   0.410   3.817   1.524 -1.5838  1.1455 -0.6951
 4450SOL     OW24985   0.762   1.998   7.715  0.0710  0.0436  0.0114
 4450SOL    HW124986   0.837   1.941   7.730 -1.3532 -1.9340 -0.3743
 4450SOL    HW224987   0.697   1.973   7.781 -0.7495 -0.7055 -1.0828
 4451SOL     OW24988   2.972   4.598   8.418 -0.3250 -0.0026  0.4952
 4451SOL    HW124989   2.939   4.601   8.508 -0.1428  2.2122  0.5094
 4451SOL    HW224990   2.927   4.674   8.381  0.6770  1.3662  2.0283
 4452SOL     OW24991   4.564   0.331  15.807 -0.8016  0.1400  0.4880
 4452SOL    HW124992   4.521   0.358  15.726 -0.9202  3.5640  1.6860
 4452SOL    HW224993   4.488   0.327  15.865  0.1769  2.4453  1.9328
 4453SOL     OW24994   2.682   1.280  12.720  0.0895 -0.3349  0.4204
 4453SOL    HW124995   2.599   1.262  12.765  0.1149 -2.5098 -0.4142
 4453SOL    HW224996   2.738   1.238  12.785 -0.2076 -2.0196 -0.4226
 4454SOL     OW24997   0.965   1.421   2.715  0.4154 -0.0214 -0.0674
 4454SOL    HW124998   0.993   1.501   2.671  0.3248 -0.0477 -0.1746
 4454SOL    HW224999   0.967   1.357   2.644 -0.0960  1.3847 -1.3777
 4455SOL     OW25000   3.590   4.486  16.413  0.0799  0.3692 -0.2338
 4455SOL    HW125001   3.569   4.398  16.443  0.5387 -0.3104 -1.8896
 4455SOL    HW225002   3.614   4.516  16.501 -0.6686 -0.8047  0.3629
 4456SOL     OW25003   4.256   2.012   8.379 -0.8228 -0.3957  0.0003
 4456SOL    HW125004   4.234   1.931   8.334 -1.0369 -0.3008 -0.0639
 4456SOL    HW225005   4.287   1.979   8.464  2.1882  1.5904 -0.3198
 4457SOL     OW25006   2.994   1.984  16.457  0.3816  0.3180 -0.9426
 4457SOL    HW125007   2.956   1.920  16.398 -1.0579 -0.5769  0.9546
 4457SOL    HW225008   2.967   2.066  16.417 -0.7414  0.4982  0.1849
 4458SOL     OW25009   1.217   0.078   1.850  0.3493 -0.0245  0.3657
 4458SOL    HW125010   1.280   0.138   1.890  0.9269 -0.1170 -0.4014
 4458SOL    HW225011   1.180   0.144   1.791  1.8661  1.0383  0.5885
 4459SOL     OW25012   1.462   0.976   3.860 -0.2320  0.0847  0.4797
 4459SOL    HW125013   1.531   1.042   3.859 -0.4755  0.3314 -0.7683
 4459SOL    HW225014   1.511   0.895   3.871 -0.1690  0.0375 -0.1647
 4460SOL     OW25015   0.705   1.653  13.736  0.0837  0.5980  0.0882
 4460SOL    HW125016   0.667   1.739  13.717  0.9989  0.5457 -1.8896
 4460SOL    HW225017   0.798   1.679  13.741 -0.1214  1.1790  0.9474
 4461SOL     OW25018   2.312   4.182   4.283  0.7882 -0.2112 -0.1923
 4461SOL    HW125019   2.350   4.270   4.282  0.4988 -0.0848 -0.0058
 4461SOL    HW225020   2.394   4.133   4.285  2.0736  1.9400  0.3705
 4462SOL     OW25021   0.744   2.672   2.820 -0.2071 -0.1187 -0.5659
 4462SOL    HW125022   0.795   2.628   2.888 -0.2934 -1.2323 -1.2179
 4462SOL    HW225023   0.687   2.714   2.884  1.5158 -0.4045  1.1620
 4463SOL     OW25024   2.383   2.290  15.833 -0.4122  0.3140 -0.8099
 4463SOL    HW125025   2.376   2.205  15.790 -0.6011 -0.0662 -0.0344
 4463SOL    HW225026   2.424   2.333  15.758  0.0119  0.8695 -0.2550
 4464SOL     OW25027   3.557   3.771   4.390 -0.5993  0.0620  0.6944
 4464SOL    HW125028   3.479   3.799   4.342 -0.3343  1.0169  0.8211
 4464SOL    HW225029   3.517   3.702   4.444 -1.1528 -0.4259 -0.3433
 4465SOL     OW25030   2.936   0.814   5.474 -0.0212 -0.5572 -0.0305
 4465SOL    HW125031   2.862   0.779   5.523  0.3133  0.0158  0.8971
 4465SOL    HW225032   2.895   0.872   5.411  0.8731  0.5358  0.4013
 4466SOL     OW25033   2.442   3.390   4.973  0.2298  0.0820 -0.1670
 4466SOL    HW125034   2.487   3.439   5.042 -1.4455  1.0454  0.2447
 4466SOL    HW225035   2.359   3.438   4.976  1.8499  2.7566  1.8070
 4467SOL     OW25036   3.692   2.203   3.288 -0.1435 -0.1801  0.1290
 4467SOL    HW125037   3.703   2.108   3.282  0.0603 -0.2680  1.8129
 4467SOL    HW225038   3.616   2.217   3.345 -2.3549  0.6867 -2.9846
 4468SOL     OW25039   0.498   3.751   6.911  0.0341 -0.1514 -0.6504
 4468SOL    HW125040   0.524   3.819   6.848 -2.9600  1.2789 -0.3431
 4468SOL    HW225041   0.550   3.677   6.878  1.1276 -0.3099  1.4605
 4469SOL     OW25042   2.585   0.624   1.925  0.1660 -0.0438 -0.1894
 4469SOL    HW125043   2.495   0.655   1.921  1.0746  3.0145  2.6967
 4469SOL    HW225044   2.609   0.673   2.004 -1.6266  1.2095 -0.4263
 4470SOL     OW25045   2.369   3.570   3.155 -0.3585  0.1452 -0.4133
 4470SOL    HW125046   2.361   3.518   3.075 -0.2720  3.4103 -2.5583
 4470SOL    HW225047   2.325   3.518   3.222  1.0079 -2.4435 -1.5244
 4471SOL     OW25048   2.127   4.454   5.692  0.0891  0.5782 -0.4536
 4471SOL    HW125049   2.143   4.391   5.762 -0.0237  2.1241  0.9843
 4471SOL    HW225050   2.054   4.420   5.642 -1.1581  1.3405  0.8484
 4472SOL     OW25051   0.296   0.539   4.312 -0.3766 -0.2757 -0.4261
 4472SOL    HW125052   0.320   0.598   4.241  0.0180  0.0105 -0.0537
 4472SOL    HW225053   0.215   0.498   4.282  0.0133 -1.4266  0.0790
 4473SOL     OW25054   0.600   4.065   3.467  0.0509  0.4134 -0.1517
 4473SOL    HW125055   0.587   4.027   3.554  0.9975  1.7228  0.5676
 4473SOL    HW225056   0.649   3.997   3.422  2.0590  0.5374  1.8727
 4474SOL     OW25057   4.249   0.172   2.915  0.3492  0.2469  0.2215
 4474SOL    HW125058   4.234   0.244   2.977 -0.2074  1.8740 -1.7825
 4474SOL    HW225059   4.159   0.160   2.885  0.2194  0.6431  0.4508
 4475SOL     OW25060   2.887   3.089  15.128 -0.0110 -0.2532 -0.7049
 4475SOL    HW125061   2.938   3.018  15.166 -0.6844 -0.6411 -0.5321
 4475SOL    HW225062   2.838   3.037  15.064  1.0335 -1.0379 -0.8603
 4476SOL     OW25063   4.278   0.390   3.091  0.1859 -0.5093  0.0926
 4476SOL    HW125064   4.298   0.389   3.184 -0.8274  1.3520  0.3226
 4476SOL    HW225065   4.194   0.436   3.092 -0.8584 -2.4350  1.0564
 4477SOL     OW25066   1.226   2.079   6.889 -0.1992 -0.1651 -0.0592
 4477SOL    HW125067   1.139   2.065   6.853 -0.0860  0.8765 -0.7746
 4477SOL    HW225068   1.200   2.088   6.980 -0.4209 -0.3529 -0.1069
 4478SOL     OW25069   2.403   2.930  13.464  0.3456 -0.0508 -0.9711
 4478SOL    HW125070   2.426   2.840  13.486 -0.2237  0.3714  1.3152
 4478SOL    HW225071   2.488   2.958  13.429  0.6926 -1.8018 -1.4988
 4479SOL     OW25072   3.370   0.983   3.648  0.5099 -0.5004  0.2695
 4479SOL    HW125073   3.394   0.912   3.709  1.3559  1.3124  2.0440
 4479SOL    HW225074   3.285   0.943   3.631  0.9501 -1.1000 -0.5255
 4480SOL     OW25075   4.283   1.212  14.380  0.4806  0.2067  0.0982
 4480SOL    HW125076   4.217   1.192  14.313  0.3692 -0.0715  0.2888
 4480SOL    HW225077   4.314   1.296  14.347  2.9949 -0.3825  0.9726
 4481SOL     OW25078   2.597   3.654   8.164 -0.1174  0.0029  1.0279
 4481SOL    HW125079   2.557   3.700   8.089  0.5973 -2.6800 -0.9772
 4481SOL    HW225080   2.676   3.625   8.120  0.2041  2.0925  0.2034
 4482SOL     OW25081   1.575   1.153  15.805  0.4499  0.2418  0.0472
 4482SOL    HW125082   1.596   1.073  15.756  0.7327  1.1573 -1.3014
 4482SOL    HW225083   1.533   1.114  15.882  1.2470  3.3666  2.0646
 4483SOL     OW25084   4.122   0.649  12.536 -0.3065  0.4177 -0.7234
 4483SOL    HW125085   4.118   0.705  12.614 -0.0603  1.1250 -1.2116
 4483SOL    HW225086   4.196   0.675  12.481 -0.4774 -2.4049 -2.3101
 4484SOL     OW25087   0.893   1.432   4.940  0.4035  0.2042  0.2274
 4484SOL    HW125088   0.798   1.430   4.942  0.4389 -1.3096 -0.0198
 4484SOL    HW225089   0.919   1.394   5.023 -2.9455  2.3664  2.2658
 4485SOL     OW25090   1.762   3.240  15.878 -0.1959 -0.0702  0.5841
 4485SOL    HW125091   1.779   3.277  15.791  0.8722  1.8912  1.6265
 4485SOL    HW225092   1.667   3.232  15.881 -0.1479 -1.3196 -0.8625
 4486SOL     OW25093   0.674   1.957   7.135 -0.0590 -0.1000  0.0627
 4486SOL    HW125094   0.701   2.034   7.184 -0.1674 -0.3362  0.4968
 4486SOL    HW225095   0.674   1.889   7.203 -3.0892  0.2420  0.4313
 4487SOL     OW25096   1.927   4.162   2.276 -0.2112 -0.2292 -0.3080
 4487SOL    HW125097   1.882   4.233   2.230 -0.8398  0.2812  1.0819
 4487SOL    HW225098   1.974   4.115   2.207 -0.1795  1.7870 -1.6741
 4488SOL     OW25099   1.381   4.649   0.972  0.2138  0.4588 -0.2068
 4488SOL    HW125100   1.473   4.660   0.993  0.2536  0.9704 -0.6569
 4488SOL    HW225101   1.401   4.576   0.914  1.5380  1.1893 -0.6682
 4489SOL     OW25102   2.636   1.440   3.336  0.0215  0.5678  0.1313
 4489SOL    HW125103   2.714   1.385   3.337  0.8602  1.7644  0.9601
 4489SOL    HW225104   2.569   1.384   3.375  1.0043 -1.2602 -0.8386
 4490SOL     OW25105   4.426   1.441   3.284  0.0430 -0.5320 -0.1459
 4490SOL    HW125106   4.478   1.458   3.363  1.1016 -0.4400 -0.8607
 4490SOL    HW225107   4.388   1.356   3.304 -1.3113 -0.0060 -0.4814
 4491SOL     OW25108   0.599   3.850   1.351 -0.2977  0.8889  0.0690
 4491SOL    HW125109   0.591   3.863   1.256  0.4630 -1.2875 -0.3053
 4491SOL    HW225110   0.514   3.815   1.375  0.1686 -1.0011 -0.9552
 4492SOL     OW25111   2.306   0.262  10.289 -0.6767  0.2103  0.5941
 4492SOL    HW125112   2.396   0.234  10.268 -1.3557  0.3750 -2.5486
 4492SOL    HW225113   2.272   0.182  10.329 -1.1663  0.6160  0.9801
 4493SOL     OW25114   2.689   3.351   6.061  0.4872  0.6594 -0.1976
 4493SOL    HW125115   2.765   3.294   6.062 -0.8495 -1.1149 -0.2511
 4493SOL    HW225116   2.630   3.289   6.103  0.5244 -0.2661 -1.5169
 4494SOL     OW25117   2.657   1.686   6.928  0.7569  0.3699  0.1007
 4494SOL    HW125118   2.697   1.773   6.940  0.4488  0.1769  2.4495
 4494SOL    HW225119   2.701   1.648   6.852 -0.2963  0.2669 -0.4484
 4495SOL     OW25120   0.478   1.373   3.311 -0.6168  1.0711  0.3206
 4495SOL    HW125121   0.409   1.401   3.252 -0.5572 -1.0213 -0.7579
 4495SOL    HW225122   0.443   1.316   3.380 -2.6600 -0.5252 -2.0159
 4496SOL     OW25123   2.705   3.641  16.009 -0.1656  0.3514  0.9365
 4496SOL    HW125124   2.666   3.567  16.056 -0.4582 -1.1436 -1.7021
 4496SOL    HW225125   2.742   3.588  15.939 -1.1038  0.4064  0.4115
 4497SOL     OW25126   0.096   1.814  11.534 -0.2786  0.1201  0.1606
 4497SOL    HW125127   0.048   1.790  11.614 -0.1175 -0.4348  0.0924
 4497SOL    HW225128   0.172   1.859  11.572  0.3988 -0.1089 -0.9288
 4498SOL     OW25129   1.094   2.023   4.598  0.4792  0.0156  0.0374
 4498SOL    HW125130   1.083   2.117   4.613  2.3230  0.2158  0.1147
 4498SOL    HW225131   1.190   2.026   4.604  0.4423  0.2547  0.4666
 4499SOL     OW25132   2.131   0.420   6.699  0.4525  0.1461  0.1203
 4499SOL    HW125133   2.154   0.360   6.628 -3.5239  0.6644 -1.5824
 4499SOL    HW225134   2.040   0.430   6.671 -0.8806  0.6904  4.6420
 4500SOL     OW25135   2.298   4.299   6.815 -0.1011 -0.1200 -0.7200
 4500SOL    HW125136   2.341   4.364   6.758 -2.0867  0.0327 -2.0215
 4500SOL    HW225137   2.274   4.237   6.746 -2.5021 -0.4649  0.4507
 4501SOL     OW25138   2.780   3.452   9.170  0.5329 -0.1411 -0.5265
 4501SOL    HW125139   2.733   3.487   9.245 -0.9959 -3.3559  0.0154
 4501SOL    HW225140   2.796   3.530   9.117  1.2135 -2.5723 -3.9039
 4502SOL     OW25141   0.386   4.335   8.296  0.3069  0.5812 -0.0711
 4502SOL    HW125142   0.406   4.398   8.227 -1.0937 -1.2598 -2.1277
 4502SOL    HW225143   0.467   4.335   8.348  0.7803  3.3474 -0.7935
 4503SOL     OW25144   1.848   4.110   5.147  0.7771  0.5532 -0.1523
 4503SOL    HW125145   1.891   4.096   5.232  2.2653  0.1318 -0.9738
 4503SOL    HW225146   1.906   4.157   5.087  1.5758 -0.1059  0.1070
 4504SOL     OW25147   0.156   1.153   8.087  0.3448  0.0085 -0.1496
 4504SOL    HW125148   0.219   1.131   8.156  0.6802 -3.0332 -1.4343
 4504SOL    HW225149   0.071   1.126   8.122  0.3584  0.6310  0.3766
 4505SOL     OW25150   1.879   3.790   4.433 -0.2882  0.6152  0.0308
 4505SOL    HW125151   1.970   3.785   4.403  0.2932 -1.7317  2.1701
 4505SOL    HW225152   1.845   3.868   4.389 -0.4445  0.6000  0.1243
 4506SOL     OW25153   3.841   2.084   9.702 -0.2889  0.3578  0.5046
 4506SOL    HW125154   3.905   2.122   9.642  0.4841 -0.8329  0.5750
 4506SOL    HW225155   3.760   2.077   9.652  0.3900  1.0425 -0.6886
 4507SOL     OW25156   0.141   0.012   9.653  0.4374  0.0449  0.1818
 4507SOL    HW125157   0.133   0.008   9.748 -0.6504  2.2694  0.1854
 4507SOL    HW225158   0.151   0.107   9.646 -1.1400  0.2417  0.5986
 4508SOL     OW25159   2.385   2.241   5.258 -0.1112  0.3807  0.0766
 4508SOL    HW125160   2.380   2.245   5.353 -2.4282 -1.3161  0.0474
 4508SOL    HW225161   2.470   2.201   5.240  0.3091  1.3840 -0.1670
 4509SOL     OW25162   3.028   2.425   4.585  0.3153 -0.0501  0.6069
 4509SOL    HW125163   3.121   2.410   4.602  1.0274  1.4604 -2.0254
 4509SOL    HW225164   2.987   2.382   4.660 -0.7869  0.7053  0.4377
 4510SOL     OW25165   1.251   4.633  11.004  0.1416  0.0419  0.2842
 4510SOL    HW125166   1.159   4.652  10.984 -0.0413 -0.4051  0.7094
 4510SOL    HW225167   1.283   4.718  11.033 -0.8082  0.6895 -0.5493
 4511SOL     OW25168   2.885   3.616   8.310  0.3031  0.2053  0.2247
 4511SOL    HW125169   2.879   3.541   8.252 -0.3322  0.0295  0.5121
 4511SOL    HW225170   2.806   3.604   8.364  0.0585  0.8441  0.0129
 4512SOL     OW25171   1.438   0.211   8.778  0.1852 -0.6214  0.2574
 4512SOL    HW125172   1.505   0.162   8.825 -1.0061  0.5621  3.2026
 4512SOL    HW225173   1.481   0.210   8.693 -0.7987 -0.1570 -0.2431
 4513SOL     OW25174   1.711   3.038   4.138  0.4505 -0.8259 -0.5085
 4513SOL    HW125175   1.617   3.028   4.156  0.4846  1.2649  0.8303
 4513SOL    HW225176   1.710   2.999   4.051  1.3403  0.4771 -1.0985
 4514SOL     OW25177   2.839   4.075  10.574  0.4473 -0.3945 -0.2067
 4514SOL    HW125178   2.770   4.009  10.582  2.0797 -2.1436 -0.6479
 4514SOL    HW225179   2.811   4.152  10.623  1.4251  0.0407 -0.3457
 4515SOL     OW25180   0.119   1.243   2.595  0.5714  0.5156  0.3497
 4515SOL    HW125181   0.043   1.297   2.615 -0.6217 -1.1838  0.4398
 4515SOL    HW225182   0.197   1.298   2.586  2.3041 -2.4284 -2.3666
 4516SOL     OW25183   4.347   1.393   2.946 -0.3944 -0.0158  0.2942
 4516SOL    HW125184   4.318   1.473   2.991  1.9572  0.3306  1.2281
 4516SOL    HW225185   4.275   1.367   2.889  1.3440 -0.1648 -1.8555
 4517SOL     OW25186   4.067   1.467  16.645 -0.0913 -0.3429 -0.4210
 4517SOL    HW125187   4.048   1.460  16.551 -2.6102  0.1687  0.0339
 4517SOL    HW225188   3.987   1.428  16.681 -1.0298 -0.5051 -2.6642
 4518SOL     OW25189   1.627   2.000  14.543 -0.0089  0.2847 -0.3467
 4518SOL    HW125190   1.695   2.050  14.589  2.2693 -1.4689 -1.7804
 4518SOL    HW225191   1.553   2.059  14.534 -0.2701 -0.1770 -1.2537
 4519SOL     OW25192   0.711   0.480   2.856 -0.0397 -0.3199  0.2141
 4519SOL    HW125193   0.640   0.431   2.815 -0.9766  0.3060  1.0735
 4519SOL    HW225194   0.722   0.553   2.795 -1.0762  0.7114  1.2458
 4520SOL     OW25195   0.148   1.109  11.173  0.0327 -0.3647 -0.1824
 4520SOL    HW125196   0.128   1.171  11.243  0.9372  0.3929 -0.5938
 4520SOL    HW225197   0.069   1.058  11.159 -0.9746  1.1045  0.1564
 4521SOL     OW25198   0.620   3.464   8.504 -0.2035  0.0040  0.4283
 4521SOL    HW125199   0.667   3.455   8.421  2.0897  1.7717  1.5234
 4521SOL    HW225200   0.594   3.556   8.500 -1.1448 -0.2953 -0.1159
 4522SOL     OW25201   0.107   3.186   4.711 -0.2036 -0.2784 -0.4064
 4522SOL    HW125202   0.013   3.197   4.721  0.1024  2.1732 -0.1712
 4522SOL    HW225203   0.095   3.106   4.661 -1.3133 -0.0453 -0.5065
 4523SOL     OW25204   3.019   3.132   7.917 -0.0155 -0.1840 -0.0121
 4523SOL    HW125205   2.944   3.119   7.859  1.3645 -3.0118 -1.1776
 4523SOL    HW225206   3.092   3.086   7.874 -0.3063 -0.7346  0.0866
 4524SOL     OW25207   1.811   3.873   4.129  0.0856 -0.4693 -0.1165
 4524SOL    HW125208   1.746   3.869   4.199  0.4160 -0.1722  0.2109
 4524SOL    HW225209   1.749   3.861   4.058 -1.4600  2.6014  0.6914
 4525SOL     OW25210   4.631   3.627   5.475 -0.1468  0.1509 -0.0145
 4525SOL    HW125211   4.579   3.549   5.459 -1.8746  0.6287  3.4734
 4525SOL    HW225212   4.718   3.599   5.504 -0.4599  0.3861  1.1442
 4526SOL     OW25213   4.239   3.883   5.302  0.2832  0.5361 -0.0819
 4526SOL    HW125214   4.222   3.897   5.209  2.1734 -0.3160 -0.5571
 4526SOL    HW225215   4.320   3.935   5.311  0.7621  0.2482 -2.9469
 4527SOL     OW25216   3.137   0.502   5.068 -0.8199 -0.0459 -0.4898
 4527SOL    HW125217   3.148   0.594   5.044  0.0055 -0.1410 -0.4647
 4527SOL    HW225218   3.141   0.466   4.979  2.0155  2.7886 -1.5004
 4528SOL     OW25219   1.441   0.939  16.603  0.6460  0.8449 -0.4883
 4528SOL    HW125220   1.368   0.933  16.541  1.3738  0.6378 -1.3330
 4528SOL    HW225221   1.515   0.973  16.552  2.6976 -1.6961  0.7816
 4529SOL     OW25222   4.251   4.001   4.754 -0.1239 -0.3661  0.3150
 4529SOL    HW125223   4.198   3.940   4.703  1.8185 -2.4989  0.8678
 4529SOL    HW225224   4.323   4.002   4.690  1.1412 -3.0240  1.7197
 4530SOL     OW25225   3.590   3.939   1.328 -0.2589  0.0622  0.1518
 4530SOL    HW125226   3.496   3.953   1.312 -0.0681  0.8861 -0.2188
 4530SOL    HW225227   3.584   3.843   1.336 -0.9974  0.1538  0.8009
 4531SOL     OW25228   0.484   2.193   6.741 -0.4025 -0.2267 -0.5220
 4531SOL    HW125229   0.477   2.232   6.828 -1.6348  1.7277 -1.4829
 4531SOL    HW225230   0.398   2.153   6.729 -0.9163  1.3978 -2.4118
 4532SOL     OW25231   1.164   2.120   5.557 -0.1098 -0.2192  0.8057
 4532SOL    HW125232   1.082   2.155   5.592 -1.1679 -1.6133 -0.2497
 4532SOL    HW225233   1.120   2.046   5.515 -1.5691  1.1841 -0.1326
 4533SOL     OW25234   3.520   1.171  14.498  0.0242  0.7493 -0.5489
 4533SOL    HW125235   3.480   1.092  14.461 -1.6880  0.2973  2.2138
 4533SOL    HW225236   3.587   1.141  14.560 -0.0641 -0.1206 -0.8689
 4534SOL     OW25237   3.248   2.280   6.235  0.2175 -0.6070 -0.2312
 4534SOL    HW125238   3.195   2.204   6.259  0.6625 -0.6652  0.5712
 4534SOL    HW225239   3.184   2.349   6.255  0.6352 -0.1588 -0.4296
 4535SOL     OW25240   3.825   2.304   1.729  0.2024  0.0290 -0.5690
 4535SOL    HW125241   3.911   2.276   1.696  2.0933  2.0755  2.6215
 4535SOL    HW225242   3.799   2.377   1.672 -1.7765 -0.6979 -0.5797
 4536SOL     OW25243   1.903   4.027   6.819 -0.1600 -0.8347  0.2178
 4536SOL    HW125244   1.954   4.049   6.897  1.0505  0.6209 -0.9962
 4536SOL    HW225245   1.957   4.057   6.746 -0.5379  0.3882  0.4451
 4537SOL     OW25246   3.921   3.423   7.851 -0.0777 -0.2639 -0.2463
 4537SOL    HW125247   3.874   3.358   7.799 -1.6450 -0.7799  1.7887
 4537SOL    HW225248   3.869   3.419   7.931 -1.7391  1.3923 -1.2351
 4538SOL     OW25249   3.626   1.951   4.506 -0.3403  0.3793  0.0490
 4538SOL    HW125250   3.684   1.972   4.433 -2.4408  0.7558 -1.5264
 4538SOL    HW225251   3.684   1.975   4.578 -1.2241  0.5096  0.7217
 4539SOL     OW25252   0.856   1.791   0.710 -0.2727  0.3023 -0.1025
 4539SOL    HW125253   0.941   1.774   0.668 -0.4516  1.4771 -0.9394
 4539SOL    HW225254   0.806   1.824   0.635 -0.8368  1.1873  0.6653
 4540SOL     OW25255   4.060   4.620  15.700 -0.2857  0.0857 -0.1091
 4540SOL    HW125256   4.055   4.645  15.792 -1.8743 -0.4842 -0.0394
 4540SOL    HW225257   3.974   4.582  15.687 -0.4345  1.5652 -3.5494
 4541SOL     OW25258   1.327   3.577  10.221 -0.7136  0.1326 -0.4024
 4541SOL    HW125259   1.298   3.510  10.283 -0.0671 -0.6622 -0.9407
 4541SOL    HW225260   1.351   3.648  10.280 -0.0762 -0.6670  0.2990
 4542SOL     OW25261   1.739   4.096   3.242 -0.5404  0.1828  0.3901
 4542SOL    HW125262   1.822   4.059   3.212  0.0096  1.4889  0.3140
 4542SOL    HW225263   1.688   4.034   3.190  0.3204  0.0489 -0.3020
 4543SOL     OW25264   2.823   0.932   0.434  0.7422 -0.5117 -0.0538
 4543SOL    HW125265   2.898   0.874   0.426  0.5096 -0.7005 -0.9038
 4543SOL    HW225266   2.766   0.896   0.365 -0.8118 -0.2085  1.0595
 4544SOL     OW25267   3.715   3.291   7.704 -0.0451  0.2421 -0.2415
 4544SOL    HW125268   3.633   3.306   7.657  0.6636 -0.0969 -1.6004
 4544SOL    HW225269   3.726   3.196   7.701  2.6303  0.5408 -0.3856
 4545SOL     OW25270   3.970   3.847   0.804  0.1108 -0.1382 -0.3686
 4545SOL    HW125271   3.938   3.936   0.789 -0.1950 -0.3522 -0.9980
 4545SOL    HW225272   4.037   3.852   0.736 -1.6092 -2.0220 -2.2035
 4546SOL     OW25273   1.911   1.839  13.303 -0.1240 -0.4548 -0.2753
 4546SOL    HW125274   1.844   1.882  13.356  0.4548  0.2336 -0.1044
 4546SOL    HW225275   1.925   1.768  13.365  0.9713 -0.8869 -1.0093
 4547SOL     OW25276   0.240   2.507   9.353  0.3565 -0.3766 -0.5555
 4547SOL    HW125277   0.182   2.462   9.414 -0.0540  2.7613  1.3773
 4547SOL    HW225278   0.220   2.593   9.390  1.5101 -0.0354 -0.7146
 4548SOL     OW25279   0.880   4.625   7.384 -0.2271  0.4772  0.4657
 4548SOL    HW125280   0.969   4.598   7.360 -0.5557 -0.2352  0.0611
 4548SOL    HW225281   0.832   4.581   7.314 -1.6060 -0.2170  1.8517
 4549SOL     OW25282   0.366   0.539   6.558 -0.3538 -0.2166  0.0625
 4549SOL    HW125283   0.441   0.480   6.549 -1.2326 -1.3001 -0.1052
 4549SOL    HW225284   0.412   0.586   6.628 -2.2777 -0.2272  1.3326
 4550SOL     OW25285   3.038   1.716   4.438  0.3905  0.3323  0.7423
 4550SOL    HW125286   3.010   1.716   4.347  0.9431  0.6744  0.5708
 4550SOL    HW225287   3.027   1.808   4.460  0.1735  0.1813  1.2881
 4551SOL     OW25288   2.331   0.445  14.115  0.3070 -0.0011 -0.8157
 4551SOL    HW125289   2.294   0.522  14.072 -0.5654 -1.5625 -2.8512
 4551SOL    HW225290   2.300   0.468  14.202  1.7005  2.1567 -0.9007
 4552SOL     OW25291   1.108   4.518   2.567 -0.5454 -0.0538  0.3100
 4552SOL    HW125292   1.081   4.427   2.552 -0.3456 -0.3596  1.8462
 4552SOL    HW225293   1.027   4.562   2.539  1.3571  1.7469 -2.3315
 4553SOL     OW25294   1.729   1.766   1.978  0.2194  0.1415 -0.0651
 4553SOL    HW125295   1.657   1.741   2.035 -2.0817  1.1997 -2.5334
 4553SOL    HW225296   1.697   1.821   1.907  0.3322  2.1597  1.4528
 4554SOL     OW25297   1.611   0.666   2.993 -0.4502 -0.1671 -0.2816
 4554SOL    HW125298   1.565   0.732   2.942 -3.1584  0.5397  3.0892
 4554SOL    HW225299   1.556   0.590   2.973 -2.6194  1.3200  0.1147
 4555SOL     OW25300   0.352   3.573   0.131 -0.3586 -0.2465  0.3476
 4555SOL    HW125301   0.359   3.619   0.215  0.0136 -0.8081  0.6264
 4555SOL    HW225302   0.349   3.642   0.065  2.4928 -1.8501 -1.4816
 4556SOL     OW25303   0.280   2.198   5.859  0.3267 -0.2722 -0.2115
 4556SOL    HW125304   0.278   2.102   5.853 -3.7076 -0.2134  0.3462
 4556SOL    HW225305   0.215   2.218   5.926 -0.7277 -1.8885 -0.7377
 4557SOL     OW25306   4.297   1.716   1.151  0.5161  0.7433 -0.4441
 4557SOL    HW125307   4.244   1.644   1.115 -0.9471  1.5794  0.0361
 4557SOL    HW225308   4.288   1.694   1.244  1.8607  1.4244 -0.1444
 4558SOL     OW25309   0.191   3.299   2.978 -0.0365 -0.5394  0.4346
 4558SOL    HW125310   0.212   3.313   2.886  2.8927  2.6613  1.6145
 4558SOL    HW225311   0.149   3.214   2.963  0.2246 -0.4701 -0.6581
 4559SOL     OW25312   0.075   0.261  17.473  0.4003  0.1490 -0.5589
 4559SOL    HW125313   0.136   0.307  17.531  0.1745  0.5692 -0.6544
 4559SOL    HW225314   0.074   0.174  17.511  0.1248  0.2209 -0.4024
 4560SOL     OW25315   0.689   0.463   8.158  0.4575 -0.0730 -0.2983
 4560SOL    HW125316   0.737   0.413   8.091 -2.2348  0.8541 -2.9271
 4560SOL    HW225317   0.755   0.479   8.225  0.0150  1.2139 -0.1762
 4561SOL     OW25318   2.788   1.441   9.343  0.0671  0.4371 -0.4537
 4561SOL    HW125319   2.833   1.398   9.416 -0.8638 -0.0984 -0.1927
 4561SOL    HW225320   2.854   1.461   9.277 -0.4607 -0.2301 -1.1704
 4562SOL     OW25321   1.237   3.504   3.307  0.3274  0.3914 -0.0021
 4562SOL    HW125322   1.206   3.428   3.258  0.5166 -0.8064  1.7358
 4562SOL    HW225323   1.178   3.565   3.262 -0.8940  0.3862  1.5967
 4563SOL     OW25324   0.900   1.176   5.975  0.2023  0.1140 -0.0502
 4563SOL    HW125325   0.884   1.169   6.069 -1.2471  0.2346 -0.2837
 4563SOL    HW225326   0.898   1.082   5.956 -0.6024  0.1309 -0.0862
 4564SOL     OW25327   4.356   1.461   2.538  0.1978  0.1866 -0.5689
 4564SOL    HW125328   4.377   1.541   2.586  0.4861  0.0193 -0.4207
 4564SOL    HW225329   4.396   1.457   2.451  0.8419 -0.0700 -0.2581
 4565SOL     OW25330   0.866   1.176   6.261  0.5367  0.0005  0.3726
 4565SOL    HW125331   0.924   1.217   6.325  0.8456  0.7801 -0.4113
 4565SOL    HW225332   0.782   1.216   6.282  0.7982  1.2908 -0.9992
 4566SOL     OW25333   2.441   1.918   9.751 -0.0341  0.3845  0.3342
 4566SOL    HW125334   2.420   1.837   9.704  1.4522  0.9229 -1.2368
 4566SOL    HW225335   2.433   1.973   9.673  1.1395  1.0890  0.7256
 4567SOL     OW25336   3.053   2.269   8.124  0.1737  0.0840 -0.0293
 4567SOL    HW125337   3.088   2.343   8.076  0.3519  1.0025  1.5160
 4567SOL    HW225338   3.054   2.196   8.062 -1.5261  0.8850 -1.0043
 4568SOL     OW25339   3.117   3.900   2.880 -0.1169 -0.1265 -0.6072
 4568SOL    HW125340   3.174   3.859   2.816 -2.2139 -2.1351 -1.1920
 4568SOL    HW225341   3.085   3.824   2.929  1.1445  0.0842  0.5486
 4569SOL     OW25342   4.430   2.771   7.607 -0.3099  0.0910  0.0405
 4569SOL    HW125343   4.466   2.689   7.576  1.8370  2.2568 -3.0973
 4569SOL    HW225344   4.453   2.760   7.700  1.0058  1.4302 -0.1378
 4570SOL     OW25345   1.324   4.291  17.217  0.4978 -0.1295  0.2412
 4570SOL    HW125346   1.265   4.225  17.180  0.5269 -1.1043  1.9232
 4570SOL    HW225347   1.279   4.372  17.195  1.3630  0.7163  1.5852
 4571SOL     OW25348   0.749   2.422  16.430  0.0241  0.3860 -0.4466
 4571SOL    HW125349   0.839   2.415  16.462 -0.3086 -0.9411  0.1913
 4571SOL    HW225350   0.693   2.433  16.506 -0.6194 -3.0326 -0.4259
 4572SOL     OW25351   4.016   2.448   6.595  0.0430 -0.2898  0.3273
 4572SOL    HW125352   4.071   2.526   6.591  3.0782 -2.6244 -3.1779
 4572SOL    HW225353   3.923   2.469   6.607  0.0834 -1.1871  2.2569
 4573SOL     OW25354   0.783   0.061   7.582 -0.2966 -0.7374 -0.3406
 4573SOL    HW125355   0.731   0.132   7.547  0.2926 -1.7535 -3.2445
 4573SOL    HW225356   0.818   0.023   7.501  3.7885  1.3752  0.4118
 4574SOL     OW25357   2.564   3.504   6.549  0.1718  0.1478 -0.1005
 4574SOL    HW125358   2.574   3.409   6.544  0.3756 -0.0042  3.1091
 4574SOL    HW225359   2.563   3.507   6.645  0.5341  0.5201 -0.1088
 4575SOL     OW25360   4.048   4.733   2.748 -0.3472  0.2523 -0.4475
 4575SOL    HW125361   4.008   4.702   2.829  1.7267 -1.5860 -0.0972
 4575SOL    HW225362   4.043   0.086   2.764 -2.3652 -0.1155  1.0730
 4576SOL     OW25363   1.114   2.896   6.127 -0.2975  0.0413 -0.2958
 4576SOL    HW125364   1.115   2.825   6.063 -1.1053  1.2841 -1.6885
 4576SOL    HW225365   1.197   2.941   6.112 -0.4592  0.0412 -1.1790
 4577SOL     OW25366   2.420   3.725   6.067  0.2459 -0.4619  0.3240
 4577SOL    HW125367   2.476   3.661   6.109 -0.4654 -0.2226  1.6464
 4577SOL    HW225368   2.421   3.796   6.131  0.2214  0.8211 -1.0887
 4578SOL     OW25369   0.616   3.026   4.203  0.3428 -0.4194 -0.0073
 4578SOL    HW125370   0.624   3.011   4.297  3.4778  1.4787  0.0250
 4578SOL    HW225371   0.521   3.043   4.200  0.6245  1.0720 -0.3656
 4579SOL     OW25372   4.540   0.188  11.547 -0.1488 -0.8381  0.5156
 4579SOL    HW125373   4.567   0.275  11.577 -1.1028  0.2711 -1.8695
 4579SOL    HW225374   4.508   0.212  11.460 -2.5505 -1.1311  1.3205
 4580SOL     OW25375   1.475   3.265   3.983  0.0781  0.2163  0.0569
 4580SOL    HW125376   1.438   3.324   4.050 -0.8355  1.0595 -1.1873
 4580SOL    HW225377   1.570   3.276   3.984 -0.3349  3.7969  2.2880
 4581SOL     OW25378   0.019   1.381   7.722  0.2293  0.3386  0.3530
 4581SOL    HW125379   0.111   1.406   7.732  0.0852  1.3237 -0.8352
 4581SOL    HW225380   4.724   1.456   7.675  0.0734 -0.3877 -0.6974
 4582SOL     OW25381   2.387   4.521   5.920 -0.1468  0.3974 -0.5068
 4582SOL    HW125382   2.442   4.578   5.974  2.1040 -3.1739  0.9689
 4582SOL    HW225383   2.362   4.579   5.848 -2.6051  1.6351  1.3812
 4583SOL     OW25384   3.316   4.223   7.237  0.9672 -0.3872 -0.0678
 4583SOL    HW125385   3.267   4.180   7.307 -1.3763  1.4292 -0.6099
 4583SOL    HW225386   3.400   4.235   7.282  0.0975 -0.7955  1.6590
 4584SOL     OW25387   0.700   4.283   5.804  0.6363 -1.1412 -0.5474
 4584SOL    HW125388   0.640   4.337   5.855  1.9862 -1.1994  1.0819
 4584SOL    HW225389   0.655   4.264   5.722  0.3069  3.0987 -1.3801
 4585SOL     OW25390   4.544   0.049   4.058  0.1808 -0.7411 -0.2108
 4585SOL    HW125391   4.531   4.722   3.991  1.4254  1.2979 -2.5187
 4585SOL    HW225392   4.476   0.112   4.037  1.0158  1.2103  3.0032
 4586SOL     OW25393   0.046   4.312   2.170 -0.2440  0.3488 -0.0043
 4586SOL    HW125394   0.063   4.365   2.248 -0.4555 -0.3060  0.4873
 4586SOL    HW225395   0.137   4.296   2.143 -0.8854 -1.6133 -1.0347
 4587SOL     OW25396   4.505   2.661   4.212 -0.0222 -0.6595 -0.1193
 4587SOL    HW125397   4.490   2.573   4.180  0.9876 -0.8672 -0.0255
 4587SOL    HW225398   4.483   2.716   4.136 -2.6081 -1.4574  0.0481
 4588SOL     OW25399   2.284   0.323   1.243 -0.0625 -0.0573 -0.0078
 4588SOL    HW125400   2.208   0.266   1.229 -0.1325  0.3319 -1.2339
 4588SOL    HW225401   2.253   0.413   1.229  1.9920  0.8205  1.0298
 4589SOL     OW25402   4.227   1.401   4.407  0.2506 -0.3051  0.2256
 4589SOL    HW125403   4.238   1.359   4.493 -2.1826 -0.1084  0.6450
 4589SOL    HW225404   4.202   1.486   4.442 -2.0268 -0.6130 -0.6377
 4590SOL     OW25405   1.965   0.443   9.649  0.3572 -0.2779  0.0631
 4590SOL    HW125406   2.032   0.456   9.582  0.5205  0.4278  0.3544
 4590SOL    HW225407   1.931   0.362   9.612  2.0173 -0.2296 -1.6027
 4591SOL     OW25408   2.162   2.761   5.314  0.1077  0.0662 -0.4139
 4591SOL    HW125409   2.141   2.671   5.293  1.2089 -0.6867  1.6919
 4591SOL    HW225410   2.108   2.794   5.386 -1.2527 -0.2335 -1.3012
 4592SOL     OW25411   1.983   0.896  16.303 -0.1984 -0.2604  0.0924
 4592SOL    HW125412   2.001   0.960  16.235  1.7476 -1.0339 -0.1186
 4592SOL    HW225413   1.912   0.946  16.343  0.3696  0.4314  0.2254
 4593SOL     OW25414   3.232   4.443   2.739  0.3012 -0.1204  0.0518
 4593SOL    HW125415   3.298   4.374   2.737  0.4931  0.0212  1.7777
 4593SOL    HW225416   3.149   4.401   2.760  0.2552 -0.6420 -1.1393
 4594SOL     OW25417   3.888   2.562   3.853  0.5836 -0.1148  0.1336
 4594SOL    HW125418   3.878   2.571   3.759 -1.0888  0.8892  0.3968
 4594SOL    HW225419   3.800   2.588   3.880  0.6760 -0.4101  0.7291
 4595SOL     OW25420   0.851   2.938   8.672  0.3842 -0.1645 -0.2508
 4595SOL    HW125421   0.863   3.005   8.605  0.8472 -2.3916 -2.3661
 4595SOL    HW225422   0.859   2.982   8.757 -0.5692 -3.4907  1.5520
 4596SOL     OW25423   0.847   2.696   7.840 -0.5152  0.4744 -0.0874
 4596SOL    HW125424   0.833   2.640   7.917  3.0804 -0.0194  0.1969
 4596SOL    HW225425   0.777   2.655   7.789  0.0194 -0.1623 -0.3094
 4597SOL     OW25426   0.325   3.012   3.218  0.0673 -0.4988 -0.8913
 4597SOL    HW125427   0.310   3.031   3.311  0.3876 -1.9906 -0.5366
 4597SOL    HW225428   0.380   2.935   3.220  0.6463 -0.0753 -0.5849
 4598SOL     OW25429   1.833   4.405  10.933 -0.1340 -0.1978  0.0392
 4598SOL    HW125430   1.874   4.397  11.019  1.7334 -0.9019 -0.9073
 4598SOL    HW225431   1.864   4.492  10.907  4.0919 -2.0875 -1.2575
 4599SOL     OW25432   1.928   3.128   9.298  0.0262  0.3868 -0.6484
 4599SOL    HW125433   2.021   3.149   9.290  0.1394 -0.0160 -0.3561
 4599SOL    HW225434   1.895   3.211   9.263 -0.8816  0.1702 -0.3098
 4600SOL     OW25435   3.270   4.360  15.526 -0.8774  0.3276 -0.1730
 4600SOL    HW125436   3.299   4.271  15.547  0.6524  1.2125  1.5426
 4600SOL    HW225437   3.279   4.397  15.614  1.0854 -1.1271  0.2503
 4601SOL     OW25438   1.076   2.172  17.294  0.2063  0.4684  0.2595
 4601SOL    HW125439   1.024   2.230  17.350 -1.1972 -1.6244  1.1299
 4601SOL    HW225440   1.093   2.100  17.354  0.9671  1.4650  1.2263
 4602SOL     OW25441   4.319   0.057   9.069 -0.5353 -0.7976  0.0037
 4602SOL    HW125442   4.254   0.115   9.030 -0.5907 -0.8621 -0.0010
 4602SOL    HW225443   4.396   0.114   9.076 -1.5214  0.7142 -1.6132
 4603SOL     OW25444   3.519   0.395   5.229 -0.4136 -0.3628 -0.3432
 4603SOL    HW125445   3.501   0.303   5.210 -0.9772 -0.4098  0.4176
 4603SOL    HW225446   3.432   0.413   5.266 -0.8896  0.2469 -1.7571
 4604SOL     OW25447   4.398   1.094   5.809 -0.1304 -0.1290  0.3986
 4604SOL    HW125448   4.486   1.057   5.819 -0.0196  0.3157  1.0263
 4604SOL    HW225449   4.352   1.019   5.769  0.0827 -0.8888  1.5869
 4605SOL     OW25450   2.976   2.020  13.049  0.2254 -0.0400  0.4560
 4605SOL    HW125451   3.012   1.992  12.965  0.6397  2.0992 -0.0837
 4605SOL    HW225452   2.954   2.110  13.024 -0.1931 -0.1992  0.2476
 4606SOL     OW25453   1.399   1.709   7.551  0.7867 -0.5327 -0.7509
 4606SOL    HW125454   1.337   1.650   7.508  0.8324 -0.6262 -0.6902
 4606SOL    HW225455   1.351   1.783   7.513 -1.8765 -1.1893  1.3111
 4607SOL     OW25456   3.362   4.483   6.091  0.0081  0.6127  0.1925
 4607SOL    HW125457   3.312   4.520   6.018 -0.5788  1.5368  1.0620
 4607SOL    HW225458   3.331   4.535   6.165  0.3557 -1.7366  1.9669
 4608SOL     OW25459   0.386   3.018   1.666 -0.4806 -0.0220  0.7558
 4608SOL    HW125460   0.383   3.106   1.703  0.9995  0.3838 -0.0885
 4608SOL    HW225461   0.460   2.985   1.717  0.8422  1.0518 -0.4544
 4609SOL     OW25462   4.610   3.600   8.491  0.2519 -0.3582  0.5803
 4609SOL    HW125463   4.552   3.529   8.463  0.3876  0.2987 -1.3507
 4609SOL    HW225464   4.656   3.546   8.556  1.3721 -1.9104 -1.4889
 4610SOL     OW25465   0.071   1.854  12.909 -0.1852 -0.1283  0.3813
 4610SOL    HW125466   0.005   1.921  12.892  0.4928  0.6849  1.0064
 4610SOL    HW225467   0.025   1.788  12.856 -2.9498  0.4288  2.0927
 4611SOL     OW25468   1.038   2.405  16.124 -0.1968 -0.5226  0.4704
 4611SOL    HW125469   1.083   2.432  16.044  2.2589 -0.4931  1.8356
 4611SOL    HW225470   1.067   2.478  16.180 -0.7375  0.4593 -0.5380
 4612SOL     OW25471   1.066   4.313  11.707  0.3744 -0.9532  0.2361
 4612SOL    HW125472   1.021   4.395  11.684 -2.2851 -1.6929  2.8426
 4612SOL    HW225473   1.081   4.328  11.800  0.1418 -1.0712  0.2923
 4613SOL     OW25474   1.346   2.288   7.115 -0.1671  0.2434  0.3344
 4613SOL    HW125475   1.282   2.350   7.149 -1.3013 -1.2491  0.9483
 4613SOL    HW225476   1.353   2.335   7.032 -2.0092  0.2553  0.1804
 4614SOL     OW25477   1.074   0.217   7.899 -0.2552 -0.2638 -0.3811
 4614SOL    HW125478   1.134   0.278   7.856  1.8231 -1.5870  0.6532
 4614SOL    HW225479   1.120   0.200   7.982 -0.3345  1.1343 -0.0639
 4615SOL     OW25480   2.039   1.169   6.574 -0.4828  0.3818 -0.0711
 4615SOL    HW125481   2.089   1.232   6.522 -0.2870  2.0972  2.1333
 4615SOL    HW225482   2.031   1.217   6.657 -0.8911  0.4879 -0.1692
 4616SOL     OW25483   0.893   4.372   3.453  0.1828  0.1194 -0.0592
 4616SOL    HW125484   0.905   4.462   3.421  0.0134 -0.2630 -1.2060
 4616SOL    HW225485   0.976   4.361   3.499 -0.0530 -1.2331  0.0199
 4617SOL     OW25486   2.650   3.726   3.674  0.0820 -0.2116 -0.0412
 4617SOL    HW125487   2.605   3.657   3.625 -0.3690  0.2006 -0.2027
 4617SOL    HW225488   2.585   3.756   3.737 -0.7540 -0.1918 -0.9111
 4618SOL     OW25489   2.663   1.668   5.404 -0.2229 -0.1623  0.0746
 4618SOL    HW125490   2.707   1.753   5.400 -4.0512  1.7724 -0.9580
 4618SOL    HW225491   2.699   1.628   5.325 -2.9074 -2.7714  0.1406
 4619SOL     OW25492   3.070   3.291  15.047 -0.2770  0.1579 -0.0689
 4619SOL    HW125493   3.130   3.225  15.081  1.4259  0.4781 -2.3861
 4619SOL    HW225494   2.994   3.269  15.099  0.8208  2.4371  2.4800
 4620SOL     OW25495   3.873   3.100  12.835 -0.4503 -0.1420 -0.0617
 4620SOL    HW125496   3.941   3.142  12.783 -1.3294  0.8518 -0.3982
 4620SOL    HW225497   3.877   3.009  12.805  1.9491 -0.9156  2.5420
 4621SOL     OW25498   3.105   0.147   5.968  0.1435 -0.1695 -0.2967
 4621SOL    HW125499   3.152   0.179   6.045  0.9679 -2.2331  0.0460
 4621SOL    HW225500   3.095   0.227   5.917  1.0378 -0.7079 -1.3197
 4622SOL     OW25501   1.663   3.019   5.918 -0.0073  0.0582 -0.2488
 4622SOL    HW125502   1.624   3.071   5.988  1.5842  0.1960  0.5115
 4622SOL    HW225503   1.631   2.932   5.944  2.1143 -0.8997 -0.8404
 4623SOL     OW25504   4.301   2.541   7.892 -0.3162  0.1650  0.1651
 4623SOL    HW125505   4.370   2.601   7.864  1.7100 -1.9460  0.6661
 4623SOL    HW225506   4.310   2.480   7.819  0.2655  2.0761 -1.3564
 4624SOL     OW25507   3.602   2.482   3.524 -0.1419 -0.1109 -0.1612
 4624SOL    HW125508   3.550   2.501   3.602 -1.6102 -0.3108 -1.0987
 4624SOL    HW225509   3.554   2.405   3.493 -2.9857  1.3053  0.7084
 4625SOL     OW25510   2.702   0.765  11.405  0.3926 -0.3456  0.0003
 4625SOL    HW125511   2.690   0.857  11.381  1.1778 -0.0154  0.8533
 4625SOL    HW225512   2.705   0.769  11.501 -1.2533 -0.4778  0.0496
 4626SOL     OW25513   0.451   3.790  16.412  0.5939  0.4576  0.3264
 4626SOL    HW125514   0.503   3.814  16.336 -0.8587 -0.1312 -0.8597
 4626SOL    HW225515   0.402   3.719  16.371  1.8739  0.8314 -1.8151
 4627SOL     OW25516   3.418   0.938   9.556 -0.1546 -0.1097  0.0956
 4627SOL    HW125517   3.355   0.881   9.600 -1.4822  2.0693  0.9867
 4627SOL    HW225518   3.450   0.876   9.490  0.7283  1.4247 -0.9130
 4628SOL     OW25519   2.220   0.755  15.413 -0.2517 -0.1252  0.4233
 4628SOL    HW125520   2.281   0.810  15.363 -2.1751  1.4665 -0.1617
 4628SOL    HW225521   2.145   0.801  15.377  0.7294  1.1826  0.0417
 4629SOL     OW25522   3.041   0.446   9.167 -0.7864 -0.1938 -0.3228
 4629SOL    HW125523   3.125   0.492   9.175 -1.0361  0.0539  0.8552
 4629SOL    HW225524   3.001   0.469   9.251 -0.3313  1.3448 -0.5370
 4630SOL     OW25525   3.939   1.618  11.368  0.4773 -0.1575  0.3114
 4630SOL    HW125526   4.034   1.610  11.363  0.5237  1.3083 -1.2446
 4630SOL    HW225527   3.908   1.564  11.295 -0.2701  1.8218 -0.8359
 4631SOL     OW25528   3.144   0.009   8.859  0.2005  0.9488 -0.1112
 4631SOL    HW125529   3.185   4.674   8.818  0.7941  1.3685 -0.2905
 4631SOL    HW225530   3.202   0.030   8.932 -0.9836  1.4874  0.6858
 4632SOL     OW25531   3.335   1.163   1.309  0.4707 -0.1106 -0.3758
 4632SOL    HW125532   3.366   1.085   1.263  1.0403  0.6546 -1.2979
 4632SOL    HW225533   3.385   1.153   1.390  0.5776  3.3248 -0.0028
 4633SOL     OW25534   2.219   1.303   8.536  0.7751 -0.4561  0.3904
 4633SOL    HW125535   2.131   1.330   8.511  0.0130 -2.2715  1.0639
 4633SOL    HW225536   2.260   1.295   8.450 -0.8069 -1.3419 -0.2788
 4634SOL     OW25537   3.086   3.784  14.409 -0.5584 -0.4503  0.1072
 4634SOL    HW125538   3.108   3.865  14.364 -0.4171 -0.5137  0.0606
 4634SOL    HW225539   3.122   3.811  14.494  3.1262 -0.3826 -1.4652
 4635SOL     OW25540   0.785   3.278   4.227  0.1132 -0.1492  0.1800
 4635SOL    HW125541   0.772   3.215   4.156  0.0175  0.1946 -0.1012
 4635SOL    HW225542   0.750   3.232   4.304 -1.6960 -1.1383 -1.2477
 4636SOL     OW25543   2.419   4.217  14.764  0.3400  0.0861  0.1590
 4636SOL    HW125544   2.460   4.204  14.678  0.4265  2.1839 -0.1103
 4636SOL    HW225545   2.333   4.244  14.731  0.5255  0.1413 -0.2815
 4637SOL     OW25546   1.267   4.133   0.099 -0.4910 -0.4061 -0.0976
 4637SOL    HW125547   1.355   4.097   0.111 -1.5197 -2.8254  0.2647
 4637SOL    HW225548   1.225   4.049   0.118  0.5949 -1.3334 -1.8468
 4638SOL     OW25549   1.124   2.397   0.515 -0.1813  0.0808  0.5124
 4638SOL    HW125550   1.029   2.385   0.517 -0.3464  1.1932 -0.9951
 4638SOL    HW225551   1.142   2.357   0.430 -1.7953 -1.4824  0.8924
 4639SOL     OW25552   1.928   0.320   4.622 -0.1519 -0.0594  0.3944
 4639SOL    HW125553   1.913   0.343   4.530  0.5428  1.0186  0.5528
 4639SOL    HW225554   2.017   0.287   4.609  0.2666  1.7942 -1.3393
 4640SOL     OW25555   3.535   2.777  17.589 -0.2208 -0.0673 -0.4509
 4640SOL    HW125556   3.620   2.815  17.564  0.5304  0.4722  2.8514
 4640SOL    HW225557   3.478   2.792  17.514  0.4123  0.7323 -0.7785
 4641SOL     OW25558   4.039   3.231   9.824  0.0880 -0.0199  0.4927
 4641SOL    HW125559   3.959   3.181   9.840 -0.9647  1.4237 -0.2430
 4641SOL    HW225560   3.991   3.311   9.803 -2.2171 -0.9846  2.1526
 4642SOL     OW25561   2.614   0.512  11.281  0.3981  0.1968  0.5454
 4642SOL    HW125562   2.689   0.513  11.221  1.2851  2.4044  1.6941
 4642SOL    HW225563   2.641   0.588  11.332 -0.7441 -0.1524  1.6661
 4643SOL     OW25564   3.263   2.778   3.728 -0.0547 -0.1261  0.9811
 4643SOL    HW125565   3.197   2.810   3.666  1.2635 -0.4606 -0.5927
 4643SOL    HW225566   3.192   2.750   3.786 -0.3435 -2.7014 -0.6326
 4644SOL     OW25567   3.894   4.573   4.307 -0.3060 -0.1218 -0.3894
 4644SOL    HW125568   3.844   4.574   4.389  0.9220  0.9433  0.3345
 4644SOL    HW225569   3.984   4.576   4.338  0.4995  0.6747 -2.7610
 4645SOL     OW25570   2.371   3.254   7.147  0.0013 -0.3156 -0.1019
 4645SOL    HW125571   2.426   3.176   7.152  0.7890  0.2884  0.6104
 4645SOL    HW225572   2.286   3.212   7.139  0.0891 -0.8586  1.7182
 4646SOL     OW25573   1.076   3.598   2.085 -0.1447 -0.0381 -0.0010
 4646SOL    HW125574   1.089   3.637   1.999 -0.1617  1.9278  0.8950
 4646SOL    HW225575   1.165   3.595   2.120 -0.0594  1.0112 -0.1240
 4647SOL     OW25576   1.307   0.639   5.372  0.5583 -0.1958 -0.2900
 4647SOL    HW125577   1.243   0.708   5.389  2.6247  0.8040  3.3896
 4647SOL    HW225578   1.328   0.645   5.279 -1.8937  1.9645 -0.6852
 4648SOL     OW25579   3.191   1.471  10.815 -0.6504 -0.0743  0.1921
 4648SOL    HW125580   3.112   1.456  10.867 -2.2584  2.8928 -1.4038
 4648SOL    HW225581   3.226   1.382  10.812 -0.5798 -0.0472  0.1932
 4649SOL     OW25582   4.383   3.725   3.609  0.1366  0.2038 -0.0169
 4649SOL    HW125583   4.456   3.768   3.654  0.2584 -1.3467  1.2757
 4649SOL    HW225584   4.405   3.632   3.613  2.0772  0.6372 -0.8255
 4650SOL     OW25585   2.095   0.060   8.264 -0.4109  0.3668 -0.6366
 4650SOL    HW125586   2.138   4.735   8.209  1.6596 -0.5884  2.1613
 4650SOL    HW225587   2.157   0.058   8.336  1.1229  0.4144 -1.9465
 4651SOL     OW25588   0.196   4.244   1.784 -0.3636  0.6660  0.1659
 4651SOL    HW125589   0.102   4.242   1.765 -0.4044 -2.2896  0.7026
 4651SOL    HW225590   0.201   4.330   1.824  0.6656  0.4217  0.5619
 4652SOL     OW25591   4.356   3.144   6.499  0.1148 -0.0304  0.4463
 4652SOL    HW125592   4.350   3.055   6.462 -0.8248  0.6918 -1.1324
 4652SOL    HW225593   4.390   3.190   6.422 -0.0975  1.0127  0.9767
 4653SOL     OW25594   0.776   0.432   7.688 -0.1004  0.3088  0.0145
 4653SOL    HW125595   0.746   0.367   7.624 -1.2712  0.1177  0.7644
 4653SOL    HW225596   0.705   0.495   7.674 -0.5070 -1.1190 -4.4969
 4654SOL     OW25597   1.412   1.640   3.840 -0.0009 -0.0901 -0.0430
 4654SOL    HW125598   1.436   1.629   3.932  1.0487 -3.1347 -0.6978
 4654SOL    HW225599   1.499   1.643   3.799 -0.7495  2.2150 -1.4756
 4655SOL     OW25600   0.102   4.081   6.934 -0.1101  0.2868 -0.0909
 4655SOL    HW125601   0.025   4.092   6.879 -0.3260 -1.2004 -0.1058
 4655SOL    HW225602   0.159   4.149   6.897  1.6641 -0.4482  1.2724
 4656SOL     OW25603   3.852   2.568   3.594  0.1352 -0.5709  0.2714
 4656SOL    HW125604   3.815   2.652   3.568 -0.3703 -0.8840 -0.0348
 4656SOL    HW225605   3.780   2.519   3.555  1.4030 -2.7197  0.6414
 4657SOL     OW25606   1.372   3.161   2.506  0.3293 -0.3592  0.4948
 4657SOL    HW125607   1.326   3.077   2.514  0.3111 -0.1114  3.0181
 4657SOL    HW225608   1.373   3.190   2.597 -0.2961 -1.6748  0.9314
 4658SOL     OW25609   2.697   3.626   0.700 -0.1288  0.1571 -0.5138
 4658SOL    HW125610   2.603   3.631   0.682 -0.5431  0.2108  1.6549
 4658SOL    HW225611   2.704   3.683   0.777  2.0816 -2.4313  1.1934
 4659SOL     OW25612   3.975   3.442   7.074  0.0864 -0.3400  0.2739
 4659SOL    HW125613   4.010   3.477   6.992 -0.1288  1.1803  0.8133
 4659SOL    HW225614   3.892   3.421   7.031  0.1517 -0.8785  0.4199
 4660SOL     OW25615   0.733   0.372   2.232 -0.3998  0.1870  0.3283
 4660SOL    HW125616   0.706   0.288   2.269 -3.5175  0.6631 -0.8569
 4660SOL    HW225617   0.660   0.420   2.272  0.1590  1.9129 -0.7587
 4661SOL     OW25618   2.415   4.282  14.031 -0.1142  0.1440  0.3138
 4661SOL    HW125619   2.353   4.234  13.976 -0.8780  3.4550 -1.7042
 4661SOL    HW225620   2.497   4.238  14.006 -0.9482 -1.1966 -0.0509
 4662SOL     OW25621   2.472   1.524   7.634  0.0698 -0.1138 -0.2512
 4662SOL    HW125622   2.463   1.505   7.541 -0.8703  1.8071 -0.5394
 4662SOL    HW225623   2.406   1.466   7.672  0.2093  0.0461  0.2386
 4663SOL     OW25624   4.445   3.644   9.429 -0.8147  0.1140  0.7548
 4663SOL    HW125625   4.510   3.678   9.367  0.7010 -1.4327  1.4657
 4663SOL    HW225626   4.375   3.706   9.414  0.9054  1.8186 -0.2198
 4664SOL     OW25627   4.206   2.891   7.363  0.3051 -0.1252  0.1300
 4664SOL    HW125628   4.196   2.899   7.458  0.9501 -0.5673  0.2418
 4664SOL    HW225629   4.239   2.802   7.352  1.4678  0.4832 -1.3059
 4665SOL     OW25630   2.142   2.649   5.924  0.4323  0.6135 -0.1275
 4665SOL    HW125631   2.190   2.662   5.842 -0.3773  1.1618 -0.5221
 4665SOL    HW225632   2.200   2.698   5.983 -1.5940  1.5796  1.0535
 4666SOL     OW25633   4.540   3.049  15.534 -0.4646 -0.0545 -0.2683
 4666SOL    HW125634   4.600   3.114  15.570  0.0245 -0.5416 -0.1989
 4666SOL    HW225635   4.457   3.097  15.541 -0.1822  0.2380  1.1894
 4667SOL     OW25636   1.134   1.614   6.373  0.0697 -0.7612  0.0720
 4667SOL    HW125637   1.217   1.572   6.394  0.0876 -0.5552  0.4049
 4667SOL    HW225638   1.120   1.673   6.447 -0.6496 -0.5485 -0.2342
 4668SOL     OW25639   3.847   2.735   9.721 -0.1219 -0.1630 -0.2937
 4668SOL    HW125640   3.917   2.682   9.683  1.0054  0.0762  1.4843
 4668SOL    HW225641   3.810   2.785   9.647  0.1190  0.5285  0.0574
 4669SOL     OW25642   3.151   3.635   8.133  0.2482 -0.2861  0.1800
 4669SOL    HW125643   3.129   3.562   8.075  0.0407  0.2698 -0.4467
 4669SOL    HW225644   3.063   3.667   8.154  0.1279 -0.8649  0.5608
 4670SOL     OW25645   0.114   3.262   4.152  0.1176 -0.2913 -0.6735
 4670SOL    HW125646   0.033   3.214   4.167 -0.0990 -0.3649 -2.0683
 4670SOL    HW225647   0.174   3.240   4.223 -0.1698 -1.4985 -0.8165
 4671SOL     OW25648   4.125   3.606   3.806  0.2610 -0.3077  0.3918
 4671SOL    HW125649   4.130   3.597   3.901  1.6478  0.4841  0.3953
 4671SOL    HW225650   4.100   3.698   3.798 -1.7747 -0.7300  1.6444
 4672SOL     OW25651   2.716   3.849   1.986  0.2137 -0.4801  0.7663
 4672SOL    HW125652   2.745   3.853   1.895  0.5413 -1.9715  0.8189
 4672SOL    HW225653   2.798   3.815   2.022  0.3710 -0.2590  0.6160
 4673SOL     OW25654   0.201   0.667   7.919 -0.4484 -0.3722  0.6787
 4673SOL    HW125655   0.229   0.618   7.842 -0.5770  1.8590 -0.7868
 4673SOL    HW225656   0.120   0.705   7.884  0.8112  1.5019 -0.1830
 4674SOL     OW25657   0.170   0.443   0.674 -0.9367 -0.5961 -0.2965
 4674SOL    HW125658   0.263   0.430   0.690 -0.8994  1.5850  1.2854
 4674SOL    HW225659   0.148   0.361   0.630 -2.7294 -0.0968 -0.3341
 4675SOL     OW25660   1.581   2.873   7.313 -0.1091 -0.3314 -0.1181
 4675SOL    HW125661   1.491   2.840   7.311 -0.4960  0.7840 -1.1703
 4675SOL    HW225662   1.582   2.932   7.237  1.0409 -0.1650  0.0184
 4676SOL     OW25663   3.233   2.827   6.499  0.1223  0.3587  0.4702
 4676SOL    HW125664   3.192   2.843   6.414  2.9824  1.2670 -0.7590
 4676SOL    HW225665   3.286   2.749   6.485  0.3939  0.8817 -1.4249
 4677SOL     OW25666   4.037   4.231   5.595 -0.6067 -0.1417  1.0565
 4677SOL    HW125667   3.941   4.231   5.600 -0.7321 -1.4825 -1.2644
 4677SOL    HW225668   4.071   4.145   5.619 -0.5451 -1.0369 -2.3334
 4678SOL     OW25669   4.335   0.845  16.929  0.1137 -0.1502  0.0068
 4678SOL    HW125670   4.302   0.934  16.914  1.4729  0.1906 -0.9354
 4678SOL    HW225671   4.394   0.856  17.004  0.2519 -2.6484  0.2630
 4679SOL     OW25672   1.246   4.478   2.919 -0.6678  0.1843 -0.0104
 4679SOL    HW125673   1.235   4.383   2.921  2.2536 -0.1184  1.1279
 4679SOL    HW225674   1.342   4.478   2.921 -0.6661  0.7832 -0.1794
 4680SOL     OW25675   2.043   0.117   4.931  0.0435 -0.1442  0.1797
 4680SOL    HW125676   2.121   0.140   4.880 -1.0164  0.5644 -1.1153
 4680SOL    HW225677   1.973   0.163   4.885 -1.5307 -2.6946  0.0175
 4681SOL     OW25678   2.359   2.807  12.169  0.1973  0.2603 -0.1003
 4681SOL    HW125679   2.377   2.887  12.218  0.9785  0.8101 -1.2801
 4681SOL    HW225680   2.326   2.754  12.241  1.8817 -1.0692 -0.3001
 4682SOL     OW25681   1.291   2.814   5.012 -0.6828  0.2793 -0.3024
 4682SOL    HW125682   1.346   2.788   4.938 -0.0677  1.3811 -0.2388
 4682SOL    HW225683   1.306   2.739   5.069 -1.5338 -0.1152 -0.6026
 4683SOL     OW25684   2.487   3.099   8.615  0.0871 -0.0340 -0.0596
 4683SOL    HW125685   2.415   3.039   8.601 -2.2010  2.9896 -1.2761
 4683SOL    HW225686   2.435   3.177   8.636 -0.1561  0.2250 -1.6092
 4684SOL     OW25687   0.040   2.819  10.472 -0.1179  0.2064 -0.0473
 4684SOL    HW125688   0.053   2.810  10.566 -0.2191  0.9426  0.0403
 4684SOL    HW225689   0.005   2.734  10.445  3.1721 -1.7993  2.1543
 4685SOL     OW25690   2.425   0.919   7.392  0.0517 -0.2653  0.1854
 4685SOL    HW125691   2.377   0.840   7.367  1.0867 -0.9121  0.2209
 4685SOL    HW225692   2.363   0.989   7.373 -0.4065 -0.3376  1.4332
 4686SOL     OW25693   3.054   3.082   5.234  0.3818 -0.3006  0.1924
 4686SOL    HW125694   3.094   3.040   5.158 -0.4714 -0.1322 -0.3454
 4686SOL    HW225695   3.090   3.035   5.309  0.6166  0.5034  0.5864
 4687SOL     OW25696   0.113   4.009   4.360  0.0868  0.0978 -0.2553
 4687SOL    HW125697   0.104   4.071   4.288 -1.6905 -1.5117 -1.4356
 4687SOL    HW225698   0.208   4.018   4.372 -0.0898  2.2855 -0.5518
 4688SOL     OW25699   0.031   0.115   5.581  0.9724  0.0886  0.3441
 4688SOL    HW125700   4.728   0.033   5.604 -0.5101  0.8569  0.2898
 4688SOL    HW225701   4.702   0.154   5.529  1.4761 -0.5766 -0.8527
 4689SOL     OW25702   1.801   1.751  12.698  0.6286 -0.6099  0.8113
 4689SOL    HW125703   1.851   1.790  12.626  2.2652 -1.8171  1.2879
 4689SOL    HW225704   1.730   1.724  12.640  1.3652 -0.7181 -0.0319
 4690SOL     OW25705   0.878   0.373   1.617 -1.1093 -0.0899 -0.4079
 4690SOL    HW125706   0.791   0.402   1.644 -0.1717  0.7859  1.6528
 4690SOL    HW225707   0.858   0.366   1.524 -0.3482  0.9281 -0.6478
 4691SOL     OW25708   1.008   0.045  16.651  0.0362  0.0782  0.1341
 4691SOL    HW125709   1.019   0.006  16.738 -0.5677 -2.0173 -0.7249
 4691SOL    HW225710   0.984   4.710  16.598  3.6933 -0.7517 -0.3912
 4692SOL     OW25711   3.538   3.472   5.069  0.4859  1.1245  0.2418
 4692SOL    HW125712   3.451   3.440   5.047  1.4724 -1.2561 -0.2516
 4692SOL    HW225713   3.556   3.436   5.156  1.3900 -1.1816 -0.8880
 4693SOL     OW25714   4.437   3.838  16.955  0.1252 -0.2122 -0.0259
 4693SOL    HW125715   4.483   3.866  17.035 -2.0199  0.8212  0.8419
 4693SOL    HW225716   4.364   3.784  16.986  1.4058 -2.0770 -0.2318
 4694SOL     OW25717   1.963   0.434   3.855 -0.1959 -0.1217 -0.5534
 4694SOL    HW125718   1.872   0.438   3.824 -0.0773 -2.3397 -1.1641
 4694SOL    HW225719   1.983   0.341   3.858  0.1010 -0.0153  0.6667
 4695SOL     OW25720   0.498   0.223  16.818 -0.5597  0.4724 -0.2223
 4695SOL    HW125721   0.429   0.172  16.861  1.3343 -3.5590 -1.8974
 4695SOL    HW225722   0.478   0.198  16.728  1.7329 -0.0633 -0.6054
 4696SOL     OW25723   0.799   1.548   6.014  0.0526  0.0033  0.9456
 4696SOL    HW125724   0.819   1.636   6.048  1.4965 -0.2210  0.7042
 4696SOL    HW225725   0.779   1.567   5.923 -1.1593  0.3106  1.2790
 4697SOL     OW25726   3.905   3.946   5.949 -0.1547 -0.8274 -0.3223
 4697SOL    HW125727   3.922   3.893   6.027 -0.1461 -0.6061 -0.1753
 4697SOL    HW225728   3.821   3.913   5.917 -1.3942  1.3641  0.7172
 4698SOL     OW25729   4.738   2.548   5.000  0.2638 -0.5948  0.3331
 4698SOL    HW125730   4.697   2.632   5.017  1.6559 -0.0083  0.7842
 4698SOL    HW225731   0.086   2.581   4.986  0.5932 -1.6270 -0.0474
 4699SOL     OW25732   3.791   1.691  10.908  0.0591  0.1289  0.1970
 4699SOL    HW125733   3.791   1.778  10.947  0.8653  0.4339 -0.4900
 4699SOL    HW225734   3.721   1.704  10.845 -1.4148  0.7062  1.9591
 4700SOL     OW25735   0.604   2.410   2.702  0.1343 -0.1708  0.6354
 4700SOL    HW125736   0.692   2.377   2.680  0.4180  1.9694 -1.4546
 4700SOL    HW225737   0.602   2.385   2.794 -2.3965  4.0603  1.6810
 4701SOL     OW25738   2.098   2.533   0.532 -0.3529  0.2128 -0.2621
 4701SOL    HW125739   2.133   2.460   0.584  1.6586  1.4176  0.0447
 4701SOL    HW225740   2.006   2.504   0.527 -0.0051 -1.4302  2.7220
 4702SOL     OW25741   2.717   4.308   0.511 -0.2650  0.4215  0.2808
 4702SOL    HW125742   2.644   4.263   0.555  0.7302 -1.9614 -0.5024
 4702SOL    HW225743   2.744   4.365   0.583 -1.4450  1.2672  0.0611
 4703SOL     OW25744   3.829   1.951   7.979 -0.0740 -0.1454  0.0198
 4703SOL    HW125745   3.829   1.942   8.074 -1.3995  1.3969  0.1737
 4703SOL    HW225746   3.835   2.046   7.965 -1.7457 -0.0033  0.2256
 4704SOL     OW25747   3.055   2.124   7.459 -0.1667  0.6127  0.5537
 4704SOL    HW125748   3.096   2.046   7.497 -2.4275 -1.7434 -1.8787
 4704SOL    HW225749   2.993   2.144   7.529  0.4687  1.2726  0.9271
 4705SOL     OW25750   4.720   0.347  12.251  0.1782  0.0309  0.7607
 4705SOL    HW125751   4.651   0.301  12.204  0.0782  3.5661 -2.5346
 4705SOL    HW225752   0.060   0.308  12.215 -0.4248  0.5842 -1.1986
 4706SOL     OW25753   1.157   2.895   8.009 -0.0901 -0.5539  0.2159
 4706SOL    HW125754   1.139   2.836   7.935 -3.1068  0.5096  0.1388
 4706SOL    HW225755   1.165   2.981   7.968 -1.5079  0.1070  1.3290
 4707SOL     OW25756   0.258   2.068   6.693 -0.1780  0.2953  0.1445
 4707SOL    HW125757   0.166   2.089   6.673 -0.3052 -0.3926  0.0212
 4707SOL    HW225758   0.251   1.976   6.719 -1.1589  1.1816  3.0172
 4708SOL     OW25759   0.436   1.076   7.040 -0.0919  0.2748 -0.0881
 4708SOL    HW125760   0.412   0.984   7.022 -0.8387  0.4672 -0.1052
 4708SOL    HW225761   0.395   1.088   7.125 -5.4396  1.0486 -2.7661
 4709SOL     OW25762   3.322   3.327   3.870  0.1713 -0.7052  0.2876
 4709SOL    HW125763   3.339   3.297   3.781 -1.6433  0.0480 -0.3119
 4709SOL    HW225764   3.323   3.243   3.916 -0.1840 -1.3318 -0.8637
 4710SOL     OW25765   0.131   3.144  12.524 -0.1468 -0.4320  0.0956
 4710SOL    HW125766   0.183   3.159  12.603 -0.5558 -4.5222  1.1045
 4710SOL    HW225767   0.074   3.072  12.550 -0.6407  0.5288  1.6509
 4711SOL     OW25768   4.477   2.766  16.495 -0.0560 -0.0813 -0.2085
 4711SOL    HW125769   4.524   2.706  16.437  0.7039  0.9437 -0.6462
 4711SOL    HW225770   4.417   2.708  16.542 -0.4672 -2.0578 -3.1551
 4712SOL     OW25771   4.534   0.594  17.043 -0.2140  0.1428  0.1045
 4712SOL    HW125772   4.593   0.627  17.111 -0.4992  0.7570  0.0600
 4712SOL    HW225773   4.590   0.562  16.971  1.7396 -0.3527  1.8333
 4713SOL     OW25774   1.271   3.659   8.532  0.5246 -0.4619  0.2274
 4713SOL    HW125775   1.191   3.642   8.481  0.8193  0.1527 -0.4424
 4713SOL    HW225776   1.304   3.571   8.511  1.2045  0.0707 -0.9430
 4714SOL     OW25777   1.257   0.709  16.670  0.0314 -0.3252 -0.6313
 4714SOL    HW125778   1.272   0.702  16.764  0.6244 -3.1162 -0.9256
 4714SOL    HW225779   1.342   0.729  16.631  1.2466  1.1652  2.7988
 4715SOL     OW25780   4.342   1.392   2.134 -0.0259  0.3162 -0.7681
 4715SOL    HW125781   4.341   1.455   2.062 -1.0438 -0.4697 -1.4629
 4715SOL    HW225782   4.263   1.417   2.182  0.1524  0.7797 -0.7207
 4716SOL     OW25783   2.162   3.710   8.267 -0.3081 -0.5378  0.3388
 4716SOL    HW125784   2.256   3.712   8.287 -0.4582 -1.1238  1.1319
 4716SOL    HW225785   2.135   3.791   8.309  1.1197  0.1231 -0.0186
 4717SOL     OW25786   3.141   2.430   8.884  0.2276 -0.0211 -0.0893
 4717SOL    HW125787   3.079   2.468   8.947 -0.2334 -0.5686 -0.2121
 4717SOL    HW225788   3.091   2.400   8.809 -0.0560  0.7358 -0.2015
 4718SOL     OW25789   0.796   3.171   5.794  0.2771 -0.1055  0.7133
 4718SOL    HW125790   0.854   3.185   5.870  3.1732  1.3219 -1.7573
 4718SOL    HW225791   0.871   3.177   5.735  1.4398  2.2860  2.3860
 4719SOL     OW25792   0.680   1.099   8.989  0.1450  0.0916 -0.0295
 4719SOL    HW125793   0.638   1.026   9.033  1.5644 -0.9068 -0.3279
 4719SOL    HW225794   0.768   1.091   9.027  0.4213 -0.2879 -0.7534
 4720SOL     OW25795   1.221   0.724   4.089  0.5772  0.1771 -0.1277
 4720SOL    HW125796   1.268   0.703   4.170  2.0721  3.5620 -0.1109
 4720SOL    HW225797   1.226   0.820   4.086  2.0103  0.0323 -1.8043
 4721SOL     OW25798   0.821   0.931  14.484 -0.4666 -1.0026 -0.0161
 4721SOL    HW125799   0.776   1.011  14.457 -0.2686 -1.6150 -2.1995
 4721SOL    HW225800   0.787   0.869  14.419 -1.5173  1.5548 -1.9182
 4722SOL     OW25801   1.453   4.008   2.292  0.3248 -0.1387 -0.3804
 4722SOL    HW125802   1.482   4.023   2.202  1.5375 -2.0459 -0.3130
 4722SOL    HW225803   1.540   3.980   2.322  0.8672  1.9499 -0.0198
 4723SOL     OW25804   3.576   3.793  16.197  0.0449 -0.8080  0.2244
 4723SOL    HW125805   3.552   3.779  16.289  1.0372 -0.7595  0.4852
 4723SOL    HW225806   3.487   3.799  16.161 -0.0846  1.2009  0.9034
 4724SOL     OW25807   1.603   3.086   4.530 -0.5957 -0.1060 -0.3151
 4724SOL    HW125808   1.594   3.002   4.484  2.3375 -0.7618  0.2846
 4724SOL    HW225809   1.575   3.064   4.619  2.2211 -3.5592 -0.2958
 4725SOL     OW25810   1.115   3.130   2.252 -0.3747  0.0984  0.5225
 4725SOL    HW125811   1.034   3.097   2.293 -0.1158  0.8147  1.6177
 4725SOL    HW225812   1.149   3.052   2.209  0.1955 -0.0267  1.1937
 4726SOL     OW25813   0.560   0.408   1.495 -0.1470  0.3099 -0.0817
 4726SOL    HW125814   0.628   0.376   1.437  1.5568  0.9312  1.5841
 4726SOL    HW225815   0.499   0.448   1.433 -0.9204 -0.1054  0.4070
 4727SOL     OW25816   3.838   3.113   3.697  0.3165  0.2343 -0.4873
 4727SOL    HW125817   3.889   3.085   3.621  2.6365  1.2677  0.6742
 4727SOL    HW225818   3.915   3.151   3.740 -1.5927  0.2705  2.8177
 4728SOL     OW25819   2.124   0.408   9.418  0.0329 -0.5875  0.2171
 4728SOL    HW125820   2.200   0.407   9.359  0.7674 -0.2732  1.1571
 4728SOL    HW225821   2.067   0.455   9.358  0.6637  0.3759  0.3788
 4729SOL     OW25822   3.932   4.288   8.001  0.2536 -0.0925  0.6922
 4729SOL    HW125823   3.882   4.366   8.025 -0.2219  0.6692 -2.7671
 4729SOL    HW225824   3.861   4.227   7.981 -0.8170  1.5641 -0.6099
 4730SOL     OW25825   2.593   4.511   4.852 -0.3100 -0.2166  0.0349
 4730SOL    HW125826   2.683   4.516   4.822 -0.0802 -0.6041  0.6548
 4730SOL    HW225827   2.593   4.415   4.848 -1.4411 -0.2259  0.1114
 4731SOL     OW25828   3.013   4.606   2.095  0.1466  0.3866  0.6571
 4731SOL    HW125829   3.098   4.583   2.134  1.6606  4.4031 -0.3446
 4731SOL    HW225830   2.965   4.626   2.175  0.3403 -2.5827  1.5282
 4732SOL     OW25831   0.980   2.598   3.271 -0.2953 -0.0396  0.5123
 4732SOL    HW125832   1.067   2.561   3.277  0.2779  0.5829 -3.5268
 4732SOL    HW225833   0.993   2.675   3.326  1.5268 -1.6562  2.3288
 4733SOL     OW25834   0.938   2.855  12.532 -0.4599 -0.2869  0.1028
 4733SOL    HW125835   0.920   2.771  12.576  1.3766  0.1528  1.7085
 4733SOL    HW225836   1.033   2.863  12.542 -0.7087  3.0255 -0.3481
 4734SOL     OW25837   2.529   0.548   0.497  0.2041 -0.2453  0.4227
 4734SOL    HW125838   2.447   0.593   0.517 -0.7277 -0.4518 -2.9090
 4734SOL    HW225839   2.593   0.608   0.535 -0.1131  0.6130 -0.4138
 4735SOL     OW25840   1.213   1.790   7.828  0.4139 -0.3779 -0.3221
 4735SOL    HW125841   1.219   1.722   7.895 -0.1979  0.3801  0.5076
 4735SOL    HW225842   1.302   1.825   7.823 -0.3299  1.6973  0.8711
 4736SOL     OW25843   3.628   1.408   5.093 -0.4220 -0.4810  0.0113
 4736SOL    HW125844   3.580   1.366   5.164 -2.1796  1.1924 -0.1988
 4736SOL    HW225845   3.718   1.399   5.124  0.0822 -0.0304 -1.3199
 4737SOL     OW25846   2.517   0.908  10.611  0.4225  0.1688 -0.3357
 4737SOL    HW125847   2.534   0.903  10.705 -3.0834 -1.1462  0.2642
 4737SOL    HW225848   2.423   0.926  10.608  0.0589 -0.9830  4.0167
 4738SOL     OW25849   0.934   2.133   0.534  0.5032 -0.5370  0.0308
 4738SOL    HW125850   0.876   2.088   0.473 -0.3302  0.3924  0.1173
 4738SOL    HW225851   0.995   2.061   0.543 -0.3483 -1.7938 -4.2372
 4739SOL     OW25852   1.219   2.449   8.985  0.0974 -0.2674 -0.3396
 4739SOL    HW125853   1.263   2.392   8.923  0.7375  0.1164 -0.2423
 4739SOL    HW225854   1.287   2.490   9.039 -0.2279 -1.5578  1.0381
 4740SOL     OW25855   3.214   4.523   4.246  0.0896  0.1386  0.6631
 4740SOL    HW125856   3.244   4.436   4.221  2.0792  0.7382  1.0038
 4740SOL    HW225857   3.122   4.520   4.218  0.5446  0.1120 -0.8165
 4741SOL     OW25858   4.142   1.682   1.618  0.3435  0.4315 -0.4499
 4741SOL    HW125859   4.135   1.771   1.654  1.7448  0.4277 -0.1613
 4741SOL    HW225860   4.064   1.643   1.657 -0.6713  1.4059 -1.5129
 4742SOL     OW25861   1.307   3.572   1.321 -0.2526  0.5945  0.2401
 4742SOL    HW125862   1.332   3.630   1.248  2.5849 -0.6769  0.2276
 4742SOL    HW225863   1.377   3.588   1.384 -0.9291  4.6680 -0.0399
 4743SOL     OW25864   2.061   4.501   6.561  0.2283 -0.5700  0.1028
 4743SOL    HW125865   2.094   4.421   6.520 -0.1606  0.3898 -2.1092
 4743SOL    HW225866   2.021   4.464   6.639 -1.2958  1.1892  0.1682
 4744SOL     OW25867   4.151   3.924   0.625 -0.2101  0.5717  0.0373
 4744SOL    HW125868   4.185   3.992   0.567 -0.4301  0.2701 -0.4379
 4744SOL    HW225869   4.230   3.909   0.677 -1.2047  1.9592  1.9670
 4745SOL     OW25870   1.729   0.816   6.415  0.5894 -0.7016  0.3099
 4745SOL    HW125871   1.695   0.729   6.396  0.7012 -0.4140 -1.2363
 4745SOL    HW225872   1.766   0.804   6.502  2.7970  1.3659 -0.3310
 4746SOL     OW25873   3.673   1.115   6.562 -0.5611  0.4668  0.3759
 4746SOL    HW125874   3.654   1.092   6.470  1.2302 -2.1662  0.6434
 4746SOL    HW225875   3.597   1.172   6.568 -0.4838  0.7160 -0.8403
 4747SOL     OW25876   0.155   0.473   0.202 -0.0196  0.1966 -0.3179
 4747SOL    HW125877   0.136   0.565   0.184  2.0371  0.4859 -0.9370
 4747SOL    HW225878   0.237   0.488   0.248 -0.1726  1.7323 -0.5331
 4748SOL     OW25879   3.989   0.706  15.252 -0.0144  0.0529  0.1543
 4748SOL    HW125880   3.933   0.777  15.221 -0.9064 -0.1930  1.1840
 4748SOL    HW225881   3.930   0.637  15.284 -0.8739  0.1932 -1.1620
 4749SOL     OW25882   0.228   4.639   6.823 -0.1158 -0.1683 -0.7356
 4749SOL    HW125883   0.137   4.631   6.795 -0.4778 -0.7283  0.5821
 4749SOL    HW225884   0.267   4.582   6.757 -1.6054 -0.1760 -1.6001
 4750SOL     OW25885   3.088   1.421   6.738 -0.1180 -0.6056  0.2110
 4750SOL    HW125886   3.156   1.374   6.689  1.0954 -1.0910  2.3435
 4750SOL    HW225887   3.140   1.491   6.778 -1.4476  1.2947 -1.4300
 4751SOL     OW25888   3.250   1.180   4.484 -0.2243  0.3266  0.1330
 4751SOL    HW125889   3.183   1.119   4.451 -0.4116  1.1664 -1.0393
 4751SOL    HW225890   3.209   1.264   4.465 -1.0776 -0.3277 -0.9432
 4752SOL     OW25891   3.997   3.278   4.123 -0.0708  0.6467 -0.6528
 4752SOL    HW125892   3.950   3.231   4.192 -0.0380  3.1998  1.1175
 4752SOL    HW225893   3.934   3.338   4.084 -0.1069  0.6526 -0.5862
 4753SOL     OW25894   3.721   3.752   4.123  0.2921 -0.4491  0.1242
 4753SOL    HW125895   3.796   3.804   4.093 -0.3507  0.7050  0.5017
 4753SOL    HW225896   3.687   3.805   4.195  1.6938  0.8452 -0.1609
 4754SOL     OW25897   3.339   2.598   8.781  0.4612  0.3047 -0.1934
 4754SOL    HW125898   3.355   2.538   8.708  0.0099  0.2570 -0.2533
 4754SOL    HW225899   3.269   2.547   8.821  0.7461  0.4350  0.4660
 4755SOL     OW25900   0.646   1.591   9.454  0.0317  0.1760 -0.8731
 4755SOL    HW125901   0.618   1.626   9.539  2.1336  0.9868 -0.5167
 4755SOL    HW225902   0.717   1.653   9.437  0.3036 -0.3151 -1.4987
 4756SOL     OW25903   0.768   2.517   6.323 -0.2939  0.0173  0.6778
 4756SOL    HW125904   0.755   2.609   6.298  0.8454  0.3691  1.4145
 4756SOL    HW225905   0.722   2.520   6.407 -0.0433 -1.0389  0.8462
 4757SOL     OW25906   4.153   1.399  12.205 -0.2621  0.0031 -0.0463
 4757SOL    HW125907   4.108   1.416  12.122 -1.2460 -0.5019  0.3830
 4757SOL    HW225908   4.125   1.469  12.263 -1.5081 -1.4329  1.0980
 4758SOL     OW25909   3.539   1.249   2.325 -0.7615 -0.4734  0.0326
 4758SOL    HW125910   3.572   1.247   2.415 -0.9278  3.2245  0.1962
 4758SOL    HW225911   3.474   1.179   2.319 -1.1590 -0.0598 -0.5556
 4759SOL     OW25912   4.593   3.960  17.482  0.5543  0.2086  0.2516
 4759SOL    HW125913   4.580   3.895  17.413 -0.8393  1.4492 -0.6621
 4759SOL    HW225914   4.668   3.920  17.527 -0.2892  0.1146  1.5740
 4760SOL     OW25915   3.400   2.453   2.063  0.3082 -0.0804 -0.1838
 4760SOL    HW125916   3.493   2.431   2.071  0.1370 -1.6052 -2.5589
 4760SOL    HW225917   3.361   2.385   2.009 -1.0835 -0.3650  1.1597
 4761SOL     OW25918   1.390   2.418   9.311  0.5086 -0.3335  0.1444
 4761SOL    HW125919   1.454   2.432   9.241  1.1953  1.1507  1.0821
 4761SOL    HW225920   1.331   2.492   9.294 -1.3481 -1.7168  0.5516
 4762SOL     OW25921   3.071   2.850   8.653 -0.2358 -0.0909 -0.4031
 4762SOL    HW125922   3.119   2.794   8.592  0.1843  1.2877 -1.3147
 4762SOL    HW225923   3.128   2.926   8.652 -0.1014 -0.2498 -3.1368
 4763SOL     OW25924   1.452   0.308   9.166 -0.1509 -0.2172 -0.0873
 4763SOL    HW125925   1.503   0.378   9.126  1.2356 -0.3840  1.3933
 4763SOL    HW225926   1.511   0.233   9.176  0.1812 -0.0955 -1.0690
 4764SOL     OW25927   2.018   2.053   3.399  0.6469  0.2166 -0.6062
 4764SOL    HW125928   2.066   1.971   3.415 -1.9463 -0.9881  1.0850
 4764SOL    HW225929   2.084   2.119   3.379 -0.5401  1.6144  0.0994
 4765SOL     OW25930   3.233   3.135   7.021 -0.0725 -0.1892  0.0524
 4765SOL    HW125931   3.268   3.203   6.963  1.5109  0.8245  2.1765
 4765SOL    HW225932   3.138   3.137   7.009 -0.2153 -0.2691  1.1990
 4766SOL     OW25933   2.685   4.220   2.074  0.1837 -0.9843 -0.8498
 4766SOL    HW125934   2.640   4.142   2.108  1.9743 -1.1481  1.0884
 4766SOL    HW225935   2.608   4.277   2.066  0.8618  0.3238  2.0015
 4767SOL     OW25936   1.613   3.890  11.862  0.1812 -0.3766 -0.3794
 4767SOL    HW125937   1.528   3.896  11.905  0.8860 -1.1704  1.1287
 4767SOL    HW225938   1.669   3.873  11.938 -1.2848  0.2654  0.8662
 4768SOL     OW25939   1.574   0.870  16.958 -0.2356  0.5496 -0.0503
 4768SOL    HW125940   1.485   0.873  16.924  0.1857 -0.2010 -1.2089
 4768SOL    HW225941   1.587   0.776  16.972  1.3977  1.0444  1.8236
 4769SOL     OW25942   0.193   2.416  15.110 -0.0746 -0.2335  0.6958
 4769SOL    HW125943   0.130   2.385  15.045  0.8342 -1.4927  0.4102
 4769SOL    HW225944   0.264   2.430  15.046  1.5780 -0.6656  2.4369
 4770SOL     OW25945   4.403   1.985   2.062  0.0907  0.4253  0.4478
 4770SOL    HW125946   4.380   1.898   2.095  2.7318  0.1125  1.4450
 4770SOL    HW225947   4.318   2.026   2.077  0.3374  1.5081 -1.1229
 4771SOL     OW25948   3.591   0.194   9.581 -0.0268  0.1046 -0.5418
 4771SOL    HW125949   3.617   0.213   9.671  1.4596  2.5650 -1.4876
 4771SOL    HW225950   3.585   0.282   9.544  0.6076 -0.4590 -1.9668
 4772SOL     OW25951   0.141   3.880   1.913 -0.1351  0.4464  0.0960
 4772SOL    HW125952   0.117   3.856   1.824  1.1109  4.5515 -1.3557
 4772SOL    HW225953   0.063   3.932   1.935  1.4056  4.3063 -3.5115
 4773SOL     OW25954   2.374   2.094   9.435  0.9979  0.1436  0.0839
 4773SOL    HW125955   2.441   2.098   9.503 -0.4035 -0.7062  1.5061
 4773SOL    HW225956   2.382   2.000   9.415 -0.5579 -0.3323  1.7612
 4774SOL     OW25957   2.885   1.716  16.769  0.2774 -0.0904 -1.0563
 4774SOL    HW125958   2.926   1.684  16.849 -1.8039 -0.0114  0.0421
 4774SOL    HW225959   2.836   1.789  16.807  2.4474  2.6326 -3.4787
 4775SOL     OW25960   3.745   2.423   1.232 -0.1258  0.3884  0.8342
 4775SOL    HW125961   3.727   2.516   1.222 -0.4830  0.2070 -0.2218
 4775SOL    HW225962   3.714   2.390   1.148  1.0551  2.0300 -0.2346
 4776SOL     OW25963   4.148   3.001  13.255  0.4813 -0.2036 -0.0251
 4776SOL    HW125964   4.075   2.950  13.218  2.0814 -2.1980 -0.4361
 4776SOL    HW225965   4.111   3.084  13.225  0.3124  0.6292  2.5305
 4777SOL     OW25966   0.285   3.366   3.590 -0.6051 -0.2590 -0.1429
 4777SOL    HW125967   0.231   3.376   3.669 -1.5339  1.8333 -1.0504
 4777SOL    HW225968   0.274   3.447   3.541  1.4979  1.1042  1.6144
 4778SOL     OW25969   0.878   1.396   8.704  0.1695 -0.3399  0.0244
 4778SOL    HW125970   0.792   1.421   8.672 -0.0854 -1.9733 -0.5846
 4778SOL    HW225971   0.870   1.423   8.796 -0.6186 -1.7802  0.3755
 4779SOL     OW25972   3.327   1.969   4.324 -0.1456  0.0086  0.2212
 4779SOL    HW125973   3.401   1.954   4.383 -3.0878 -0.3056  3.8459
 4779SOL    HW225974   3.318   1.877   4.298  1.4275  0.2075 -0.9998
 4780SOL     OW25975   0.956   2.417  14.054 -0.8212  0.2554  0.1993
 4780SOL    HW125976   0.955   2.496  14.108 -1.2823  1.6459 -1.8167
 4780SOL    HW225977   0.902   2.358  14.108  2.2947 -2.2700  0.5344
 4781SOL     OW25978   2.536   2.481   2.536  0.0488 -0.3379 -0.6290
 4781SOL    HW125979   2.486   2.399   2.529  0.5576 -0.6476 -0.6133
 4781SOL    HW225980   2.586   2.499   2.457  0.0957  2.0334 -0.0502
 4782SOL     OW25981   3.627   2.540   8.829  0.1431 -0.2470 -0.3262
 4782SOL    HW125982   3.545   2.492   8.845  1.2784 -1.5957  1.4894
 4782SOL    HW225983   3.643   2.573   8.918 -3.0037 -1.2226  0.6275
 4783SOL     OW25984   1.060   1.531  15.946  0.5144 -0.4286 -0.4005
 4783SOL    HW125985   1.002   1.496  15.879  0.5242  0.9150 -1.1135
 4783SOL    HW225986   1.012   1.519  16.029  1.8812 -2.9496  0.0131
 4784SOL     OW25987   2.983   0.382   9.886 -0.4650 -0.7556  0.4728
 4784SOL    HW125988   3.028   0.300   9.907  0.4183 -0.5819 -0.7599
 4784SOL    HW225989   2.924   0.352   9.817  1.1580 -0.9679 -0.8344
 4785SOL     OW25990   1.858   2.273   8.907 -0.1583  0.0676  0.2798
 4785SOL    HW125991   1.852   2.182   8.875 -1.1557  0.1739  0.1452
 4785SOL    HW225992   1.944   2.280   8.947  0.3163  0.4332 -0.8037
 4786SOL     OW25993   4.202   3.449  10.318 -0.0653 -0.0351  0.1252
 4786SOL    HW125994   4.222   3.502  10.394 -0.5849  0.7360 -0.2741
 4786SOL    HW225995   4.110   3.422  10.321  0.5806 -1.8833  2.6949
 4787SOL     OW25996   2.095   3.826   7.672  0.3188 -0.3768 -0.1430
 4787SOL    HW125997   2.045   3.752   7.707 -0.3997 -0.4556 -1.3358
 4787SOL    HW225998   2.138   3.865   7.748 -3.4977  0.7118  1.4277
 4788SOL     OW25999   2.319   3.384   9.153  0.2139  0.4858  0.2531
 4788SOL    HW126000   2.393   3.443   9.139  0.3164  0.4049  0.4561
 4788SOL    HW226001   2.280   3.430   9.228 -1.1621  0.8797 -0.7214
 4789SOL     OW26002   1.751   0.991   2.162  0.0627 -0.1329  0.1868
 4789SOL    HW126003   1.828   1.006   2.107  0.1681  0.6345  0.5498
 4789SOL    HW226004   1.797   0.981   2.245  0.4621  1.6820  0.1652
 4790SOL     OW26005   3.112   3.155   0.728 -0.0743  0.0753  0.4532
 4790SOL    HW126006   3.037   3.129   0.781 -0.1796 -0.5824 -0.0179
 4790SOL    HW226007   3.081   3.120   0.644 -0.7420  0.0623  0.7066
 4791SOL     OW26008   1.518   2.889   6.644  0.1180  0.0318  0.1023
 4791SOL    HW126009   1.493   2.936   6.723  1.7796 -0.4892  0.9382
 4791SOL    HW226010   1.447   2.828   6.624  0.2024  0.5968 -1.9823
 4792SOL     OW26011   3.587   1.738   6.322  0.8273  0.1925 -0.2823
 4792SOL    HW126012   3.616   1.829   6.311 -2.8692  1.1353 -2.2551
 4792SOL    HW226013   3.640   1.715   6.399 -1.7526 -0.3344  1.3347
 4793SOL     OW26014   2.160   3.791  15.743 -0.6593  0.0564  0.1927
 4793SOL    HW126015   2.110   3.866  15.774 -1.9139  1.0182 -4.1439
 4793SOL    HW226016   2.220   3.844  15.691  0.2770 -0.9297  0.2443
 4794SOL     OW26017   2.606   1.865   3.636  0.1149 -0.1749  0.5313
 4794SOL    HW126018   2.655   1.838   3.558  0.9812  0.2405  0.9311
 4794SOL    HW226019   2.628   1.958   3.630  0.0103 -0.2077 -0.4993
 4795SOL     OW26020   1.376   4.006   1.890  0.9197  0.0860  0.3708
 4795SOL    HW126021   1.440   3.975   1.826 -0.1954 -1.3234 -0.0497
 4795SOL    HW226022   1.412   4.094   1.900  0.3677  0.3720 -0.1862
 4796SOL     OW26023   4.523   1.260  15.331  0.6654 -0.0939 -0.0137
 4796SOL    HW126024   4.456   1.206  15.288  1.0644 -0.0804 -0.6462
 4796SOL    HW226025   4.604   1.235  15.287 -0.4282 -0.7947 -1.6194
 4797SOL     OW26026   3.873   3.003   9.842  0.5756  0.0468 -0.3566
 4797SOL    HW126027   3.779   2.984   9.849  0.8134 -0.7580  0.5951
 4797SOL    HW226028   3.912   2.925   9.802 -1.3698  0.2754 -2.7042
 4798SOL     OW26029   3.157   4.190  13.652 -0.0152 -0.0078  0.4039
 4798SOL    HW126030   3.150   4.137  13.573  0.1522 -0.2722  0.5649
 4798SOL    HW226031   3.231   4.145  13.694  0.0144 -0.9822 -0.7005
 4799SOL     OW26032   3.351   2.934   9.855  0.4397  0.2264 -0.0498
 4799SOL    HW126033   3.363   3.026   9.881 -0.6924  0.4870 -0.4684
 4799SOL    HW226034   3.319   2.942   9.765  2.4775 -2.1087 -0.9822
 4800SOL     OW26035   0.662   2.613   1.555 -0.6388 -0.1080  0.2516
 4800SOL    HW126036   0.605   2.668   1.609 -0.5378 -1.1864  1.4789
 4800SOL    HW226037   0.628   2.608   1.466  1.5313  0.7279 -0.6095
 4801SOL     OW26038   4.581   4.306   7.169  0.5414 -0.7693 -0.2970
 4801SOL    HW126039   4.650   4.332   7.229 -0.4188 -1.6755  1.2019
 4801SOL    HW226040   4.516   4.270   7.230 -1.0438  0.1310 -1.4332
 4802SOL     OW26041   3.523   3.353  11.508 -0.7210 -0.4420 -0.3525
 4802SOL    HW126042   3.583   3.290  11.549  0.9304 -0.0357 -2.1908
 4802SOL    HW226043   3.551   3.377  11.420  0.4701 -1.1084 -0.1582
 4803SOL     OW26044   1.100   4.441  13.617 -0.2181 -0.0566 -0.4515
 4803SOL    HW126045   1.055   4.458  13.534  1.6957  0.4860 -1.3741
 4803SOL    HW226046   1.097   4.346  13.623  2.2422 -0.0324  1.2004
 4804SOL     OW26047   2.119   3.388   7.845  0.2192  0.3486 -0.3214
 4804SOL    HW126048   2.169   3.384   7.763 -0.1687  0.8438 -0.5831
 4804SOL    HW226049   2.155   3.467   7.885  0.7542  0.2591 -0.6152
 4805SOL     OW26050   2.691   3.585   7.555 -0.2150 -0.0768  0.4889
 4805SOL    HW126051   2.656   3.497   7.550 -1.9186  0.6250  0.0372
 4805SOL    HW226052   2.755   3.587   7.484 -1.0796 -0.0805 -0.2815
 4806SOL     OW26053   2.503   2.850  13.153 -0.1510  0.1908  0.2519
 4806SOL    HW126054   2.500   2.755  13.165 -1.2713  0.4103  1.6563
 4806SOL    HW226055   2.415   2.883  13.171 -0.0419  0.1991  0.7835
 4807SOL     OW26056   3.004   1.603   3.151  0.4068  0.1832 -0.3101
 4807SOL    HW126057   2.947   1.543   3.103  0.1927  1.7882 -2.0734
 4807SOL    HW226058   2.956   1.610   3.233  1.2809  2.0053  0.0397
 4808SOL     OW26059   1.561   3.524  17.093 -0.5307 -0.0346  0.4545
 4808SOL    HW126060   1.599   3.486  17.014  0.6889 -0.5989  1.3154
 4808SOL    HW226061   1.552   3.616  17.069  2.4306 -0.0042 -0.5812
 4809SOL     OW26062   4.381   4.424   6.434 -0.0955  0.5866 -0.2359
 4809SOL    HW126063   4.377   4.415   6.339 -0.9043 -1.7000  0.0154
 4809SOL    HW226064   4.422   4.341   6.459 -0.2434 -0.1179 -2.3146
 4810SOL     OW26065   2.952   3.826   9.586  0.1213  0.1503  0.7146
 4810SOL    HW126066   2.984   3.910   9.619 -0.7391 -0.1691  2.3820
 4810SOL    HW226067   2.857   3.838   9.583  0.0341 -0.8854 -0.3389
 4811SOL     OW26068   1.612   0.221  14.574 -0.3277  0.1545 -0.1853
 4811SOL    HW126069   1.560   0.284  14.622  0.8034  1.2424 -0.3984
 4811SOL    HW226070   1.705   0.241  14.585 -0.4501  0.6557 -0.0726
 4812SOL     OW26071   2.654   1.014  10.410  0.1414  0.4218  0.8097
 4812SOL    HW126072   2.727   0.953  10.413  0.5011  0.8609  1.0156
 4812SOL    HW226073   2.610   0.991  10.492 -1.7614 -0.8987 -0.5801
 4813SOL     OW26074   1.446   1.519   6.038 -0.2021 -0.1338  0.0928
 4813SOL    HW126075   1.373   1.580   6.052  0.3183  0.8368 -1.3416
 4813SOL    HW226076   1.402   1.448   5.990  0.1683  0.4730 -1.1448
 4814SOL     OW26077   3.890   3.508  12.975  0.2370 -0.2217 -0.1650
 4814SOL    HW126078   3.983   3.493  12.963  0.6176  0.7798  1.6159
 4814SOL    HW226079   3.889   3.579  13.038 -0.0355  1.4554 -2.0749
 4815SOL     OW26080   0.655   3.174  17.324 -0.8145  0.0181 -0.0909
 4815SOL    HW126081   0.656   3.237  17.252 -0.2105  2.0981  1.7649
 4815SOL    HW226082   0.569   3.187  17.365 -1.1138  0.2298 -0.7844
 4816SOL     OW26083   0.974   2.210   3.867  0.1927 -0.7031 -0.5593
 4816SOL    HW126084   0.994   2.132   3.815  0.4979 -0.1739 -1.2413
 4816SOL    HW226085   0.890   2.186   3.905 -0.9747  1.3455 -1.8492
 4817SOL     OW26086   3.495   0.687   1.921  0.6763 -0.5489 -0.1328
 4817SOL    HW126087   3.405   0.662   1.942 -0.2551  1.6172 -1.5391
 4817SOL    HW226088   3.542   0.643   1.992 -0.0872  0.2180  0.8411
 4818SOL     OW26089   3.712   0.425  11.705 -0.0021 -0.0153  0.7789
 4818SOL    HW126090   3.796   0.380  11.692 -0.2918 -0.3412 -0.0067
 4818SOL    HW226091   3.707   0.407  11.799  0.1920  0.9340  0.9677
 4819SOL     OW26092   2.392   3.196   6.375 -0.0164  0.4737 -1.1121
 4819SOL    HW126093   2.347   3.252   6.311 -0.7912  1.3139  0.1637
 4819SOL    HW226094   2.423   3.126   6.319  1.2258  0.6931 -0.6866
 4820SOL     OW26095   0.137   2.575  15.978  0.4466 -0.1025 -0.1281
 4820SOL    HW126096   0.128   2.656  15.926  2.4989 -0.7962 -1.5783
 4820SOL    HW226097   0.228   2.578  16.006  0.9530 -0.3202 -1.7059
 4821SOL     OW26098   2.743   3.252   8.443  0.2749  0.0641 -0.2287
 4821SOL    HW126099   2.686   3.304   8.387 -0.7327  2.3403  2.8911
 4821SOL    HW226100   2.686   3.185   8.479 -0.6776  0.4469 -1.0423
 4822SOL     OW26101   1.739   3.689  10.356  0.3592  0.1740 -0.5075
 4822SOL    HW126102   1.658   3.703  10.404  0.9758  0.8773  0.3288
 4822SOL    HW226103   1.726   3.597  10.330  1.6895  0.1169 -0.9724
 4823SOL     OW26104   4.175   0.218   2.383 -0.2907  0.3847  0.1292
 4823SOL    HW126105   4.223   0.212   2.465  1.6795  0.9616 -0.9730
 4823SOL    HW226106   4.197   0.304   2.346 -1.1042  1.0218  1.1358
 4824SOL     OW26107   4.042   3.187   0.227 -0.2890 -0.4466 -0.5325
 4824SOL    HW126108   4.023   3.195   0.321 -0.5921 -2.0832 -0.4618
 4824SOL    HW226109   4.112   3.251   0.214  0.6441 -1.9522 -2.7897
 4825SOL     OW26110   0.873   2.133  12.880  0.1820 -0.2769 -0.2653
 4825SOL    HW126111   0.821   2.056  12.856  1.0887 -0.6409 -1.0813
 4825SOL    HW226112   0.916   2.105  12.961 -2.0833 -0.1549  0.9612
 4826SOL     OW26113   3.935   1.967  14.957  0.3072  0.2071  0.0637
 4826SOL    HW126114   3.948   2.019  14.878 -2.7181  0.3956 -0.3395
 4826SOL    HW226115   3.878   1.893  14.934 -0.5688  1.0295 -0.4387
 4827SOL     OW26116   0.486   2.691   1.744  0.4244 -0.3825  0.4587
 4827SOL    HW126117   0.404   2.702   1.697  0.2797  0.2907  0.8656
 4827SOL    HW226118   0.466   2.617   1.801  1.9978 -1.8379 -0.8654
 4828SOL     OW26119   2.833   1.110   4.099 -0.7074  0.3930  0.3370
 4828SOL    HW126120   2.813   1.104   4.193 -1.4906  1.2640  0.2291
 4828SOL    HW226121   2.777   1.186   4.084  0.3948  1.5728  2.1449
 4829SOL     OW26122   0.862   1.160   4.763 -0.7019 -0.4715 -0.2247
 4829SOL    HW126123   0.777   1.115   4.771 -1.3326  0.6092 -0.8157
 4829SOL    HW226124   0.860   1.216   4.840 -1.9495  0.1255 -0.6803
 4830SOL     OW26125   2.630   1.347   3.904 -0.0980  0.4256  0.2582
 4830SOL    HW126126   2.633   1.441   3.886 -2.2260  0.1913 -1.2237
 4830SOL    HW226127   2.661   1.308   3.822  2.1789  0.5108  1.0722
 4831SOL     OW26128   3.789   2.157   2.581  0.1047  0.0864  0.2814
 4831SOL    HW126129   3.763   2.196   2.497  1.0108 -0.2166 -0.1353
 4831SOL    HW226130   3.821   2.222   2.642 -0.7591  0.3226  0.4884
 4832SOL     OW26131   3.375   4.673   1.715  0.1056  0.0487 -0.3907
 4832SOL    HW126132   3.443   4.639   1.656 -0.5410 -1.7850 -0.0942
 4832SOL    HW226133   3.370   4.621   1.795 -0.0316 -0.3180 -0.6346
 4833SOL     OW26134   3.372   0.839   1.457  0.0485 -0.3236 -0.1904
 4833SOL    HW126135   3.399   0.931   1.448  2.5139 -0.9987  0.4557
 4833SOL    HW226136   3.365   0.823   1.551  0.1305  0.3411 -0.0655
 4834SOL     OW26137   0.987   2.057   3.288  1.0388 -0.1033  0.6226
 4834SOL    HW126138   1.000   2.135   3.340 -2.4951  0.0909  1.2100
 4834SOL    HW226139   1.081   2.054   3.273  1.1663 -0.2844  1.4925
 4835SOL     OW26140   1.576   1.408   4.915  0.4770  0.4640 -0.0281
 4835SOL    HW126141   1.662   1.447   4.935  0.2172 -0.5373  3.1126
 4835SOL    HW226142   1.579   1.313   4.927 -0.5841  0.5214  0.6938
 4836SOL     OW26143   0.756   4.078   2.283 -0.5511  0.2566 -0.0075
 4836SOL    HW126144   0.770   4.167   2.250  1.0332  0.1049  0.2716
 4836SOL    HW226145   0.819   4.035   2.226 -1.1736  1.6317 -1.7093
 4837SOL     OW26146   2.932   0.508  13.872  0.2461 -0.3035 -0.0941
 4837SOL    HW126147   2.963   0.456  13.798 -1.2096 -1.0920 -0.1408
 4837SOL    HW226148   3.012   0.548  13.907 -0.0878  0.2413  0.0450
 4838SOL     OW26149   4.144   3.988   5.710 -0.3895 -0.0739 -0.2162
 4838SOL    HW126150   4.232   4.022   5.726  0.1663 -1.9253  0.6348
 4838SOL    HW226151   4.099   3.988   5.794 -1.4922 -0.5859 -0.8099
 4839SOL     OW26152   2.269   2.890  10.807  0.3148  0.2040  0.4889
 4839SOL    HW126153   2.284   2.835  10.730 -1.4479 -0.4642  0.6289
 4839SOL    HW226154   2.362   2.908  10.816  0.2334  0.2028  1.3441
 4840SOL     OW26155   3.256   0.578   4.597 -1.0299 -0.2823  0.0508
 4840SOL    HW126156   3.334   0.629   4.618 -0.6957 -0.8681  0.2365
 4840SOL    HW226157   3.190   0.640   4.629  1.6062  2.6632 -0.2004
 4841SOL     OW26158   3.528   4.251   4.355  0.2535 -0.1948  0.2332
 4841SOL    HW126159   3.568   4.202   4.284  0.7389 -1.6291  1.4770
 4841SOL    HW226160   3.524   4.179   4.418  2.0782  0.3624  1.0065
 4842SOL     OW26161   2.835   1.544  16.300 -0.2059  0.2750 -0.7029
 4842SOL    HW126162   2.769   1.568  16.235 -0.7471 -1.7587 -0.9004
 4842SOL    HW226163   2.827   1.604  16.374  0.8181 -2.7011  1.8248
 4843SOL     OW26164   3.592   4.297   6.327 -0.3429 -0.6238 -0.8610
 4843SOL    HW126165   3.589   4.357   6.401  0.5981 -1.7066  0.0555
 4843SOL    HW226166   3.630   4.353   6.259 -1.7660  1.2419 -0.1231
 4844SOL     OW26167   1.742   1.175   8.593  0.7317 -0.2405 -0.1775
 4844SOL    HW126168   1.826   1.150   8.553  1.6274 -0.3652  1.7529
 4844SOL    HW226169   1.685   1.181   8.517 -1.8040  1.1874  1.8352
 4845SOL     OW26170   1.607   2.268   8.925 -0.2201  0.2535 -0.6149
 4845SOL    HW126171   1.699   2.285   8.904  0.6984 -2.3765  1.2897
 4845SOL    HW226172   1.580   2.229   8.842 -0.3187  0.2366 -0.5742
 4846SOL     OW26173   0.303   1.548   8.205 -0.6432 -0.4262 -0.0268
 4846SOL    HW126174   0.213   1.577   8.192 -0.5906 -0.2376  0.0338
 4846SOL    HW226175   0.308   1.514   8.294  0.5495 -1.7878 -0.6092
 4847SOL     OW26176   0.482   2.801   7.756 -0.3046 -0.0331 -0.2964
 4847SOL    HW126177   0.468   2.737   7.825  2.6432 -1.1687 -0.7741
 4847SOL    HW226178   0.541   2.752   7.698 -0.9811 -0.6899 -0.4270
 4848SOL     OW26179   3.735   2.127  12.152 -0.0896 -0.2056 -0.8192
 4848SOL    HW126180   3.696   2.070  12.219  0.1277  1.8606  1.0678
 4848SOL    HW226181   3.781   2.195  12.201  1.6368 -1.4808 -0.6988
 4849SOL     OW26182   1.728   4.566   3.555  1.0580 -0.0319  0.1566
 4849SOL    HW126183   1.802   4.625   3.544 -0.0557  1.5426  1.0854
 4849SOL    HW226184   1.707   4.541   3.465  1.4543 -1.1087  0.3664
 4850SOL     OW26185   3.350   4.723   3.856 -0.4818 -0.7950 -0.0369
 4850SOL    HW126186   3.257   0.002   3.853 -0.6999 -1.8761 -0.2533
 4850SOL    HW226187   3.363   4.736   3.950 -0.9593  1.9435 -0.3752
 4851SOL     OW26188   4.101   2.776   8.512  0.1753 -0.3203  0.1210
 4851SOL    HW126189   4.029   2.836   8.493 -0.5562 -1.0406  0.6305
 4851SOL    HW226190   4.136   2.780   8.423 -1.2927 -0.0570 -0.4487
 4852SOL     OW26191   3.820   1.717   0.327  0.1184  0.2515  0.0400
 4852SOL    HW126192   3.819   1.813   0.320  1.5583  0.1963 -0.8675
 4852SOL    HW226193   3.731   1.700   0.358  0.1665 -0.6666 -0.3334
 4853SOL     OW26194   4.245   1.249   3.674 -0.4171  0.6229 -0.0241
 4853SOL    HW126195   4.335   1.273   3.695 -1.5017  1.6457  3.5685
 4853SOL    HW226196   4.211   1.329   3.634  3.5468  1.8190 -1.0314
 4854SOL     OW26197   2.207   2.117   7.888 -0.4361  0.0245 -0.1617
 4854SOL    HW126198   2.165   2.050   7.941 -0.3747  0.4621  0.4364
 4854SOL    HW226199   2.185   2.201   7.929 -2.7451 -0.9265  0.4809
 4855SOL     OW26200   0.856   3.665   2.213  0.1229  0.7697  0.3038
 4855SOL    HW126201   0.929   3.613   2.180 -0.3120  1.2185 -1.3260
 4855SOL    HW226202   0.883   3.757   2.206 -0.1954  0.7853 -0.7622
 4856SOL     OW26203   0.535   1.694  16.304  0.1835  0.2453 -0.1307
 4856SOL    HW126204   0.528   1.668  16.396  3.4133  2.6044  0.8037
 4856SOL    HW226205   0.519   1.612  16.259 -1.2546 -0.1259  1.0666
 4857SOL     OW26206   0.944   4.182   5.097  0.2684  0.4119  0.3962
 4857SOL    HW126207   0.908   4.150   5.180 -0.9832 -0.6020 -0.5423
 4857SOL    HW226208   1.022   4.224   5.134 -0.4883  1.2475  1.0509
 4858SOL     OW26209   2.545   2.418   3.536 -0.3786 -0.2482 -0.2076
 4858SOL    HW126210   2.488   2.419   3.613  0.4556 -2.4034  0.4199
 4858SOL    HW226211   2.564   2.510   3.517 -0.4337  0.0624  1.2426
 4859SOL     OW26212   2.530   3.299   0.833  0.2344  0.2939  0.4589
 4859SOL    HW126213   2.545   3.237   0.761  0.2784  0.4321  0.3485
 4859SOL    HW226214   2.621   3.306   0.861 -0.5394  2.8073  2.3003
 4860SOL     OW26215   4.319   1.533   1.911  0.5094  0.5688 -0.5343
 4860SOL    HW126216   4.313   1.460   1.849 -1.4191  0.4170 -0.1816
 4860SOL    HW226217   4.300   1.602   1.848  1.0418  0.4843 -0.7860
 4861SOL     OW26218   4.484   1.149   6.457  0.6242  0.5009  0.4357
 4861SOL    HW126219   4.466   1.242   6.442 -1.2699  0.3390  1.7987
 4861SOL    HW226220   4.442   1.103   6.384  2.5842  0.6432 -0.7794
 4862SOL     OW26221   0.803   1.639   5.762  0.2203 -0.0083  0.2853
 4862SOL    HW126222   0.763   1.654   5.676 -1.6948 -3.3475  0.6092
 4862SOL    HW226223   0.820   1.731   5.782 -0.8642  0.0446  0.9512
 4863SOL     OW26224   2.676   3.628   2.211  0.2293 -0.4762  0.1097
 4863SOL    HW126225   2.614   3.682   2.162 -1.5645 -2.4832  0.2236
 4863SOL    HW226226   2.743   3.607   2.146  0.8698  2.1134 -0.0893
 4864SOL     OW26227   4.657   4.510   9.313  0.4393  0.1221  0.0917
 4864SOL    HW126228   4.733   4.453   9.330 -0.7647 -1.3989  0.4138
 4864SOL    HW226229   4.606   4.452   9.256 -0.3178  0.2765  0.6119
 4865SOL     OW26230   4.289   2.871   6.857  0.0168  0.4571  0.3401
 4865SOL    HW126231   4.302   2.776   6.849 -3.8194 -0.1707  1.5233
 4865SOL    HW226232   4.234   2.882   6.934 -2.1135 -0.4422 -1.0608
 4866SOL     OW26233   4.241   1.141   7.629 -0.5702 -0.1073 -0.0211
 4866SOL    HW126234   4.243   1.175   7.718 -1.7126  3.3496 -1.3365
 4866SOL    HW226235   4.166   1.192   7.601 -0.4988  0.6670  1.2000
 4867SOL     OW26236   2.211   0.763   5.545  0.4391  0.2384 -0.1220
 4867SOL    HW126237   2.140   0.784   5.606  0.7072 -1.9106  0.9046
 4867SOL    HW226238   2.201   0.827   5.475  0.3977  1.3143  0.8560
 4868SOL     OW26239   4.477   0.795   4.727  0.1537  0.1267  0.1424
 4868SOL    HW126240   4.548   0.777   4.789  0.3458 -1.6073 -0.5631
 4868SOL    HW226241   4.448   0.704   4.712 -1.5048  0.4192  1.6085
 4869SOL     OW26242   3.936   2.911   6.293  0.3983  0.4244 -0.2891
 4869SOL    HW126243   3.914   2.921   6.385  0.8276  2.1002 -0.3838
 4869SOL    HW226244   3.909   2.819   6.288  1.4407 -0.0032  2.3661
 4870SOL     OW26245   2.143   2.516   4.042 -0.5272  0.0133 -0.6475
 4870SOL    HW126246   2.129   2.481   3.954 -2.9590 -0.8994  0.1127
 4870SOL    HW226247   2.107   2.603   4.029  2.3823  1.5144  1.2032
 4871SOL     OW26248   1.937   1.442   7.220  0.6160  0.1991  0.1748
 4871SOL    HW126249   1.878   1.511   7.188 -0.4620 -1.0752 -0.5940
 4871SOL    HW226250   1.912   1.429   7.311  0.5061  0.8808  0.2493
 4872SOL     OW26251   2.896   0.611   7.844 -0.3662  0.2428  0.2571
 4872SOL    HW126252   2.809   0.572   7.834 -0.2907  0.2668 -0.5116
 4872SOL    HW226253   2.905   0.618   7.939  0.1364  1.8929  0.0741
 4873SOL     OW26254   4.027   1.477   5.501  0.5424 -0.6026  0.2883
 4873SOL    HW126255   3.963   1.407   5.493  0.6153 -0.8207  1.6520
 4873SOL    HW226256   3.973   1.539   5.451 -0.6482 -2.0480 -0.2009
 4874SOL     OW26257   4.223   0.365   1.515  0.4780 -0.2670 -0.1245
 4874SOL    HW126258   4.253   0.285   1.473  2.0220  0.7022 -0.8707
 4874SOL    HW226259   4.166   0.332   1.585 -1.3866 -0.1275 -1.5845
 4875SOL     OW26260   0.019   0.756  14.155  0.1257  0.2718 -0.1666
 4875SOL    HW126261   0.033   0.663  14.170 -2.9399 -0.4439 -2.0223
 4875SOL    HW226262   4.691   0.779  14.218 -0.4742  0.1999 -0.7972
 4876SOL     OW26263   0.943   3.463   8.533 -0.7003 -0.2102  0.2131
 4876SOL    HW126264   0.939   3.378   8.574 -0.4855 -0.2940  0.0639
 4876SOL    HW226265   0.998   3.502   8.601  0.0468 -2.2859  0.7706
 4877SOL     OW26266   3.232   1.951  11.589  0.4064  0.3809  0.4604
 4877SOL    HW126267   3.152   1.940  11.640 -0.1711  1.8127 -0.1120
 4877SOL    HW226268   3.272   1.865  11.583  0.2667  0.4082 -0.7809
 4878SOL     OW26269   2.865   4.054   7.761  0.0226 -0.0763  0.4059
 4878SOL    HW126270   2.886   4.009   7.679  0.2783 -0.6469  0.7853
 4878SOL    HW226271   2.900   3.983   7.815 -1.4035 -0.3707  0.9299
 4879SOL     OW26272   4.551   0.854  13.616 -0.3471 -0.2843  0.1787
 4879SOL    HW126273   4.596   0.791  13.560  0.3821 -0.0706  0.5166
 4879SOL    HW226274   4.530   0.799  13.691 -1.1606  0.1188  0.2435
 4880SOL     OW26275   4.082   2.577   5.302  0.1781 -0.3384 -0.3497
 4880SOL    HW126276   4.068   2.507   5.238  2.0898 -1.6343  0.6616
 4880SOL    HW226277   4.018   2.637   5.263  1.9650  0.6794 -1.7026
 4881SOL     OW26278   1.985   1.059   8.538  0.1736 -0.4055  0.1775
 4881SOL    HW126279   1.995   1.025   8.450 -4.3780 -1.1933 -0.0035
 4881SOL    HW226280   2.055   1.121   8.561 -0.1318  0.1428 -0.3714
 4882SOL     OW26281   1.991   2.029   0.520  0.6718  0.0907  0.0883
 4882SOL    HW126282   1.998   2.005   0.612  1.3010  1.3396  0.3655
 4882SOL    HW226283   1.908   1.990   0.494 -0.7388  2.5528  0.9508
 4883SOL     OW26284   1.531   3.284   9.018  0.0556  0.2939  0.4204
 4883SOL    HW126285   1.476   3.215   8.982 -0.6907  0.6052  0.9781
 4883SOL    HW226286   1.610   3.235   9.041  0.3685  1.0447  0.9628
 4884SOL     OW26287   2.912   1.273   9.106  0.6536 -0.6216 -0.4451
 4884SOL    HW126288   2.997   1.301   9.138  0.5139 -1.4498  0.6627
 4884SOL    HW226289   2.897   1.187   9.146 -0.3418  0.1341  0.8017
 4885SOL     OW26290   1.356   3.170   1.084 -0.0818  0.5365  1.0664
 4885SOL    HW126291   1.338   3.254   1.041  2.8498  0.0689 -1.0369
 4885SOL    HW226292   1.448   3.183   1.107  0.0519  0.6926  0.4586
 4886SOL     OW26293   3.473   1.792   7.918 -0.5118 -0.4726 -0.0674
 4886SOL    HW126294   3.448   1.884   7.906 -0.7197 -0.5753 -0.3995
 4886SOL    HW226295   3.415   1.763   7.988  2.3713 -1.8167  1.8068
 4887SOL     OW26296   3.062   0.963   2.449 -0.3112 -0.1367 -0.6924
 4887SOL    HW126297   2.979   1.010   2.456 -0.0605  0.2266 -0.0879
 4887SOL    HW226298   3.081   0.975   2.356  1.0437  2.3304 -0.0945
 4888SOL     OW26299   0.677   2.923   2.705  0.2170 -0.4421  0.0283
 4888SOL    HW126300   0.662   2.831   2.727 -0.8769  0.0227  1.2091
 4888SOL    HW226301   0.773   2.922   2.699  0.2032 -2.5757  0.2086
 4889SOL     OW26302   0.010   1.400   9.127 -0.1762  0.1732 -0.0537
 4889SOL    HW126303   0.077   1.462   9.156 -1.0504  0.1588  1.9473
 4889SOL    HW226304   4.688   1.427   9.194 -0.8390 -0.4478 -0.4157
 4890SOL     OW26305   0.232   4.296   7.440  0.0828  0.7436 -0.5372
 4890SOL    HW126306   0.207   4.241   7.366  1.9836 -0.4099 -0.3447
 4890SOL    HW226307   0.312   4.327   7.397 -0.3383  0.7737 -1.3038
 4891SOL     OW26308   4.363   4.719   8.352 -0.1648 -0.3709  0.2961
 4891SOL    HW126309   4.409   4.672   8.283  0.8934  0.3977  0.4679
 4891SOL    HW226310   4.352   0.067   8.318 -2.2959 -0.2255  1.3538
 4892SOL     OW26311   4.380   0.933   1.844 -0.1385  0.0228  0.3416
 4892SOL    HW126312   4.305   0.975   1.801 -0.1695 -2.1381 -1.7263
 4892SOL    HW226313   4.419   1.005   1.893  0.8958 -0.3422  0.0457
 4893SOL     OW26314   4.209   2.180   1.848 -0.5690 -0.2506  0.1888
 4893SOL    HW126315   4.213   2.268   1.885 -1.0030  0.7680 -2.1801
 4893SOL    HW226316   4.205   2.129   1.929  0.1690  1.5499  1.3779
 4894SOL     OW26317   0.387   2.269  10.906 -0.4157  0.1055 -0.4718
 4894SOL    HW126318   0.434   2.233  10.982 -0.7515  4.0128  1.5799
 4894SOL    HW226319   0.329   2.325  10.958  0.4701  0.0447  0.6024
 4895SOL     OW26320   2.267   1.066   7.936 -0.0769 -0.0442 -0.0487
 4895SOL    HW126321   2.301   1.101   7.853  0.9781  3.3160  1.8212
 4895SOL    HW226322   2.173   1.081   7.923 -0.1511 -0.8407 -0.4904
 4896SOL     OW26323   1.101   1.056  16.658 -0.0386  0.0405  0.4511
 4896SOL    HW126324   1.166   1.024  16.596  1.0310  4.4845 -0.6527
 4896SOL    HW226325   1.026   1.051  16.599  0.4017 -1.1296 -0.0100
 4897SOL     OW26326   1.072   3.668   7.857 -0.5009  0.4206  1.0676
 4897SOL    HW126327   1.116   3.713   7.929  0.5930  0.3803  0.4189
 4897SOL    HW226328   1.090   3.579   7.886 -0.8867  0.1037  0.3357
 4898SOL     OW26329   1.015   2.340  15.725 -0.1849 -0.1931 -0.1351
 4898SOL    HW126330   1.020   2.432  15.751  1.5674 -0.8452  1.8469
 4898SOL    HW226331   1.094   2.302  15.764  0.4700 -0.1629 -1.4354
 4899SOL     OW26332   2.458   4.209  15.931  0.2470  0.1944 -0.0674
 4899SOL    HW126333   2.413   4.200  15.847  0.2033 -0.3986  0.0189
 4899SOL    HW226334   2.546   4.176  15.914  0.9886  2.4195 -0.5529
 4900SOL     OW26335   2.211   0.519  10.326  0.0587  0.6404  0.8646
 4900SOL    HW126336   2.251   0.433  10.328 -0.9513  0.2320  3.1997
 4900SOL    HW226337   2.123   0.488  10.303  0.9363 -0.1596 -1.4664
 4901SOL     OW26338   1.883   1.105   2.631  0.1035  0.5964 -0.4815
 4901SOL    HW126339   1.877   1.180   2.572 -3.6387  1.1464  0.6213
 4901SOL    HW226340   1.836   1.046   2.573 -1.9569  0.6456  1.1241
 4902SOL     OW26341   0.219   2.168   9.035  0.2422 -0.7314  0.1073
 4902SOL    HW126342   0.266   2.208   9.108 -3.3676 -0.0085  2.0136
 4902SOL    HW226343   0.159   2.103   9.071  0.6598 -0.9786  0.3665
 4903SOL     OW26344   0.418   2.420   3.729 -0.0614 -0.2942  0.4789
 4903SOL    HW126345   0.345   2.430   3.790 -1.5083 -2.3756 -0.8968
 4903SOL    HW226346   0.478   2.470   3.783  1.2752  0.6278 -1.8775
 4904SOL     OW26347   0.694   3.974   2.518  0.2212 -0.5188  0.1654
 4904SOL    HW126348   0.727   4.020   2.441 -0.1067  0.1962  0.4520
 4904SOL    HW226349   0.666   4.049   2.570  1.5751 -0.0906  0.2752
 4905SOL     OW26350   1.348   2.797   8.206  0.0394  0.0381 -0.2909
 4905SOL    HW126351   1.272   2.794   8.265 -0.4979  3.9527 -0.7941
 4905SOL    HW226352   1.311   2.844   8.131  0.7886 -1.4767 -1.6033
 4906SOL     OW26353   3.901   2.904   8.252 -0.5265  0.2055 -0.1760
 4906SOL    HW126354   3.904   2.999   8.267 -0.1085  0.0945  0.4132
 4906SOL    HW226355   3.839   2.875   8.319  1.7161  0.1164  1.8680
 4907SOL     OW26356   0.438   2.718   6.137 -0.5917 -0.6924  0.6371
 4907SOL    HW126357   0.473   2.642   6.184  0.4805 -0.8764 -0.4706
 4907SOL    HW226358   0.403   2.666   6.065  0.8155 -0.4446 -0.2271
 4908SOL     OW26359   1.161   3.125   0.253 -0.4026 -0.2119 -0.5572
 4908SOL    HW126360   1.106   3.053   0.286  0.8216 -1.2550 -0.7891
 4908SOL    HW226361   1.232   3.070   0.220  1.0452  0.9042  0.7028
 4909SOL     OW26362   2.145   0.060  17.659 -0.1134  0.0415  0.0123
 4909SOL    HW126363   2.225   0.086  17.706  1.2456 -0.3190 -2.0781
 4909SOL    HW226364   2.090   0.043  17.735 -0.4088 -0.0902 -0.2333
 4910SOL     OW26365   0.503   0.178   2.564 -0.1565 -0.4956 -0.6645
 4910SOL    HW126366   0.585   0.141   2.529 -0.1617  1.6293 -2.9097
 4910SOL    HW226367   0.443   0.142   2.498  0.1078  1.1363 -1.7842
 4911SOL     OW26368   3.395   4.326  16.729 -0.7181 -0.4814 -0.2353
 4911SOL    HW126369   3.323   4.379  16.760 -0.3248  0.0344 -0.2041
 4911SOL    HW226370   3.361   4.309  16.641 -0.9511  2.3769 -0.6725
 4912SOL     OW26371   2.380   4.533  13.785  0.2007  0.4595 -0.5484
 4912SOL    HW126372   2.343   4.445  13.780 -0.2730  0.7212 -1.6234
 4912SOL    HW226373   2.351   4.575  13.704 -0.0546 -1.6623 -1.5506
 4913SOL     OW26374   1.075   3.214  17.675  0.3595  0.1973 -0.3145
 4913SOL    HW126375   1.002   3.171  17.629 -0.7460  1.1611  0.5479
 4913SOL    HW226376   1.058   3.208   0.009  1.0565  1.7609 -0.0906
 4914SOL     OW26377   3.199   2.711  15.274  0.1207 -0.2067  0.0922
 4914SOL    HW126378   3.242   2.639  15.228  0.7258 -1.3438  2.4639
 4914SOL    HW226379   3.203   2.677  15.363 -1.4639  0.3034  0.3554
 4915SOL     OW26380   0.089   2.702   5.324 -0.0343  1.4460  0.0494
 4915SOL    HW126381   0.063   2.792   5.342 -3.1427  0.4098  0.7874
 4915SOL    HW226382   0.036   2.663   5.394  1.4400  2.5533  1.7878
 4916SOL     OW26383   0.698   2.877   3.347  0.7024 -0.7590 -0.5939
 4916SOL    HW126384   0.685   2.952   3.405  1.3500 -0.4822 -0.8058
 4916SOL    HW226385   0.642   2.811   3.386  1.0079 -0.7483 -0.1381
 4917SOL     OW26386   1.154   0.249   2.234  0.1471  0.0511  0.4831
 4917SOL    HW126387   1.247   0.229   2.245  0.3547  0.2043 -1.0004
 4917SOL    HW226388   1.151   0.319   2.169  0.8065 -0.2903  0.0861
 4918SOL     OW26389   1.206   1.641   6.113  0.1438  0.0521  0.0316
 4918SOL    HW126390   1.174   1.553   6.094  0.6446 -0.5725  2.0887
 4918SOL    HW226391   1.210   1.644   6.209 -0.6404 -1.2165  0.1052
 4919SOL     OW26392   1.173   2.627   5.721 -0.0885 -0.3624  0.1897
 4919SOL    HW126393   1.108   2.686   5.684 -0.9754 -1.0983  0.5847
 4919SOL    HW226394   1.194   2.659   5.809 -1.8054 -0.3534  0.5934
 4920SOL     OW26395   4.136   4.193   7.305 -0.1432 -0.5145  0.3087
 4920SOL    HW126396   4.095   4.242   7.377  1.8396  0.1920  0.9622
 4920SOL    HW226397   4.095   4.107   7.315 -0.3385 -0.3442  1.0161
 4921SOL     OW26398   2.058   1.919  11.987 -0.3957 -0.0736 -0.1902
 4921SOL    HW126399   2.125   1.969  12.034  1.1228 -1.8582 -0.4386
 4921SOL    HW226400   1.997   1.987  11.961  2.1151  1.6332 -1.5988
 4922SOL     OW26401   3.560   4.023   4.529 -0.6554  0.1398 -0.1761
 4922SOL    HW126402   3.546   3.936   4.492  0.4312  0.9781 -2.5876
 4922SOL    HW226403   3.654   4.027   4.514 -0.1975 -3.2374  1.7200
 4923SOL     OW26404   4.337   1.244   7.279 -0.2384 -0.2715 -0.2581
 4923SOL    HW126405   4.244   1.221   7.273 -0.0986 -0.5848 -1.1584
 4923SOL    HW226406   4.374   1.159   7.253  0.3156 -0.1719  0.2024
 4924SOL     OW26407   0.481   3.485   4.496  0.2596  0.1147 -0.3318
 4924SOL    HW126408   0.467   3.474   4.590 -0.5224  1.3364 -0.3109
 4924SOL    HW226409   0.397   3.527   4.480  0.2925  0.5769  0.7249
 4925SOL     OW26410   1.267   3.024   1.605 -0.0871  0.0699 -0.6472
 4925SOL    HW126411   1.322   3.021   1.684 -0.8906  3.2096  0.0330
 4925SOL    HW226412   1.267   3.119   1.592  1.6965  0.1449 -0.2132
 4926SOL     OW26413   2.822   4.353  10.676 -0.1978 -0.1170  0.1889
 4926SOL    HW126414   2.847   4.342  10.767 -1.0397 -2.4852  0.1569
 4926SOL    HW226415   2.740   4.402  10.679  0.0657  0.2863  0.6367
 4927SOL     OW26416   3.328   1.780   5.083  0.3484 -0.2134 -0.2359
 4927SOL    HW126417   3.419   1.771   5.056 -0.2099 -1.0383 -1.8496
 4927SOL    HW226418   3.337   1.782   5.179  1.2205  2.0555 -0.3680
 4928SOL     OW26419   4.357   0.570   4.611 -0.0407 -0.1666  0.1546
 4928SOL    HW126420   4.399   0.602   4.531  1.7521 -1.8372  0.4257
 4928SOL    HW226421   4.271   0.609   4.597  0.3894  0.6555 -0.1847
 4929SOL     OW26422   3.501   2.191   1.702  0.0941  0.4624  0.5350
 4929SOL    HW126423   3.529   2.204   1.611  0.1059 -0.4163  0.4112
 4929SOL    HW226424   3.424   2.247   1.708 -0.8443 -0.8884  0.9732
 4930SOL     OW26425   1.659   3.571   6.951 -0.2510 -0.2418  0.3207
 4930SOL    HW126426   1.568   3.597   6.942 -0.1742  0.0118  0.2890
 4930SOL    HW226427   1.673   3.528   6.867 -2.1049  0.8074 -0.5075
 4931SOL     OW26428   0.237   1.306   7.454 -0.0129  0.4625 -0.1521
 4931SOL    HW126429   0.200   1.374   7.396 -1.7329 -0.5039 -0.1847
 4931SOL    HW226430   0.259   1.351   7.535 -0.1973  0.4679 -0.1055
 4932SOL     OW26431   2.147   3.102   5.094  0.3920  0.1814  0.2026
 4932SOL    HW126432   2.220   3.135   5.041 -0.4621  0.6450 -0.7034
 4932SOL    HW226433   2.180   3.019   5.127  0.7263  0.7965  1.4016
 4933SOL     OW26434   3.696   1.658   8.897  0.2716 -0.2290 -0.0358
 4933SOL    HW126435   3.694   1.682   8.990 -1.8094 -1.0522  0.1241
 4933SOL    HW226436   3.766   1.715   8.866  0.3043  0.1738  0.7854
 4934SOL     OW26437   4.126   1.492   2.301  0.1477  0.2572 -0.7601
 4934SOL    HW126438   4.034   1.466   2.308 -0.0440  0.7841 -1.2322
 4934SOL    HW226439   4.131   1.583   2.332  0.9569 -0.3370  0.8417
 4935SOL     OW26440   0.631   0.619   9.094 -0.8681  0.4394  0.1492
 4935SOL    HW126441   0.625   0.549   9.029  2.1563  1.3294 -1.0807
 4935SOL    HW226442   0.597   0.579   9.174  2.5403  0.5854  1.6576
 4936SOL     OW26443   2.655   1.606  16.100  0.0273  0.9035  0.2253
 4936SOL    HW126444   2.602   1.609  16.021 -0.2418 -0.8487  0.3471
 4936SOL    HW226445   2.699   1.691  16.105 -0.6216  1.4201 -2.7046
 4937SOL     OW26446   1.112   1.196   5.455 -0.5097 -0.3941  0.0389
 4937SOL    HW126447   1.093   1.207   5.548  2.1139  2.3615  0.2559
 4937SOL    HW226448   1.117   1.289   5.430 -0.6649 -0.5351 -0.5080
 4938SOL     OW26449   1.227   2.753   4.139  0.4111 -0.2145 -0.2601
 4938SOL    HW126450   1.176   2.672   4.147 -0.8951  0.4444 -1.7610
 4938SOL    HW226451   1.240   2.739   4.045  2.1291 -1.0600  0.0959
 4939SOL     OW26452   3.978   4.270   2.572  0.2836  0.0036  0.1707
 4939SOL    HW126453   4.057   4.313   2.542  0.3428  0.5404  1.0925
 4939SOL    HW226454   4.016   4.220   2.645 -0.3934 -0.6233  0.0934
 4940SOL     OW26455   0.853   4.235  17.564 -0.3736 -0.1492  0.4590
 4940SOL    HW126456   0.930   4.228  17.619  0.2151  0.2052 -0.3239
 4940SOL    HW226457   0.891   4.251  17.477 -0.9878 -0.4878  0.1238
 4941SOL     OW26458   1.342   2.235   5.728  0.3910 -0.2353  0.5826
 4941SOL    HW126459   1.312   2.173   5.660 -2.1214  1.6883 -0.0568
 4941SOL    HW226460   1.433   2.207   5.729  0.4611 -0.1373 -1.6851
 4942SOL     OW26461   2.259   1.716  10.486 -0.1038  0.1808  0.1664
 4942SOL    HW126462   2.198   1.745  10.418  0.1108 -0.2988 -0.2267
 4942SOL    HW226463   2.196   1.700  10.556 -0.8091 -2.5190 -1.0726
 4943SOL     OW26464   2.163   3.587   6.204 -0.2792 -0.0279 -0.4200
 4943SOL    HW126465   2.204   3.664   6.165  2.4676 -1.0964  0.3013
 4943SOL    HW226466   2.215   3.576   6.284 -1.4352  0.5261  0.4078
 4944SOL     OW26467   4.044   4.072   8.399  0.2756  0.1893 -0.5603
 4944SOL    HW126468   4.107   4.128   8.445 -0.8455  2.0313 -1.2597
 4944SOL    HW226469   4.050   4.102   8.308 -2.0178 -0.2580 -0.8617
 4945SOL     OW26470   1.701   1.614   6.402 -0.1926  0.1342  0.0861
 4945SOL    HW126471   1.777   1.632   6.457  0.7702 -0.5791 -1.0164
 4945SOL    HW226472   1.655   1.560   6.466  0.2357  0.1751  0.4251
 4946SOL     OW26473   4.732   2.310   1.591  0.4086 -0.0169  0.6923
 4946SOL    HW126474   0.041   2.377   1.544 -0.2228  0.1439  0.2550
 4946SOL    HW226475   0.033   2.314   1.677  0.4066 -1.0836  0.7443
 4947SOL     OW26476   2.576   0.456   5.628 -0.0304 -0.4437 -0.0658
 4947SOL    HW126477   2.628   0.423   5.554  1.0333  0.5626  0.2429
 4947SOL    HW226478   2.648   0.487   5.682 -0.2950  0.2383 -0.1091
 4948SOL     OW26479   2.666   2.947   0.286 -0.2123 -0.8092 -0.2107
 4948SOL    HW126480   2.762   2.945   0.279 -0.0821  0.6297  1.3071
 4948SOL    HW226481   2.658   3.041   0.300  2.5090 -0.7563  1.0506
 4949SOL     OW26482   0.344   3.560  10.295  0.4327 -0.2313  0.7747
 4949SOL    HW126483   0.332   3.524  10.207 -4.5750  0.1805  1.3130
 4949SOL    HW226484   0.405   3.492  10.325  3.2753  2.2688  0.6206
 4950SOL     OW26485   1.910   0.709   9.636  0.2460  0.0633 -0.2310
 4950SOL    HW126486   1.830   0.694   9.587  0.0310  1.5336 -0.3240
 4950SOL    HW226487   1.937   0.617   9.639 -0.6606 -0.1297  1.8948
 4951SOL     OW26488   0.143   4.576   0.553 -0.1553 -0.3231  0.0635
 4951SOL    HW126489   0.170   4.662   0.522 -1.1237  0.2945  0.9326
 4951SOL    HW226490   0.047   4.575   0.554 -0.1491 -0.4399  1.4242
 4952SOL     OW26491   1.816   0.026   5.123  0.3960 -0.0086 -0.4714
 4952SOL    HW126492   1.899   0.059   5.090 -0.6959  1.8466 -1.3611
 4952SOL    HW226493   1.791   4.712   5.048 -0.4328  0.6780 -0.6906
 4953SOL     OW26494   2.513   4.078   5.233  0.0240  0.7153 -0.3980
 4953SOL    HW126495   2.516   4.057   5.326 -2.5469 -2.1139 -0.9743
 4953SOL    HW226496   2.429   4.039   5.212 -0.7380  0.8571  2.4009
 4954SOL     OW26497   0.224   0.281   2.800  0.6705 -0.1380  0.8368
 4954SOL    HW126498   0.176   0.254   2.721  2.8102 -0.5285 -0.3307
 4954SOL    HW226499   0.149   0.318   2.846  1.0017  1.1328  0.3375
 4955SOL     OW26500   4.618   4.673   0.557 -0.0938  0.7495 -0.7631
 4955SOL    HW126501   4.553   4.730   0.517 -0.2374  1.3750  0.3675
 4955SOL    HW226502   4.564   4.609   0.603 -1.3686  1.3342 -1.4600
 4956SOL     OW26503   4.219   1.517   9.528  0.3159  0.5678  0.5224
 4956SOL    HW126504   4.188   1.453   9.593 -2.8550  0.1809 -1.4083
 4956SOL    HW226505   4.274   1.569   9.587 -1.6184  0.8574  2.0705
 4957SOL     OW26506   3.467   3.254   3.393  0.2071  0.3876 -0.5325
 4957SOL    HW126507   3.477   3.349   3.391 -2.2420  0.6717  0.1781
 4957SOL    HW226508   3.412   3.259   3.471  0.1280 -0.3742 -0.5389
 4958SOL     OW26509   2.417   4.498  14.198 -0.8595  0.4248 -0.0083
 4958SOL    HW126510   2.441   4.431  14.134  0.1876  0.6089  0.1945
 4958SOL    HW226511   2.488   4.562  14.205 -1.8738  1.5074  0.5069
 4959SOL     OW26512   0.155   0.363   6.210 -0.0950 -0.2791  1.0201
 4959SOL    HW126513   0.236   0.333   6.252  0.8324  1.1162  0.2152
 4959SOL    HW226514   0.192   0.437   6.162 -0.6017  1.4260  3.2855
 4960SOL     OW26515   1.756   4.668   9.011 -0.0886  0.0458  0.4713
 4960SOL    HW126516   1.800   0.005   8.976  1.7485 -1.6871 -1.1155
 4960SOL    HW226517   1.737   4.617   8.932 -2.0493  0.9763  0.3519
 4961SOL     OW26518   2.266   2.045  12.110  0.6892  0.3087  0.2353
 4961SOL    HW126519   2.310   2.108  12.166 -0.0986  2.4375 -1.5364
 4961SOL    HW226520   2.313   2.050  12.027 -0.7906  0.8393 -0.5753
 4962SOL     OW26521   1.872   0.937   2.864 -0.1256  0.0371 -0.3118
 4962SOL    HW126522   1.831   0.864   2.819  0.0731  0.3613 -1.0191
 4962SOL    HW226523   1.850   1.011   2.807  1.5115  0.6893 -0.1060
 4963SOL     OW26524   1.333   0.985  15.908 -0.7569 -0.0400  0.1084
 4963SOL    HW126525   1.299   0.904  15.871 -1.2992  1.3844 -2.5426
 4963SOL    HW226526   1.262   1.023  15.959 -1.3297  1.2002 -1.5976
 4964SOL     OW26527   1.329   2.105   8.921 -0.2808 -0.5799  0.9099
 4964SOL    HW126528   1.242   2.119   8.883  0.2904  1.0112  0.1612
 4964SOL    HW226529   1.356   2.193   8.896 -2.5309 -0.3436 -0.7395
 4965SOL     OW26530   2.921   0.978  11.514 -0.0998 -0.1173  0.8944
 4965SOL    HW126531   2.971   0.897  11.502 -1.0653 -0.4196 -1.0937
 4965SOL    HW226532   2.856   0.939  11.573  0.2800  3.0722  3.4084
 4966SOL     OW26533   2.071   1.996   1.770 -0.0818  0.0115  0.4277
 4966SOL    HW126534   2.057   1.943   1.848  1.6545 -0.5259  0.3788
 4966SOL    HW226535   2.149   1.947   1.744 -0.4154 -1.0785  1.4873
 4967SOL     OW26536   3.477   4.315   1.776 -0.6530 -0.4877 -0.4658
 4967SOL    HW126537   3.399   4.365   1.751 -1.5738 -1.1846  0.9729
 4967SOL    HW226538   3.524   4.385   1.821  0.9081 -1.1440 -1.0858
 4968SOL     OW26539   3.408   4.685   2.567 -0.5192 -0.1529  0.2047
 4968SOL    HW126540   3.450   0.022   2.529  0.1231  0.1161  1.4557
 4968SOL    HW226541   3.412   4.722   2.655 -0.4855 -1.1971  0.6361
 4969SOL     OW26542   2.801   2.588   1.104 -0.4223 -0.0951  0.5666
 4969SOL    HW126543   2.833   2.675   1.080 -0.3086 -1.4946 -4.3709
 4969SOL    HW226544   2.772   2.609   1.193  1.1619  0.7186  0.8920
 4970SOL     OW26545   3.134   1.181   6.952 -0.0189 -0.0539 -0.1351
 4970SOL    HW126546   3.079   1.189   7.030  1.6300 -1.5523  1.2036
 4970SOL    HW226547   3.065   1.185   6.887 -0.1513 -1.6650 -0.0972
 4971SOL     OW26548   1.127   2.941   5.171  0.5208  0.2661 -0.0617
 4971SOL    HW126549   1.175   2.883   5.111 -1.4203 -0.9567 -0.4404
 4971SOL    HW226550   1.193   3.009   5.181  0.1373  1.1321 -3.3706
 4972SOL     OW26551   2.406   2.604   7.416 -0.2928 -0.3838  0.9574
 4972SOL    HW126552   2.393   2.680   7.473 -0.8603  1.4926 -1.6606
 4972SOL    HW226553   2.363   2.537   7.469 -1.2528  0.1259  0.8129
 4973SOL     OW26554   2.981   4.586   5.089  0.1951 -0.0813 -0.4601
 4973SOL    HW126555   2.931   4.517   5.133 -1.8249  0.5523 -1.7643
 4973SOL    HW226556   2.937   4.662   5.128 -1.7582 -2.1653  1.3905
 4974SOL     OW26557   1.074   0.241   4.270  0.8073  0.0256  0.5423
 4974SOL    HW126558   1.076   0.321   4.219  2.0506  1.0604  2.1897
 4974SOL    HW226559   1.032   0.182   4.208  1.1956 -0.3746  0.6605
 4975SOL     OW26560   3.879   2.259   8.876  0.2757  0.2683  0.7521
 4975SOL    HW126561   3.868   2.345   8.835  4.9071  1.1482  1.3623
 4975SOL    HW226562   3.969   2.253   8.907  0.7203 -2.3641 -1.0069
 4976SOL     OW26563   0.680   1.894   2.271 -0.4679  0.0435  0.5358
 4976SOL    HW126564   0.595   1.871   2.235 -1.8316  1.0613  3.0612
 4976SOL    HW226565   0.742   1.896   2.199  0.0547 -1.8713  0.9252
 4977SOL     OW26566   1.612   3.702  15.881 -0.0583  0.6102 -0.1523
 4977SOL    HW126567   1.615   3.748  15.965  0.8897 -0.2109  0.2588
 4977SOL    HW226568   1.663   3.758  15.823  0.6938  0.5413  0.4393
 4978SOL     OW26569   3.297   3.434   6.859 -0.9711  0.4291  0.6864
 4978SOL    HW126570   3.315   3.396   6.773 -1.0018  0.6276  0.5926
 4978SOL    HW226571   3.336   3.518   6.833 -1.1795  0.7219  1.3230
 4979SOL     OW26572   0.136   2.685  11.078 -0.0148 -0.0635 -0.3155
 4979SOL    HW126573   0.113   2.746  11.006  1.6146  2.2680  1.1394
 4979SOL    HW226574   0.207   2.733  11.121  2.4062 -3.0482 -0.9803
 4980SOL     OW26575   1.544   3.271   6.998 -0.3557 -0.1025 -0.1383
 4980SOL    HW126576   1.608   3.289   6.930  1.0708 -2.3192  0.6237
 4980SOL    HW226577   1.566   3.326   7.073  1.7329  0.5953 -1.2590
 4981SOL     OW26578   2.213   4.049   5.306  0.3482  0.0108 -0.5137
 4981SOL    HW126579   2.185   3.995   5.231  1.5273  0.4861 -1.3002
 4981SOL    HW226580   2.134   4.037   5.358  0.5629 -1.0589 -0.4339
 4982SOL     OW26581   0.764   0.284   9.038 -0.6270 -0.4686  0.5404
 4982SOL    HW126582   0.674   0.286   9.071 -0.7115 -1.3727  0.3688
 4982SOL    HW226583   0.821   0.279   9.114  0.7810  0.0368 -0.4774
 4983SOL     OW26584   4.469   3.418   4.127  0.6462  0.3437  0.2395
 4983SOL    HW126585   4.498   3.498   4.171 -2.2020  0.3303  2.1151
 4983SOL    HW226586   4.414   3.373   4.191  1.2657 -0.2101  0.3824
 4984SOL     OW26587   0.365   1.198  12.013 -0.7286 -0.0759 -0.3474
 4984SOL    HW126588   0.340   1.106  12.016  2.0212 -0.7194  2.7594
 4984SOL    HW226589   0.409   1.209  11.929 -0.7865  0.3418 -0.3276
 4985SOL     OW26590   0.747   3.104   2.160 -0.1519  0.1397  0.2956
 4985SOL    HW126591   0.759   3.173   2.225 -1.6602  1.0821 -0.4375
 4985SOL    HW226592   0.776   3.155   2.084 -1.5453 -0.7477 -0.8109
 4986SOL     OW26593   1.089   0.318   1.366 -0.6494  0.0626  0.5569
 4986SOL    HW126594   0.996   0.302   1.350 -0.3449 -1.8300  0.5881
 4986SOL    HW226595   1.108   0.371   1.289 -1.6548  0.0160  0.2728
 4987SOL     OW26596   4.713   4.370   1.902 -0.1584 -0.0239  0.0232
 4987SOL    HW126597   0.009   4.358   1.990  0.5984  0.3484 -0.2379
 4987SOL    HW226598   4.668   4.454   1.913 -2.2214 -1.3004  1.2980
 4988SOL     OW26599   4.102   1.253   5.763  0.0378 -0.3539  0.2970
 4988SOL    HW126600   4.140   1.226   5.679  0.3072  0.5689  0.1240
 4988SOL    HW226601   4.007   1.253   5.749 -0.0553 -2.3162  0.8414
 4989SOL     OW26602   3.091   1.975  12.576 -0.3195 -0.0895  0.1690
 4989SOL    HW126603   3.000   2.005  12.576 -0.2943  0.0060  1.2975
 4989SOL    HW226604   3.100   1.947  12.667 -0.2162  0.4389  0.3224
 4990SOL     OW26605   4.294   3.679  17.144 -0.2260  0.5232  0.0836
 4990SOL    HW126606   4.211   3.712  17.110 -0.1505  0.6394  0.0104
 4990SOL    HW226607   4.312   3.607  17.083  0.6614  0.2800  0.6300
 4991SOL     OW26608   1.521   1.214   3.406  0.1847 -1.2042  0.5816
 4991SOL    HW126609   1.515   1.141   3.344 -0.3500 -0.4991 -0.1977
 4991SOL    HW226610   1.504   1.177   3.493 -0.2651 -0.8813  0.6300
 4992SOL     OW26611   0.100   2.482  17.306  0.4978  0.1604  0.0992
 4992SOL    HW126612   0.050   2.500  17.386  0.3267 -0.6750  0.1823
 4992SOL    HW226613   0.036   2.492  17.235  2.0537 -4.5992 -1.9729
 4993SOL     OW26614   3.893   0.404  14.572 -0.4193  0.0197  0.7219
 4993SOL    HW126615   3.980   0.423  14.606 -0.9099  0.3551  1.7751
 4993SOL    HW226616   3.892   0.453  14.490 -0.7094  0.2736  0.8792
 4994SOL     OW26617   1.530   1.812   4.755 -0.3963 -0.8794 -0.3919
 4994SOL    HW126618   1.495   1.827   4.843  2.5862  1.6266  0.3309
 4994SOL    HW226619   1.471   1.872   4.710 -2.2887 -2.6423 -0.2719
 4995SOL     OW26620   1.221   0.758  15.808  0.1237 -0.5502  1.0601
 4995SOL    HW126621   1.231   0.712  15.891  0.1112 -1.8758  0.3137
 4995SOL    HW226622   1.131   0.737  15.782  0.8163 -0.0502 -1.7078
 4996SOL     OW26623   3.994   1.651  10.173 -0.1574  0.2038  0.3572
 4996SOL    HW126624   3.987   1.627  10.266 -1.1684  0.4939  0.3491
 4996SOL    HW226625   3.951   1.736  10.165 -0.8479 -0.0630  1.1468
 4997SOL     OW26626   0.806   0.022  15.985 -0.3868 -0.1569  0.4572
 4997SOL    HW126627   0.809   0.044  15.891 -1.0214 -2.0342  0.0118
 4997SOL    HW226628   0.716   0.049  16.003 -0.7948 -2.4780  1.8751
 4998SOL     OW26629   0.176   2.750   4.691  0.0164 -0.1719  0.7053
 4998SOL    HW126630   0.118   2.822   4.712  0.2433  0.7039 -1.7066
 4998SOL    HW226631   0.111   2.680   4.685 -1.7528  1.4403  1.3727
 4999SOL     OW26632   1.733   2.608   5.501 -0.2415 -0.6228  0.0551
 4999SOL    HW126633   1.805   2.551   5.530 -0.0440  1.2136  3.1077
 4999SOL    HW226634   1.722   2.574   5.412 -2.8675  1.9406 -0.5928
 5000SOL     OW26635   0.415   4.574   9.735 -0.3555 -0.0017 -0.4016
 5000SOL    HW126636   0.338   4.629   9.725 -0.7442 -0.6413 -0.9917
 5000SOL    HW226637   0.471   4.574   9.656  1.1885 -0.3063  0.6870
 5001SOL     OW26638   0.872   1.226   4.507  0.2686 -0.2112  0.1785
 5001SOL    HW126639   0.858   1.202   4.599 -0.2921  0.1215  0.1770
 5001SOL    HW226640   0.966   1.218   4.489 -0.1285  0.5583 -2.1988
 5002SOL     OW26641   1.565   2.185   8.637 -0.4493 -0.1574 -0.0989
 5002SOL    HW126642   1.488   2.140   8.602 -1.9406  1.9073  0.5128
 5002SOL    HW226643   1.613   2.226   8.565 -1.4679 -1.5816 -1.5814
 5003SOL     OW26644   1.153   3.016   4.781 -0.4644 -0.0484 -0.0903
 5003SOL    HW126645   1.207   3.019   4.702  0.6422  0.4506  0.6774
 5003SOL    HW226646   1.151   2.924   4.807  1.6115 -0.2406 -0.5941
 5004SOL     OW26647   1.663   1.266  14.137  0.7580  0.4452 -0.2131
 5004SOL    HW126648   1.670   1.251  14.043 -2.2082 -1.5891 -0.1291
 5004SOL    HW226649   1.597   1.335  14.145 -0.5712 -0.8284 -0.2969
 5005SOL     OW26650   1.470   4.634   6.544  0.1766 -0.4901 -0.0758
 5005SOL    HW126651   1.431   4.671   6.623  0.8333  1.5175 -0.6965
 5005SOL    HW226652   1.460   4.708   6.484  0.9519  0.3022  0.7748
 5006SOL     OW26653   3.561   0.291   4.104 -0.8077 -0.6122 -0.3637
 5006SOL    HW126654   3.508   0.250   4.172 -1.0735 -1.8354 -1.3046
 5006SOL    HW226655   3.593   0.370   4.148 -3.6078  0.4784 -0.2745
 5007SOL     OW26656   3.296   0.312   9.749  0.0160 -0.2332  0.0574
 5007SOL    HW126657   3.288   0.299   9.655  1.2121  1.1994 -0.2442
 5007SOL    HW226658   3.390   0.296   9.747 -0.1521 -1.4149  1.6434
 5008SOL     OW26659   3.023   2.317   2.986 -0.1292 -0.4985 -0.1648
 5008SOL    HW126660   3.063   2.242   2.941 -1.6233 -1.4448  0.0930
 5008SOL    HW226661   3.047   2.292   3.076  1.6295 -0.1099 -0.5165
 5009SOL     OW26662   2.917   3.181   3.164 -0.2114 -0.6720  0.0026
 5009SOL    HW126663   2.932   3.267   3.123  1.4211 -0.7286  0.5053
 5009SOL    HW226664   2.921   3.133   3.082  1.7235  0.4162 -0.5323
 5010SOL     OW26665   4.034   0.250   6.160  0.0350  0.6165  0.1237
 5010SOL    HW126666   4.060   0.186   6.094 -1.9382  0.4370 -0.4737
 5010SOL    HW226667   4.059   0.330   6.113 -0.4447  1.2753  1.0006
 5011SOL     OW26668   4.672   1.435   7.314  0.1437 -0.1952 -0.0789
 5011SOL    HW126669   0.005   1.490   7.343  0.3256 -0.2101 -0.5209
 5011SOL    HW226670   4.655   1.467   7.226  0.9400  0.8174  0.1395
 5012SOL     OW26671   3.034   0.639   7.005 -0.0958  0.6765 -0.2988
 5012SOL    HW126672   2.983   0.696   7.062  2.0972  4.3021 -1.9610
 5012SOL    HW226673   3.108   0.608   7.058 -0.2751  0.9715  0.1209
 5013SOL     OW26674   3.852   3.513   6.090  0.0579 -0.6250  0.3882
 5013SOL    HW126675   3.905   3.593   6.087 -0.8593 -0.0446 -0.2145
 5013SOL    HW226676   3.817   3.501   6.178  0.3484  0.1423  0.6094
 5014SOL     OW26677   1.721   3.626   2.992  0.5417 -0.8562  0.1756
 5014SOL    HW126678   1.706   3.691   2.923 -0.1209  0.0569  1.1666
 5014SOL    HW226679   1.814   3.604   2.987  1.0265  1.2580 -0.3751
 5015SOL     OW26680   2.284   0.867  12.865  0.2582 -0.5792  0.3642
 5015SOL    HW126681   2.325   0.952  12.885 -0.5743  0.3045 -1.6193
 5015SOL    HW226682   2.358   0.811  12.845 -1.0515 -2.7036  1.5379
 5016SOL     OW26683   1.718   1.533   7.709 -0.5034 -0.1978 -0.0348
 5016SOL    HW126684   1.786   1.529   7.776 -1.4581  3.6398  1.2012
 5016SOL    HW226685   1.646   1.571   7.759  0.5361  0.2018  1.1739
 5017SOL     OW26686   1.138   3.285  16.200 -0.2279  0.0885 -0.1601
 5017SOL    HW126687   1.104   3.372  16.181  0.3688 -0.4787 -3.7871
 5017SOL    HW226688   1.072   3.248  16.258  1.3012 -1.0774  0.8407
 5018SOL     OW26689   2.135   4.122   1.750  0.9999 -0.3011  0.2623
 5018SOL    HW126690   2.111   4.187   1.684  2.2815  0.8258  0.9323
 5018SOL    HW226691   2.223   4.149   1.777 -0.2475  0.7721  3.2170
 5019SOL     OW26692   1.994   1.473   2.577  0.4113  0.2367 -0.4345
 5019SOL    HW126693   1.900   1.491   2.582 -0.2063 -2.3063 -2.6853
 5019SOL    HW226694   2.012   1.434   2.663  1.5884 -0.3813 -0.9563
 5020SOL     OW26695   3.203   1.629   7.399  0.8779  0.6647 -0.3542
 5020SOL    HW126696   3.171   1.656   7.485  1.3646  0.8494 -0.2299
 5020SOL    HW226697   3.177   1.710   7.355 -3.3271 -1.0788 -1.0675
 5021SOL     OW26698   2.836   0.527  11.722 -0.0827  0.0176  0.1190
 5021SOL    HW126699   2.880   0.554  11.642  0.1461  0.2233  0.3115
 5021SOL    HW226700   2.908   0.472  11.754 -2.5439 -2.2350  1.7347
 5022SOL     OW26701   0.628   2.560   7.661 -0.0820  0.2436  0.2285
 5022SOL    HW126702   0.635   2.521   7.574 -0.3071  0.2105  0.2261
 5022SOL    HW226703   0.542   2.531   7.691  0.3830 -0.3164  1.0237
 5023SOL     OW26704   3.732   2.982  13.373  0.4300  0.0772  0.1294
 5023SOL    HW126705   3.708   2.951  13.286  1.1462  1.7851 -0.6703
 5023SOL    HW226706   3.816   3.026  13.364  0.2862 -0.3120 -3.0637
 5024SOL     OW26707   2.284   4.306   5.187  0.4560  0.6321  0.4016
 5024SOL    HW126708   2.276   4.219   5.224  0.9769  0.0602 -0.8466
 5024SOL    HW226709   2.290   4.362   5.265 -1.6719  1.3700  0.0368
 5025SOL     OW26710   0.624   3.601   3.218  0.3434  0.0393  0.1339
 5025SOL    HW126711   0.544   3.639   3.182  1.0290  0.2993 -1.0939
 5025SOL    HW226712   0.602   3.587   3.310  1.1451 -2.3190 -0.0325
 5026SOL     OW26713   4.516   4.153   4.112 -0.1646  0.1409 -0.5855
 5026SOL    HW126714   4.433   4.129   4.154  0.9879 -0.7463  1.1378
 5026SOL    HW226715   4.543   4.226   4.167 -0.5957 -0.0613 -0.0991
 5027SOL     OW26716   1.726   0.077  11.971  0.0929  0.1777  0.6550
 5027SOL    HW126717   1.801   0.048  12.023 -0.3297  0.0876  1.2171
 5027SOL    HW226718   1.747   0.169  11.955  2.6239 -0.0183  2.7701
 5028SOL     OW26719   1.429   1.075   4.722  0.3376 -0.3972 -0.3261
 5028SOL    HW126720   1.335   1.057   4.721  0.7835 -2.5029 -3.2885
 5028SOL    HW226721   1.442   1.135   4.649  1.3744 -0.2897 -0.0572
 5029SOL     OW26722   2.950   1.894   8.295 -0.1550  0.4003  0.8251
 5029SOL    HW126723   3.000   1.908   8.376  2.4638 -1.3705 -0.4996
 5029SOL    HW226724   2.890   1.826   8.324 -0.1491 -0.8560 -2.1716
 5030SOL     OW26725   4.146   0.175   0.029  0.0940 -0.6984 -0.4183
 5030SOL    HW126726   4.209   0.138  17.727  0.3575 -1.3584  0.2491
 5030SOL    HW226727   4.188   0.256   0.057  0.9940 -0.4991 -2.3363
 5031SOL     OW26728   1.145   1.131   8.940 -0.0446  0.0599  0.3248
 5031SOL    HW126729   1.221   1.161   8.991 -0.5484  0.2604  0.9518
 5031SOL    HW226730   1.171   1.043   8.914 -2.1728 -0.4846  0.0780
 5032SOL     OW26731   0.453   1.374   5.171 -0.2495 -0.2288 -0.1397
 5032SOL    HW126732   0.372   1.421   5.190 -0.0990  0.4111 -1.0818
 5032SOL    HW226733   0.429   1.323   5.093 -0.4883 -1.7613  0.9236
 5033SOL     OW26734   1.312   3.499   1.719 -0.2040  0.1447 -0.0035
 5033SOL    HW126735   1.288   3.425   1.663  2.4580  0.0386 -1.0010
 5033SOL    HW226736   1.350   3.558   1.654  1.3749 -0.0528  0.7378
 5034SOL     OW26737   1.323   1.289   8.082  0.1408 -0.2037 -0.0625
 5034SOL    HW126738   1.271   1.244   8.149  0.8871  0.6897  1.1221
 5034SOL    HW226739   1.412   1.255   8.092  0.9193  2.0667  0.7318
 5035SOL     OW26740   3.105   1.052   2.150 -0.0694  0.4263  0.0179
 5035SOL    HW126741   3.147   0.989   2.092 -0.7381 -1.2917  1.3969
 5035SOL    HW226742   3.030   1.086   2.103 -1.2477  0.0596  1.6188
 5036SOL     OW26743   4.568   0.299   5.955  0.1001  0.4844  0.1558
 5036SOL    HW126744   4.561   0.350   6.036 -3.3669 -0.1629  0.2507
 5036SOL    HW226745   4.483   0.305   5.913 -0.6194  0.9996  1.6875
 5037SOL     OW26746   1.386   1.589   5.478  0.4911  0.0738 -0.4492
 5037SOL    HW126747   1.325   1.612   5.408 -1.1482  1.2897  1.3833
 5037SOL    HW226748   1.445   1.537   5.423  0.0793  0.2425 -1.0360
 5038SOL     OW26749   0.157   1.704   8.559 -0.0029  0.7561 -0.4765
 5038SOL    HW126750   0.077   1.698   8.507 -0.0659  0.1437 -0.3025
 5038SOL    HW226751   0.128   1.744   8.641  1.5035  1.1336 -0.1205
 5039SOL     OW26752   1.231   1.961   0.241  0.5739  0.1671  0.1841
 5039SOL    HW126753   1.321   1.932   0.254  0.9363  0.6354 -1.3105
 5039SOL    HW226754   1.252   2.054   0.237 -2.0222  0.7356 -0.1042
 5040SOL     OW26755   3.906   4.372   5.977 -0.4456 -0.0236  0.4174
 5040SOL    HW126756   3.811   4.364   5.966 -0.3726  1.9657 -1.7999
 5040SOL    HW226757   3.907   4.390   6.071  0.0769 -2.5444  0.8925
 5041SOL     OW26758   3.650   2.882   4.044  0.6774  0.4646  0.3972
 5041SOL    HW126759   3.645   2.913   3.954  2.7304  1.0438  0.4855
 5041SOL    HW226760   3.593   2.941   4.094  0.8134  1.5294 -0.7137
 5042SOL     OW26761   4.309   2.216   8.787 -0.4292  0.6008  0.1857
 5042SOL    HW126762   4.351   2.152   8.730  0.7571  1.5300  0.0310
 5042SOL    HW226763   4.319   2.297   8.738  1.3955 -0.2260 -0.7802
 5043SOL     OW26764   4.190   0.341   7.334  0.0607  0.9227  0.1739
 5043SOL    HW126765   4.230   0.321   7.419 -1.8019  0.4551  0.9518
 5043SOL    HW226766   4.103   0.373   7.360 -0.1334 -1.6725  2.6556
 5044SOL     OW26767   0.885   1.388  14.205  0.8376 -0.0042 -0.6818
 5044SOL    HW126768   0.794   1.415  14.192  0.1308 -1.8028  0.5528
 5044SOL    HW226769   0.878   1.298  14.235  2.5889  0.3872  0.8873
 5045SOL     OW26770   4.139   4.584   4.401  0.0152 -0.2315  0.3156
 5045SOL    HW126771   4.158   4.663   4.350 -1.1816 -1.1537 -1.5933
 5045SOL    HW226772   4.159   4.600   4.493 -0.8459  0.2071  0.4311
 5046SOL     OW26773   1.053   2.519   2.574 -0.0511  0.4168 -0.4178
 5046SOL    HW126774   1.146   2.514   2.551  0.3039  0.2621  1.0496
 5046SOL    HW226775   1.015   2.600   2.539 -1.1112  0.7075  1.3962
 5047SOL     OW26776   3.601   2.848  10.034 -0.0562  0.1164 -0.1957
 5047SOL    HW126777   3.596   2.942  10.018 -1.5422  0.4198  2.0175
 5047SOL    HW226778   3.539   2.806   9.974 -0.9332 -0.1173  0.8891
 5048SOL     OW26779   3.062   0.765  11.362  0.0539 -0.4668  0.3500
 5048SOL    HW126780   3.075   0.713  11.283  2.3863  2.0684 -0.9457
 5048SOL    HW226781   3.094   0.849  11.329  0.7073  0.2231  2.6732
 5049SOL     OW26782   0.976   1.487   3.052 -0.5733  0.1934  0.5456
 5049SOL    HW126783   1.064   1.449   3.052 -0.0400  1.3954  0.9042
 5049SOL    HW226784   0.931   1.407   3.077  1.6651 -1.0887  0.4476
 5050SOL     OW26785   0.915   0.958   3.045 -0.2425  0.2425 -0.4237
 5050SOL    HW126786   0.910   0.977   2.952  1.3141 -1.4892 -0.8653
 5050SOL    HW226787   1.008   0.976   3.058 -0.5122  1.3782 -0.1258
 5051SOL     OW26788   2.555   4.691   7.080 -0.4053  0.5778  0.1796
 5051SOL    HW126789   2.474   4.681   7.130 -0.5797  0.4975 -0.1207
 5051SOL    HW226790   2.613   4.618   7.100 -1.1622 -0.1408 -0.2402
 5052SOL     OW26791   0.358   3.420   1.442 -0.2911  0.1789 -0.5605
 5052SOL    HW126792   0.341   3.513   1.423 -2.7940 -0.4231 -1.2417
 5052SOL    HW226793   0.431   3.396   1.385 -0.1362 -1.8949  0.5418
 5053SOL     OW26794   2.685   0.265   4.360  0.4040  0.3400  0.5439
 5053SOL    HW126795   2.648   0.179   4.345 -1.2015  0.9561  1.0656
 5053SOL    HW226796   2.770   0.231   4.388 -0.4722 -1.6673  0.7546
 5054SOL     OW26797   3.352   2.140   2.753 -0.1021  0.0553  0.7652
 5054SOL    HW126798   3.382   2.059   2.794  1.3615  0.2276  0.0368
 5054SOL    HW226799   3.351   2.115   2.661  0.1080 -2.2893  1.4013
 5055SOL     OW26800   3.339   0.097  14.323  0.9890  0.9071 -0.0522
 5055SOL    HW126801   3.379   0.180  14.297  2.3655  0.2994  0.1091
 5055SOL    HW226802   3.402   0.029  14.299 -0.3975 -0.8505  1.2806
 5056SOL     OW26803   1.044   0.629   4.984 -0.0623 -0.2962  0.3266
 5056SOL    HW126804   0.953   0.643   5.011  0.0770  0.3829  0.4363
 5056SOL    HW226805   1.087   0.695   5.039  0.5269 -0.8607  0.5469
 5057SOL     OW26806   1.715   1.137   1.134 -0.1613 -0.3116 -0.5024
 5057SOL    HW126807   1.624   1.166   1.121 -0.4300 -0.9994 -0.1666
 5057SOL    HW226808   1.771   1.204   1.097  0.2877  0.2040  1.1224
 5058SOL     OW26809   3.671   2.607   4.014  0.1636  0.1399  0.0452
 5058SOL    HW126810   3.586   2.605   3.970 -0.0626 -1.5494  0.5265
 5058SOL    HW226811   3.666   2.695   4.051 -0.8744  0.4399 -0.7980
 5059SOL     OW26812   4.724   0.658   7.275  0.1600 -0.6125 -0.4619
 5059SOL    HW126813   4.650   0.715   7.252 -1.8835 -2.4919  1.3451
 5059SOL    HW226814   0.022   0.644   7.189 -0.3255 -0.2461 -0.7418
 5060SOL     OW26815   3.114   3.615   8.460 -0.2188  0.1121  0.2023
 5060SOL    HW126816   3.092   3.552   8.528  1.4624  0.0940  0.7394
 5060SOL    HW226817   3.033   3.619   8.409  1.3107 -0.1823 -2.2770
 5061SOL     OW26818   1.229   3.154   6.420  0.3171  0.3105 -0.6122
 5061SOL    HW126819   1.294   3.201   6.368  0.6808  1.0481  0.5065
 5061SOL    HW226820   1.158   3.159   6.356  0.4758 -1.0197 -0.8846
 5062SOL     OW26821   1.044   0.996   7.388 -0.2481 -0.1331 -0.1473
 5062SOL    HW126822   1.056   1.003   7.482 -1.7367  0.3814  0.0038
 5062SOL    HW226823   0.965   0.942   7.386 -0.5178  0.3032 -1.2859
 5063SOL     OW26824   3.292   0.274   2.717 -0.1122  0.4026 -0.2813
 5063SOL    HW126825   3.283   0.364   2.683 -1.1782 -0.7322 -2.9952
 5063SOL    HW226826   3.203   0.260   2.748  0.5670 -0.4927  1.2581
 5064SOL     OW26827   4.718   4.002   0.481 -0.0282  0.0915  0.2879
 5064SOL    HW126828   0.049   3.962   0.529  1.5583  0.2564 -1.9459
 5064SOL    HW226829   4.669   3.924   0.457  0.2251 -0.1499  0.5639
 5065SOL     OW26830   2.518   4.677   7.994 -0.1969  0.4134  0.0285
 5065SOL    HW126831   2.427   4.701   8.011 -0.4990  0.2941 -1.3585
 5065SOL    HW226832   2.505   4.582   7.988 -0.9494  0.3747  2.5505
 5066SOL     OW26833   0.902   0.320   0.791  0.6741 -0.1055 -0.5048
 5066SOL    HW126834   0.913   0.279   0.705  1.6926 -1.8056  0.4310
 5066SOL    HW226835   0.945   0.403   0.774  0.4741  0.3179  0.9900
 5067SOL     OW26836   4.091   2.012  13.779 -0.2669 -0.1683  0.0065
 5067SOL    HW126837   4.120   1.924  13.755 -0.4171 -0.3777  0.5939
 5067SOL    HW226838   4.171   2.064  13.780  2.5037 -4.3783 -2.2900
 5068SOL     OW26839   0.850   3.910   2.041 -0.0621 -0.4317 -0.2237
 5068SOL    HW126840   0.934   3.948   2.017  0.1260 -0.4564  0.4000
 5068SOL    HW226841   0.789   3.948   1.977  2.2334  1.5168 -1.2595
 5069SOL     OW26842   1.222   2.508   7.191  0.0505 -0.0648 -0.0447
 5069SOL    HW126843   1.139   2.489   7.234 -1.2494  1.4876 -1.8740
 5069SOL    HW226844   1.237   2.590   7.237  0.9556 -0.6471  0.7044
 5070SOL     OW26845   0.518   0.982   8.493 -0.4570 -0.2388 -0.4079
 5070SOL    HW126846   0.448   0.995   8.557 -0.6106 -0.5543 -0.5108
 5070SOL    HW226847   0.537   1.073   8.472 -0.2079  0.4747  2.9342
 5071SOL     OW26848   1.693   4.333   2.081 -0.2412 -0.4909  0.5267
 5071SOL    HW126849   1.625   4.270   2.105 -0.3772 -0.0460  1.2980
 5071SOL    HW226850   1.687   4.390   2.157 -0.1191 -0.4694  0.5201
 5072SOL     OW26851   1.507   0.203   5.290 -0.3038  0.8552  0.5668
 5072SOL    HW126852   1.461   0.283   5.265 -0.0130  0.8866  0.1225
 5072SOL    HW226853   1.536   0.184   5.200 -2.0234 -0.6526  0.3310
 5073SOL     OW26854   0.392   4.440   8.809 -0.2291  0.5446 -0.4660
 5073SOL    HW126855   0.344   4.441   8.892 -0.4113  0.1796 -0.5647
 5073SOL    HW226856   0.452   4.514   8.819 -0.0578  0.3582 -0.1320
 5074SOL     OW26857   4.566   3.817   9.251 -0.2384 -0.1437 -0.5567
 5074SOL    HW126858   4.514   3.894   9.229  0.6222  0.7914  0.6011
 5074SOL    HW226859   4.629   3.806   9.180  2.3244  2.3362  1.2852
 5075SOL     OW26860   4.698   2.763  14.602 -1.1143 -0.1105 -0.1762
 5075SOL    HW126861   4.659   2.846  14.572  0.0552  1.2688  2.1715
 5075SOL    HW226862   0.012   2.793  14.674  1.4789 -0.2336 -2.0844
 5076SOL     OW26863   4.218   3.138   4.202  0.1016 -0.3568 -0.1985
 5076SOL    HW126864   4.133   3.179   4.189 -0.7329 -1.7469  0.7724
 5076SOL    HW226865   4.218   3.069   4.136 -1.9494 -0.4985 -0.0569
 5077SOL     OW26866   1.266   0.513  17.399 -0.2919  0.2523  0.3312
 5077SOL    HW126867   1.225   0.449  17.340 -2.4149  2.9736 -1.1458
 5077SOL    HW226868   1.267   0.593  17.346  0.4849  0.5029  0.7189
 5078SOL     OW26869   4.123   1.572   2.788  0.0607 -0.6062 -0.1093
 5078SOL    HW126870   4.178   1.628   2.733 -2.3607 -0.4614 -2.4359
 5078SOL    HW226871   4.128   1.486   2.746 -4.7633 -1.2975  0.6633
 5079SOL     OW26872   1.320   3.462   3.572  0.5913  0.3215  0.6616
 5079SOL    HW126873   1.257   3.391   3.585  0.8825 -0.2325 -0.9698
 5079SOL    HW226874   1.300   3.491   3.483 -1.5875 -0.9295  0.7519
 5080SOL     OW26875   4.304   2.189   3.158  0.3234  0.1804  0.3958
 5080SOL    HW126876   4.307   2.217   3.250 -0.6117 -0.7928  0.7237
 5080SOL    HW226877   4.213   2.201   3.131  0.4855 -1.9307 -1.0672
 5081SOL     OW26878   0.175   3.559   9.512  0.2291 -0.1446 -0.2768
 5081SOL    HW126879   0.246   3.495   9.511  1.5989  1.3535  0.8172
 5081SOL    HW226880   0.101   3.523   9.463 -0.0303 -0.3024  0.2252
 5082SOL     OW26881   1.320   3.558   2.215  0.1393 -0.2212  0.2464
 5082SOL    HW126882   1.281   3.510   2.288 -2.5606  2.3260  0.4855
 5082SOL    HW226883   1.326   3.493   2.146  3.0724  0.8089 -0.4653
 5083SOL     OW26884   2.934   2.271   5.742  0.4382  0.4610 -0.3547
 5083SOL    HW126885   3.019   2.239   5.711 -0.4049 -1.4402 -0.6887
 5083SOL    HW226886   2.957   2.290   5.833  0.4866  0.4189 -0.3577
 5084SOL     OW26887   3.414   2.405   1.111  0.1710 -0.0908 -0.0578
 5084SOL    HW126888   3.483   2.399   1.045  0.4127  0.4732  0.1442
 5084SOL    HW226889   3.400   2.315   1.140 -1.4593  0.4390  0.7889
 5085SOL     OW26890   2.420   0.428   4.436 -0.2619 -0.5378  0.1046
 5085SOL    HW126891   2.448   0.516   4.412 -0.2281 -0.9876 -1.5331
 5085SOL    HW226892   2.489   0.371   4.402  0.4546  0.9542 -0.9160
 5086SOL     OW26893   1.619   3.417   2.162 -0.0844 -0.7030 -0.0540
 5086SOL    HW126894   1.634   3.351   2.095  2.5098 -0.9050  0.7276
 5086SOL    HW226895   1.601   3.362   2.239 -0.2636  0.0435  0.4452
 5087SOL     OW26896   3.783   1.074   8.611  0.2818  0.0899 -0.2433
 5087SOL    HW126897   3.707   1.019   8.598  0.3265 -0.2820  1.0595
 5087SOL    HW226898   3.790   1.117   8.526 -0.7019 -0.5161 -0.6204
 5088SOL     OW26899   1.467   2.293   2.693  0.1234  0.1738  0.1654
 5088SOL    HW126900   1.511   2.368   2.731  0.8365  0.2397 -0.7881
 5088SOL    HW226901   1.453   2.228   2.763 -1.1376  0.4564  0.1838
 5089SOL     OW26902   2.395   2.341   4.381 -0.4746 -0.1606  0.5193
 5089SOL    HW126903   2.463   2.284   4.347  0.0408 -0.1082  1.4579
 5089SOL    HW226904   2.358   2.387   4.305  3.5903  1.1046 -0.6903
 5090SOL     OW26905   0.578   3.283   6.140  1.0631 -0.1269 -0.1620
 5090SOL    HW126906   0.586   3.247   6.052  0.4772  2.0293 -1.1106
 5090SOL    HW226907   0.640   3.229   6.189  1.9863 -0.0618 -1.2566
 5091SOL     OW26908   2.247   1.812   1.721  0.4514 -0.5354 -0.1973
 5091SOL    HW126909   2.295   1.736   1.754 -0.5026 -0.0558  2.2623
 5091SOL    HW226910   2.235   1.780   1.631  0.7126 -0.2734 -0.3240
 5092SOL     OW26911   3.859   0.035  11.264 -0.3603  0.5238  0.0007
 5092SOL    HW126912   3.843   4.681  11.271  2.9341 -0.2501 -2.6770
 5092SOL    HW226913   3.770   0.070  11.261 -0.8572 -0.7990 -0.6947
 5093SOL     OW26914   3.035   2.409   4.294 -0.1675 -0.1530  0.2663
 5093SOL    HW126915   3.006   2.385   4.382  0.2984 -0.1827  0.4080
 5093SOL    HW226916   2.985   2.344   4.243  1.0436 -0.4379 -0.5497
 5094SOL     OW26917   0.043   0.179   4.037  0.5854  0.2369  0.4666
 5094SOL    HW126918   0.051   0.265   4.078  2.3824  0.6743 -0.7886
 5094SOL    HW226919   4.702   0.145   4.072  1.2471  0.2118  1.9927
 5095SOL     OW26920   4.558   4.564   3.312  0.1994  0.3275  0.1647
 5095SOL    HW126921   4.483   4.512   3.341  1.4756 -2.3577 -1.3759
 5095SOL    HW226922   4.619   4.547   3.384  2.4826 -1.1723 -2.1246
 5096SOL     OW26923   1.652   4.548   6.044 -0.2947 -0.0401  0.0123
 5096SOL    HW126924   1.643   4.515   6.133  2.0424  1.2196  0.7294
 5096SOL    HW226925   1.569   4.594   6.030 -0.9043 -0.8511  1.0231
 5097SOL     OW26926   0.551   1.186   2.963  0.2607  0.3333 -0.8324
 5097SOL    HW126927   0.632   1.231   2.938 -0.0766  2.0569  1.2580
 5097SOL    HW226928   0.577   1.135   3.040 -0.6640  0.1962 -0.6067
 5098SOL     OW26929   1.586   4.504   8.072  0.2196 -0.5357 -0.3016
 5098SOL    HW126930   1.584   4.446   7.996 -0.6266 -1.5495  0.4911
 5098SOL    HW226931   1.543   4.583   8.039  0.7845  0.3646  1.1300
 5099SOL     OW26932   1.378   4.661   8.354 -0.8353 -0.1813  0.8180
 5099SOL    HW126933   1.328   4.604   8.413  0.4640 -0.1316  1.9632
 5099SOL    HW226934   1.319   4.654   8.279  1.4819  2.2691 -1.2236
 5100SOL     OW26935   0.307   2.955   1.400 -0.0286 -0.1857 -0.5239
 5100SOL    HW126936   0.343   2.974   1.487 -1.2084 -0.5677  0.0465
 5100SOL    HW226937   0.223   2.999   1.409 -0.0757 -0.6961  1.6197
 5101SOL     OW26938   0.656   1.749   3.136 -0.5771  0.8923 -0.3890
 5101SOL    HW126939   0.666   1.749   3.041 -1.6615 -0.8788 -0.5003
 5101SOL    HW226940   0.661   1.656   3.155  0.7049  1.2736  1.1184
 5102SOL     OW26941   1.314   2.684   3.862  0.1894  0.0197 -0.2239
 5102SOL    HW126942   1.307   2.778   3.844 -0.4704 -0.0375 -0.2924
 5102SOL    HW226943   1.275   2.650   3.782 -0.7174 -0.3975  0.3881
 5103SOL     OW26944   3.407   3.537   5.324  0.3485  0.6692  0.1198
 5103SOL    HW126945   3.374   3.526   5.413  0.3246  0.4592  0.0857
 5103SOL    HW226946   3.446   3.624   5.333  1.9183  0.1677 -1.8253
 5104SOL     OW26947   1.250   3.677   9.030 -0.1479 -0.0057  0.3031
 5104SOL    HW126948   1.334   3.636   9.008 -0.9433 -1.3094 -0.3403
 5104SOL    HW226949   1.273   3.769   9.022  2.7735 -0.6385  1.3361
 5105SOL     OW26950   2.390   2.158  17.750  0.2931  0.2933  0.2035
 5105SOL    HW126951   2.337   2.219   0.041  1.3689  0.7181  0.8359
 5105SOL    HW226952   2.478   2.191   0.011  0.1137  2.0674 -1.8366
 5106SOL     OW26953   1.100   3.706  14.974  0.0590 -0.2635 -0.2577
 5106SOL    HW126954   1.057   3.782  14.935  1.4173  1.8073  2.3117
 5106SOL    HW226955   1.120   3.657  14.894  0.2518  0.3304 -0.5719
 5107SOL     OW26956   4.515   3.180  14.340 -0.4956 -0.1917 -0.2443
 5107SOL    HW126957   4.578   3.237  14.296 -2.0900  1.9887  0.2706
 5107SOL    HW226958   4.442   3.240  14.356 -0.5596 -0.3044 -0.1158
 5108SOL     OW26959   4.182   0.210  10.334 -0.1523 -0.3217 -0.1733
 5108SOL    HW126960   4.227   0.261  10.401  1.0834 -0.7153 -0.6957
 5108SOL    HW226961   4.088   0.207  10.352 -0.3424 -3.1339 -1.4928
 5109SOL     OW26962   2.987   4.211   5.611  0.4846 -0.0278 -0.2383
 5109SOL    HW126963   2.913   4.162   5.648  0.3315 -1.2069 -2.1206
 5109SOL    HW226964   3.062   4.171   5.654  0.5954 -0.0604 -0.4673
 5110SOL     OW26965   3.271   2.873  13.203 -0.4134  0.1196  0.4688
 5110SOL    HW126966   3.236   2.961  13.213 -0.0002  0.2809  0.4627
 5110SOL    HW226967   3.266   2.850  13.296 -1.3007 -0.6674  0.2277
 5111SOL     OW26968   4.536   3.344  10.067  0.2966  0.2058  0.4023
 5111SOL    HW126969   4.454   3.338  10.018 -0.9712  0.7590  2.4774
 5111SOL    HW226970   4.548   3.435  10.039 -1.5474  0.4635  0.4628
 5112SOL     OW26971   1.629   2.527  12.099 -0.7635 -0.0340 -0.0143
 5112SOL    HW126972   1.635   2.470  12.176  2.0569  1.9357  1.2414
 5112SOL    HW226973   1.656   2.470  12.026 -0.0777 -0.0839  0.2744
 5113SOL     OW26974   4.128   4.103  10.658  0.5931  0.8560  0.1323
 5113SOL    HW126975   4.048   4.151  10.636 -0.3403 -0.8114 -0.1011
 5113SOL    HW226976   4.136   4.119  10.752  1.1790 -1.1486  0.4232
 5114SOL     OW26977   2.995   2.867   5.398 -0.5995  0.3163  0.3540
 5114SOL    HW126978   3.030   2.815   5.470  0.4078  1.2926  0.5678
 5114SOL    HW226979   2.994   2.802   5.327 -0.5322  0.1193  0.5346
 5115SOL     OW26980   2.929   0.781   9.743 -0.0517  0.1986  0.4421
 5115SOL    HW126981   2.930   0.741   9.656 -2.6900  0.5412  0.2412
 5115SOL    HW226982   2.836   0.802   9.751  0.1256  0.7523  1.0107
 5116SOL     OW26983   3.495   0.974   1.196  0.1680  0.2759  0.0195
 5116SOL    HW126984   3.577   1.007   1.161  1.9201 -2.5256  1.4548
 5116SOL    HW226985   3.502   0.884   1.164 -0.1121  0.0093  0.7135
 5117SOL     OW26986   1.249   3.992   7.881  0.4509 -0.1098  0.2407
 5117SOL    HW126987   1.225   3.910   7.924 -1.6113  1.0211  1.2483
 5117SOL    HW226988   1.331   4.021   7.922  0.1683 -1.4665  1.7958
 5118SOL     OW26989   2.069   3.731   7.182 -0.2940  0.5053  0.1429
 5118SOL    HW126990   1.976   3.705   7.180 -0.7607  2.1295  0.7260
 5118SOL    HW226991   2.093   3.700   7.269  0.2528  0.3367 -0.0725
 5119SOL     OW26992   3.215   0.444   2.522  0.1349  0.0224 -0.6502
 5119SOL    HW126993   3.135   0.494   2.507 -0.3123 -0.5126 -0.0427
 5119SOL    HW226994   3.259   0.465   2.439  1.9045  1.6027  0.6756
 5120SOL     OW26995   1.833   3.526   7.543  0.2731 -0.1635 -0.4438
 5120SOL    HW126996   1.806   3.570   7.624 -2.1392  1.2263 -2.0021
 5120SOL    HW226997   1.803   3.591   7.479 -1.0822  0.7329  1.0871
 5121SOL     OW26998   4.157   4.662   6.965  0.6335  0.4594 -0.6044
 5121SOL    HW126999   4.189   4.583   7.009  0.8990 -0.0972 -1.8020
 5121SOL    HW227000   4.196   4.726   7.026  1.1927  0.2253 -0.7174
 5122SOL     OW27001   1.752   4.664   9.397 -0.2590  0.1404  0.0978
 5122SOL    HW127002   1.839   4.702   9.392 -0.2909 -0.1636 -3.2424
 5122SOL    HW227003   1.745   4.666   9.492 -0.3450 -2.2575  0.1576
 5123SOL     OW27004   3.776   1.322   8.819 -0.5048  0.5663  0.5008
 5123SOL    HW127005   3.739   1.324   8.907 -0.7042 -0.2680  0.4332
 5123SOL    HW227006   3.807   1.232   8.814  0.8174  1.0399 -0.0039
 5124SOL     OW27007   3.450   2.508  10.171 -0.5594  0.2013 -0.2783
 5124SOL    HW127008   3.424   2.499  10.263 -0.5258  1.2536 -0.1712
 5124SOL    HW227009   3.382   2.565  10.138 -1.1928  0.2235  1.0467
 5125SOL     OW27010   3.063   1.933   8.910  0.1857 -0.0347 -0.0797
 5125SOL    HW127011   2.984   1.925   8.858 -0.0174  2.4821 -0.1302
 5125SOL    HW227012   3.043   1.996   8.980 -3.7270 -1.3978  0.0172
 5126SOL     OW27013   2.993   2.237  10.612 -0.1293  0.0669  0.1290
 5126SOL    HW127014   3.032   2.189  10.685 -0.5798 -1.1725 -0.4459
 5126SOL    HW227015   3.021   2.325  10.639 -0.0609  0.2867 -0.6497
 5127SOL     OW27016   1.621   4.695   5.494  0.0698  0.2470 -0.4739
 5127SOL    HW127017   1.712   4.670   5.511 -0.2420 -0.1647  0.5943
 5127SOL    HW227018   1.576   4.625   5.542  0.6586 -0.2385 -0.6180
 5128SOL     OW27019   2.556   3.669  17.078 -0.0909 -0.3635 -0.1974
 5128SOL    HW127020   2.633   3.725  17.072  0.0388 -0.4447  0.7010
 5128SOL    HW227021   2.580   3.616  17.154 -1.2417  1.6161  1.5816
 5129SOL     OW27022   2.600   1.635  10.379 -0.2677 -0.0370 -0.1894
 5129SOL    HW127023   2.693   1.614  10.386 -0.3945 -0.9012 -1.2438
 5129SOL    HW227024   2.559   1.587  10.451 -0.3285  0.4020  0.0679
 5130SOL     OW27025   0.031   3.284   8.004  0.1064  0.0361  0.3403
 5130SOL    HW127026   0.089   3.269   8.078 -0.6251 -2.6111  0.3542
 5130SOL    HW227027   0.003   3.193   7.997 -1.0388  0.3296  1.1027
 5131SOL     OW27028   0.375   3.908   8.559  0.2273 -0.1258  0.4949
 5131SOL    HW127029   0.291   3.890   8.517  0.7087  1.4716 -1.1226
 5131SOL    HW227030   0.354   3.876   8.647  0.2860 -2.0386 -0.1776
 5132SOL     OW27031   1.467   2.347   3.467 -0.8722 -0.1198  0.1612
 5132SOL    HW127032   1.531   2.395   3.520 -0.9164  0.6144 -0.4347
 5132SOL    HW227033   1.503   2.366   3.380  0.5930  1.9484  1.1972
 5133SOL     OW27034   0.920   1.560   2.102  0.5424  0.2273 -0.0028
 5133SOL    HW127035   0.881   1.487   2.053  0.5217  0.6306 -0.5812
 5133SOL    HW227036   0.887   1.639   2.060  2.7978  2.1788  1.9255
 5134SOL     OW27037   4.029   0.720   7.148  0.2506  0.5109 -0.6475
 5134SOL    HW127038   4.080   0.728   7.229  1.4144 -1.9295 -1.1391
 5134SOL    HW227039   3.939   0.732   7.178 -0.0613 -1.4664 -0.7540
 5135SOL     OW27040   4.377   1.125   1.160 -0.5661 -0.1866  0.2424
 5135SOL    HW127041   4.353   1.208   1.119 -0.8484 -0.1408  0.4978
 5135SOL    HW227042   4.433   1.147   1.234  1.4422 -0.4508 -1.2009
 5136SOL     OW27043   2.731   2.158  15.019 -0.1963  0.2717  0.4580
 5136SOL    HW127044   2.666   2.182  14.953  0.0707  1.0842  0.4856
 5136SOL    HW227045   2.808   2.151  14.964  0.3378  0.0079  1.2433
 5137SOL     OW27046   4.296   4.227   6.855  0.2523 -0.0737  0.0101
 5137SOL    HW127047   4.369   4.289   6.860  0.5895 -0.6372  1.8515
 5137SOL    HW227048   4.254   4.275   6.926 -0.8069 -0.4698 -0.3388
 5138SOL     OW27049   4.412   0.689   4.053 -0.2571 -0.3438 -0.1085
 5138SOL    HW127050   4.424   0.756   3.986  1.5144  0.1438  0.6869
 5138SOL    HW227051   4.377   0.740   4.125  0.3682  2.0583 -1.4897
 5139SOL     OW27052   1.077   0.050  11.263 -0.0748  0.0658  0.1363
 5139SOL    HW127053   1.153   4.733  11.266 -0.5327 -0.3881  3.6125
 5139SOL    HW227054   1.031   0.001  11.195 -2.3648 -1.5402  2.8674
 5140SOL     OW27055   1.563   0.126   3.432 -0.3379 -0.2109 -0.1304
 5140SOL    HW127056   1.611   0.047   3.407 -3.0945 -2.0774  0.5866
 5140SOL    HW227057   1.504   0.127   3.357 -0.3694  0.1564 -0.0998
 5141SOL     OW27058   1.325   1.226   2.838  0.2720  0.1299 -0.4518
 5141SOL    HW127059   1.288   1.139   2.829  1.8058 -0.6507  0.8428
 5141SOL    HW227060   1.264   1.279   2.786 -1.4693 -1.2322  0.2069
 5142SOL     OW27061   2.974   2.661   5.605 -0.1365 -0.1127 -0.2389
 5142SOL    HW127062   3.058   2.657   5.650 -0.2836 -0.5752 -0.0080
 5142SOL    HW227063   2.973   2.583   5.549  0.1711 -0.2400 -0.0699
 5143SOL     OW27064   0.411   3.804   0.014 -0.1228 -0.0348  0.1083
 5143SOL    HW127065   0.372   3.886  17.745  0.1848  0.6304  1.5617
 5143SOL    HW227066   0.467   3.777  17.702  2.5309  4.4048  0.5175
 5144SOL     OW27067   0.681   4.630   9.108  0.5406  0.6057  0.5180
 5144SOL    HW127068   0.775   4.630   9.088 -0.0981  1.5622 -2.5080
 5144SOL    HW227069   0.668   4.538   9.131  1.2710  0.6191  0.9828
 5145SOL     OW27070   2.385   4.073  16.185 -0.1140 -0.2372  0.4770
 5145SOL    HW127071   2.408   4.112  16.101 -3.1867  0.2618 -0.1386
 5145SOL    HW227072   2.377   4.153  16.237 -0.4519 -1.4164  2.2237
 5146SOL     OW27073   3.314   4.123   2.908 -0.1170 -0.2104  0.4754
 5146SOL    HW127074   3.294   4.038   2.870 -2.2907  0.3491  0.3592
 5146SOL    HW227075   3.409   4.124   2.911 -0.0977  0.7545 -0.2388
 5147SOL     OW27076   0.131   2.246  11.114  0.0183 -0.6013  0.0804
 5147SOL    HW127077   0.214   2.293  11.112 -0.4885  0.3384  1.1157
 5147SOL    HW227078   0.170   2.167  11.151  2.1619 -0.4715 -1.8991
 5148SOL     OW27079   2.348   4.668   2.157  0.0407 -0.3047 -0.0494
 5148SOL    HW127080   2.273   4.724   2.139 -0.3688 -0.8601 -0.0492
 5148SOL    HW227081   2.313   4.618   2.231 -0.2888 -1.5878 -1.0812
 5149SOL     OW27082   0.440   3.205   6.920  0.3766  0.0904  0.1149
 5149SOL    HW127083   0.366   3.196   6.981 -1.5111  0.0337 -2.1874
 5149SOL    HW227084   0.426   3.293   6.886  1.2803  0.9310  1.9390
 5150SOL     OW27085   2.228   4.229   3.836  0.2248 -0.3368 -0.1078
 5150SOL    HW127086   2.174   4.161   3.875 -0.4336  0.1061 -0.2603
 5150SOL    HW227087   2.315   4.193   3.855  0.7889  1.0770  0.0209
 5151SOL     OW27088   3.550   3.619  11.576 -0.4605 -0.3860 -0.5426
 5151SOL    HW127089   3.546   3.524  11.568 -0.9859 -0.3764 -0.3748
 5151SOL    HW227090   3.461   3.651  11.590  0.2024  1.2609 -0.0293
 5152SOL     OW27091   0.421   2.582  12.378  0.6357 -0.1098  0.2985
 5152SOL    HW127092   0.505   2.612  12.412 -0.6965  3.2463  0.6718
 5152SOL    HW227093   0.372   2.620  12.451  0.8914 -0.6977  0.7690
 5153SOL     OW27094   2.419   2.206   8.253 -0.1688 -0.2898  0.4406
 5153SOL    HW127095   2.504   2.167   8.233  0.0793  1.4057 -1.9010
 5153SOL    HW227096   2.361   2.139   8.216  1.9382 -3.0525  2.1641
 5154SOL     OW27097   0.123   2.509  13.979 -0.7297 -0.5237 -0.2276
 5154SOL    HW127098   0.070   2.490  14.057  0.2662  0.3563  0.6726
 5154SOL    HW227099   0.061   2.549  13.918  0.8691  0.9306 -0.8927
 5155SOL     OW27100   3.008   1.775   5.455 -0.1322 -0.1359 -0.5350
 5155SOL    HW127101   2.964   1.774   5.370 -1.9030 -4.2780  0.4341
 5155SOL    HW227102   3.072   1.705   5.444  0.5032  0.5468 -1.2337
 5156SOL     OW27103   0.118   2.315  11.683  0.2826 -0.2470 -0.3309
 5156SOL    HW127104   0.131   2.298  11.590  0.4441  1.4825 -0.6275
 5156SOL    HW227105   0.171   2.246  11.723  1.0444  0.2416 -0.4913
 5157SOL     OW27106   0.414   3.543   3.009  0.4963  0.5492  0.1665
 5157SOL    HW127107   0.332   3.499   2.985  0.1843 -1.5267  5.1770
 5157SOL    HW227108   0.404   3.629   2.968  0.9731  0.3386 -0.3945
 5158SOL     OW27109   1.837   4.554  11.299 -0.1971  0.4968 -0.1104
 5158SOL    HW127110   1.802   4.607  11.370 -1.0812 -2.6900  1.8108
 5158SOL    HW227111   1.760   4.498  11.287  1.1562 -0.8676 -2.4014
 5159SOL     OW27112   1.249   2.220   3.543  0.8817  0.0930  0.6369
 5159SOL    HW127113   1.275   2.129   3.552  2.3515  0.1542 -2.8605
 5159SOL    HW227114   1.332   2.255   3.511  0.6436 -0.8154 -0.9839
 5160SOL     OW27115   1.078   2.759  14.310 -0.5693 -0.0286  0.0937
 5160SOL    HW127116   1.127   2.800  14.382  0.0739  0.3155 -0.5365
 5160SOL    HW227117   1.039   2.829  14.258 -2.5307 -0.7979  0.5443
 5161SOL     OW27118   4.381   3.253  10.792  1.1872  0.2362 -0.1013
 5161SOL    HW127119   4.415   3.331  10.836  0.5076 -0.5300  1.7603
 5161SOL    HW227120   4.407   3.178  10.844  0.2917  0.0290  0.0471
 5162SOL     OW27121   4.613   0.799   8.551  0.5334  0.2133 -0.1014
 5162SOL    HW127122   4.660   0.879   8.575  1.9079 -1.0309  1.3798
 5162SOL    HW227123   4.663   0.760   8.479 -1.2432 -2.4977  0.1692
 5163SOL     OW27124   1.633   3.282  11.132 -0.3752 -0.2405  0.3955
 5163SOL    HW127125   1.727   3.294  11.117 -0.8443  2.1764 -0.5510
 5163SOL    HW227126   1.626   3.290  11.227  1.8519  1.2376  0.4452
 5164SOL     OW27127   0.447   1.752   8.080 -0.5225  0.3681 -0.1756
 5164SOL    HW127128   0.396   1.675   8.105  0.0396 -0.9231 -3.0363
 5164SOL    HW227129   0.374   1.807   8.050 -1.9729 -0.3412  2.1345
 5165SOL     OW27130   0.060   1.180   3.678 -0.1460 -0.2162  0.0109
 5165SOL    HW127131   0.135   1.237   3.663 -0.5944 -0.1094 -1.7873
 5165SOL    HW227132   0.009   1.197   3.599  1.8257  0.6773 -1.0623
 5166SOL     OW27133   3.886   2.621  17.391 -0.6300 -0.2621 -0.2102
 5166SOL    HW127134   3.875   2.557  17.460 -0.1026  1.2313  1.2605
 5166SOL    HW227135   3.860   2.703  17.434  0.9084 -0.7880  1.6973
 5167SOL     OW27136   2.665   0.022   8.552  0.0487 -0.1635 -0.1154
 5167SOL    HW127137   2.733   0.036   8.486 -0.0601  0.7458 -0.0318
 5167SOL    HW227138   2.592   0.073   8.516  0.0727 -0.8421 -1.1169
 5168SOL     OW27139   0.972   0.542   8.861 -0.4489  0.2009  0.7967
 5168SOL    HW127140   1.007   0.526   8.774 -2.3017 -1.5683  0.3771
 5168SOL    HW227141   1.008   0.463   8.901  1.5028  0.4294 -0.5148
 5169SOL     OW27142   3.837   4.322   3.679  0.0935 -0.1248 -0.1329
 5169SOL    HW127143   3.752   4.285   3.655  1.0999 -2.9805  0.6091
 5169SOL    HW227144   3.890   4.275   3.614  4.5283  0.5533  3.0064
 5170SOL     OW27145   4.008   0.430  10.072 -0.2711  0.1573 -0.8373
 5170SOL    HW127146   4.066   0.502  10.047  2.2964 -2.0057 -1.2063
 5170SOL    HW227147   4.011   0.448  10.166 -2.0798 -0.9122 -0.5796
 5171SOL     OW27148   1.795   4.433   8.219  0.3182 -0.4285 -0.1501
 5171SOL    HW127149   1.715   4.449   8.168  0.1998 -1.3502 -0.2527
 5171SOL    HW227150   1.864   4.428   8.152  1.1830  1.0019  0.6478
 5172SOL     OW27151   3.183   3.735   1.803  0.5395 -0.2035  0.3855
 5172SOL    HW127152   3.255   3.780   1.848  1.0116  0.7322 -1.3390
 5172SOL    HW227153   3.220   3.655   1.765  1.4375  0.6380 -0.4940
 5173SOL     OW27154   3.301   1.120   5.384 -0.3428 -0.2027  0.1730
 5173SOL    HW127155   3.368   1.058   5.414 -0.1357 -0.5381 -0.9565
 5173SOL    HW227156   3.237   1.099   5.451 -0.9520 -1.1796 -0.7172
 5174SOL     OW27157   3.777   2.898   6.528  0.3978 -0.4961  0.4483
 5174SOL    HW127158   3.697   2.857   6.558 -0.6469  1.1506 -0.0732
 5174SOL    HW227159   3.794   2.970   6.589 -1.0808  0.3836 -0.1825
 5175SOL     OW27160   2.361   2.017   7.669 -0.7157 -0.0927 -0.4500
 5175SOL    HW127161   2.413   2.081   7.621 -0.7730  0.2443 -0.0675
 5175SOL    HW227162   2.324   2.082   7.728  1.3362  0.9948 -0.3580
 5176SOL     OW27163   1.678   2.470  17.239 -0.2206 -0.2947  0.2972
 5176SOL    HW127164   1.665   2.387  17.284  2.7068 -0.0212  1.6878
 5176SOL    HW227165   1.764   2.442  17.207 -0.2580  1.3010 -1.1670
 5177SOL     OW27166   0.668   3.038  11.653 -0.7402  0.3752  0.4369
 5177SOL    HW127167   0.672   3.113  11.594 -1.1710 -0.0099 -0.0850
 5177SOL    HW227168   0.623   2.971  11.601 -1.4331 -0.0052  1.5331
 5178SOL     OW27169   1.502   0.050  12.130  0.0327  0.9453 -0.0238
 5178SOL    HW127170   1.529   4.699  12.137 -0.6163  0.9332  2.1107
 5178SOL    HW227171   1.558   0.084  12.060 -1.3007  1.9148 -0.6076
 5179SOL     OW27172   3.608   1.450  16.611 -0.0222 -0.1328  0.1353
 5179SOL    HW127173   3.637   1.390  16.542 -1.9327  0.6121 -1.3164
 5179SOL    HW227174   3.675   1.447  16.679 -1.9180  2.6847  2.1449
 5180SOL     OW27175   0.925   0.930   7.028 -0.0445  0.4124 -0.2072
 5180SOL    HW127176   0.843   0.962   7.066  1.1906  1.2125  1.8443
 5180SOL    HW227177   0.919   0.836   7.044  0.4360  0.2586 -0.9581
 5181SOL     OW27178   3.727   4.446   5.701  0.9339  0.2065 -0.1483
 5181SOL    HW127179   3.749   4.363   5.659 -0.5186 -0.7893  1.0502
 5181SOL    HW227180   3.674   4.410   5.773  0.9921 -0.7745 -0.5929
 5182SOL     OW27181   4.589   2.087   6.035 -0.0839  0.1543 -0.2181
 5182SOL    HW127182   4.607   2.011   5.980  0.6538  0.7185 -0.7521
 5182SOL    HW227183   4.540   2.142   5.973  0.5560  2.5543  1.4493
 5183SOL     OW27184   0.539   2.012   9.737  0.1081  0.4528 -0.1265
 5183SOL    HW127185   0.612   2.027   9.797  0.8236 -1.8385 -0.4097
 5183SOL    HW227186   0.478   1.968   9.796 -1.6248  2.5100 -0.3853
 5184SOL     OW27187   0.759   2.863   9.387  0.3010  0.3081 -0.1387
 5184SOL    HW127188   0.734   2.775   9.358  0.8774  0.6290 -1.6535
 5184SOL    HW227189   0.752   2.918   9.308 -0.3021 -2.1604 -1.8148
 5185SOL     OW27190   3.924   1.896   6.027  0.2692 -0.0745 -1.0171
 5185SOL    HW127191   3.927   1.905   6.122  0.4706  1.0382 -1.1320
 5185SOL    HW227192   3.936   1.989   6.009  1.3089 -0.1471 -0.6488
 5186SOL     OW27193   3.352   2.137   3.115 -0.2272  0.1897  0.2157
 5186SOL    HW127194   3.434   2.146   3.066  0.5044 -1.3834  1.1480
 5186SOL    HW227195   3.287   2.115   3.048 -2.7615  1.5316  2.2357
 5187SOL     OW27196   2.881   1.592   4.654 -0.4581  0.1484 -0.4925
 5187SOL    HW127197   2.857   1.675   4.695 -1.9353 -0.2333 -0.5835
 5187SOL    HW227198   2.937   1.616   4.580  3.6964 -1.6019  2.0887
 5188SOL     OW27199   3.771   0.030   6.787 -0.0553 -0.6502  0.2333
 5188SOL    HW127200   3.798   4.726   6.868  3.7609 -0.2290 -0.7888
 5188SOL    HW227201   3.678   0.048   6.799 -0.3667 -0.7496 -1.9938
 5189SOL     OW27202   3.527   2.660   8.408 -0.3964 -0.0999 -0.3674
 5189SOL    HW127203   3.492   2.694   8.326 -1.6478 -0.3155  0.0751
 5189SOL    HW227204   3.549   2.746   8.445 -0.0603 -0.6094  0.6276
 5190SOL     OW27205   0.128   0.499   5.386 -0.4468  0.2741 -0.3737
 5190SOL    HW127206   0.203   0.554   5.364 -0.5678 -0.2913 -2.1699
 5190SOL    HW227207   0.135   0.419   5.334  0.6365 -0.0923  0.3254
 5191SOL     OW27208   0.806   3.713   5.756  0.0141 -0.0225 -0.9906
 5191SOL    HW127209   0.843   3.647   5.697  0.2955  0.8777 -1.8378
 5191SOL    HW227210   0.756   3.666   5.822 -0.3080  1.1323 -0.4110
 5192SOL     OW27211   1.422   0.148   4.574 -0.1083  0.0637 -0.3212
 5192SOL    HW127212   1.375   0.117   4.497 -0.8219 -0.8215  0.4558
 5192SOL    HW227213   1.508   0.142   4.532  1.2708  3.4931  1.9787
 5193SOL     OW27214   2.672   1.723   9.436  0.4131 -0.5364 -0.4439
 5193SOL    HW127215   2.664   1.630   9.414  1.4825 -0.3890 -1.4755
 5193SOL    HW227216   2.727   1.713   9.514 -1.6714  1.0087  1.2271
 5194SOL     OW27217   4.419   4.010   2.788  0.0880  0.2262  0.1725
 5194SOL    HW127218   4.428   4.090   2.736 -0.2208 -0.2482 -0.5990
 5194SOL    HW227219   4.500   3.966   2.762  1.2467  0.6908  2.9334
 5195SOL     OW27220   2.566   4.165   9.046  0.0300 -0.9507  0.0594
 5195SOL    HW127221   2.564   4.228   8.973 -1.0280  0.1595  1.0540
 5195SOL    HW227222   2.484   4.179   9.092 -0.0240 -0.5163 -0.1694
 5196SOL     OW27223   1.402   4.675   2.108  0.1807 -0.7373 -0.0259
 5196SOL    HW127224   1.387   0.025   2.135 -1.5470 -0.7221 -1.0049
 5196SOL    HW227225   1.493   4.677   2.079  0.0460  0.4747 -0.3616
 5197SOL     OW27226   4.255   3.813  16.029 -0.1512 -0.1373 -0.1245
 5197SOL    HW127227   4.320   3.833  15.962  2.5831 -4.4004  1.2642
 5197SOL    HW227228   4.184   3.877  16.018  0.1497  0.6042  2.1100
 5198SOL     OW27229   2.825   1.329   2.493  0.0411 -0.1071 -0.4695
 5198SOL    HW127230   2.804   1.407   2.543 -1.0663 -0.5414 -0.2541
 5198SOL    HW227231   2.920   1.332   2.478 -0.0809  1.8212 -0.7621
 5199SOL     OW27232   2.884   4.358  10.962 -0.0449 -0.3936  0.0882
 5199SOL    HW127233   2.802   4.376  11.008  0.1250  2.5335 -0.8048
 5199SOL    HW227234   2.887   4.262  10.961  2.1338 -0.3294  0.3262
 5200SOL     OW27235   0.744   3.316   5.372 -0.1465  0.6177 -0.2787
 5200SOL    HW127236   0.738   3.301   5.278 -2.1833 -3.5203  0.5323
 5200SOL    HW227237   0.779   3.229   5.389  2.3389  1.7550  0.4517
 5201SOL     OW27238   1.970   2.286  12.784 -0.3837  0.7916  0.3351
 5201SOL    HW127239   1.946   2.260  12.873 -0.8786 -1.1144 -0.3573
 5201SOL    HW227240   2.053   2.328  12.807 -0.4113  0.6164  0.7642
 5202SOL     OW27241   4.532   2.070  17.653 -0.1271  0.1517 -0.1313
 5202SOL    HW127242   4.501   2.140  17.711  0.4350  0.2302  0.0821
 5202SOL    HW227243   4.571   2.004  17.710  1.0277  0.7016 -0.2796
 5203SOL     OW27244   3.502   0.264   3.265  0.4320 -0.1819 -0.1948
 5203SOL    HW127245   3.436   0.305   3.321 -0.1727 -1.5271  0.0705
 5203SOL    HW227246   3.533   0.192   3.320  0.3846  0.8089  1.1321
 5204SOL     OW27247   4.382   2.711   9.115 -0.4654 -0.1828 -1.0240
 5204SOL    HW127248   4.422   2.629   9.084  0.2550  0.5440 -2.0198
 5204SOL    HW227249   4.425   2.721   9.199 -2.4301  0.7132 -0.1305
 5205SOL     OW27250   1.907   2.979   9.785 -0.4543 -0.7469  0.1759
 5205SOL    HW127251   1.989   3.009   9.746 -0.1561  0.1070  1.4570
 5205SOL    HW227252   1.854   3.040   9.733  0.7406 -1.7597 -2.2407
 5206SOL     OW27253   2.764   1.632   2.896 -0.3138 -0.3652 -0.2648
 5206SOL    HW127254   2.800   1.549   2.928  0.4927  0.8463  1.9853
 5206SOL    HW227255   2.779   1.628   2.802 -1.6447 -0.5738 -0.4627
 5207SOL     OW27256   4.584   0.168   7.440  0.1652 -0.0490  0.1718
 5207SOL    HW127257   4.669   0.137   7.471 -0.2910 -1.0824  0.3655
 5207SOL    HW227258   4.540   0.138   7.520  1.9897 -1.7167  0.5414
 5208SOL     OW27259   3.591   3.216   4.920  0.3528  0.0725 -0.3424
 5208SOL    HW127260   3.540   3.219   5.001  1.4794  2.8130  0.2376
 5208SOL    HW227261   3.625   3.127   4.934  0.0175  0.1373  0.8640
 5209SOL     OW27262   0.971   2.270   5.079  0.2270 -0.0626  0.4023
 5209SOL    HW127263   0.920   2.298   5.155 -0.1590 -1.9487  0.8400
 5209SOL    HW227264   1.058   2.257   5.116  0.2872  0.2182  0.3628
 5210SOL     OW27265   4.573   3.624   4.264 -0.1298 -0.4816 -0.0604
 5210SOL    HW127266   4.618   3.614   4.347 -1.2957 -0.5028  0.5773
 5210SOL    HW227267   4.569   3.719   4.254  0.7132 -0.5692 -1.1853
 5211SOL     OW27268   0.543   2.713  11.173 -0.1795  0.6495 -0.6157
 5211SOL    HW127269   0.521   2.651  11.104  3.4084  1.3186 -2.3644
 5211SOL    HW227270   0.459   2.757  11.183  0.4964  2.0615 -1.2002
 5212SOL     OW27271   0.951   1.149   8.179  0.7171 -0.2652  0.0154
 5212SOL    HW127272   0.991   1.188   8.257  0.4589 -1.3264  0.6771
 5212SOL    HW227273   0.863   1.127   8.207 -0.2539  1.8083 -1.4038
 5213SOL     OW27274   3.315   1.065   1.885  0.1710 -0.3832  0.6278
 5213SOL    HW127275   3.368   1.137   1.850  2.4598 -2.3621  0.0339
 5213SOL    HW227276   3.354   1.062   1.973  0.0146  0.3895  0.7235
 5214SOL     OW27277   1.161   3.365  11.123 -0.1963  0.1370 -0.5351
 5214SOL    HW127278   1.089   3.376  11.185  0.9667 -0.2179  0.8574
 5214SOL    HW227279   1.203   3.289  11.164  1.3996  0.9732 -0.6296
 5215SOL     OW27280   1.665   2.970  10.995 -0.8480 -0.1430 -0.5794
 5215SOL    HW127281   1.684   3.020  10.916  1.9062 -0.4665 -0.1153
 5215SOL    HW227282   1.667   3.044  11.057 -1.2501 -1.7340  1.3269
 5216SOL     OW27283   4.346   0.837   1.183  0.2625 -0.0762 -0.5212
 5216SOL    HW127284   4.347   0.932   1.191 -0.5514 -0.0161 -1.1926
 5216SOL    HW227285   4.398   0.828   1.104 -1.2871  0.1719 -1.5731
 5217SOL     OW27286   1.004   2.528  13.818 -1.0250  0.0490  0.6969
 5217SOL    HW127287   0.991   2.479  13.899  2.2021  1.6090  2.1813
 5217SOL    HW227288   0.923   2.505  13.773 -1.2023  1.7100  0.1650
 5218SOL     OW27289   3.621   1.969   8.754 -0.5993  0.5907  0.1902
 5218SOL    HW127290   3.694   1.972   8.816 -0.8424  0.7685  0.4709
 5218SOL    HW227291   3.607   2.061   8.731 -3.5324 -0.1918 -1.0977
 5219SOL     OW27292   3.075   4.283   5.976  0.4320  0.2862  0.4713
 5219SOL    HW127293   3.096   4.319   5.890 -0.1704  0.5790  0.4418
 5219SOL    HW227294   3.039   4.363   6.014 -2.6291 -0.7662 -0.2150
 5220SOL     OW27295   0.340   1.799   5.525  0.1906 -0.4567  0.1565
 5220SOL    HW127296   0.316   1.722   5.473  1.5927 -0.5299 -0.3949
 5220SOL    HW227297   0.272   1.863   5.507 -2.1999 -2.7008  1.1274
 5221SOL     OW27298   2.547   0.815   8.944  0.0161 -0.1865  0.5738
 5221SOL    HW127299   2.506   0.830   8.859  3.2271  0.1671 -0.8967
 5221SOL    HW227300   2.571   0.901   8.977 -0.4795  0.3625 -0.5205
 5222SOL     OW27301   3.331   2.164   1.204 -0.2794  0.5474 -0.6721
 5222SOL    HW127302   3.262   2.161   1.137 -0.3543 -1.6624 -0.4677
 5222SOL    HW227303   3.336   2.075   1.238  0.0679 -0.0770 -2.3796
 5223SOL     OW27304   2.794   2.563   4.942 -0.3043 -0.0465 -0.3392
 5223SOL    HW127305   2.744   2.594   5.018 -0.3456  1.1243 -0.8418
 5223SOL    HW227306   2.723   2.572   4.878 -0.8411 -0.3231  0.2118
 5224SOL     OW27307   0.060   2.341  14.873  0.5108 -0.1810 -0.3008
 5224SOL    HW127308   0.004   2.360  14.798  0.6403  1.5974  0.0541
 5224SOL    HW227309   0.080   2.250  14.852 -1.7261 -0.5591 -0.7250
 5225SOL     OW27310   4.495   2.881   5.411  0.1073 -0.1041 -0.2489
 5225SOL    HW127311   4.488   2.948   5.343  0.7529 -0.2841 -0.4928
 5225SOL    HW227312   4.580   2.896   5.453 -1.0354  0.6747  1.8128
 5226SOL     OW27313   2.478   2.925   8.853 -0.1630 -0.3336 -0.1181
 5226SOL    HW127314   2.521   2.980   8.787 -0.4522 -1.1915 -1.0296
 5226SOL    HW227315   2.508   2.952   8.939  1.4759  0.6499 -0.9981
 5227SOL     OW27316   2.427   1.746   2.607 -0.2677  0.0578 -0.4423
 5227SOL    HW127317   2.381   1.795   2.539 -0.6738  0.2035 -0.0606
 5227SOL    HW227318   2.492   1.701   2.553 -0.0790 -0.5732  0.3146
 5228SOL     OW27319   2.766   1.108   5.100  0.3794  0.9013  0.5949
 5228SOL    HW127320   2.676   1.130   5.076 -0.3184 -2.6171 -0.0213
 5228SOL    HW227321   2.801   1.091   5.012  0.5383 -0.2060  0.8825
 5229SOL     OW27322   1.276   4.372   9.550 -0.2027 -0.2217  0.0500
 5229SOL    HW127323   1.365   4.346   9.527 -0.2439  0.5412 -0.9927
 5229SOL    HW227324   1.220   4.297   9.531  3.5001 -2.1052 -3.3602
 5230SOL     OW27325   1.954   0.019   4.646 -0.4504 -0.1896 -0.1852
 5230SOL    HW127326   1.925   0.094   4.698 -0.9812 -0.8042  0.4099
 5230SOL    HW227327   1.885   4.696   4.666  0.6133 -1.1944  0.3112
 5231SOL     OW27328   4.286   2.654  14.149 -0.0007 -0.2117 -0.1410
 5231SOL    HW127329   4.297   2.668  14.243  0.1313 -1.5027  0.0308
 5231SOL    HW227330   4.240   2.733  14.119  1.9418  0.9057 -0.1512
 5232SOL     OW27331   1.624   1.783   8.239  0.2162  0.0946  0.0879
 5232SOL    HW127332   1.528   1.794   8.238 -0.0599 -1.7955  2.9427
 5232SOL    HW227333   1.646   1.829   8.320 -0.4372  2.9769 -1.3647
 5233SOL     OW27334   1.586   1.193  12.075 -0.4206 -0.2941  0.1413
 5233SOL    HW127335   1.507   1.158  12.114  0.0722 -0.0195  1.3694
 5233SOL    HW227336   1.607   1.270  12.126 -2.8614  0.7107 -0.3933
 5234SOL     OW27337   4.194   3.987   5.054  0.1935  0.3855 -0.2530
 5234SOL    HW127338   4.117   4.038   5.030  0.6295  1.3349  0.3886
 5234SOL    HW227339   4.241   3.972   4.972  0.5125 -0.9437  0.1677
 5235SOL     OW27340   3.754   2.064   0.440  0.1716  0.6406  0.1968
 5235SOL    HW127341   3.694   2.102   0.375  0.5486  2.5031  0.9216
 5235SOL    HW227342   3.832   2.038   0.390 -1.0581  0.3906 -1.6128
 5236SOL     OW27343   2.955   3.455   6.199 -0.1275  0.4685  0.1877
 5236SOL    HW127344   2.914   3.402   6.268  0.9492 -0.8163 -0.1778
 5236SOL    HW227345   2.892   3.439   6.129 -0.3319  1.0399  0.2441
 5237SOL     OW27346   3.114   1.552   2.742  0.4114 -0.2466  0.0861
 5237SOL    HW127347   3.132   1.611   2.816 -1.3903  1.0365 -0.5066
 5237SOL    HW227348   3.202   1.519   2.726  0.7438 -0.1856  1.8521
 5238SOL     OW27349   0.503   0.011  13.770  0.3534  0.4750 -0.0414
 5238SOL    HW127350   0.591   4.722  13.795 -0.6327 -1.0947  1.5673
 5238SOL    HW227351   0.449   4.707  13.835 -0.1239  2.1031  0.6973
 5239SOL     OW27352   0.564   3.164   3.884  0.4257  0.3606  0.0796
 5239SOL    HW127353   0.473   3.162   3.912 -0.5126  0.5605 -3.0555
 5239SOL    HW227354   0.560   3.198   3.795 -1.7970 -1.2457 -0.4284
 5240SOL     OW27355   3.675   1.706   3.806 -0.0077 -0.2473  0.0448
 5240SOL    HW127356   3.668   1.703   3.711  0.0566 -2.1122  0.0995
 5240SOL    HW227357   3.735   1.780   3.817  2.1829 -1.9573 -0.5771
 5241SOL     OW27358   0.385   0.370   8.662 -0.2939  0.2978  0.6274
 5241SOL    HW127359   0.442   0.316   8.607  1.1506  2.5944 -0.1282
 5241SOL    HW227360   0.329   0.295   8.681  0.6740 -0.0936  1.8761
 5242SOL     OW27361   0.925   2.827   2.480  0.3060 -0.9289  0.1566
 5242SOL    HW127362   0.872   2.752   2.507 -0.9090 -0.0531  0.2670
 5242SOL    HW227363   0.886   2.848   2.395  1.3345 -1.9169 -0.5464
 5243SOL     OW27364   2.090   2.004  13.179 -0.0359  0.0056 -0.2078
 5243SOL    HW127365   2.033   1.937  13.218 -0.1361 -0.9200 -1.9380
 5243SOL    HW227366   2.148   1.944  13.132 -1.3164 -0.0385 -1.7463
 5244SOL     OW27367   0.695   2.074  10.808  0.5110  0.2247  0.4448
 5244SOL    HW127368   0.608   2.092  10.845  0.6400 -0.6805  1.1729
 5244SOL    HW227369   0.750   2.053  10.883 -0.0851 -2.4282  0.1597
 5245SOL     OW27370   1.957   2.459   5.599  0.0765 -0.0759  0.1188
 5245SOL    HW127371   1.957   2.455   5.694  2.3584  0.5801  0.1553
 5245SOL    HW227372   1.962   2.368   5.571 -0.5188  0.1146 -0.6180
 5246SOL     OW27373   0.617   1.442   8.137 -0.2356  0.0212 -0.0280
 5246SOL    HW127374   0.610   1.477   8.048 -2.4003 -1.2547 -0.3373
 5246SOL    HW227375   0.549   1.375   8.137 -1.0913  0.8932 -2.7614
 5247SOL     OW27376   3.032   2.848   2.091 -0.1534  0.2321 -0.3634
 5247SOL    HW127377   3.038   2.848   2.186 -0.6712  1.8887 -0.3346
 5247SOL    HW227378   3.102   2.787   2.068  1.1584  2.2247 -1.6141
 5248SOL     OW27379   2.408   3.069   2.378  0.0062  0.1021 -0.0033
 5248SOL    HW127380   2.498   3.049   2.403 -0.3840 -0.4649  0.9241
 5248SOL    HW227381   2.422   3.138   2.313 -2.0676 -1.2650 -1.8694
 5249SOL     OW27382   0.971   2.189   5.917 -0.3183  0.1363  0.6137
 5249SOL    HW127383   0.922   2.257   5.962 -2.0308 -0.5053 -0.2698
 5249SOL    HW227384   1.024   2.252   5.868 -0.6582 -0.1455 -0.1264
 5250SOL     OW27385   1.563   3.439   5.261  0.3176 -0.2230  0.6035
 5250SOL    HW127386   1.566   3.365   5.200  1.8612 -0.3595  0.8430
 5250SOL    HW227387   1.641   3.493   5.247  1.1011 -0.7542  2.8419
 5251SOL     OW27388   4.055   1.606   7.989 -0.5094 -0.2925 -0.3210
 5251SOL    HW127389   4.147   1.582   7.978  0.2173  2.1245  0.5343
 5251SOL    HW227390   4.019   1.595   7.901 -0.3436  1.9207 -0.6497
 5252SOL     OW27391   1.786   3.860  10.810 -0.3986  0.0617 -0.0426
 5252SOL    HW127392   1.734   3.867  10.890  0.9669  2.7297  0.5849
 5252SOL    HW227393   1.719   3.845  10.743 -0.1016 -0.4094 -0.2375
 5253SOL     OW27394   3.111   2.065   2.010  0.3346 -0.2836 -0.0924
 5253SOL    HW127395   3.124   1.981   1.967 -0.0852  0.2454 -1.2484
 5253SOL    HW227396   3.029   2.098   1.973  1.6582  2.5699 -0.4373
 5254SOL     OW27397   4.256   0.313   9.247  0.1357 -0.1180  0.1684
 5254SOL    HW127398   4.334   0.259   9.229 -0.6695 -2.1084  2.5712
 5254SOL    HW227399   4.281   0.399   9.281 -1.6368  0.2027  0.6334
 5255SOL     OW27400   4.244   1.608   3.204 -0.4905  0.4641 -0.0635
 5255SOL    HW127401   4.291   1.532   3.239  1.2973  0.7925 -1.7948
 5255SOL    HW227402   4.264   1.673   3.272  0.4111 -1.5756  1.6390
 5256SOL     OW27403   3.279   4.429   3.916 -0.4457  0.0994 -0.6785
 5256SOL    HW127404   3.340   4.493   3.955  0.0106 -1.9835  2.0239
 5256SOL    HW227405   3.236   4.387   3.989  0.8561 -1.8195 -1.0225
 5257SOL     OW27406   3.654   2.725   5.437 -0.2646  0.0518  0.3407
 5257SOL    HW127407   3.676   2.776   5.359 -1.5448  0.5557  0.3139
 5257SOL    HW227408   3.560   2.709   5.429 -0.4656  1.0320  0.8239
 5258SOL     OW27409   1.178   3.009   2.647 -0.3907  0.6797 -0.6025
 5258SOL    HW127410   1.108   2.944   2.655  0.9047 -0.6841 -0.5098
 5258SOL    HW227411   1.184   3.044   2.736 -3.4162  2.5712 -1.1365
 5259SOL     OW27412   0.406   4.067   6.029  0.1321 -0.3373  0.2290
 5259SOL    HW127413   0.341   4.011   5.987  0.8520 -0.3820 -0.8343
 5259SOL    HW227414   0.352   4.146   6.034  0.2674 -0.1330 -1.4067
 5260SOL     OW27415   0.283   0.825   9.080  0.7725 -0.2448 -0.5818
 5260SOL    HW127416   0.331   0.783   9.008  0.9397  3.4036 -2.6708
 5260SOL    HW227417   0.354   0.874   9.122 -0.3633  1.5424 -0.7358
 5261SOL     OW27418   2.401   0.832  15.226 -0.3515  0.0831  0.1184
 5261SOL    HW127419   2.464   0.903  15.209 -0.4635  0.0157 -0.5773
 5261SOL    HW227420   2.431   0.768  15.161  1.5331  1.5548 -0.4863
 5262SOL     OW27421   1.341   0.499   7.056 -0.1726 -0.0548  0.4250
 5262SOL    HW127422   1.269   0.490   6.994 -2.3416  1.5675  2.7112
 5262SOL    HW227423   1.290   0.504   7.137 -2.4286  1.0488 -1.0789
 5263SOL     OW27424   3.281   4.550   8.734 -0.3156  0.4088  0.1139
 5263SOL    HW127425   3.293   4.565   8.640  1.1277  0.8612  0.3564
 5263SOL    HW227426   3.285   4.454   8.736 -1.3295  0.4102  2.1242
 5264SOL     OW27427   2.648   0.825   9.264 -0.1489 -0.8785 -0.2489
 5264SOL    HW127428   2.558   0.854   9.252  0.5788  0.8002 -1.7196
 5264SOL    HW227429   2.707   0.896   9.238 -1.5362  0.2705 -0.2271
 5265SOL     OW27430   3.871   3.418   1.526  0.1029  0.3615 -0.0105
 5265SOL    HW127431   3.941   3.479   1.502 -0.3066  0.2404 -1.5282
 5265SOL    HW227432   3.854   3.451   1.614  0.6570 -0.2205  0.3095
 5266SOL     OW27433   0.379   3.516  11.408 -0.5124 -0.3453 -0.4471
 5266SOL    HW127434   0.353   3.469  11.328  1.6872 -0.4988 -1.0734
 5266SOL    HW227435   0.474   3.529  11.399 -0.7763  1.1891 -1.0465
 5267SOL     OW27436   3.596   3.728   7.646 -0.1810 -0.1871  0.1615
 5267SOL    HW127437   3.640   3.656   7.691 -0.2964 -0.7832 -0.6810
 5267SOL    HW227438   3.567   3.680   7.568  0.8049 -1.4944  0.5967
 5268SOL     OW27439   1.763   2.601   2.458 -0.1240 -0.0205 -0.9054
 5268SOL    HW127440   1.804   2.548   2.390  1.9923  1.3884 -0.7174
 5268SOL    HW227441   1.689   2.544   2.477  0.4295 -0.1199  0.8827
 5269SOL     OW27442   0.145   1.641   5.402  0.1705  0.2729  0.4186
 5269SOL    HW127443   0.168   1.578   5.334  1.5324  0.7933  0.3876
 5269SOL    HW227444   0.077   1.685   5.353  1.4317  1.7272 -0.0166
 5270SOL     OW27445   2.294   0.518   5.408  0.3566 -0.0891 -0.0287
 5270SOL    HW127446   2.219   0.469   5.376  0.2961 -1.3658  2.1344
 5270SOL    HW227447   2.255   0.590   5.458  0.1439  1.3623 -2.2679
 5271SOL     OW27448   3.315   4.730  16.903  0.4587  0.3967  0.1871
 5271SOL    HW127449   3.397   4.695  16.938 -1.1193 -0.7088  2.8385
 5271SOL    HW227450   3.264   4.653  16.876 -1.5086  1.6108  0.4085
 5272SOL     OW27451   4.435   4.567   3.897 -0.2960  0.0427  0.1424
 5272SOL    HW127452   4.388   4.626   3.838 -0.1441 -1.1225 -1.1573
 5272SOL    HW227453   4.481   4.505   3.840  0.3536 -0.4147  1.1564
 5273SOL     OW27454   3.432   3.508   2.048 -0.0391  0.4133 -0.4202
 5273SOL    HW127455   3.389   3.590   2.024 -0.0783  0.1546 -1.2514
 5273SOL    HW227456   3.513   3.515   1.997  0.6329  1.8203  0.8668
 5274SOL     OW27457   4.092   2.806   4.309 -0.0260 -0.3980 -0.2043
 5274SOL    HW127458   4.048   2.862   4.244 -0.5485  0.7799  1.1753
 5274SOL    HW227459   4.100   2.852   4.392  0.1397 -1.0678  0.1475
 5275SOL     OW27460   1.249   2.122   2.025 -0.0722  0.2370 -0.5728
 5275SOL    HW127461   1.196   2.200   2.040 -0.3341 -0.2200  0.8546
 5275SOL    HW227462   1.281   2.146   1.938  0.7171  1.6822  0.1276
 5276SOL     OW27463   4.700   4.007   4.702  0.2649 -0.2304  0.5543
 5276SOL    HW127464   4.711   4.067   4.776 -0.9663  0.0713  0.5005
 5276SOL    HW227465   4.638   4.058   4.649 -0.6981 -1.7825  0.1988
 5277SOL     OW27466   1.329   0.113   4.294 -0.4868 -0.7119  0.4200
 5277SOL    HW127467   1.283   0.032   4.315  0.2632 -0.8123  1.6911
 5277SOL    HW227468   1.258   0.176   4.285  0.4066 -0.0219 -1.7224
 5278SOL     OW27469   0.298   3.353   4.820 -0.2987  0.2427  0.3028
 5278SOL    HW127470   0.248   3.304   4.755 -1.6834  2.7309 -0.5242
 5278SOL    HW227471   0.371   3.294   4.838  0.4931  0.1267 -3.1544
 5279SOL     OW27472   0.263   3.564  12.056 -0.0373  0.2156  0.0484
 5279SOL    HW127473   0.182   3.533  12.014 -0.3377 -0.7714  1.3653
 5279SOL    HW227474   0.279   3.509  12.133  1.6937  0.0784 -0.4209
 5280SOL     OW27475   2.920   1.390   5.970  0.3299 -0.1450  0.1503
 5280SOL    HW127476   2.937   1.432   5.885 -2.0573 -1.0632 -0.7934
 5280SOL    HW227477   2.914   1.297   5.945 -0.6757  0.3286 -1.3885
 5281SOL     OW27478   3.009   4.416  13.995  0.6756  0.1710  0.0719
 5281SOL    HW127479   3.040   4.326  13.986 -0.8069 -0.3820  0.4385
 5281SOL    HW227480   3.025   4.452  13.907  2.8463  0.6531  0.6644
 5282SOL     OW27481   1.757   0.468  17.104  0.2296 -0.5211  0.1495
 5282SOL    HW127482   1.668   0.501  17.098  0.3378  0.3583  3.1476
 5282SOL    HW227483   1.796   0.555  17.109 -0.0815 -0.4312  0.9903
 5283SOL     OW27484   0.170   0.125   2.071 -0.0234  0.1076  0.3178
 5283SOL    HW127485   0.160   0.180   1.993 -0.9571  0.4675  0.6990
 5283SOL    HW227486   0.238   0.066   2.038 -0.4393  0.4962 -1.2198
 5284SOL     OW27487   0.247   3.097   2.613 -0.1379 -0.5295  0.2787
 5284SOL    HW127488   0.251   3.186   2.646  0.1123 -0.1393 -0.8081
 5284SOL    HW227489   0.156   3.080   2.635 -0.8420  2.1485 -0.6191
 5285SOL     OW27490   0.710   4.294  12.850 -0.5980 -0.8669 -0.6800
 5285SOL    HW127491   0.619   4.264  12.853 -0.9953  0.4020 -0.3879
 5285SOL    HW227492   0.753   4.209  12.843 -2.6935 -1.7785 -3.0077
 5286SOL     OW27493   2.678   4.118   7.950  1.1549  0.4174  0.3840
 5286SOL    HW127494   2.720   4.120   7.864 -1.2771  2.7498 -0.7463
 5286SOL    HW227495   2.748   4.094   8.011  0.0232  0.2858  1.6498
 5287SOL     OW27496   4.331   1.480   7.975 -0.1825  0.3992 -0.1987
 5287SOL    HW127497   4.424   1.482   7.952 -0.1226 -1.0549 -0.0858
 5287SOL    HW227498   4.295   1.394   7.954  0.2997 -0.1070  1.0614
 5288SOL     OW27499   0.736   1.989   8.173 -0.3905  0.2100 -0.1167
 5288SOL    HW127500   0.673   2.059   8.156  0.1120  1.1000  1.7532
 5288SOL    HW227501   0.698   1.933   8.241  0.5150 -1.6029 -1.1027
 5289SOL     OW27502   1.678   2.794  12.012 -0.0443  0.2794 -0.1889
 5289SOL    HW127503   1.722   2.813  12.095 -0.1248 -0.6293  0.0601
 5289SOL    HW227504   1.676   2.699  12.020  1.4691  0.4381  2.3370
 5290SOL     OW27505   3.299   3.743  11.638 -0.3096  0.5893  0.3087
 5290SOL    HW127506   3.293   3.839  11.635 -0.2730  0.5771 -0.0800
 5290SOL    HW227507   3.237   3.722  11.568  1.5701 -1.6570 -0.6395
 5291SOL     OW27508   4.376   2.367   4.571 -0.2859  0.3978 -0.0947
 5291SOL    HW127509   4.449   2.315   4.604  1.2255  2.9132  0.4481
 5291SOL    HW227510   4.306   2.315   4.612  0.8567 -1.0600  0.0126
 5292SOL     OW27511   2.156   1.252   2.002 -0.1447 -0.1987 -0.3479
 5292SOL    HW127512   2.155   1.219   2.093  1.1955  0.4684 -0.0975
 5292SOL    HW227513   2.242   1.229   1.968  0.6690  1.1254  0.7973
 5293SOL     OW27514   3.463   3.969   9.128  0.2955 -0.5497 -0.7631
 5293SOL    HW127515   3.467   4.016   9.210 -0.6930 -3.2727  0.8539
 5293SOL    HW227516   3.470   4.037   9.061  4.5731  0.5555  0.7945
 5294SOL     OW27517   2.540   3.489   8.748 -0.4900 -0.4094  0.6728
 5294SOL    HW127518   2.473   3.445   8.697 -0.5051 -0.4340  0.7133
 5294SOL    HW227519   2.567   3.420   8.809 -0.0214  0.7685  1.7991
 5295SOL     OW27520   1.532   3.683  13.229  0.1215 -0.6355 -0.2071
 5295SOL    HW127521   1.460   3.734  13.265  0.8214 -0.4325  0.9023
 5295SOL    HW227522   1.574   3.644  13.307 -1.7508 -2.3029 -0.0224
 5296SOL     OW27523   0.994   0.728   8.009  0.2428 -0.0263  0.4225
 5296SOL    HW127524   0.945   0.760   8.085 -0.5298  3.3987 -1.5139
 5296SOL    HW227525   1.011   0.813   7.968 -0.2251 -0.8839 -1.5415
 5297SOL     OW27526   3.959   3.868   4.039  0.0034  0.6740 -0.8075
 5297SOL    HW127527   4.042   3.824   4.060 -2.2832 -2.1390  2.1880
 5297SOL    HW227528   3.995   3.956   4.045  0.6074  0.3266  0.7625
 5298SOL     OW27529   4.510   1.420   6.342 -0.2122 -0.0927 -0.5117
 5298SOL    HW127530   4.576   1.381   6.285 -1.1334 -2.6954  0.2351
 5298SOL    HW227531   4.562   1.448   6.418 -0.9768  0.0883 -0.0545
 5299SOL     OW27532   0.888   4.078   3.700  0.6258  0.1665 -0.2087
 5299SOL    HW127533   0.816   4.017   3.690  1.0965 -0.8663  2.7807
 5299SOL    HW227534   0.840   4.160   3.708  0.8466  0.2904 -0.1513
 5300SOL     OW27535   3.256   1.712   9.032  0.4229  0.6265  0.0044
 5300SOL    HW127536   3.283   1.648   8.967  1.4012 -0.9802  1.9901
 5300SOL    HW227537   3.189   1.754   8.978  0.8797 -0.0591 -1.0844
 5301SOL     OW27538   2.900   0.272   9.038  0.5685 -0.5238 -0.1510
 5301SOL    HW127539   2.813   0.294   9.071  0.8129  2.2671 -1.3330
 5301SOL    HW227540   2.958   0.328   9.088 -1.1723  0.9486  0.2280
 5302SOL     OW27541   1.402   3.324  16.188  0.0897  0.5192  0.3749
 5302SOL    HW127542   1.458   3.314  16.265 -1.6854  2.8067  1.9567
 5302SOL    HW227543   1.318   3.334  16.233 -0.0752  0.4248  0.0892
 5303SOL     OW27544   3.569   4.551   3.687 -0.0303 -0.3234  0.3886
 5303SOL    HW127545   3.526   4.520   3.607 -0.4888  0.5202  0.3024
 5303SOL    HW227546   3.495   4.574   3.743 -0.5213  1.7317 -1.1084
 5304SOL     OW27547   1.632   0.623   9.488 -0.3520 -0.2556 -0.0748
 5304SOL    HW127548   1.552   0.674   9.500 -0.9436 -0.7595 -1.8287
 5304SOL    HW227549   1.618   0.529   9.499 -1.5391  0.2196  2.4314
 5305SOL     OW27550   1.482   3.385  14.455 -0.0242 -0.4690 -0.4668
 5305SOL    HW127551   1.428   3.448  14.504 -1.7248 -1.8369 -0.5924
 5305SOL    HW227552   1.533   3.453  14.411 -1.4970 -0.2235 -1.8063
 5306SOL     OW27553   1.790   1.828   8.018 -0.3839  0.3994 -0.0443
 5306SOL    HW127554   1.825   1.746   8.052 -1.4396 -0.9762 -2.3101
 5306SOL    HW227555   1.719   1.842   8.081 -0.9197 -1.6245 -0.2134
 5307SOL     OW27556   0.493   3.165   9.752 -0.2021  0.5871  0.2957
 5307SOL    HW127557   0.563   3.167   9.687 -0.4443 -2.4191 -0.0566
 5307SOL    HW227558   0.411   3.176   9.704 -1.0391 -0.1681  1.5487
 5308SOL     OW27559   3.453   3.667   2.747 -0.0686 -0.1050  0.4590
 5308SOL    HW127560   3.375   3.676   2.692  1.0776  1.4942 -0.9019
 5308SOL    HW227561   3.474   3.575   2.732 -3.9541 -0.9638  0.0729
 5309SOL     OW27562   2.501   0.533  16.086 -0.2933 -0.1462  0.4407
 5309SOL    HW127563   2.431   0.587  16.122 -0.6209 -0.3116  0.0452
 5309SOL    HW227564   2.514   0.586  16.007  2.7861 -1.5997 -0.0428
 5310SOL     OW27565   3.280   3.682   6.745 -0.1246  0.1983  0.0589
 5310SOL    HW127566   3.307   3.773   6.744 -1.2795  0.5139 -1.7584
 5310SOL    HW227567   3.252   3.663   6.656 -0.4942 -0.1879  0.2573
 5311SOL     OW27568   0.045   3.723   5.234  0.5233  0.1707 -0.0853
 5311SOL    HW127569   4.692   3.728   5.215  0.5119  2.4740  0.5191
 5311SOL    HW227570   0.064   3.629   5.231  1.1255  0.2355  1.5931
 5312SOL     OW27571   2.064   2.399   4.581 -0.5531  0.3490 -0.0397
 5312SOL    HW127572   2.093   2.429   4.495 -0.9770 -0.3837 -0.4361
 5312SOL    HW227573   2.019   2.316   4.564  0.0149  0.0265  0.0255
 5313SOL     OW27574   0.030   1.692   6.460  0.1178  0.0293 -0.1300
 5313SOL    HW127575   4.725   1.769   6.493  1.6805  0.5084  0.9261
 5313SOL    HW227576   4.707   1.623   6.479  0.9456 -0.8206 -0.4550
 5314SOL     OW27577   2.700   2.587   4.353  0.2317  0.0998 -0.4808
 5314SOL    HW127578   2.625   2.646   4.345 -0.5922 -0.9406 -0.4777
 5314SOL    HW227579   2.767   2.636   4.399 -0.2629 -0.4635  0.8314
 5315SOL     OW27580   0.132   2.235   4.516 -0.4849  0.0065  0.4781
 5315SOL    HW127581   0.192   2.202   4.450  0.5179  2.4582  0.1685
 5315SOL    HW227582   0.197   2.242   4.586  1.5742 -1.4229 -1.3026
 5316SOL     OW27583   3.265   2.532   0.449  0.1558 -0.6372  0.3418
 5316SOL    HW127584   3.248   2.625   0.459 -0.9341 -0.5632 -2.4063
 5316SOL    HW227585   3.193   2.499   0.396  0.5025 -2.3681  0.9391
 5317SOL     OW27586   1.902   0.337  11.991 -0.0271  0.2459 -0.0668
 5317SOL    HW127587   1.850   0.359  11.913 -1.1149 -1.6512  0.1239
 5317SOL    HW227588   1.894   0.424  12.031 -1.7756  0.0177  0.1011
 5318SOL     OW27589   0.630   1.553   6.585  0.2072  0.2109  0.0782
 5318SOL    HW127590   0.682   1.541   6.665 -0.6391  1.8584  0.8967
 5318SOL    HW227591   0.694   1.507   6.531 -0.9668  0.3163 -1.4020
 5319SOL     OW27592   0.484   4.107  14.345  0.3060  0.1964  0.3381
 5319SOL    HW127593   0.398   4.145  14.362 -0.5068 -1.1356 -0.8800
 5319SOL    HW227594   0.473   4.015  14.367  2.6555 -0.1620  0.0263
 5320SOL     OW27595   3.303   1.098   2.375  0.7132  0.6097 -0.3736
 5320SOL    HW127596   3.352   1.016   2.383  0.2900  0.4789  0.7994
 5320SOL    HW227597   3.239   1.080   2.306 -0.7764  0.9016  0.9542
 5321SOL     OW27598   3.870   1.450   8.112 -0.1522 -0.2763 -0.0373
 5321SOL    HW127599   3.937   1.499   8.064 -2.0100  0.7597 -1.5403
 5321SOL    HW227600   3.788   1.479   8.073 -0.2586 -0.4063  0.0878
 5322SOL     OW27601   2.588   4.258   8.202  0.5894 -0.6561  0.2850
 5322SOL    HW127602   2.572   4.187   8.264 -0.7491 -0.8485 -0.2821
 5322SOL    HW227603   2.670   4.226   8.165  0.1005 -1.0503 -0.4556
 5323SOL     OW27604   1.044   2.926   3.788 -0.2044  0.6378 -0.1134
 5323SOL    HW127605   0.973   2.903   3.729 -0.7814  0.8717  0.4811
 5323SOL    HW227606   1.005   3.008   3.820 -0.5552 -0.3347  1.9608
 5324SOL     OW27607   2.671   3.733   7.002 -0.0683  0.1652 -0.1706
 5324SOL    HW127608   2.622   3.657   7.033 -0.8765  0.5306 -0.5452
 5324SOL    HW227609   2.664   3.799   7.070 -1.7070 -0.1861  0.0000
 5325SOL     OW27610   4.278   3.843   9.411  0.2738  0.5953 -0.0912
 5325SOL    HW127611   4.335   3.908   9.452  0.0251 -0.2880  1.6713
 5325SOL    HW227612   4.233   3.891   9.341 -2.4163  0.2676  1.4018
 5326SOL     OW27613   0.997   3.931   8.454 -0.2004 -0.4331 -0.3509
 5326SOL    HW127614   0.946   3.950   8.533  0.1112  0.0179 -0.2578
 5326SOL    HW227615   0.952   3.851   8.429 -2.3447  2.1499 -4.8800
 5327SOL     OW27616   1.885   4.254  10.003  0.2358 -0.1239 -0.2778
 5327SOL    HW127617   1.910   4.179   9.949  1.3524  0.5052 -0.6173
 5327SOL    HW227618   1.837   4.208  10.073  0.1764  0.6388  0.1842
 5328SOL     OW27619   3.236   2.203   1.643  0.6173 -0.3971  0.4756
 5328SOL    HW127620   3.203   2.251   1.567 -1.5545 -1.2555  0.8847
 5328SOL    HW227621   3.190   2.119   1.641 -2.7349  1.4353  1.7892
 5329SOL     OW27622   3.752   2.158  12.566  0.4061  0.6309  0.0934
 5329SOL    HW127623   3.832   2.206  12.541  0.4655 -0.9126 -2.6078
 5329SOL    HW227624   3.788   2.099  12.633 -0.2347 -0.1670 -0.2748
 5330SOL     OW27625   0.940   0.615   2.160  0.2066 -0.7304 -0.5512
 5330SOL    HW127626   0.939   0.587   2.068 -1.9576  0.0632 -0.7794
 5330SOL    HW227627   0.844   0.615   2.164  0.2365  0.2114  0.1162
 5331SOL     OW27628   1.266   0.459   5.089 -0.0239  0.2040  0.2718
 5331SOL    HW127629   1.179   0.490   5.064 -0.9018 -0.8320  2.0449
 5331SOL    HW227630   1.286   0.407   5.012 -1.5603 -1.0261  0.7067
 5332SOL     OW27631   1.334   0.004   5.014  1.1260  0.1968  0.0457
 5332SOL    HW127632   1.417   0.051   5.009  2.4823 -1.9935  1.8012
 5332SOL    HW227633   1.319   4.730   5.108 -1.8802  2.5632 -0.0350
 5333SOL     OW27634   1.698   1.975   2.828  0.5903 -0.1721  0.1146
 5333SOL    HW127635   1.716   2.037   2.757  0.0909 -1.1920 -0.8994
 5333SOL    HW227636   1.611   2.009   2.851  2.4667  2.4397  3.4545
 5334SOL     OW27637   2.122   0.380   7.576  0.0315  0.3711  0.7504
 5334SOL    HW127638   2.128   0.302   7.520 -0.0439  1.8375 -1.2925
 5334SOL    HW227639   2.214   0.390   7.601  0.1529  0.7054  0.1612
 5335SOL     OW27640   0.574   1.192   8.301  0.1530 -0.6565 -0.0432
 5335SOL    HW127641   0.619   1.138   8.236 -2.6887 -0.6613 -2.0067
 5335SOL    HW227642   0.640   1.204   8.369 -0.6976 -0.9656  0.8241
 5336SOL     OW27643   1.361   1.614  10.613  0.5138  0.4847 -0.2368
 5336SOL    HW127644   1.416   1.683  10.650 -0.7101  1.0979  0.4072
 5336SOL    HW227645   1.396   1.610  10.524  2.6312 -0.0180  0.6081
 5337SOL     OW27646   0.956   4.271   1.706 -0.0719  0.2724  0.5090
 5337SOL    HW127647   0.933   4.178   1.699 -0.6349  0.4855 -0.5870
 5337SOL    HW227648   0.868   4.306   1.713  0.1181  0.7967  0.2780
 5338SOL     OW27649   4.571   2.778  15.500  0.0345 -0.0268 -0.0139
 5338SOL    HW127650   4.632   2.735  15.560 -0.6190 -1.6519 -0.5192
 5338SOL    HW227651   4.565   2.869  15.530  1.5759 -0.8235  2.7113
 5339SOL     OW27652   1.670   3.266   2.772  0.3099 -0.2140 -0.0196
 5339SOL    HW127653   1.709   3.249   2.858 -0.6644  0.6664  0.5968
 5339SOL    HW227654   1.662   3.174   2.746 -2.1222 -0.2642  0.8781
 5340SOL     OW27655   2.054   0.593   2.427 -1.0561 -0.3656 -0.6253
 5340SOL    HW127656   1.958   0.592   2.428 -1.0360 -1.3983 -0.0284
 5340SOL    HW227657   2.073   0.499   2.431  1.9013  0.3638  2.1908
 5341SOL     OW27658   1.202   2.242   2.652  0.3620 -0.2382 -0.4316
 5341SOL    HW127659   1.297   2.252   2.660  0.5475  0.3564 -3.2726
 5341SOL    HW227660   1.167   2.315   2.702  0.2426 -0.3488 -0.3518
 5342SOL     OW27661   3.106   0.763   8.531 -0.0271 -0.1380  0.2954
 5342SOL    HW127662   3.048   0.808   8.592  1.3429 -0.0210  1.5253
 5342SOL    HW227663   3.072   0.674   8.542  0.0151 -0.3095 -0.8767
 5343SOL     OW27664   2.508   4.438   1.991  0.4429  0.4694 -0.0736
 5343SOL    HW127665   2.452   4.505   2.031  2.2178  2.7268 -1.3623
 5343SOL    HW227666   2.593   4.477   2.008  0.8184 -1.4532  2.4227
 5344SOL     OW27667   4.209   0.522   7.893  0.5969 -0.3103  0.3694
 5344SOL    HW127668   4.235   0.587   7.959  0.4640  0.3823 -0.2683
 5344SOL    HW227669   4.279   0.456   7.895 -0.2115 -1.1556  0.3381
 5345SOL     OW27670   1.323   1.443   9.985 -0.0602  0.2674  0.8227
 5345SOL    HW127671   1.350   1.503   9.915 -0.6216 -0.3478  0.0850
 5345SOL    HW227672   1.245   1.480  10.027 -0.1618  1.5359 -0.4716
 5346SOL     OW27673   0.195   3.615   5.720 -0.6506 -0.3375 -0.3615
 5346SOL    HW127674   0.195   3.629   5.626  1.5824  0.1416 -0.2906
 5346SOL    HW227675   0.166   3.523   5.723 -2.3222  0.1680 -1.1108
 5347SOL     OW27676   4.113   4.412  15.386 -0.2489  0.0937 -0.2590
 5347SOL    HW127677   4.036   4.443  15.337 -0.9999  0.8823  1.4254
 5347SOL    HW227678   4.166   4.491  15.376 -0.8964  0.6333  0.6098
 5348SOL     OW27679   2.336   1.783   3.727  0.0731 -0.7090 -0.0234
 5348SOL    HW127680   2.405   1.847   3.709  0.5279 -1.0999  0.3032
 5348SOL    HW227681   2.285   1.815   3.653 -1.2190  1.4776  1.8205
 5349SOL     OW27682   2.356   1.297   5.267 -0.1367  0.1698 -0.0919
 5349SOL    HW127683   2.389   1.232   5.329  0.4183  1.2441  0.7408
 5349SOL    HW227684   2.415   1.290   5.193  0.1992  2.3526 -0.0263
 5350SOL     OW27685   0.897   0.067   4.116 -0.0015  0.0130 -0.1655
 5350SOL    HW127686   0.806   0.066   4.088 -0.2835  1.8462  0.7379
 5350SOL    HW227687   0.937   4.729   4.079 -1.2392 -0.8189  0.2850
 5351SOL     OW27688   0.542   3.767  16.725  0.6624 -0.7585  0.1319
 5351SOL    HW127689   0.508   3.679  16.742 -0.6756 -0.7786 -2.5111
 5351SOL    HW227690   0.531   3.783  16.631 -1.4569 -0.3730  0.4369
 5352SOL     OW27691   3.105   4.464   6.465  0.0848 -0.3843 -0.0204
 5352SOL    HW127692   3.120   4.417   6.546  1.4604 -0.5435 -0.3681
 5352SOL    HW227693   3.017   4.494   6.487  0.9067  1.5948  0.6157
 5353SOL     OW27694   1.882   2.121   8.058  0.2975 -0.5266  0.0811
 5353SOL    HW127695   1.953   2.174   8.022  0.7791 -0.7986  0.6384
 5353SOL    HW227696   1.915   2.106   8.146  4.6373  2.6393 -0.9969
 5354SOL     OW27697   4.506   1.347   2.335  0.0304  0.5380 -0.1879
 5354SOL    HW127698   4.461   1.341   2.251  2.2810  0.6942 -1.4008
 5354SOL    HW227699   4.594   1.315   2.317  0.5067  0.8822  1.5405
 5355SOL     OW27700   3.899   0.212  14.181  0.1322  0.6715  0.0272
 5355SOL    HW127701   3.928   0.300  14.155  0.4931  0.3080 -0.7938
 5355SOL    HW227702   3.971   0.154  14.157  1.6126  2.4398  0.1549
 5356SOL     OW27703   0.593   2.898   2.040  0.9114  0.1531  0.0640
 5356SOL    HW127704   0.612   2.984   2.079  0.3332  0.4409 -0.2819
 5356SOL    HW227705   0.599   2.912   1.945 -1.3420  1.0703  0.0572
 5357SOL     OW27706   0.257   4.484   0.782  0.0025  0.4137  0.1271
 5357SOL    HW127707   0.237   4.550   0.715 -0.2414  1.1158  0.8906
 5357SOL    HW227708   0.169   4.448   0.789  0.1662  0.3017  1.5583
 5358SOL     OW27709   2.777   3.728   6.214  0.4885 -0.0800 -0.3026
 5358SOL    HW127710   2.775   3.728   6.309 -0.6304 -0.2624 -0.3257
 5358SOL    HW227711   2.871   3.726   6.196  0.7680  0.1718  1.1569
 5359SOL     OW27712   0.347   3.332   6.260 -0.0831  0.1081 -0.4417
 5359SOL    HW127713   0.369   3.270   6.330  1.8901 -0.2682 -1.3744
 5359SOL    HW227714   0.420   3.319   6.198  1.2801  0.3567  1.1175
 5360SOL     OW27715   3.709   0.844   6.270  0.3862  0.3955 -0.3765
 5360SOL    HW127716   3.696   0.938   6.257  0.8946  0.1674 -2.4569
 5360SOL    HW227717   3.781   0.848   6.333 -1.2235 -1.9155  1.6470
 5361SOL     OW27718   0.452   0.899  12.084 -0.0448  0.0172  0.3191
 5361SOL    HW127719   0.495   0.816  12.101 -1.9234 -1.0095  0.0268
 5361SOL    HW227720   0.527   0.959  12.077 -1.6279  1.8697 -0.9973
 5362SOL     OW27721   0.933   4.640   3.381  0.0089  0.6476  0.7952
 5362SOL    HW127722   0.855   4.684   3.347 -1.0767 -0.9768  1.1663
 5362SOL    HW227723   0.993   4.669   3.312 -0.6393 -2.1701 -0.9659
 5363SOL     OW27724   2.335   1.103   7.098 -0.7999  0.0288  0.6156
 5363SOL    HW127725   2.322   1.012   7.125  1.9807  0.1911  2.5420
 5363SOL    HW227726   2.247   1.134   7.076  0.8171  1.6476 -3.6709
 5364SOL     OW27727   1.601   0.566   5.132  0.0728 -0.6899 -0.5392
 5364SOL    HW127728   1.689   0.603   5.131  0.2837 -1.1550  0.2591
 5364SOL    HW227729   1.600   0.530   5.221  3.4663  1.1696  0.2384
 5365SOL     OW27730   3.510   3.541  10.156 -0.2441  0.1882  0.3392
 5365SOL    HW127731   3.491   3.448  10.142 -0.1844  0.4491 -1.4855
 5365SOL    HW227732   3.498   3.573  10.066 -1.1780  0.8137  0.6896
 5366SOL     OW27733   2.374   2.640   5.760  0.2831  0.1964 -0.3935
 5366SOL    HW127734   2.403   2.566   5.814  0.6107  0.6853  0.0962
 5366SOL    HW227735   2.391   2.603   5.674 -1.4105 -1.1301 -0.1760
 5367SOL     OW27736   0.652   1.318   6.385 -0.4497  0.2203  0.1974
 5367SOL    HW127737   0.580   1.329   6.323 -0.3766 -0.8964 -0.0748
 5367SOL    HW227738   0.713   1.391   6.371  0.5618 -0.2989  1.8473
 5368SOL     OW27739   1.148   1.674  10.020  0.5651  0.3941 -0.1937
 5368SOL    HW127740   1.118   1.765  10.031  0.2500  0.0708  1.6972
 5368SOL    HW227741   1.213   1.686   9.950 -0.1316  0.6717 -0.7955
 5369SOL     OW27742   1.675   1.059   8.333  0.2571  0.3035  0.2427
 5369SOL    HW127743   1.639   1.123   8.272  4.1934  0.6242 -1.7256
 5369SOL    HW227744   1.684   0.982   8.277  1.7305  0.9983 -0.4661
 5370SOL     OW27745   3.123   2.416  14.487 -0.1509  0.5118 -0.6733
 5370SOL    HW127746   3.072   2.394  14.409  0.7837  0.0918 -1.1759
 5370SOL    HW227747   3.209   2.423  14.445  0.9272 -1.1420  1.2611
 5371SOL     OW27748   4.516   4.464  13.172  0.1370  0.4297  0.1020
 5371SOL    HW127749   4.604   4.433  13.197  0.7940  1.7818 -0.5440
 5371SOL    HW227750   4.517   4.457  13.076  1.1155 -0.3666  0.1617
 5372SOL     OW27751   0.797   0.645   7.053 -0.2225  0.7805 -0.0229
 5372SOL    HW127752   0.808   0.651   6.958 -0.3023  0.4446 -0.0506
 5372SOL    HW227753   0.723   0.585   7.053  0.2240  0.2338  0.1635
 5373SOL     OW27754   1.339   1.642   2.583  0.2437  0.2670  0.2752
 5373SOL    HW127755   1.427   1.604   2.590 -0.2076 -1.0609 -1.3203
 5373SOL    HW227756   1.355   1.705   2.512  2.3152 -1.9958 -1.2545
 5374SOL     OW27757   3.764   4.740   3.191  0.2596  0.0056  0.1676
 5374SOL    HW127758   3.711   4.670   3.231 -0.8039 -0.2040 -1.6212
 5374SOL    HW227759   3.792   0.040   3.273  1.5542 -1.0261  0.2517
 5375SOL     OW27760   4.230   2.011   2.723 -0.0631 -0.5507  0.7084
 5375SOL    HW127761   4.261   2.059   2.799 -0.1692  1.0607 -0.2725
 5375SOL    HW227762   4.314   1.992   2.682  0.0200  0.1340  0.5609
 5376SOL     OW27763   1.910   0.659   8.223 -0.0152 -0.5772  0.5113
 5376SOL    HW127764   1.948   0.584   8.268  0.4536 -0.2856  0.5984
 5376SOL    HW227765   1.952   0.647   8.138  1.5361 -2.0842  1.4829
 5377SOL     OW27766   4.474   2.321   1.724  0.5643 -0.0722 -0.3700
 5377SOL    HW127767   4.521   2.284   1.799  0.2545 -2.1202 -1.2019
 5377SOL    HW227768   4.538   2.310   1.654  0.6717 -1.8359 -0.0004
 5378SOL     OW27769   3.370   2.329   7.575 -0.0368  0.0506  0.0044
 5378SOL    HW127770   3.421   2.252   7.599  0.2132 -0.1178 -1.0986
 5378SOL    HW227771   3.313   2.321   7.652 -0.5070 -0.6359 -0.4200
 5379SOL     OW27772   4.207   3.408   7.793 -0.4704 -0.4429 -0.3277
 5379SOL    HW127773   4.210   3.413   7.698 -1.1051  4.4455 -0.0728
 5379SOL    HW227774   4.118   3.440   7.808  0.2942  1.5371 -0.0178
 5380SOL     OW27775   3.210   0.797  10.047  0.2610  0.2715  0.5524
 5380SOL    HW127776   3.275   0.801  10.117  0.2149 -2.5040  0.7654
 5380SOL    HW227777   3.232   0.716  10.001  1.0973  1.4205 -1.1126
 5381SOL     OW27778   2.785   1.597   5.150  0.1724 -0.4525  0.1325
 5381SOL    HW127779   2.832   1.514   5.161  1.8085  0.3387 -0.9261
 5381SOL    HW227780   2.750   1.584   5.062 -2.2024 -0.4121  1.0720
 5382SOL     OW27781   0.076   2.105   1.929  0.1382 -0.0791  0.3225
 5382SOL    HW127782   0.001   2.148   1.970 -1.1180 -1.2746 -0.7041
 5382SOL    HW227783   0.145   2.172   1.929 -0.6491  0.7259  0.5785
 5383SOL     OW27784   3.995   4.602   4.063 -0.0441  0.1606 -0.1010
 5383SOL    HW127785   4.043   4.668   4.112  0.6958 -1.4830  1.4280
 5383SOL    HW227786   3.930   4.579   4.130  0.3883  1.2741  0.6937
 5384SOL     OW27787   4.020   2.384   2.394  0.0295 -0.1646  0.1285
 5384SOL    HW127788   3.981   2.381   2.481 -0.5743  0.4761 -0.1216
 5384SOL    HW227789   3.951   2.416   2.336 -0.1708 -0.5643  0.1433
 5385SOL     OW27790   3.623   2.625  16.532 -0.4237 -0.4088  0.3961
 5385SOL    HW127791   3.564   2.626  16.608  1.4913 -0.1088  1.8894
 5385SOL    HW227792   3.657   2.536  16.544  2.5166  0.7792  0.8935
 5386SOL     OW27793   2.262   4.040   2.605 -0.4572 -0.5124 -0.0317
 5386SOL    HW127794   2.217   4.012   2.526  1.1676 -1.4936 -0.6141
 5386SOL    HW227795   2.347   4.065   2.568 -0.8225 -0.1310 -0.6081
 5387SOL     OW27796   4.041   4.306  11.709 -0.5079 -0.8684  0.4689
 5387SOL    HW127797   3.948   4.284  11.707 -0.9605  0.9247  1.6704
 5387SOL    HW227798   4.045   4.384  11.765 -3.3835 -0.0517 -0.4667
 5388SOL     OW27799   0.105   0.222   8.827 -0.2612 -0.4183 -0.4228
 5388SOL    HW127800   0.156   0.142   8.835 -1.4195 -0.9322  1.7710
 5388SOL    HW227801   0.114   0.264   8.913  0.3990 -1.6900  0.1264
 5389SOL     OW27802   0.327   0.494  12.068 -0.1771 -0.0757  0.5925
 5389SOL    HW127803   0.274   0.570  12.092  1.5954  1.0325  0.9958
 5389SOL    HW227804   0.348   0.503  11.975  2.7561 -0.6117  1.2018
 5390SOL     OW27805   4.253   0.462   6.529  0.5998 -0.4710  0.1745
 5390SOL    HW127806   4.211   0.457   6.615 -1.3007 -0.5172 -0.7575
 5390SOL    HW227807   4.334   0.497   6.564 -0.3574  1.4723  0.4479
 5391SOL     OW27808   3.451   2.363   9.420  0.6916 -1.0019 -0.8007
 5391SOL    HW127809   3.477   2.394   9.507 -0.9323 -0.0370 -0.6584
 5391SOL    HW227810   3.401   2.288   9.449  0.5730  0.0191  1.6120
 5392SOL     OW27811   4.686   3.483  12.046 -0.5924  0.7060 -0.2281
 5392SOL    HW127812   4.678   3.525  11.960  2.2338  3.0374  0.6609
 5392SOL    HW227813   0.007   3.411  12.035  0.5744  1.7457 -0.4668
 5393SOL     OW27814   3.687   2.968   8.684  0.3281  0.5301  0.6703
 5393SOL    HW127815   3.768   2.920   8.699 -0.2065  0.1973  2.4221
 5393SOL    HW227816   3.717   3.056   8.706  0.7176  0.4493  0.4648
 5394SOL     OW27817   4.051   4.335   8.935  0.1399 -0.3254  0.1916
 5394SOL    HW127818   4.041   4.430   8.946 -1.5773 -0.4498 -0.2512
 5394SOL    HW227819   4.140   4.317   8.905  0.8591  4.3321 -0.5394
 5395SOL     OW27820   1.539   0.263   5.546 -0.2549  0.6263 -0.3755
 5395SOL    HW127821   1.528   0.227   5.458  1.5096 -1.8335  0.4042
 5395SOL    HW227822   1.561   0.355   5.531 -0.4879  0.8929  0.8687
 5396SOL     OW27823   1.484   3.712   6.613  0.7534  0.2723  0.0644
 5396SOL    HW127824   1.515   3.732   6.702  1.5356  0.0801 -0.1682
 5396SOL    HW227825   1.401   3.759   6.613  0.8708  0.4771  0.9820
 5397SOL     OW27826   4.082   1.214   3.148  0.1238 -0.0127 -0.0226
 5397SOL    HW127827   4.080   1.305   3.119 -1.1436  0.0056  0.1497
 5397SOL    HW227828   4.173   1.206   3.178 -0.0008  0.5387  0.5024
 5398SOL     OW27829   3.390   2.774  10.424 -0.0438 -0.6942 -0.0713
 5398SOL    HW127830   3.415   2.695  10.471  1.2022 -1.8387 -2.6071
 5398SOL    HW227831   3.299   2.764  10.397  0.3744  0.0857 -1.8485
 5399SOL     OW27832   4.688   2.090   3.204  0.2350 -0.7314 -0.0351
 5399SOL    HW127833   0.022   2.066   3.150  0.9142  1.3153 -0.0004
 5399SOL    HW227834   4.721   2.075   3.292 -0.6280 -1.3733  0.1849
 5400SOL     OW27835   4.706   0.859  11.839  0.2203 -0.4063  0.0335
 5400SOL    HW127836   4.705   0.882  11.932  3.3443  0.4907 -0.1698
 5400SOL    HW227837   4.727   0.766  11.844  2.7430  0.0175 -3.3393
 5401SOL     OW27838   0.715   1.217  13.470 -0.2272 -0.0238  0.7619
 5401SOL    HW127839   0.697   1.212  13.376 -0.8468  0.1991  0.8649
 5401SOL    HW227840   0.699   1.308  13.497 -1.4282  0.0481 -0.2031
 5402SOL     OW27841   1.408   0.167   2.254  0.1845 -0.3856 -0.4428
 5402SOL    HW127842   1.496   0.173   2.291  0.6767 -2.0191 -1.3492
 5402SOL    HW227843   1.373   0.107   2.319  1.5195 -0.3536  0.3014
 5403SOL     OW27844   3.112   3.594   4.427 -0.5580  0.3887 -0.2916
 5403SOL    HW127845   3.120   3.499   4.429  0.3712  0.5033  1.5944
 5403SOL    HW227846   3.143   3.605   4.337 -0.4061  0.2332 -0.2587
 5404SOL     OW27847   3.410   1.099   6.110  0.1055  0.4910  0.5459
 5404SOL    HW127848   3.409   1.042   6.033 -0.2751  1.8957 -0.4947
 5404SOL    HW227849   3.321   1.077   6.135 -0.3628  2.0512  0.1960
 5405SOL     OW27850   4.577   1.968   8.941 -0.3289 -0.0531 -0.6605
 5405SOL    HW127851   4.617   1.947   9.026 -0.7485 -1.1462 -0.7234
 5405SOL    HW227852   4.516   1.894   8.944 -0.4298  0.1070  1.6890
 5406SOL     OW27853   2.077   1.030   4.486  0.2315 -1.0019  0.2783
 5406SOL    HW127854   2.055   0.968   4.417  2.0713 -0.4488 -0.8183
 5406SOL    HW227855   2.134   0.987   4.550 -0.0566 -1.2204  0.3867
 5407SOL     OW27856   1.741   2.502   5.248 -0.6314 -0.2500  0.2567
 5407SOL    HW127857   1.804   2.431   5.238  0.3113  0.7585 -0.9049
 5407SOL    HW227858   1.769   2.547   5.169  0.4197 -0.1006  0.7163
 5408SOL     OW27859   0.954   0.327   6.741 -0.1734  0.0733  0.1511
 5408SOL    HW127860   0.904   0.409   6.744 -1.6107 -0.7913 -0.2329
 5408SOL    HW227861   0.985   0.332   6.650 -1.4576  1.1866 -0.2328
 5409SOL     OW27862   3.479   0.128   0.030 -0.2516 -0.2578 -0.3396
 5409SOL    HW127863   3.442   0.043   0.052 -1.2526  0.7981  2.0784
 5409SOL    HW227864   3.503   0.146   0.121 -3.6773  1.7126  0.1837
 5410SOL     OW27865   3.720   1.813   2.506  0.0626 -0.1377 -0.3845
 5410SOL    HW127866   3.753   1.889   2.554  0.5225  0.2027 -1.2378
 5410SOL    HW227867   3.762   1.749   2.563 -1.0392  1.7695  2.5826
 5411SOL     OW27868   2.090   3.150   7.978  0.5916  0.5866  0.7320
 5411SOL    HW127869   2.096   3.240   7.946 -0.4480 -0.8495 -3.4970
 5411SOL    HW227870   2.014   3.167   8.033  0.7941  4.1739 -0.1018
 5412SOL     OW27871   4.318   4.363  11.216  0.5341 -0.2745  0.2733
 5412SOL    HW127872   4.231   4.401  11.231  0.6985  0.7333 -1.3230
 5412SOL    HW227873   4.359   4.350  11.301 -1.5354 -0.1546  1.3010
 5413SOL     OW27874   2.285   1.716   3.093 -0.8451 -0.4671 -0.4355
 5413SOL    HW127875   2.248   1.745   3.010  0.8945  1.5301 -0.4786
 5413SOL    HW227876   2.311   1.624   3.084  2.3628  0.3558  0.6885
 5414SOL     OW27877   2.923   2.931   1.771 -0.0502  0.6271 -0.1426
 5414SOL    HW127878   3.004   2.891   1.741 -0.9009 -0.5765 -0.8617
 5414SOL    HW227879   2.941   2.912   1.863  1.5432 -0.8121 -0.7592
 5415SOL     OW27880   0.571   1.535  12.285  0.2842 -0.1936  0.0472
 5415SOL    HW127881   0.532   1.607  12.335 -0.6633 -0.1640 -0.7409
 5415SOL    HW227882   0.531   1.458  12.325 -0.5276  0.2273  0.0321
 5416SOL     OW27883   3.638   4.542   9.547  0.3593 -0.2764 -0.0285
 5416SOL    HW127884   3.611   4.463   9.593  1.3921  0.0254  1.1079
 5416SOL    HW227885   3.654   4.607   9.616  2.5398 -1.7133  0.8220
 5417SOL     OW27886   3.450   3.541  10.457 -0.3677 -0.7771 -0.4769
 5417SOL    HW127887   3.491   3.537  10.370  2.0945  0.8430  0.5990
 5417SOL    HW227888   3.476   3.454  10.487 -1.1513 -0.0578  2.2627
 5418SOL     OW27889   0.390   4.454  14.464  0.0533  0.0150  0.4523
 5418SOL    HW127890   0.376   4.548  14.475 -1.3628 -0.0310 -0.9740
 5418SOL    HW227891   0.483   4.441  14.484  0.8461 -0.2797 -3.4789
 5419SOL     OW27892   2.902   3.012  16.822 -0.0118 -0.1440 -0.3975
 5419SOL    HW127893   2.840   2.985  16.754  1.6106 -0.7135 -1.6682
 5419SOL    HW227894   2.877   2.955  16.894  3.9427 -2.2938 -0.6908
 5420SOL     OW27895   1.505   4.465   5.582  0.0689 -0.5108 -0.3755
 5420SOL    HW127896   1.512   4.413   5.662 -1.4441  0.9620  0.7253
 5420SOL    HW227897   1.531   4.405   5.513  1.1702  1.6167 -1.8001
 5421SOL     OW27898   4.058   1.575   1.390  0.0183  0.0428 -0.3500
 5421SOL    HW127899   3.968   1.568   1.421  0.6242 -0.0678  1.3796
 5421SOL    HW227900   4.106   1.611   1.465 -1.5435 -0.7700  1.0377
 5422SOL     OW27901   0.647   3.479  16.717  0.2057 -0.5547 -0.2999
 5422SOL    HW127902   0.585   3.485  16.644  1.8126  0.7854 -1.5497
 5422SOL    HW227903   0.714   3.430  16.670 -0.1562 -1.9941  0.6887
 5423SOL     OW27904   2.059   1.991  12.831  0.4173 -0.3850 -0.8795
 5423SOL    HW127905   2.151   1.998  12.853 -0.0214 -0.9493  1.0722
 5423SOL    HW227906   2.035   2.084  12.823 -0.2666 -0.4806  0.1284
 5424SOL     OW27907   1.275   1.749   0.564  0.1207  0.4199  0.4054
 5424SOL    HW127908   1.343   1.805   0.601  0.3664 -0.5394  1.4004
 5424SOL    HW227909   1.324   1.678   0.524 -1.7224  0.0433 -1.1597
 5425SOL     OW27910   3.055   2.798   6.694 -0.1305 -0.0728  0.4670
 5425SOL    HW127911   3.120   2.763   6.756  1.8192 -1.4373 -2.3719
 5425SOL    HW227912   3.113   2.799   6.618 -0.0946 -1.5486  0.4782
 5426SOL     OW27913   0.258   3.515  17.627 -0.1082  0.0325 -0.2604
 5426SOL    HW127914   0.200   3.440  17.631 -0.7038  0.4585 -0.8900
 5426SOL    HW227915   0.280   3.518  17.720 -0.1185  2.9200 -0.3429
 5427SOL     OW27916   0.007   0.489   8.940 -0.4392  0.1014  0.1590
 5427SOL    HW127917   4.712   0.520   8.856 -0.6607 -0.9393 -0.1287
 5427SOL    HW227918   0.034   0.402   8.911  1.8613  0.5088  1.1421
 5428SOL     OW27919   1.096   4.553   8.264 -0.0701 -0.8374 -0.0804
 5428SOL    HW127920   1.035   4.509   8.322  1.8553 -0.6188  2.0961
 5428SOL    HW227921   1.029   4.602   8.216 -2.0016 -2.5016  0.9072
 5429SOL     OW27922   0.947   2.690   7.094  0.0991  0.6048  0.1667
 5429SOL    HW127923   0.982   2.773   7.062 -0.0932  0.7619  0.3648
 5429SOL    HW227924   0.945   2.646   7.009  2.1296 -0.2227  0.5515
 5430SOL     OW27925   2.278   4.600   2.403 -0.5592 -0.4195 -0.2210
 5430SOL    HW127926   2.370   4.621   2.418 -0.7413  1.8361 -2.1596
 5430SOL    HW227927   2.277   4.505   2.410 -0.1083 -0.5376 -1.6890
 5431SOL     OW27928   0.199   1.899   3.912 -0.0233  0.0851 -0.3795
 5431SOL    HW127929   0.211   1.864   3.824 -0.7336 -1.8595  0.2958
 5431SOL    HW227930   0.232   1.989   3.910  0.1966  0.0806  2.3454
 5432SOL     OW27931   0.381   2.543  10.465 -0.7334 -0.8645 -0.6103
 5432SOL    HW127932   0.402   2.527  10.557 -2.4463 -0.4598 -0.1458
 5432SOL    HW227933   0.466   2.571  10.433 -0.0598 -0.8331  1.2134
 5433SOL     OW27934   3.307   4.541  14.004  0.2010 -0.4514 -0.7013
 5433SOL    HW127935   3.250   4.481  14.052  0.9211  0.6729  1.5290
 5433SOL    HW227936   3.270   4.627  14.026 -0.9376 -0.8327 -1.1141
 5434SOL     OW27937   1.858   0.032   7.559 -0.4760  0.2819 -0.3045
 5434SOL    HW127938   1.831   0.020   7.468 -4.3052  3.8590  0.3843
 5434SOL    HW227939   1.940   4.725   7.570  0.1287  0.8874 -2.2288
 5435SOL     OW27940   1.515   1.260   4.541  0.0011 -0.2938  0.0535
 5435SOL    HW127941   1.576   1.328   4.569  2.0615 -1.4821 -1.5531
 5435SOL    HW227942   1.491   1.285   4.451 -0.1164  0.6921  0.3588
 5436SOL     OW27943   0.803   0.945   8.748  0.0283  0.0856  0.1004
 5436SOL    HW127944   0.712   0.964   8.771 -0.1546  0.9511 -1.3532
 5436SOL    HW227945   0.830   0.903   8.830 -0.7671  1.5927  1.1307
 5437SOL     OW27946   4.475   2.781   3.941 -0.4643  0.3350 -0.5226
 5437SOL    HW127947   4.457   2.823   3.857 -1.4658  0.5830 -0.1819
 5437SOL    HW227948   4.499   2.694   3.909  1.6587  0.5393  0.5423
 5438SOL     OW27949   2.683   2.490   2.742 -0.2712 -0.2469 -0.0639
 5438SOL    HW127950   2.769   2.466   2.708 -1.3494 -1.0317 -2.2305
 5438SOL    HW227951   2.630   2.482   2.663  2.2285 -0.2100 -1.7685
 5439SOL     OW27952   0.628   3.404  11.665 -0.1886 -0.4735  0.4863
 5439SOL    HW127953   0.646   3.455  11.586 -1.0777 -1.7024 -0.5049
 5439SOL    HW227954   0.671   3.450  11.737  1.9267  0.7422 -1.5604
 5440SOL     OW27955   0.331   3.462   0.933  0.3814 -0.0365  0.1433
 5440SOL    HW127956   0.314   3.525   1.003  1.1563 -0.5083  0.7540
 5440SOL    HW227957   0.334   3.512   0.852 -0.5276 -1.0332 -0.5085
 5441SOL     OW27958   0.294   3.210   1.154  0.0195 -0.3651  0.1714
 5441SOL    HW127959   0.334   3.273   1.213 -0.2139  1.6074 -1.7469
 5441SOL    HW227960   0.361   3.142   1.151 -0.7547 -1.2019  1.9770
 5442SOL     OW27961   3.874   3.312   5.820  0.4635  0.6008 -0.1404
 5442SOL    HW127962   3.901   3.391   5.773 -1.3055  1.9472  1.1145
 5442SOL    HW227963   3.949   3.305   5.880  0.3947  1.6138  0.0646
 5443SOL     OW27964   2.748   4.682   5.663 -0.8808  0.1145  0.0745
 5443SOL    HW127965   2.770   0.032   5.642  1.1242 -0.1689  0.8551
 5443SOL    HW227966   2.813   4.657   5.729 -0.5758  1.2276  0.2017
 5444SOL     OW27967   2.213   3.043  13.642 -0.6245  0.0048  0.2550
 5444SOL    HW127968   2.221   3.130  13.602 -1.5332  1.4631  3.1882
 5444SOL    HW227969   2.234   2.986  13.568  0.0418  1.0643 -0.3645
 5445SOL     OW27970   1.322   1.825   2.060  0.6143 -0.1563  0.7244
 5445SOL    HW127971   1.304   1.774   1.981  1.8998  1.9372 -0.9335
 5445SOL    HW227972   1.314   1.914   2.026  0.8093 -0.7618 -0.9414
 5446SOL     OW27973   3.864   2.942   4.193 -0.2909 -0.0566  0.1849
 5446SOL    HW127974   3.790   2.928   4.134 -0.1794 -1.5019  0.3943
 5446SOL    HW227975   3.812   2.947   4.273  1.8246  0.9997  1.5166
 5447SOL     OW27976   2.900   0.389  17.361 -0.5456 -0.2980 -0.5790
 5447SOL    HW127977   2.824   0.441  17.335 -0.5992 -0.3158 -0.4596
 5447SOL    HW227978   2.875   0.305  17.325 -1.0545  0.5979 -2.3172
 5448SOL     OW27979   4.193   2.434   2.001  0.2803 -0.4207  0.2968
 5448SOL    HW127980   4.126   2.437   2.070  2.1480  1.6683  2.0267
 5448SOL    HW227981   4.268   2.472   2.048 -0.6895 -0.1406  1.6247
 5449SOL     OW27982   0.729   4.072   0.108  0.0388 -0.0811  0.2121
 5449SOL    HW127983   0.792   4.036   0.046  1.4711 -1.5677  2.5450
 5449SOL    HW227984   0.743   4.165   0.093 -2.3914 -0.1808 -2.5991
 5450SOL     OW27985   2.897   2.616   4.151 -0.1906  0.0640 -0.1280
 5450SOL    HW127986   2.927   2.534   4.188  0.0272  0.0942 -0.2392
 5450SOL    HW227987   2.808   2.610   4.186  0.0832 -0.4530  0.4711
 5451SOL     OW27988   3.261   3.730   2.493  0.0428 -0.0861  0.0950
 5451SOL    HW127989   3.338   3.684   2.458 -0.2663  0.0880 -0.8339
 5451SOL    HW227990   3.194   3.721   2.425  1.4195 -1.3484 -1.0958
 5452SOL     OW27991   2.074   1.451  13.186 -0.5335  0.0971  0.0126
 5452SOL    HW127992   2.089   1.365  13.147  0.8274  0.0681  0.6220
 5452SOL    HW227993   2.103   1.501  13.110 -0.6637 -0.7238 -0.5784
 5453SOL     OW27994   4.331   0.081   0.548 -0.4869  0.5192  0.0832
 5453SOL    HW127995   4.324   0.089   0.453 -0.2489  0.2369  0.0426
 5453SOL    HW227996   4.335   0.171   0.581 -0.9271  0.4315  0.3683
 5454SOL     OW27997   3.745   2.519   6.664 -0.4257 -0.4858  0.0899
 5454SOL    HW127998   3.698   2.567   6.596 -0.7714 -2.1645 -0.8520
 5454SOL    HW227999   3.777   2.591   6.719 -0.9860  0.5988 -0.9946
 5455SOL     OW28000   2.575   0.624   8.221  0.3213  0.3397  0.1721
 5455SOL    HW128001   2.505   0.586   8.168  0.2596 -0.7098  1.0083
 5455SOL    HW228002   2.616   0.682   8.156  2.1920 -1.3863 -0.1867
 5456SOL     OW28003   0.738   2.153   7.314 -0.4897  0.6240  0.7828
 5456SOL    HW128004   0.714   2.236   7.356 -1.1888 -0.4541  2.5226
 5456SOL    HW228005   0.827   2.171   7.284  0.9384 -3.4765  2.5951
 5457SOL     OW28006   1.363   2.688   6.574  0.0388  0.1429 -0.5308
 5457SOL    HW128007   1.273   2.680   6.603  0.0880  0.1022 -0.3911
 5457SOL    HW228008   1.355   2.647   6.487 -1.0673 -0.9982  0.1105
 5458SOL     OW28009   0.621   2.765  14.468 -0.2124  0.1914  0.2335
 5458SOL    HW128010   0.646   2.717  14.389 -0.0221 -1.0844  1.0731
 5458SOL    HW228011   0.709   2.788  14.497 -1.2024  3.2754  0.6925
 5459SOL     OW28012   4.504   1.703   1.679 -0.2210 -0.5329 -0.1604
 5459SOL    HW128013   4.564   1.649   1.730 -1.4507  1.0149  2.9633
 5459SOL    HW228014   4.513   1.793   1.712  2.1621 -1.0912  0.6879
 5460SOL     OW28015   2.587   0.551   8.969  0.2885  0.1740 -0.3698
 5460SOL    HW128016   2.582   0.647   8.971 -2.4732  0.0456 -0.4206
 5460SOL    HW228017   2.503   0.533   8.926 -1.4182  0.1460  2.9999
 5461SOL     OW28018   3.554   1.647  10.056  0.7686 -0.1878 -0.2718
 5461SOL    HW128019   3.597   1.566  10.084  0.1256 -0.4875 -0.1393
 5461SOL    HW228020   3.630   1.701  10.040  0.8667 -0.3295 -0.2871
 5462SOL     OW28021   3.175   4.629   5.913  0.0574 -0.4150 -0.2476
 5462SOL    HW128022   3.188   4.714   5.954 -0.8161  0.2082 -1.2544
 5462SOL    HW228023   3.107   4.651   5.850 -0.1966 -2.0544 -0.5525
 5463SOL     OW28024   2.458   3.026   6.191  0.1756 -0.1578  0.1605
 5463SOL    HW128025   2.549   3.049   6.212  0.4423 -0.1959 -0.9922
 5463SOL    HW228026   2.456   3.072   6.107  0.1646 -1.0553 -0.3283
 5464SOL     OW28027   2.814   2.832   6.126 -0.3482 -0.3706  0.2727
 5464SOL    HW128028   2.788   2.745   6.156  1.4821 -1.1066 -0.3278
 5464SOL    HW228029   2.908   2.842   6.137 -0.3395 -0.1474 -0.0127
 5465SOL     OW28030   3.389   3.139  17.218 -0.4312 -0.2357  0.4842
 5465SOL    HW128031   3.317   3.129  17.280  0.2023 -1.1424  1.0649
 5465SOL    HW228032   3.411   3.232  17.218 -0.9721 -0.1073 -1.4048
 5466SOL     OW28033   1.889   2.827   3.202 -0.1618 -0.2236  0.0063
 5466SOL    HW128034   1.873   2.824   3.108 -0.4695 -2.2436  0.1294
 5466SOL    HW228035   1.984   2.841   3.199  0.2187 -2.6212  0.6784
 5467SOL     OW28036   1.794   4.169   5.875  0.2526 -0.9191 -0.3140
 5467SOL    HW128037   1.744   4.251   5.883  1.3617 -0.2644  0.0078
 5467SOL    HW228038   1.881   4.204   5.853  1.2816 -3.1358  0.2477
 5468SOL     OW28039   2.785   4.348   6.346 -0.2521 -0.1878 -0.1412
 5468SOL    HW128040   2.879   4.330   6.345 -0.3180 -0.5729  0.4611
 5468SOL    HW228041   2.758   4.288   6.277 -0.2464 -0.4707  0.1025
 5469SOL     OW28042   2.257   4.659   7.187  0.1084 -0.4126 -0.3239
 5469SOL    HW128043   2.227   4.700   7.106 -0.9512 -0.7377 -0.0988
 5469SOL    HW228044   2.278   4.575   7.147 -0.3501 -1.0073  0.6732
 5470SOL     OW28045   3.459   0.243   4.351  0.3048  0.0402  0.0862
 5470SOL    HW128046   3.542   0.198   4.365 -0.5757 -2.6991 -3.4615
 5470SOL    HW228047   3.451   0.277   4.440 -1.0823  2.2509 -0.8764
 5471SOL     OW28048   3.085   4.731   3.833  0.2240  0.0130  0.2381
 5471SOL    HW128049   3.097   0.062   3.771 -0.1493 -1.0850 -1.0960
 5471SOL    HW228050   3.025   4.672   3.786 -0.3004  1.1647 -0.5441
 5472SOL     OW28051   3.556   1.357   3.054 -0.1514 -0.1276  1.0329
 5472SOL    HW128052   3.613   1.312   2.992  2.3769  4.0186  0.4094
 5472SOL    HW228053   3.617   1.373   3.126  0.1930 -1.2377  0.9964
 5473SOL     OW28054   3.442   1.881   2.763 -0.0623 -0.2935  0.2496
 5473SOL    HW128055   3.537   1.869   2.771 -0.0371  0.3469  0.9119
 5473SOL    HW228056   3.422   1.800   2.717 -2.0257 -1.3978  3.0703
 5474SOL     OW28057   1.027   3.759   3.816  0.3807 -0.0333  0.0945
 5474SOL    HW128058   1.012   3.666   3.795  0.5299 -0.2781  1.0717
 5474SOL    HW228059   1.039   3.794   3.728  0.6557 -2.5186 -0.8793
 5475SOL     OW28060   2.985   4.612   4.470  0.0170  0.3706  0.1711
 5475SOL    HW128061   3.030   4.542   4.517 -0.4620 -0.2176 -0.2349
 5475SOL    HW228062   3.032   4.604   4.387 -0.9537  1.1665 -0.4581
 5476SOL     OW28063   0.018   1.098   7.550  0.4702 -0.1152  0.1635
 5476SOL    HW128064   0.013   1.193   7.545  2.2021 -0.0867 -0.9644
 5476SOL    HW228065   4.667   1.077   7.570 -0.4429  0.7300 -3.1223
 5477SOL     OW28066   1.180   3.987   8.248 -0.3821  0.1460  0.5398
 5477SOL    HW128067   1.136   3.960   8.329  1.4851  1.6505  2.0373
 5477SOL    HW228068   1.121   4.058   8.222  0.0827  0.5301  0.5521
 5478SOL     OW28069   4.711   1.576   4.881  0.7033 -0.0016 -1.0309
 5478SOL    HW128070   4.642   1.641   4.863 -1.1311 -2.1524 -1.7103
 5478SOL    HW228071   0.026   1.639   4.927  1.4952 -0.4458 -1.3992
 5479SOL     OW28072   1.685   2.407   5.923  0.3029  0.6344  0.2591
 5479SOL    HW128073   1.780   2.394   5.921  0.4171  1.8438 -3.0724
 5479SOL    HW228074   1.664   2.394   6.015  1.2368 -0.1437  0.3678
 5480SOL     OW28075   3.176   0.186   9.953 -0.2168  0.5235 -0.3357
 5480SOL    HW128076   3.144   0.108   9.908  1.2712 -0.8630  1.0135
 5480SOL    HW228077   3.233   0.215   9.882  0.5655 -0.2224 -0.0140
 5481SOL     OW28078   1.110   1.532   8.201  0.1098 -0.2194 -0.2401
 5481SOL    HW128079   1.033   1.497   8.156 -0.5960 -3.5355  3.4458
 5481SOL    HW228080   1.108   1.625   8.180  1.4580  0.0206  0.6638
 5482SOL     OW28081   0.951   4.697  13.492 -0.4269 -0.2572 -0.6094
 5482SOL    HW128082   0.887   4.627  13.502 -0.4141  0.0121  1.4774
 5482SOL    HW228083   0.920   0.028  13.547 -0.3185  0.2552 -1.2157
 5483SOL     OW28084   1.526   1.706   2.161 -0.1927 -0.0603  0.3978
 5483SOL    HW128085   1.524   1.730   2.254  1.2937 -1.2734  0.7498
 5483SOL    HW228086   1.440   1.739   2.133  0.3151  0.1544 -0.9275
 5484SOL     OW28087   1.051   0.333   8.351 -0.0007  0.3087 -0.0402
 5484SOL    HW128088   1.055   0.423   8.318 -0.8518  0.6621  0.8292
 5484SOL    HW228089   1.089   0.351   8.437  3.2823 -1.4818 -1.1263
 5485SOL     OW28090   4.195   0.235  15.336 -0.3043  0.7931  0.3062
 5485SOL    HW128091   4.157   0.157  15.378  0.1525  2.1204  3.1473
 5485SOL    HW228092   4.124   0.283  15.293 -0.9104  0.5847  1.0826
 5486SOL     OW28093   4.579   2.983   9.577 -0.3889  0.6334 -0.5986
 5486SOL    HW128094   4.515   3.023   9.517 -1.2722  0.1863  0.0466
 5486SOL    HW228095   4.519   2.947   9.643 -1.2742 -0.2086 -1.8463
 5487SOL     OW28096   4.059   0.907  12.291 -0.2861 -0.0847  0.5387
 5487SOL    HW128097   4.022   0.910  12.379  2.8692  0.8008  1.8341
 5487SOL    HW228098   3.991   0.958  12.247  0.1672  0.7786  0.8442
 5488SOL     OW28099   0.752   4.530   0.292  0.4087 -0.0352 -0.0422
 5488SOL    HW128100   0.744   4.472   0.368  4.1135 -0.4067  0.0992
 5488SOL    HW228101   0.784   4.467   0.227  0.7805  0.1870 -0.0750
 5489SOL     OW28102   3.367   1.435   7.885  0.8445  0.0051  0.0420
 5489SOL    HW128103   3.381   1.506   7.822 -0.5235 -0.6059 -0.9605
 5489SOL    HW228104   3.401   1.473   7.965  0.2225  0.6130  0.0083
 5490SOL     OW28105   3.439   4.465   5.110  0.1442 -0.3239  0.1854
 5490SOL    HW128106   3.346   4.466   5.088  0.1640 -2.6653  0.0092
 5490SOL    HW228107   3.476   4.442   5.025 -1.9908 -1.5606 -0.4153
 5491SOL     OW28108   1.693   4.171  10.918  0.2721  0.3490 -0.3890
 5491SOL    HW128109   1.718   4.263  10.911  0.4076  0.3934  0.6274
 5491SOL    HW228110   1.726   4.158  11.007  1.1165  1.0177 -0.6123
 5492SOL     OW28111   0.511   1.391   7.866  0.7274 -0.5830 -0.1597
 5492SOL    HW128112   0.464   1.344   7.935 -2.4072  0.1278 -1.7930
 5492SOL    HW228113   0.435   1.444   7.842  0.9574  0.5278  1.5707
 5493SOL     OW28114   0.468   1.789   1.656  0.7374  0.6251 -0.5608
 5493SOL    HW128115   0.482   1.694   1.651  0.6172  0.6183 -0.7456
 5493SOL    HW228116   0.535   1.807   1.591  1.9300  2.5158  1.1883
 5494SOL     OW28117   2.985   2.627   2.285  0.1118 -0.6663 -0.4047
 5494SOL    HW128118   3.062   2.570   2.279  0.5500  0.1286 -2.3224
 5494SOL    HW228119   2.923   2.573   2.334 -0.6526  1.2804  0.7359
 5495SOL     OW28120   1.758   1.032   1.768  0.0158  0.5537 -0.3589
 5495SOL    HW128121   1.766   1.093   1.695  1.2342  0.5837 -0.2008
 5495SOL    HW228122   1.676   1.058   1.810 -0.9251  2.5174 -3.3958
 5496SOL     OW28123   1.411   0.760   3.550  0.2221  0.1248  0.0623
 5496SOL    HW128124   1.428   0.718   3.634 -1.9756  0.8167  0.8299
 5496SOL    HW228125   1.429   0.677   3.504 -0.0702 -0.2789  0.6762
 5497SOL     OW28126   1.271   2.188   4.166  0.3781 -0.2768  0.6799
 5497SOL    HW128127   1.249   2.264   4.112  2.1927  0.5128  1.0556
 5497SOL    HW228128   1.241   2.213   4.253  0.2970  1.8779  0.0380
 5498SOL     OW28129   2.196   1.051  13.568  0.5406 -0.0865  0.4728
 5498SOL    HW128130   2.285   1.085  13.577  0.2977  0.9930 -1.3832
 5498SOL    HW228131   2.157   1.110  13.504 -0.2902  0.3628  1.3990
 5499SOL     OW28132   0.265   2.912   3.936  0.1348  0.0833  0.0460
 5499SOL    HW128133   0.222   2.840   3.890  1.3246 -0.4218 -0.2875
 5499SOL    HW228134   0.248   2.991   3.885 -2.3931  0.3449  1.3184
 5500SOL     OW28135   1.818   3.203  12.175 -0.4544  0.0843  0.9418
 5500SOL    HW128136   1.750   3.255  12.218  0.3303  2.4088 -0.6192
 5500SOL    HW228137   1.804   3.115  12.211 -0.6540 -1.1168 -2.0389
 5501SOL     OW28138   2.480   0.918   3.634  0.2073  0.1030 -0.1153
 5501SOL    HW128139   2.392   0.943   3.659 -0.2747 -2.9800  1.3683
 5501SOL    HW228140   2.518   0.900   3.720  1.2923 -0.7194 -0.7553
 5502SOL     OW28141   2.235   4.665   3.474 -0.8117  0.3077 -0.6943
 5502SOL    HW128142   2.326   4.636   3.486  0.5795  3.4225 -3.6501
 5502SOL    HW228143   2.191   4.581   3.460 -0.8593  0.2776 -0.3639
 5503SOL     OW28144   4.000   2.163   5.090 -0.2506  0.2785  0.0618
 5503SOL    HW128145   3.991   2.090   5.028 -2.4733  0.2758  0.3912
 5503SOL    HW228146   3.935   2.143   5.157 -0.2921 -2.1539 -0.6898
 5504SOL     OW28147   0.313   0.304  14.854 -0.5250  0.5029  0.0627
 5504SOL    HW128148   0.332   0.382  14.803  0.9852  0.1029  0.0159
 5504SOL    HW228149   0.223   0.324  14.882 -0.4713  0.5261  0.2171
 5505SOL     OW28150   0.763   1.808   1.205 -0.4493 -0.3911 -0.2732
 5505SOL    HW128151   0.837   1.819   1.145 -0.9329 -1.2226 -1.0245
 5505SOL    HW228152   0.805   1.776   1.284  0.8746 -0.2108 -0.9112
 5506SOL     OW28153   3.393   0.892  10.228 -0.0926 -0.7400 -0.2337
 5506SOL    HW128154   3.456   0.892  10.156 -1.5372  2.1243 -1.4837
 5506SOL    HW228155   3.374   0.985  10.239 -1.9527 -1.1266 -0.1947
 5507SOL     OW28156   2.262   3.052   7.701 -0.2791 -0.4132 -0.4924
 5507SOL    HW128157   2.223   3.012   7.779 -0.4601  1.3579  0.3120
 5507SOL    HW228158   2.180   3.079   7.659  0.7893  1.9840 -1.0242
 5508SOL     OW28159   3.508   2.471   4.559  0.8581 -0.0698 -0.2351
 5508SOL    HW128160   3.519   2.520   4.477  1.2795 -0.2361 -0.2770
 5508SOL    HW228161   3.415   2.487   4.573  0.9734 -1.2619  1.8064
 5509SOL     OW28162   1.701   1.874  14.915 -0.5413  0.4844 -0.1449
 5509SOL    HW128163   1.625   1.819  14.935  0.2815 -0.8752 -0.7722
 5509SOL    HW228164   1.665   1.958  14.941 -1.8166 -0.4045  0.9819
 5510SOL     OW28165   0.379   0.336   7.436  0.4986 -0.4950 -0.0629
 5510SOL    HW128166   0.332   0.287   7.369  1.0279  1.8805 -2.1721
 5510SOL    HW228167   0.316   0.404   7.457  1.3367 -0.0314  0.9611
 5511SOL     OW28168   1.288   0.629   6.144  0.3378  0.2231  0.1705
 5511SOL    HW128169   1.312   0.537   6.135 -0.9377  0.0560 -1.5808
 5511SOL    HW228170   1.363   0.679   6.112  0.5647  0.3105  0.8508
 5512SOL     OW28171   1.236   3.012  16.261  0.0680 -0.2273  0.1674
 5512SOL    HW128172   1.274   2.979  16.179  1.9349 -2.5390  1.9759
 5512SOL    HW228173   1.214   3.102  16.236 -1.7554 -0.0506  2.3938
 5513SOL     OW28174   2.997   1.860  14.011 -0.4019  0.2049  0.7897
 5513SOL    HW128175   2.949   1.785  13.976 -1.9581 -0.5949  4.6165
 5513SOL    HW228176   3.064   1.867  13.943  0.8108  0.1312  1.9748
 5514SOL     OW28177   0.910   3.122  17.459  0.1919 -0.4784  0.2700
 5514SOL    HW128178   0.838   3.137  17.398  0.9413  1.8723 -0.0779
 5514SOL    HW228179   0.974   3.193  17.443  1.2601 -1.3037  0.8960
 5515SOL     OW28180   3.628   4.542   7.785  0.5972  0.5108  0.2059
 5515SOL    HW128181   3.674   4.524   7.866  1.4702  0.3314 -0.3347
 5515SOL    HW228182   3.572   4.611   7.820 -1.2216 -2.2016  2.5969
 5516SOL     OW28183   1.321   3.221   7.996  0.2670 -0.2946 -0.0332
 5516SOL    HW128184   1.245   3.278   8.002  0.9022  0.6983 -1.5596
 5516SOL    HW228185   1.367   3.262   7.922  0.7351 -1.0986 -0.1977
 5517SOL     OW28186   4.219   1.324   8.694 -0.1229  0.0798  0.1632
 5517SOL    HW128187   4.129   1.323   8.663  0.6867 -0.5204 -2.1202
 5517SOL    HW228188   4.221   1.231   8.717 -0.3818  0.0544  0.0796
 5518SOL     OW28189   0.790   2.666   7.336  0.0961 -0.2574  0.2677
 5518SOL    HW128190   0.817   2.711   7.256 -1.8272 -0.1229 -0.3023
 5518SOL    HW228191   0.704   2.707   7.350  0.9351  1.8485 -0.7551
 5519SOL     OW28192   1.029   0.623  13.744  0.4605 -0.0494  0.8490
 5519SOL    HW128193   1.117   0.661  13.743  0.2531  0.4135 -0.7726
 5519SOL    HW228194   0.973   0.700  13.754  2.6759  1.8661 -1.5411
 5520SOL     OW28195   1.373   1.619   0.294 -0.4821 -0.1376 -0.0696
 5520SOL    HW128196   1.427   1.694   0.316 -0.6342  0.0376 -0.3027
 5520SOL    HW228197   1.435   1.547   0.279  2.0552  1.7151  1.6260
 5521SOL     OW28198   1.521   2.865   4.408 -0.1181  0.2074 -0.1631
 5521SOL    HW128199   1.505   2.772   4.393  0.0999  0.4651 -1.9616
 5521SOL    HW228200   1.511   2.903   4.321  0.3229 -0.6863 -0.5957
 5522SOL     OW28201   2.410   3.632   3.519 -0.5597  0.2569 -0.0069
 5522SOL    HW128202   2.407   3.632   3.423  2.7550 -0.2724 -0.1398
 5522SOL    HW228203   2.326   3.672   3.541 -0.7642 -0.3055  0.2420
 5523SOL     OW28204   0.167   2.907   3.021  0.2660  0.1689 -0.3081
 5523SOL    HW128205   0.102   2.976   3.008 -0.4438 -0.4245  0.0676
 5523SOL    HW228206   0.214   2.935   3.099 -1.7690 -1.5714  1.5555
 5524SOL     OW28207   4.697   2.398   9.751 -0.0691 -0.3476  0.1487
 5524SOL    HW128208   4.636   2.333   9.786  0.7359 -0.8094  0.6973
 5524SOL    HW228209   4.736   2.342   9.685  3.3330  0.3268  1.5639
 5525SOL     OW28210   3.596   1.753   3.122 -0.2688 -0.4052 -0.4337
 5525SOL    HW128211   3.587   1.693   3.196 -0.7275 -0.5408 -0.5975
 5525SOL    HW228212   3.518   1.805   3.100 -0.5625 -0.4385  0.5114
 5526SOL     OW28213   1.010   3.140   6.006 -0.0892  0.5019  0.5473
 5526SOL    HW128214   0.988   3.194   6.083  1.0807  0.2714  1.0436
 5526SOL    HW228215   1.017   3.053   6.045  0.3248  0.4529  0.3574
 5527SOL     OW28216   3.386   1.510   2.853  0.1730  0.1160  0.2486
 5527SOL    HW128217   3.316   1.567   2.886 -2.6319 -0.7093 -4.2339
 5527SOL    HW228218   3.417   1.467   2.932  0.7442 -0.1464 -0.1154
 5528SOL     OW28219   3.775   3.919   7.526 -1.1420 -0.0947 -0.5969
 5528SOL    HW128220   3.701   3.880   7.573  0.1084 -3.3366 -1.3522
 5528SOL    HW228221   3.781   3.865   7.447  2.2344  0.8833 -0.9927
 5529SOL     OW28222   1.836   3.723   9.568  0.1524  0.0058  0.4592
 5529SOL    HW128223   1.754   3.734   9.519  0.1700 -1.2458  0.1333
 5529SOL    HW228224   1.895   3.769   9.508 -0.0778 -0.0457  0.1910
 5530SOL     OW28225   1.898   3.447   5.393 -0.9191 -0.0789 -0.6466
 5530SOL    HW128226   1.844   3.416   5.465  0.0190  4.0857  1.7962
 5530SOL    HW228227   1.932   3.363   5.361 -2.9679 -0.1016 -2.7702
 5531SOL     OW28228   3.972   1.211   5.256 -0.1336 -0.1898 -0.2270
 5531SOL    HW128229   3.964   1.132   5.202 -0.0294  0.4058 -1.1224
 5531SOL    HW228230   3.913   1.176   5.323 -0.5406 -1.4062 -1.2081
 5532SOL     OW28231   3.404   2.379   0.625 -0.3209  0.3204 -0.0663
 5532SOL    HW128232   3.493   2.414   0.614 -0.3927  0.9119  1.2415
 5532SOL    HW228233   3.355   2.436   0.566  0.3040  1.1243  0.1798
 5533SOL     OW28234   1.779   3.899  16.460 -0.1587  0.0653  0.1730
 5533SOL    HW128235   1.769   3.972  16.521  0.7304  0.5274 -0.2414
 5533SOL    HW228236   1.844   3.928  16.396  0.7072 -3.7169 -0.6281
 5534SOL     OW28237   1.653   2.586  16.119  0.1757  0.5417 -0.1022
 5534SOL    HW128238   1.701   2.624  16.046  0.4626 -0.3880 -0.3966
 5534SOL    HW228239   1.726   2.557  16.175 -0.8385  1.4004  1.6782
 5535SOL     OW28240   1.414   1.458   3.334 -0.4355  0.1009  0.0111
 5535SOL    HW128241   1.365   1.444   3.253 -1.3254  1.4558  0.3185
 5535SOL    HW228242   1.450   1.370   3.349 -0.7484 -0.0830 -0.3320
 5536SOL     OW28243   1.627   4.428   4.037 -0.0407 -0.0506  0.0006
 5536SOL    HW128244   1.610   4.509   3.989  1.8331 -0.8678 -2.0079
 5536SOL    HW228245   1.669   4.367   3.977  0.8850  1.3448 -0.7673
 5537SOL     OW28246   1.393   0.640   7.690 -0.0642 -0.1460  0.0250
 5537SOL    HW128247   1.415   0.567   7.632 -0.0517  0.0190 -0.1787
 5537SOL    HW228248   1.325   0.683   7.639  1.0135  0.0551 -1.2589
 5538SOL     OW28249   2.050   4.688   0.237 -0.6532 -0.3001 -0.2034
 5538SOL    HW128250   2.065   0.033   0.279  0.4797 -0.8813  0.5785
 5538SOL    HW228251   2.027   4.628   0.307  0.5359  2.0742  2.2196
 5539SOL     OW28252   3.370   3.965   7.047 -0.2456  0.5744  0.1165
 5539SOL    HW128253   3.326   3.945   6.964  0.4639 -3.3955  0.6765
 5539SOL    HW228254   3.343   4.055   7.064 -1.6350  0.0932  0.4233
 5540SOL     OW28255   0.374   0.958   8.743  0.4965 -0.5501  0.7280
 5540SOL    HW128256   0.418   1.040   8.764  0.6794 -0.7531  1.1525
 5540SOL    HW228257   0.396   0.891   8.808  1.2349 -0.6995  0.3255
 5541SOL     OW28258   3.110   1.210   7.960  0.2330 -0.3659  0.3064
 5541SOL    HW128259   3.100   1.116   7.971 -2.0692 -0.2632 -0.8790
 5541SOL    HW228260   3.205   1.214   7.970  0.5134 -1.3906 -1.7642
 5542SOL     OW28261   0.488   3.000   8.806 -0.0513 -0.5063 -0.4689
 5542SOL    HW128262   0.440   3.022   8.727 -3.1969  1.9635  2.1747
 5542SOL    HW228263   0.566   2.954   8.775 -0.5481  0.1960 -2.7121
 5543SOL     OW28264   4.058   1.161   9.994 -0.1705  0.1524 -0.6587
 5543SOL    HW128265   4.052   1.245  10.040  0.2798 -0.0453 -0.2412
 5543SOL    HW228266   3.972   1.158   9.951 -0.1856 -0.7048 -0.5573
 5544SOL     OW28267   3.202   1.045  15.801  0.4368 -0.8190 -0.7870
 5544SOL    HW128268   3.126   1.082  15.845  0.2925 -2.9978  0.8072
 5544SOL    HW228269   3.161   1.013  15.720 -0.1596 -1.5483 -0.1989
 5545SOL     OW28270   4.238   4.501   6.641  0.0277  0.1555 -0.8161
 5545SOL    HW128271   4.282   4.475   6.561 -0.2480 -1.3938 -0.4618
 5545SOL    HW228272   4.257   4.595   6.641 -0.7852  0.3212 -0.5308
 5546SOL     OW28273   2.597   4.068   2.974  0.0084 -0.1406 -0.2713
 5546SOL    HW128274   2.602   3.979   3.009 -1.6150 -0.3099 -0.4809
 5546SOL    HW228275   2.533   4.047   2.906 -1.3909 -2.8700  1.8898
 5547SOL     OW28276   1.860   0.469   6.622  0.2970  0.0320 -0.8435
 5547SOL    HW128277   1.808   0.389   6.620  1.7172 -0.9090  0.3732
 5547SOL    HW228278   1.789   0.518   6.664  1.9099  1.2572  0.4656
 5548SOL     OW28279   4.439   2.015   1.712 -0.2341 -0.0780 -0.0205
 5548SOL    HW128280   4.525   2.020   1.753  1.4650 -3.2511 -3.1376
 5548SOL    HW228281   4.393   2.092   1.744 -2.4990 -1.0717 -0.8626
 5549SOL     OW28282   1.507   0.132   7.881  0.4028 -0.6150 -0.2144
 5549SOL    HW128283   1.436   0.196   7.886  2.7064  2.0654 -1.6116
 5549SOL    HW228284   1.472   0.071   7.945 -0.1768  0.0973  0.1470
 5550SOL     OW28285   1.933   3.037  16.226 -0.0028  0.0017  0.1285
 5550SOL    HW128286   1.859   3.010  16.172 -2.0093  1.6914  2.0085
 5550SOL    HW228287   1.954   3.118  16.180 -0.0334 -0.3970 -0.5788
 5551SOL     OW28288   3.931   2.741  12.777  0.7054  0.5790 -0.2930
 5551SOL    HW128289   3.863   2.769  12.716 -1.4929  1.5150  2.5707
 5551SOL    HW228290   3.914   2.648  12.757 -1.1865  0.9537 -0.4905
 5552SOL     OW28291   4.727   1.061   5.325  0.6193  1.2307  0.5261
 5552SOL    HW128292   4.697   0.970   5.335  2.4111  0.6013  0.1512
 5552SOL    HW228293   4.675   1.092   5.399 -0.4369 -0.0921  0.3498
 5553SOL     OW28294   0.519   0.672   6.078  0.3614  0.2556  0.3105
 5553SOL    HW128295   0.450   0.671   6.144 -0.3157 -2.4965 -0.4708
 5553SOL    HW228296   0.485   0.746   6.027  0.7252  0.5645  0.5104
 5554SOL     OW28297   4.688   2.425   7.691  0.4178 -0.2289 -0.1915
 5554SOL    HW128298   0.020   2.429   7.753  0.7791  0.4993 -0.6497
 5554SOL    HW228299   4.696   2.510   7.648 -0.7540 -0.3735 -0.6873
 5555SOL     OW28300   4.231   1.980   5.164 -0.4177 -0.0869  0.0493
 5555SOL    HW128301   4.141   2.008   5.145 -0.2460  0.0711 -0.5378
 5555SOL    HW228302   4.224   1.981   5.259 -1.3351 -2.2227  0.0147
 5556SOL     OW28303   0.806   3.003   7.850  0.4497  0.0487  0.2994
 5556SOL    HW128304   0.794   2.910   7.830 -0.9275  0.4895 -0.9555
 5556SOL    HW228305   0.796   3.053   7.769  1.7008 -0.4716 -0.1744
 5557SOL     OW28306   4.596   4.128  17.745 -0.8290  0.2462 -0.3308
 5557SOL    HW128307   4.631   4.078  17.671 -3.6466 -0.6073 -1.0849
 5557SOL    HW228308   4.503   4.138  17.723 -0.5348  0.3769 -1.5428
 5558SOL     OW28309   4.063   2.587   2.725 -0.8411  0.0971 -0.0126
 5558SOL    HW128310   4.147   2.556   2.760 -0.6652  0.5403 -0.0408
 5558SOL    HW228311   4.104   2.663   2.683 -0.4782  0.0025  0.1753
 5559SOL     OW28312   1.964   4.718  13.659 -0.3355 -0.2401  0.4254
 5559SOL    HW128313   1.940   4.626  13.649 -2.0107  0.1723  0.5393
 5559SOL    HW228314   1.878   0.019  13.656  0.3444  1.0543 -1.2322
 5560SOL     OW28315   0.336   2.698   2.951  0.1604  0.8012  0.2913
 5560SOL    HW128316   0.374   2.766   2.895  1.3295  0.0032  0.1329
 5560SOL    HW228317   0.243   2.722   2.961  0.3596  1.9329 -0.4805
 5561SOL     OW28318   1.112   1.821   8.186  0.2853  0.2175 -0.1446
 5561SOL    HW128319   1.059   1.841   8.263  0.0727 -0.7915 -0.0395
 5561SOL    HW228320   1.058   1.844   8.111 -1.3418 -2.7092  0.1248
 5562SOL     OW28321   0.594   4.680   7.952 -0.4034  0.0005  0.3116
 5562SOL    HW128322   0.581   4.691   8.047  0.9226  0.1673  0.4763
 5562SOL    HW228323   0.578   4.586   7.943  0.2771 -0.1434  0.6005
 5563SOL     OW28324   1.165   3.761  10.081  0.0722 -0.0957 -0.1716
 5563SOL    HW128325   1.100   3.766  10.151  0.4633  0.0955  0.1805
 5563SOL    HW228326   1.223   3.690  10.110  0.5411  0.4025  0.1099
 5564SOL     OW28327   3.220   1.815   1.402  0.0602  0.2394 -0.0257
 5564SOL    HW128328   3.252   1.868   1.474 -0.8521  1.1044 -0.2512
 5564SOL    HW228329   3.266   1.852   1.326 -0.4551 -0.2787 -0.5937
 5565SOL     OW28330   2.138   2.299   8.657 -0.1717  0.0606  0.2226
 5565SOL    HW128331   2.215   2.290   8.601 -1.4502 -0.2302 -1.4819
 5565SOL    HW228332   2.130   2.394   8.646  1.4849  0.3868  1.8255
 5566SOL     OW28333   4.494   1.121  13.549  0.2103 -0.4322 -0.6114
 5566SOL    HW128334   4.583   1.151  13.531 -0.1688 -0.2986 -2.2698
 5566SOL    HW228335   4.504   1.027  13.566  0.2339 -0.3395 -0.1141
 5567SOL     OW28336   2.523   0.066   3.478  0.2670  0.6797  0.1677
 5567SOL    HW128337   2.572   0.148   3.475  0.0134  0.7931 -0.9364
 5567SOL    HW228338   2.494   0.060   3.387 -1.9611 -0.8348  0.9730
 5568SOL     OW28339   0.419   0.267   6.287 -0.1118 -0.2409 -0.2433
 5568SOL    HW128340   0.449   0.177   6.271 -0.4485 -0.5673  0.9387
 5568SOL    HW228341   0.432   0.310   6.203 -0.7875 -1.1021 -0.7848
 5569SOL     OW28342   2.800   0.281   9.693  0.2804 -0.2195 -0.2428
 5569SOL    HW128343   2.726   0.337   9.668  0.9736  1.0021  0.4494
 5569SOL    HW228344   2.766   0.195   9.666 -0.0366 -0.0636 -0.3403
 5570SOL     OW28345   1.169   2.744   2.835 -0.2480  0.3043  0.4170
 5570SOL    HW128346   1.201   2.674   2.892 -0.0495  0.0597  0.0048
 5570SOL    HW228347   1.113   2.693   2.776 -0.0505 -1.4122  1.7113
 5571SOL     OW28348   0.666   2.435   7.405 -0.3546  0.1060 -0.1266
 5571SOL    HW128349   0.712   2.509   7.364 -1.7802  0.9672 -0.1627
 5571SOL    HW228350   0.578   2.441   7.370 -0.2881 -3.1304 -0.7883
 5572SOL     OW28351   1.990   1.161   1.539  0.0307  0.5735  0.1652
 5572SOL    HW128352   2.009   1.090   1.600 -1.3366  1.3208  1.4821
 5572SOL    HW228353   2.054   1.146   1.470 -1.0458 -2.3421 -0.1754
 5573SOL     OW28354   2.118   3.991   2.377 -0.4511 -0.4437 -0.3021
 5573SOL    HW128355   2.101   3.902   2.346  3.3454 -0.4215 -2.5579
 5573SOL    HW228356   2.046   4.049   2.353 -0.5443 -1.1060 -1.6409
 5574SOL     OW28357   3.009   3.386   4.818  0.0164  0.1806  0.1073
 5574SOL    HW128358   3.022   3.357   4.728  2.1767  0.1139  0.4353
 5574SOL    HW228359   2.916   3.370   4.832  0.7693 -1.7426  3.0216
 5575SOL     OW28360   3.239   1.220  10.849  0.2781 -0.3536 -0.1063
 5575SOL    HW128361   3.220   1.148  10.790 -2.4795  1.1152 -0.9849
 5575SOL    HW228362   3.181   1.194  10.921 -0.2055 -2.1150 -1.1513
 5576SOL     OW28363   2.771   0.996  10.115  0.0030  0.3193 -0.3163
 5576SOL    HW128364   2.840   0.973  10.053  1.2001  0.1134  1.0828
 5576SOL    HW228365   2.746   0.908  10.142 -0.2308  0.7172  0.7663
 5577SOL     OW28366   1.940   1.597  13.482 -0.2327 -0.0226  0.5295
 5577SOL    HW128367   1.896   1.574  13.564 -1.2844  1.0889  0.2747
 5577SOL    HW228368   1.906   1.535  13.417 -1.5871 -0.9124  2.0744
 5578SOL     OW28369   3.440   3.230   1.691 -0.4064 -0.9785 -0.0803
 5578SOL    HW128370   3.457   3.232   1.785 -1.0111  1.1467 -0.0126
 5578SOL    HW228371   3.373   3.162   1.688 -1.1855 -0.1720 -0.8468
 5579SOL     OW28372   3.449   3.133   7.868 -0.3446 -0.7667  0.5628
 5579SOL    HW128373   3.441   3.180   7.785  0.0634 -1.6244  0.0382
 5579SOL    HW228374   3.493   3.191   7.930 -0.2420 -3.3907  2.9586
 5580SOL     OW28375   0.827   2.116   8.986 -0.4985 -0.6643  0.2087
 5580SOL    HW128376   0.799   2.152   9.071  1.1680  0.1851  0.4031
 5580SOL    HW228377   0.770   2.178   8.940 -1.4900 -1.9397 -0.2739
 5581SOL     OW28378   1.137   4.544  16.525  0.2353  0.1929 -0.3186
 5581SOL    HW128379   1.143   4.473  16.462  0.5451 -0.6915  0.7113
 5581SOL    HW228380   1.231   4.559  16.525  0.5749 -2.0157 -2.0774
 5582SOL     OW28381   2.412   1.854  16.387  0.1694  0.1860 -0.0163
 5582SOL    HW128382   2.497   1.824  16.418  0.0503  1.0194  1.1303
 5582SOL    HW228383   2.354   1.850  16.463  0.6853 -3.2465  0.1591
 5583SOL     OW28384   3.503   2.150   3.945 -1.0309  0.0949 -0.2257
 5583SOL    HW128385   3.471   2.193   3.865 -0.0603  0.8013 -0.2460
 5583SOL    HW228386   3.477   2.060   3.925  0.6929 -0.7945  1.5739
 5584SOL     OW28387   4.383   2.644   0.751 -0.1910  0.0839  0.1819
 5584SOL    HW128388   4.351   2.643   0.661 -0.2095  0.9943  0.1856
 5584SOL    HW228389   4.311   2.693   0.790 -0.8676 -1.4592  0.8738
 5585SOL     OW28390   1.775   1.525  14.769  0.0462 -0.7357  0.0394
 5585SOL    HW128391   1.869   1.507  14.770  0.3213  0.5764 -2.2149
 5585SOL    HW228392   1.750   1.520  14.861 -0.0501  0.6332  0.0994
 5586SOL     OW28393   3.028   3.787   3.451  0.6265 -0.2801 -0.3183
 5586SOL    HW128394   3.025   3.841   3.529  0.8510 -0.1173 -0.4226
 5586SOL    HW228395   3.079   3.852   3.403 -0.0088 -0.0276 -0.6447
 5587SOL     OW28396   2.624   4.430   6.969  0.6010 -0.3294 -0.2171
 5587SOL    HW128397   2.706   4.392   7.001  0.1853  0.1521  1.4285
 5587SOL    HW228398   2.655   4.494   6.905  1.1710  0.8234  1.2156
 5588SOL     OW28399   3.141   3.944  15.067 -0.1950 -0.5357  0.6052
 5588SOL    HW128400   3.074   4.005  15.034  1.3066 -0.3051 -2.0539
 5588SOL    HW228401   3.099   3.869  15.024  0.1418 -0.7444  0.6416
 5589SOL     OW28402   1.718   3.291   5.536 -0.2187 -0.3188 -0.4837
 5589SOL    HW128403   1.742   3.227   5.603  0.0853 -0.7745 -1.0371
 5589SOL    HW228404   1.722   3.236   5.458 -1.8859  0.6748 -1.2811
 5590SOL     OW28405   1.344   2.225  11.735 -0.1342  0.3372 -0.2205
 5590SOL    HW128406   1.297   2.304  11.710 -1.0280 -0.3287 -0.6521
 5590SOL    HW228407   1.270   2.185  11.780  1.0963 -0.5080  1.0471
 5591SOL     OW28408   3.201   3.052   4.657  0.0372 -0.4220 -0.4144
 5591SOL    HW128409   3.292   3.021   4.654 -0.0840 -0.6950 -1.4476
 5591SOL    HW228410   3.214   3.147   4.662  0.8088 -0.6884  2.2460
 5592SOL     OW28411   0.533   4.347   5.030 -0.2818  0.6264 -0.0558
 5592SOL    HW128412   0.596   4.397   5.081 -1.7110  1.1671  1.1978
 5592SOL    HW228413   0.478   4.420   5.002  0.1620  1.7834  2.0878
 5593SOL     OW28414   2.452   0.693   4.289  0.1655 -0.5667  0.3455
 5593SOL    HW128415   2.437   0.786   4.302  0.5377 -0.8469  2.6455
 5593SOL    HW228416   2.546   0.688   4.308 -0.1230  0.8261  2.1236
 5594SOL     OW28417   2.184   0.683   4.942 -0.4489  0.3553 -0.1362
 5594SOL    HW128418   2.154   0.727   5.022 -1.5948  0.4548 -0.6185
 5594SOL    HW228419   2.170   0.746   4.872 -2.4817 -1.3037 -1.2295
 5595SOL     OW28420   0.668   4.013   5.982 -0.4202 -0.1712 -0.3391
 5595SOL    HW128421   0.666   3.975   6.069 -0.2142 -0.5422 -0.4969
 5595SOL    HW228422   0.573   4.025   5.978 -0.3979  0.0485 -0.2283
 5596SOL     OW28423   0.779   4.020   4.636  0.6350 -0.5332 -0.1977
 5596SOL    HW128424   0.852   4.039   4.696  0.7108  0.2301 -0.5358
 5596SOL    HW228425   0.713   4.084   4.662  2.3006 -0.2759  3.5034
 5597SOL     OW28426   0.158   0.790   1.567  0.0566  0.2733  0.2439
 5597SOL    HW128427   0.081   0.816   1.515  2.1428 -0.1265 -3.0499
 5597SOL    HW228428   0.184   0.871   1.610  1.7161  0.4861 -1.1567
 5598SOL     OW28429   2.413   3.388   2.681 -0.5687 -0.1922 -0.0315
 5598SOL    HW128430   2.364   3.311   2.655  0.1957 -0.5248 -0.5002
 5598SOL    HW228431   2.464   3.414   2.604  0.0044 -1.4442 -0.0758
 5599SOL     OW28432   3.724   0.530   9.386 -0.0975  0.2322  0.3184
 5599SOL    HW128433   3.796   0.477   9.418 -0.0847 -0.3297 -0.6378
 5599SOL    HW228434   3.748   0.527   9.294 -0.3827  0.9424  0.2193
 5600SOL     OW28435   4.060   0.774   2.535 -0.3661 -0.4729 -0.3135
 5600SOL    HW128436   4.133   0.835   2.540 -0.2236 -0.5591 -1.2379
 5600SOL    HW228437   3.995   0.814   2.593  0.1732 -1.4508  0.9529
 5601SOL     OW28438   4.032   4.600   2.523  0.3762 -0.9581 -0.1172
 5601SOL    HW128439   4.051   4.666   2.590  1.6142 -0.9965 -0.4512
 5601SOL    HW228440   3.936   4.608   2.525  0.5411  1.2472 -0.4396
 5602SOL     OW28441   0.183   3.362   7.594  0.3987  0.0396 -0.5655
 5602SOL    HW128442   0.223   3.381   7.680 -0.1077  0.3989 -0.4122
 5602SOL    HW228443   0.248   3.387   7.529  0.8741  1.7946  0.5814
 5603SOL     OW28444   1.456   0.222   3.701  0.8712 -0.3676  0.6003
 5603SOL    HW128445   1.385   0.259   3.648  1.6873  0.0584 -0.1836
 5603SOL    HW228446   1.497   0.170   3.632 -0.5462  0.6465 -1.0296
 5604SOL     OW28447   2.982   2.365   6.232  0.4616 -0.5489 -0.4268
 5604SOL    HW128448   2.970   2.448   6.279 -0.1158 -1.3606  0.8587
 5604SOL    HW228449   2.898   2.325   6.256  0.9327 -0.1322  1.9151
 5605SOL     OW28450   4.046   0.886   3.425 -0.2079 -0.2215  0.1605
 5605SOL    HW128451   4.117   0.944   3.453 -0.3208  0.1861 -0.3877
 5605SOL    HW228452   4.089   0.806   3.454  0.3764 -0.3054 -0.9611
 5606SOL     OW28453   0.084   0.883   4.060  0.0362  0.3037  0.2618
 5606SOL    HW128454   0.005   0.931   4.088  0.9317  1.6396  0.4791
 5606SOL    HW228455   0.138   0.960   4.045 -1.5017  1.7596  2.0396
 5607SOL     OW28456   3.814   1.494   9.234 -0.5481 -0.1506  0.3305
 5607SOL    HW128457   3.791   1.577   9.193 -1.1967  0.4689  1.9369
 5607SOL    HW228458   3.775   1.512   9.320 -0.3655 -2.4352  0.8747
 5608SOL     OW28459   0.338   3.434  14.455  0.3253  0.3704 -0.2906
 5608SOL    HW128460   0.333   3.430  14.551  1.3454 -0.7294 -0.2898
 5608SOL    HW228461   0.268   3.375  14.426  1.8466 -2.3046  1.5103
 5609SOL     OW28462   0.165   2.009   4.251 -0.2917  0.4591 -0.0567
 5609SOL    HW128463   0.220   1.931   4.260  0.5419  1.0292 -0.2405
 5609SOL    HW228464   0.200   2.054   4.175 -2.1583  1.9627 -0.0161
 5610SOL     OW28465   2.908   0.882   6.359 -0.0791 -0.1322  0.2501
 5610SOL    HW128466   2.959   0.854   6.435 -0.8616 -2.0859  0.0702
 5610SOL    HW228467   2.969   0.912   6.292  1.4971  0.4806  1.9388
 5611SOL     OW28468   4.130   0.601   5.637 -0.2288  0.0364  0.2839
 5611SOL    HW128469   4.042   0.639   5.641  0.7378  2.4765 -1.0497
 5611SOL    HW228470   4.118   0.517   5.680  1.5325  0.5771  1.8464
 5612SOL     OW28471   3.452   0.184   9.257 -0.0955 -0.1847 -0.6624
 5612SOL    HW128472   3.540   0.154   9.282 -1.2212 -0.7171  2.6852
 5612SOL    HW228473   3.468   0.248   9.189 -0.5965  0.4402 -0.1954
 5613SOL     OW28474   1.594   0.428   6.491  0.3262  0.1440 -0.0579
 5613SOL    HW128475   1.577   0.359   6.556 -0.7956  0.3003 -0.1951
 5613SOL    HW228476   1.543   0.498   6.532  3.0026  0.9432  1.9653
 5614SOL     OW28477   0.088   4.722  12.296  0.1399 -0.6255  0.9410
 5614SOL    HW128478   0.092   4.630  12.323 -0.4213 -1.1604 -0.8344
 5614SOL    HW228479   0.141   4.721  12.217 -0.0640 -2.6985  0.8365
 5615SOL     OW28480   3.297   4.136   0.422 -0.1429 -0.0247 -0.4736
 5615SOL    HW128481   3.244   4.175   0.491  1.2697  0.8342  0.1265
 5615SOL    HW228482   3.287   4.043   0.441  0.9616 -0.1024 -0.2801
 5616SOL     OW28483   4.528   2.371  14.264  0.4749 -0.2826  0.5394
 5616SOL    HW128484   4.553   2.458  14.295  1.3141  0.0015 -0.9778
 5616SOL    HW228485   4.490   2.335  14.344 -0.5730  0.2295  0.2661
 5617SOL     OW28486   0.503   3.567  14.297 -0.3465 -0.0744 -0.1840
 5617SOL    HW128487   0.444   3.502  14.334 -0.8159 -0.4049 -1.5313
 5617SOL    HW228488   0.579   3.510  14.301  0.2515  0.5773 -2.2442
 5618SOL     OW28489   4.116   4.209  15.804  0.2293  0.0238  0.5093
 5618SOL    HW128490   4.060   4.250  15.870  0.7421 -0.8163  1.4692
 5618SOL    HW228491   4.171   4.277  15.765  1.3910  0.1572  2.3941
 5619SOL     OW28492   0.250   3.536   6.402  0.1331 -0.1782  0.2408
 5619SOL    HW128493   0.316   3.513   6.468 -2.3728 -2.1979  2.0123
 5619SOL    HW228494   0.287   3.477   6.337 -0.9722 -0.3405 -0.2361
 5620SOL     OW28495   0.496   4.738   6.367 -0.0415  0.2344  0.7803
 5620SOL    HW128496   0.554   4.713   6.294  0.1655  1.1904  0.6264
 5620SOL    HW228497   0.424   4.682   6.339  0.0670  0.6347 -0.2955
 5621SOL     OW28498   4.721   2.518  11.797 -0.5256  0.0338 -0.3731
 5621SOL    HW128499   0.019   2.431  11.791 -1.5182 -0.5265  1.2323
 5621SOL    HW228500   0.027   2.572  11.733 -0.0659 -1.2648 -1.1169
 5622SOL     OW28501   1.322   2.214   0.598 -0.0864 -0.4558  0.4040
 5622SOL    HW128502   1.257   2.280   0.572  0.5814  0.0122 -0.0681
 5622SOL    HW228503   1.356   2.261   0.674 -1.0276  1.7327 -0.5241
 5623SOL     OW28504   1.650   0.237   1.956 -0.4421 -0.1491  0.1467
 5623SOL    HW128505   1.683   0.307   1.900 -1.2242  0.0687 -0.0440
 5623SOL    HW228506   1.555   0.246   1.949 -0.0949  2.0230 -1.6113
 5624SOL     OW28507   3.152   3.540   3.487 -0.4929  0.5978 -0.9677
 5624SOL    HW128508   3.246   3.549   3.502 -0.3212 -2.3029 -0.1968
 5624SOL    HW228509   3.120   3.630   3.478 -2.5158  0.0036  0.5116
 5625SOL     OW28510   0.534   0.840   4.621 -0.2220 -0.8953  0.0171
 5625SOL    HW128511   0.515   0.844   4.527 -1.3225 -0.5062  0.2658
 5625SOL    HW228512   0.598   0.769   4.619 -0.3369 -1.0317  1.1427
 5626SOL     OW28513   3.462   1.126  13.720 -0.2844  0.6370 -0.6117
 5626SOL    HW128514   3.441   1.214  13.690  0.9075 -0.0317 -3.4505
 5626SOL    HW228515   3.418   1.128  13.804  0.4900  1.3287 -0.2260
 5627SOL     OW28516   2.727   2.668   1.333  0.0424  0.1112  0.1805
 5627SOL    HW128517   2.766   2.707   1.411 -2.0473  0.7303  0.9068
 5627SOL    HW228518   2.652   2.727   1.328 -1.1051 -1.1318  2.4358
 5628SOL     OW28519   0.243   2.281  15.758  0.7232 -0.3321  0.2159
 5628SOL    HW128520   0.327   2.313  15.791  0.6880 -0.3882  0.3584
 5628SOL    HW228521   0.267   2.269  15.666  1.1134  1.3499  0.0873
 5629SOL     OW28522   0.487   3.198   5.456 -0.5526 -0.4157  0.1460
 5629SOL    HW128523   0.578   3.227   5.445 -1.3502  2.3380  0.8109
 5629SOL    HW228524   0.496   3.107   5.428 -0.1412 -0.9718  2.0988
 5630SOL     OW28525   3.363   1.066   3.260 -0.0498 -0.4200  0.5828
 5630SOL    HW128526   3.457   1.083   3.263 -0.1359  0.4185 -2.1449
 5630SOL    HW228527   3.360   0.985   3.210 -0.9533  0.0504 -0.1303
 5631SOL     OW28528   3.044   1.981   9.635  0.0900 -0.6365 -0.2642
 5631SOL    HW128529   3.112   1.947   9.694 -1.2255 -0.2386  1.4767
 5631SOL    HW228530   3.083   2.068   9.626 -1.4116 -0.0110 -0.6992
 5632SOL     OW28531   2.098   3.442   0.641  0.6975 -0.2888  0.0867
 5632SOL    HW128532   2.158   3.505   0.601 -1.2814  1.8541  0.4874
 5632SOL    HW228533   2.104   3.471   0.732 -1.2427 -0.5639  0.3089
 5633SOL     OW28534   4.507   3.282   8.785 -0.3085 -0.2497 -0.7470
 5633SOL    HW128535   4.506   3.361   8.839  1.0510  0.0911 -1.2027
 5633SOL    HW228536   4.524   3.219   8.855  0.4540  0.5283 -0.2276
 5634SOL     OW28537   0.198   2.660   6.945 -0.0282 -0.3236  0.1963
 5634SOL    HW128538   0.164   2.748   6.963 -1.2643 -0.6044 -0.7859
 5634SOL    HW228539   0.168   2.637   6.858 -0.4240  1.1713 -0.0658
 5635SOL     OW28540   0.005   0.511   5.851 -0.3683  0.0975  0.1580
 5635SOL    HW128541   4.695   0.461   5.915  0.1030 -0.2323  0.2725
 5635SOL    HW228542   0.040   0.436   5.802  0.0660 -0.0083  0.6244
 5636SOL     OW28543   0.747   1.165   6.660 -0.1236  0.0214  0.2773
 5636SOL    HW128544   0.670   1.160   6.604  0.9799 -0.6301 -1.1605
 5636SOL    HW228545   0.790   1.083   6.639 -1.4689  0.1714 -3.1016
 5637SOL     OW28546   0.971   4.725  12.959 -0.1107  0.0321 -0.2858
 5637SOL    HW128547   0.953   4.662  13.029 -1.8956  1.8324  0.8703
 5637SOL    HW228548   0.924   4.679  12.890  3.9103  0.8574 -3.5453
 5638SOL     OW28549   2.211   0.665  13.999  0.5735  0.1769 -0.0840
 5638SOL    HW128550   2.141   0.719  13.962  0.9975  0.0602 -1.0371
 5638SOL    HW228551   2.294   0.711  14.002  0.3357  0.6385 -0.6560
 5639SOL     OW28552   0.655   1.824  17.577  0.3735  0.1591 -0.0373
 5639SOL    HW128553   0.623   1.756  17.636  0.8816  0.4629  0.5936
 5639SOL    HW228554   0.638   1.903  17.629 -1.4726  0.0871 -0.5391
 5640SOL     OW28555   1.821   0.368  13.708  0.6855  0.6204  0.2215
 5640SOL    HW128556   1.903   0.326  13.734  1.4248 -0.3737 -3.7426
 5640SOL    HW228557   1.852   0.419  13.633  1.0493 -1.5771 -1.1024
 5641SOL     OW28558   2.059   1.941   2.857 -0.2327  0.4756 -0.1398
 5641SOL    HW128559   2.096   1.997   2.925  0.2052  0.0945 -0.0663
 5641SOL    HW228560   2.140   1.904   2.821 -1.0794 -1.3067 -0.1920
 5642SOL     OW28561   4.697   3.504  17.750 -0.1807  0.3213  0.2383
 5642SOL    HW128562   0.039   3.456  17.750 -0.8691 -0.8614  0.1138
 5642SOL    HW228563   4.699   3.552  17.667 -0.7421 -3.8828 -2.1871
 5643SOL     OW28564   1.881   0.735   6.939 -0.1370 -0.0426  0.0009
 5643SOL    HW128565   1.920   0.773   7.017  0.7385 -0.8307 -0.0473
 5643SOL    HW228566   1.945   0.666   6.920 -0.9377 -1.3050  1.8728
 5644SOL     OW28567   2.654   1.012   6.176  0.0911 -0.0204 -0.1754
 5644SOL    HW128568   2.713   1.074   6.219 -1.9025  0.1519  2.3157
 5644SOL    HW228569   2.629   0.957   6.250  0.5408  0.5897  0.4230
 5645SOL     OW28570   4.547   4.173   7.827 -0.5928  0.4244 -0.3127
 5645SOL    HW128571   4.587   4.260   7.830  0.5666 -0.0408 -2.3734
 5645SOL    HW228572   4.464   4.192   7.872 -2.0889  0.6775 -3.2007
 5646SOL     OW28573   4.569   1.477   3.507  0.2371 -0.1512  0.6784
 5646SOL    HW128574   4.529   1.436   3.584 -1.4818 -0.2778 -0.2959
 5646SOL    HW228575   4.610   1.548   3.557  0.5989  0.4753 -0.4925
 5647SOL     OW28576   0.531   0.749   1.926  0.1242 -0.5238  0.0050
 5647SOL    HW128577   0.445   0.787   1.938 -0.1773 -0.8083 -1.2181
 5647SOL    HW228578   0.519   0.664   1.968 -0.2357  0.8267  2.6534
 5648SOL     OW28579   2.713   0.620   6.447 -0.1867  0.1193  0.9302
 5648SOL    HW128580   2.673   0.576   6.522 -4.3435 -1.7608 -2.4385
 5648SOL    HW228581   2.642   0.676   6.415  0.7352  0.2529 -0.8517
 5649SOL     OW28582   3.315   0.018   4.130 -0.2460 -0.4798  0.5115
 5649SOL    HW128583   3.279   0.079   4.193  0.3222 -2.2461  2.5459
 5649SOL    HW228584   3.307   4.677   4.179 -0.1590  0.1183  1.5067
 5650SOL     OW28585   1.111   2.247  11.130  0.5113 -0.5264 -0.2860
 5650SOL    HW128586   1.137   2.176  11.189 -1.9367 -0.0814  1.3290
 5650SOL    HW228587   1.191   2.272  11.084 -0.1490  0.7895 -0.7038
 5651SOL     OW28588   2.700   2.066  11.497 -0.3187 -0.5386 -0.1779
 5651SOL    HW128589   2.696   1.977  11.531 -1.2739 -2.3646 -5.0408
 5651SOL    HW228590   2.779   2.105  11.535 -1.2333  2.0954 -0.9976
 5652SOL     OW28591   0.426   1.473  17.178 -0.2556 -0.4980 -0.0578
 5652SOL    HW128592   0.361   1.465  17.108 -0.1760  0.6974 -0.2727
 5652SOL    HW228593   0.433   1.569  17.173 -0.0255 -0.5263 -0.2649
 5653SOL     OW28594   3.534   2.750   7.792  0.2248  0.3113  0.0968
 5653SOL    HW128595   3.605   2.709   7.743  0.3276  0.5205  0.0705
 5653SOL    HW228596   3.525   2.692   7.868  1.3884  0.8200  0.6240
 5654SOL     OW28597   0.779   4.184   4.122  0.1134  0.1727 -0.5159
 5654SOL    HW128598   0.872   4.188   4.142  0.0718  1.3470 -0.5688
 5654SOL    HW228599   0.750   4.217   4.207 -0.6851  0.5075 -0.9192
 5655SOL     OW28600   4.126   2.254   8.458  0.0739  0.1393 -0.1223
 5655SOL    HW128601   4.080   2.242   8.375  0.0046  1.7095 -0.3058
 5655SOL    HW228602   4.202   2.198   8.441 -0.5694 -0.2829 -1.6674
 5656SOL     OW28603   2.708   1.658   6.292 -0.2624 -0.0009  0.0652
 5656SOL    HW128604   2.709   1.652   6.388 -1.7816  0.4013  0.1164
 5656SOL    HW228605   2.773   1.593   6.267  0.1350  0.6100 -0.4692
 5657SOL     OW28606   3.638   4.627  12.086  0.0744  0.6895  0.1909
 5657SOL    HW128607   3.623   4.667  12.000 -0.3396 -0.8268 -0.4601
 5657SOL    HW228608   3.724   4.590  12.065  0.6033  1.0700  1.7448
 5658SOL     OW28609   4.183   3.291   8.334 -0.0969  0.3772 -0.2223
 5658SOL    HW128610   4.109   3.319   8.387  0.1820  0.4730  0.1162
 5658SOL    HW228611   4.142   3.294   8.247 -1.7628  1.7085  0.6132
 5659SOL     OW28612   1.346   0.951   6.381 -0.6537  0.0134  0.8384
 5659SOL    HW128613   1.400   0.960   6.302  0.5554  1.6575  1.8407
 5659SOL    HW228614   1.403   0.973   6.455 -1.0065 -0.3220  1.2044
 5660SOL     OW28615   0.734   0.754   3.403 -0.1308  0.6409 -0.5679
 5660SOL    HW128616   0.717   0.663   3.429 -0.4863  0.6222 -0.8621
 5660SOL    HW228617   0.706   0.751   3.312 -0.8095  1.0287 -0.3766
 5661SOL     OW28618   0.837   1.550   2.406 -0.5888  0.0787  0.1151
 5661SOL    HW128619   0.865   1.537   2.316 -2.1754 -1.8258 -0.1015
 5661SOL    HW228620   0.918   1.525   2.450 -0.2442  1.7838  0.4631
 5662SOL     OW28621   3.509   1.015   7.269  0.9187 -0.6220  0.0460
 5662SOL    HW128622   3.420   1.048   7.285  1.5095  1.0687 -0.1330
 5662SOL    HW228623   3.501   1.008   7.174 -1.5667  1.6325  0.0977
 5663SOL     OW28624   3.961   3.579   1.299 -0.0645  0.3861  0.4053
 5663SOL    HW128625   3.967   3.551   1.208 -0.8132 -0.4975  0.6290
 5663SOL    HW228626   4.055   3.585   1.320 -0.0774  1.2205  0.1976
 5664SOL     OW28627   4.565   0.172   9.273 -0.1015  0.1214  0.0882
 5664SOL    HW128628   4.612   0.188   9.356  3.0764 -1.8442 -1.3371
 5664SOL    HW228629   4.573   0.259   9.234 -0.1791  0.3364  0.5450
 5665SOL     OW28630   1.696   2.516   8.077  0.0361  0.2589 -0.1066
 5665SOL    HW128631   1.741   2.500   7.994 -0.1426  1.7944 -0.5015
 5665SOL    HW228632   1.645   2.437   8.098  1.9072 -0.8703  0.1819
 5666SOL     OW28633   2.668   0.448  13.873 -0.1489  0.5899 -0.8145
 5666SOL    HW128634   2.759   0.473  13.853  0.0659  0.1190 -0.4210
 5666SOL    HW228635   2.691   0.359  13.899 -0.8381  0.7577  0.3654
 5667SOL     OW28636   0.991   3.417   4.169  0.4903  0.0401  0.4569
 5667SOL    HW128637   0.907   3.385   4.200  0.0421  0.6499 -0.1553
 5667SOL    HW228638   0.974   3.510   4.161  0.6105 -0.0990 -1.2965
 5668SOL     OW28639   2.263   1.059   5.672  0.4458 -0.7812 -0.1860
 5668SOL    HW128640   2.255   0.986   5.733 -0.9292  0.0909  0.6908
 5668SOL    HW228641   2.252   1.135   5.730  0.4231 -0.3517 -0.7485
 5669SOL     OW28642   2.011   2.818   2.875 -0.6254 -0.0514  0.0858
 5669SOL    HW128643   2.062   2.898   2.886  0.5445 -1.1355  2.5038
 5669SOL    HW228644   1.922   2.854   2.878 -0.8502 -0.6189  0.2226
 5670SOL     OW28645   1.342   0.036  17.605 -0.5375  0.1725 -0.4651
 5670SOL    HW128646   1.278   0.107  17.602  0.3788  0.9231 -1.7914
 5670SOL    HW228647   1.301   4.691  17.591  2.7160 -1.3357 -0.7957
 5671SOL     OW28648   4.060   3.906   9.223 -0.2180  0.5170 -0.2294
 5671SOL    HW128649   3.992   3.963   9.257 -0.2813  0.1454  0.2627
 5671SOL    HW228650   4.078   3.934   9.133 -1.9637 -2.4083 -1.5004
 5672SOL     OW28651   0.563   2.181   8.160 -0.2402 -0.2474 -0.1879
 5672SOL    HW128652   0.508   2.181   8.081 -1.1346 -1.0733  0.4319
 5672SOL    HW228653   0.512   2.254   8.196 -1.8794 -1.7462  0.5344
 5673SOL     OW28654   1.471   2.369   7.700  0.0924 -0.7501  0.1128
 5673SOL    HW128655   1.418   2.373   7.620  0.8155  0.8401 -0.2798
 5673SOL    HW228656   1.436   2.290   7.742 -0.3206 -0.4326  0.3680
 5674SOL     OW28657   3.572   4.186   5.059 -0.0195 -0.1998  0.0947
 5674SOL    HW128658   3.630   4.125   5.104  0.6234 -2.6352 -4.0484
 5674SOL    HW228659   3.555   4.249   5.129 -0.4703  1.0303 -1.1098
 5675SOL     OW28660   2.898   2.515   3.641 -0.4391  0.0930 -0.1899
 5675SOL    HW128661   2.859   2.564   3.713 -1.4908 -0.5356 -0.3312
 5675SOL    HW228662   2.845   2.435   3.637 -1.5977  0.8496  0.0004
 5676SOL     OW28663   3.703   3.124   2.510  0.0413 -0.2367  0.5791
 5676SOL    HW128664   3.717   3.212   2.543  0.2430 -0.2268  0.4697
 5676SOL    HW228665   3.759   3.123   2.432 -0.8438 -0.1150 -0.0508
 5677SOL     OW28666   0.118   2.512   7.898  0.0596  0.0600 -0.1226
 5677SOL    HW128667   0.103   2.491   7.990  1.4918 -0.1652  0.0690
 5677SOL    HW228668   0.203   2.556   7.901 -0.1406  0.4294  0.0338
 5678SOL     OW28669   1.981   4.459   3.221  0.3597 -0.5537 -0.1204
 5678SOL    HW128670   1.979   4.451   3.316  0.8790  0.6009 -0.0142
 5678SOL    HW228671   2.021   4.545   3.208  1.5389 -0.5564  3.6383
 5679SOL     OW28672   0.554   0.819  13.169  0.1305  0.1386  0.3328
 5679SOL    HW128673   0.587   0.848  13.084 -0.2252  1.7387  0.7511
 5679SOL    HW228674   0.468   0.792  13.137 -0.6769  2.6001  0.4712
 5680SOL     OW28675   4.552   2.818   8.387  0.5565 -0.2962 -0.7350
 5680SOL    HW128676   4.530   2.901   8.430 -0.0784 -1.5817  1.3968
 5680SOL    HW228677   4.619   2.777   8.442  1.0139  1.3650 -0.0465
 5681SOL     OW28678   3.933   1.729  11.942  0.3337 -0.1718 -0.3562
 5681SOL    HW128679   3.920   1.782  11.863  1.7245  0.6112 -0.0686
 5681SOL    HW228680   3.947   1.794  12.010 -2.5853 -0.8183  0.8482
 5682SOL     OW28681   3.731   2.260   9.142 -0.4577 -0.0522  0.1530
 5682SOL    HW128682   3.668   2.332   9.135 -1.4171 -0.7098  1.9234
 5682SOL    HW228683   3.761   2.256   9.052  0.6006  0.2799  0.4925
 5683SOL     OW28684   4.364   3.788  11.065 -0.2644 -0.0852  0.1195
 5683SOL    HW128685   4.407   3.703  11.060 -1.0043 -0.3579 -1.8500
 5683SOL    HW228686   4.286   3.770  11.012  0.8429 -0.5403 -1.3787
 5684SOL     OW28687   4.446   0.614  13.460  0.1954  0.3464  0.2854
 5684SOL    HW128688   4.365   0.666  13.467  2.0196  3.1601  0.6855
 5684SOL    HW228689   4.499   0.682  13.419  0.1278 -0.2673 -0.8102
 5685SOL     OW28690   2.087   3.530  16.280  0.5582  0.1043 -0.2395
 5685SOL    HW128691   2.087   3.448  16.331  0.6970  0.4806  0.3649
 5685SOL    HW228692   2.005   3.524  16.231  0.6001 -1.3320 -0.1580
 5686SOL     OW28693   1.354   1.964   9.768 -0.2831  0.3104  0.1855
 5686SOL    HW128694   1.417   1.978   9.838  0.4713  1.2754 -0.6803
 5686SOL    HW228695   1.368   2.044   9.718  0.1270 -0.3479 -0.7528
 5687SOL     OW28696   1.733   4.513   8.777  0.1675  0.3805 -0.3785
 5687SOL    HW128697   1.811   4.542   8.730  0.6741  0.9389  0.7989
 5687SOL    HW228698   1.670   4.554   8.717  1.1875  3.8045  0.8740
 5688SOL     OW28699   3.928   2.286   5.600  0.3168 -0.2404  0.4142
 5688SOL    HW128700   3.953   2.354   5.537 -2.1818  0.8654  0.6272
 5688SOL    HW228701   3.900   2.219   5.537 -0.6541 -0.9670  1.6269
 5689SOL     OW28702   3.613   3.152   9.822  0.4628 -0.2975  0.1127
 5689SOL    HW128703   3.647   3.241   9.812  0.0376 -0.0907  0.5179
 5689SOL    HW228704   3.520   3.163   9.841  1.2546  1.6654  2.8266
 5690SOL     OW28705   4.639   1.953   7.106  0.0158 -0.7846  0.5060
 5690SOL    HW128706   4.617   1.867   7.140 -0.6204  0.0056  2.0587
 5690SOL    HW228707   4.550   1.987   7.104  0.0027 -0.8186  0.5286
 5691SOL     OW28708   4.127   3.866   1.496  0.9590  0.0020 -0.6405
 5691SOL    HW128709   4.159   3.776   1.488  2.3482  0.2328  2.6080
 5691SOL    HW228710   4.189   3.916   1.443  1.0040  2.7675  2.0277
 5692SOL     OW28711   3.298   2.672   5.301  0.0788  1.0549  0.0512
 5692SOL    HW128712   3.235   2.601   5.313 -1.3965  2.3565  0.1190
 5692SOL    HW228713   3.318   2.653   5.210 -1.0890  2.3067 -0.4761
 5693SOL     OW28714   0.802   0.581   4.008  0.5950 -0.0529  0.4583
 5693SOL    HW128715   0.822   0.618   4.094  1.5702 -1.8451  1.0068
 5693SOL    HW228716   0.869   0.513   3.998  0.1677 -0.0206 -2.7027
 5694SOL     OW28717   1.305   0.571  14.044  0.7029  0.1966 -0.1037
 5694SOL    HW128718   1.304   0.625  13.965 -0.0127 -0.4312 -0.5304
 5694SOL    HW228719   1.321   0.481  14.016 -0.6099  0.1265 -0.6541
 5695SOL     OW28720   1.849   3.319   0.619 -0.3077 -0.3799  0.3874
 5695SOL    HW128721   1.789   3.395   0.616  0.3178  0.0951 -0.1460
 5695SOL    HW228722   1.934   3.356   0.641 -1.0684  0.5710  1.7496
 5696SOL     OW28723   0.605   3.727   9.218 -0.2634 -0.2311  0.4731
 5696SOL    HW128724   0.632   3.790   9.285  0.5902 -0.0376 -0.0446
 5696SOL    HW228725   0.675   3.664   9.236 -1.1839 -1.4157 -0.0901
 5697SOL     OW28726   2.970   1.616  15.508 -0.4641  0.4366 -0.6887
 5697SOL    HW128727   2.972   1.697  15.457 -0.1610 -0.0233 -1.4025
 5697SOL    HW228728   2.960   1.646  15.598  1.4226  0.2197 -0.4192
 5698SOL     OW28729   3.447   2.591   0.836 -0.1025 -0.0110 -0.3188
 5698SOL    HW128730   3.543   2.593   0.842 -0.1237 -2.7225  0.7370
 5698SOL    HW228731   3.433   2.512   0.784 -0.3157 -1.6653  2.2422
 5699SOL     OW28732   4.142   2.666   1.247  0.0547 -0.1174  0.0147
 5699SOL    HW128733   4.072   2.674   1.312 -0.1048  0.2353 -0.1999
 5699SOL    HW228734   4.221   2.695   1.291 -0.4508 -1.2329  1.6758
 5700SOL     OW28735   0.241   3.497   2.464  0.0240 -0.4259  0.3457
 5700SOL    HW128736   0.288   3.459   2.390  0.0504 -0.2944  0.2953
 5700SOL    HW228737   0.319   3.530   2.508 -0.7715  1.6106  0.2032
 5701SOL     OW28738   2.302   0.405   2.193  0.0017 -0.0728  0.5573
 5701SOL    HW128739   2.291   0.407   2.098 -0.5415  2.6964  0.6879
 5701SOL    HW228740   2.397   0.400   2.201  0.0472 -0.2923 -0.1173
 5702SOL     OW28741   4.648   0.451   7.499  0.5334  0.0977  0.4285
 5702SOL    HW128742   4.652   0.491   7.412  1.2372 -0.5466  0.1624
 5702SOL    HW228743   4.659   0.362   7.465 -1.8961  0.9319 -2.5256
 5703SOL     OW28744   0.514   3.478   9.400 -0.3545  0.3988  0.0565
 5703SOL    HW128745   0.566   3.515   9.472 -0.1978 -1.4312  0.8876
 5703SOL    HW228746   0.574   3.489   9.326 -1.0652  1.0055 -0.4315
 5704SOL     OW28747   3.003   0.555  11.513 -0.0808  0.6584 -0.0502
 5704SOL    HW128748   3.021   0.635  11.463 -2.4538 -0.0583 -2.0201
 5704SOL    HW228749   2.982   0.494  11.443  0.0678  1.2155 -0.5763
 5705SOL     OW28750   1.572   2.837   5.085  0.1359 -0.0151  0.0960
 5705SOL    HW128751   1.553   2.756   5.132  0.7904  0.6919  1.5702
 5705SOL    HW228752   1.491   2.862   5.041 -0.3718  1.1149  1.7052
 5706SOL     OW28753   0.743   0.075  14.182  0.5223  0.2603 -0.5053
 5706SOL    HW128754   0.731   0.170  14.187  2.7170  0.5368 -0.6156
 5706SOL    HW228755   0.757   0.077  14.087  1.8485 -0.9074 -0.3359
 5707SOL     OW28756   2.482   3.665   9.077  0.4198 -0.2013 -0.2185
 5707SOL    HW128757   2.486   3.670   9.173  0.7123 -0.3364 -0.2245
 5707SOL    HW228758   2.575   3.649   9.060 -0.0469 -0.7978 -2.1248
 5708SOL     OW28759   1.544   0.900   8.669 -0.2893  0.7307  0.4496
 5708SOL    HW128760   1.623   0.861   8.631 -0.9932  1.3680 -1.6567
 5708SOL    HW228761   1.579   0.965   8.730 -1.4285  0.3204  1.5407
 5709SOL     OW28762   0.375   3.975   0.855 -0.4332 -0.1934  0.0137
 5709SOL    HW128763   0.449   4.006   0.802 -1.7911 -0.6129 -2.1393
 5709SOL    HW228764   0.392   3.883   0.877  2.7105  0.1371 -1.0673
 5710SOL     OW28765   1.501   1.871   0.300 -0.3260 -0.0102  0.0478
 5710SOL    HW128766   1.504   1.950   0.354  0.9044 -0.6303  0.8757
 5710SOL    HW228767   1.573   1.895   0.242  0.1551 -0.2133  0.5675
 5711SOL     OW28768   4.146   1.379   3.953  0.5410 -0.3433 -0.6803
 5711SOL    HW128769   4.151   1.469   3.920 -0.9939 -0.0465 -0.0733
 5711SOL    HW228770   4.135   1.326   3.874 -0.9564  0.7776 -1.2229
 5712SOL     OW28771   2.875   1.990   2.331  0.0412  0.3987  0.0619
 5712SOL    HW128772   2.941   1.950   2.274  0.3791  2.2587 -0.8338
 5712SOL    HW228773   2.796   1.980   2.279  0.5986 -1.1024 -0.5012
 5713SOL     OW28774   2.840   3.071   2.364  0.6954 -0.5481  0.4494
 5713SOL    HW128775   2.892   2.995   2.391  0.4415 -0.2977  1.6428
 5713SOL    HW228776   2.763   3.051   2.417 -0.0176  1.2701  0.0777
 5714SOL     OW28777   1.500   1.207   9.354  0.2762 -0.4464 -0.1573
 5714SOL    HW128778   1.572   1.144   9.348 -0.5597 -1.5880  1.9707
 5714SOL    HW228779   1.482   1.220   9.260 -0.2483 -1.7481 -0.2355
 5715SOL     OW28780   4.082   0.635   4.542 -0.1985 -0.3560 -0.2196
 5715SOL    HW128781   4.084   0.564   4.478  1.0358 -2.6625  2.3722
 5715SOL    HW228782   4.004   0.626   4.596 -0.2848  0.8381 -0.1536
 5716SOL     OW28783   1.872   2.717   5.844 -0.2282  0.1079  0.1685
 5716SOL    HW128784   1.814   2.643   5.858 -2.1529  1.6005  0.0860
 5716SOL    HW228785   1.931   2.718   5.919 -0.1796  1.5733  0.1200
 5717SOL     OW28786   3.983   3.783  15.773 -0.3081  0.2638 -0.0094
 5717SOL    HW128787   3.894   3.783  15.737 -0.5255 -2.5253  0.4805
 5717SOL    HW228788   3.989   3.690  15.798 -1.1383 -0.8122 -3.7421
 5718SOL     OW28789   3.001   0.123   3.392 -0.3965 -0.5265 -0.1989
 5718SOL    HW128790   2.924   0.086   3.349 -2.3570  3.4554 -0.1355
 5718SOL    HW228791   3.069   0.137   3.326 -1.2159 -2.5562 -1.4572
 5719SOL     OW28792   1.234   3.797   8.056 -0.1420  0.0320  0.1743
 5719SOL    HW128793   1.217   3.861   8.125  0.0061  0.7336 -0.4537
 5719SOL    HW228794   1.269   3.724   8.108 -0.6386  0.7888  1.5633
 5720SOL     OW28795   4.605   4.520   8.054 -0.1976 -0.0830 -0.0736
 5720SOL    HW128796   4.637   4.576   8.125 -0.8704  0.5575 -0.2752
 5720SOL    HW228797   4.571   4.440   8.096 -0.1458  0.6799  1.4301
 5721SOL     OW28798   4.418   0.641   7.549 -0.2151 -0.3955  0.0951
 5721SOL    HW128799   4.454   0.561   7.587  0.0575 -0.2011  0.2460
 5721SOL    HW228800   4.341   0.647   7.605 -1.4366 -1.7083 -1.4466
 5722SOL     OW28801   0.179   4.135   8.386 -0.2988 -0.0755 -0.1790
 5722SOL    HW128802   0.162   4.104   8.297 -0.6880  1.1879 -0.5385
 5722SOL    HW228803   0.270   4.162   8.373 -0.1291 -1.7333 -2.4587
 5723SOL     OW28804   0.496   3.581   8.892  0.1923 -0.1086 -0.2537
 5723SOL    HW128805   0.460   3.492   8.892  1.2495 -0.5370  0.0220
 5723SOL    HW228806   0.585   3.569   8.924 -0.0394 -0.6685  0.1847
 5724SOL     OW28807   0.491   1.492   7.505  1.0165  0.2367  0.0331
 5724SOL    HW128808   0.559   1.526   7.563  0.5193  1.1028  0.1165
 5724SOL    HW228809   0.487   1.402   7.538  1.6018  1.1579  2.6641
 5725SOL     OW28810   3.985   2.744   6.651 -0.3908  0.1013  0.3755
 5725SOL    HW128811   3.960   2.737   6.743  3.2255 -0.1042  1.3426
 5725SOL    HW228812   3.904   2.758   6.603  0.0961 -0.2996 -0.5552
 5726SOL     OW28813   1.695   2.179  15.276  0.2320 -0.3217  0.1699
 5726SOL    HW128814   1.697   2.203  15.183  0.3530 -0.6412  0.0897
 5726SOL    HW228815   1.699   2.263  15.321 -0.9792  0.1381 -0.5766
 5727SOL     OW28816   4.596   2.610   2.025  0.2639 -0.1808 -0.3666
 5727SOL    HW128817   4.608   2.646   1.937 -0.5295  0.1740 -0.3331
 5727SOL    HW228818   4.653   2.670   2.073  0.1740 -0.3906 -0.0005
 5728SOL     OW28819   0.941   2.392  10.720  0.6788  0.3088 -0.2045
 5728SOL    HW128820   0.901   2.400  10.807  0.6611 -1.2572 -0.0675
 5728SOL    HW228821   1.028   2.422  10.748  0.1256  1.2800  0.4830
 5729SOL     OW28822   2.374   3.351   8.573 -0.0885 -0.1904  0.3222
 5729SOL    HW128823   2.426   3.368   8.495 -0.7805 -0.4013 -0.1825
 5729SOL    HW228824   2.281   3.344   8.549  0.3259 -0.6852 -1.1001
 5730SOL     OW28825   1.665   1.451   9.477 -0.7637 -0.2673 -0.4417
 5730SOL    HW128826   1.707   1.437   9.392 -2.3260 -1.3529 -1.0367
 5730SOL    HW228827   1.583   1.407   9.456  0.0648 -2.1337  0.3309
 5731SOL     OW28828   0.737   0.529  17.496  0.2670 -0.1206 -0.5563
 5731SOL    HW128829   0.757   0.533  17.589  1.3588  0.1548 -0.7982
 5731SOL    HW228830   0.809   0.576  17.453 -0.0061  0.0468 -0.8333
 5732SOL     OW28831   2.846   3.738   2.771  0.0952  0.2199 -0.2121
 5732SOL    HW128832   2.843   3.649   2.738 -0.0587  0.0211  0.3383
 5732SOL    HW228833   2.907   3.729   2.845  0.9223 -0.4277 -0.9801
 5733SOL     OW28834   1.552   0.565   8.606 -0.2539 -0.0887 -0.4445
 5733SOL    HW128835   1.596   0.648   8.587  1.9988 -0.9262  1.1344
 5733SOL    HW228836   1.558   0.528   8.518  3.2252 -0.8701  0.1256
 5734SOL     OW28837   3.641   2.752   2.335  0.5526  0.0374  0.5550
 5734SOL    HW128838   3.664   2.778   2.245  1.5203 -2.6273  0.0304
 5734SOL    HW228839   3.553   2.721   2.313  0.0488  0.6148  1.7381
 5735SOL     OW28840   3.459   4.518   9.325  0.6664 -0.0532  0.6646
 5735SOL    HW128841   3.516   4.594   9.313  0.1029  0.2695  0.0462
 5735SOL    HW228842   3.503   4.488   9.405 -0.8271  2.2767  2.3827
 5736SOL     OW28843   3.956   3.005   8.919  0.3037  0.8070 -0.3873
 5736SOL    HW128844   3.878   2.952   8.938  0.2978  0.8208 -0.3737
 5736SOL    HW228845   4.030   2.958   8.956 -0.1130 -0.3128 -0.9717
 5737SOL     OW28846   1.031   2.581   4.999  0.0951  0.1691 -0.1060
 5737SOL    HW128847   1.071   2.500   5.029  1.2332  1.0979  0.9023
 5737SOL    HW228848   1.097   2.611   4.937 -0.2913 -0.5872 -0.8841
 5738SOL     OW28849   1.211   3.290   1.535 -0.0242  0.3230  0.1314
 5738SOL    HW128850   1.214   3.331   1.448 -0.8729  0.5286  0.2037
 5738SOL    HW228851   1.117   3.279   1.548  0.1575 -1.5267 -0.0717
 5739SOL     OW28852   3.928   4.181   4.919  0.2667 -0.0910 -0.1090
 5739SOL    HW128853   3.955   4.096   4.884  2.3187  0.2301  0.6875
 5739SOL    HW228854   3.998   4.235   4.884 -2.1552  2.7522 -0.5405
 5740SOL     OW28855   3.610   2.347   5.920  0.3211 -0.0602 -0.1397
 5740SOL    HW128856   3.681   2.336   5.856 -1.1921 -2.9720 -1.3147
 5740SOL    HW228857   3.610   2.256   5.951  1.8415 -0.1733 -0.4979
 5741SOL     OW28858   4.594   3.725   9.661  0.1070  0.1106  0.0284
 5741SOL    HW128859   4.558   3.678   9.586 -1.1933 -0.0733  0.7621
 5741SOL    HW228860   4.597   3.814   9.628 -1.9815 -0.3186 -1.3714
 5742SOL     OW28861   0.177   4.668  16.642 -0.4413 -0.7542 -0.0472
 5742SOL    HW128862   0.094   4.694  16.601 -0.2466 -0.6772 -0.3924
 5742SOL    HW228863   0.171   4.574  16.660  2.0410 -1.0033 -0.4993
 5743SOL     OW28864   2.413   2.998   2.737  0.3318 -0.4940 -0.2346
 5743SOL    HW128865   2.440   2.907   2.723  1.6456 -0.1449  0.0393
 5743SOL    HW228866   2.462   3.013   2.818 -3.4712 -0.2086  2.0352
 5744SOL     OW28867   1.808   0.058   0.546 -0.1725 -0.1423 -0.2449
 5744SOL    HW128868   1.725   0.070   0.592  1.0951 -0.4094  2.1049
 5744SOL    HW228869   1.769   0.042   0.460  1.3659 -1.1125 -0.7594
 5745SOL     OW28870   3.053   3.544  12.899 -0.4780  0.6694  0.5777
 5745SOL    HW128871   3.124   3.510  12.953 -2.1146 -0.9025  1.7449
 5745SOL    HW228872   3.005   3.463  12.882  2.9711 -0.9210 -1.5618
 5746SOL     OW28873   2.466   2.286  13.610  0.1146 -0.0387  0.6205
 5746SOL    HW128874   2.560   2.282  13.593 -0.3422 -0.2005 -1.7899
 5746SOL    HW228875   2.432   2.251  13.528  0.5372 -1.2168  0.9483
 5747SOL     OW28876   1.745   2.169  10.055 -0.3159  0.0979  0.4955
 5747SOL    HW128877   1.711   2.192  10.141 -0.5387 -1.1549  0.7462
 5747SOL    HW228878   1.815   2.106  10.074 -1.2150 -1.1719 -0.4104
 5748SOL     OW28879   1.318   2.507   6.920  0.6162  0.1103  0.0991
 5748SOL    HW128880   1.310   2.601   6.939  2.9757  0.0953  1.2013
 5748SOL    HW228881   1.226   2.490   6.904  0.5893 -0.1793  0.5416
 5749SOL     OW28882   0.074   3.170   8.637 -0.2746  0.2460 -0.0921
 5749SOL    HW128883   0.008   3.168   8.568 -1.0054  1.6761  0.5615
 5749SOL    HW228884   0.028   3.125   8.707  1.0386 -3.5027 -1.6505
 5750SOL     OW28885   2.490   3.944  17.065 -0.5479 -0.0241 -0.5072
 5750SOL    HW128886   2.483   3.848  17.071  0.4766 -0.0433  0.2852
 5750SOL    HW228887   2.483   3.969  16.973 -0.5914 -0.8198 -0.7252
 5751SOL     OW28888   3.579   3.903   6.558 -0.1186  0.1058 -0.7317
 5751SOL    HW128889   3.651   3.962   6.536  0.4350 -0.8367 -1.3979
 5751SOL    HW228890   3.509   3.942   6.505 -0.1001 -1.7711 -2.1117
 5752SOL     OW28891   1.665   0.856   9.130 -0.2679  0.0715 -0.7095
 5752SOL    HW128892   1.695   0.940   9.164 -0.5027  0.7190 -2.1164
 5752SOL    HW228893   1.708   0.798   9.193 -1.3304 -0.7971 -0.7601
 5753SOL     OW28894   4.294   4.131   0.058  0.1023  0.3388  0.0994
 5753SOL    HW128895   4.302   4.202   0.121  0.2850 -1.3726  2.0363
 5753SOL    HW228896   4.275   4.179  17.737  0.2902 -3.2872 -2.1170
 5754SOL     OW28897   4.381   0.976   4.472  0.8077 -0.3507  0.1563
 5754SOL    HW128898   4.436   0.940   4.541  0.1176  0.3265  1.0705
 5754SOL    HW228899   4.423   1.061   4.462  0.7265 -0.2841  0.3684
 5755SOL     OW28900   0.691   2.091   9.959  0.5577 -0.0595 -0.2824
 5755SOL    HW128901   0.692   2.177  10.002 -3.2926 -0.8011  1.3523
 5755SOL    HW228902   0.663   2.031  10.028  2.1973 -2.1479 -1.4683
 5756SOL     OW28903   2.549   3.775   3.197  1.0880  0.1512  1.1876
 5756SOL    HW128904   2.549   3.808   3.107  0.4067 -1.2193  0.6786
 5756SOL    HW228905   2.495   3.696   3.184  0.8763  0.6085 -0.7892
 5757SOL     OW28906   3.963   4.534   3.229  0.0672  0.5430  0.2560
 5757SOL    HW128907   3.870   4.538   3.207  0.1751  1.1924 -0.1133
 5757SOL    HW228908   4.010   4.551   3.147 -0.2634 -1.7270 -0.3953
 5758SOL     OW28909   3.573   2.715   5.921 -0.2907 -0.0727  0.0519
 5758SOL    HW128910   3.553   2.787   5.982  1.7329 -0.1051  0.7640
 5758SOL    HW228911   3.606   2.762   5.844 -2.4638 -0.6731 -1.2300
 5759SOL     OW28912   0.972   4.154   6.348 -0.1905 -0.3672 -0.3096
 5759SOL    HW128913   0.888   4.196   6.330 -0.2291 -1.3596 -2.5096
 5759SOL    HW228914   0.986   4.115   6.261 -1.2748  0.3500 -0.8153
 5760SOL     OW28915   2.408   1.113   9.716 -0.3602 -0.3086 -0.4729
 5760SOL    HW128916   2.464   1.166   9.659 -0.3547  0.3492  0.1580
 5760SOL    HW228917   2.457   1.138   9.794  1.5181 -0.3168 -1.6325
 5761SOL     OW28918   4.204   2.013   4.733  0.0779  0.7285 -0.3295
 5761SOL    HW128919   4.133   1.987   4.675  1.1077 -0.6339 -0.9685
 5761SOL    HW228920   4.192   2.107   4.749  2.0924  0.5651  2.1724
 5762SOL     OW28921   2.594   4.012  13.636  0.3020  0.2153 -0.2368
 5762SOL    HW128922   2.511   4.048  13.603  0.0542  0.2122  0.3769
 5762SOL    HW228923   2.606   4.073  13.709 -1.8826  1.4676 -0.9091
 5763SOL     OW28924   2.740   1.152   0.570  0.1344  0.2505  0.2692
 5763SOL    HW128925   2.768   1.083   0.510 -1.4910  0.7880 -1.0995
 5763SOL    HW228926   2.775   1.114   0.651  1.8363  2.7119  0.6908
 5764SOL     OW28927   2.824   0.212   2.196 -0.2319  0.1192  0.2255
 5764SOL    HW128928   2.753   0.153   2.221  0.9951 -1.2590  0.4579
 5764SOL    HW228929   2.797   0.216   2.104  1.1291  2.3921 -0.0791
 5765SOL     OW28930   1.703   3.882  14.790 -0.2674 -0.3983 -0.8933
 5765SOL    HW128931   1.715   3.912  14.880 -1.9208 -4.0749  0.5505
 5765SOL    HW228932   1.621   3.836  14.808 -0.0811 -0.4209 -0.0760
 5766SOL     OW28933   0.654   1.146   5.164 -0.2119 -0.4721 -0.0309
 5766SOL    HW128934   0.719   1.202   5.206  1.1857 -1.0925 -1.3878
 5766SOL    HW228935   0.589   1.212   5.139  0.1922 -0.3644 -0.8139
 5767SOL     OW28936   4.505   3.340   4.480 -0.3533  0.3023 -0.1722
 5767SOL    HW128937   4.567   3.395   4.432 -0.8986 -0.7765 -2.1467
 5767SOL    HW228938   4.526   3.371   4.568 -1.8303  1.7219 -0.3214
 5768SOL     OW28939   0.922   1.248  10.563  0.3025 -0.0288 -0.0199
 5768SOL    HW128940   0.946   1.182  10.497 -0.3175 -0.6478  0.3725
 5768SOL    HW228941   0.996   1.258  10.622  0.0968 -1.3336  0.4550
 5769SOL     OW28942   3.844   0.142   5.797  0.7209 -0.4307 -0.0834
 5769SOL    HW128943   3.916   0.083   5.775 -1.5897 -3.2685  0.0016
 5769SOL    HW228944   3.785   0.072   5.824  1.0303  0.3709  2.6007
 5770SOL     OW28945   1.238   4.456   6.793 -0.0337 -0.8524 -0.1323
 5770SOL    HW128946   1.309   4.392   6.793  0.3375 -0.4361 -0.0895
 5770SOL    HW228947   1.248   4.496   6.707  0.7437  0.3603  0.5227
 5771SOL     OW28948   0.031   2.217  14.260 -0.5762  0.0356  0.7254
 5771SOL    HW128949   4.679   2.242  14.267 -0.9803 -0.8784 -1.5520
 5771SOL    HW228950   0.068   2.265  14.334 -0.4460 -0.5492  1.0410
 5772SOL     OW28951   0.551   1.544   7.195 -0.2821 -0.0850  0.3348
 5772SOL    HW128952   0.625   1.599   7.222 -1.2664  0.5484  1.7170
 5772SOL    HW228953   0.490   1.605   7.236 -2.5060  0.1767 -3.3206
 5773SOL     OW28954   3.387   0.908   5.919  0.4680 -0.8328  0.1329
 5773SOL    HW128955   3.294   0.886   5.920  0.3583 -0.2736  2.1533
 5773SOL    HW228956   3.432   0.824   5.906  1.1069 -0.5240  0.3625
 5774SOL     OW28957   0.902   3.750  12.998 -0.1011 -0.0852  0.0676
 5774SOL    HW128958   0.962   3.700  13.053 -0.7307 -0.9544 -0.0448
 5774SOL    HW228959   0.926   3.838  13.027 -0.1343 -0.1339  0.2450
 5775SOL     OW28960   1.925   4.093  14.953  0.7704  0.3245  0.1011
 5775SOL    HW128961   1.977   4.017  14.981 -0.1331 -0.1083  0.6162
 5775SOL    HW228962   1.842   4.088  15.000  0.1944 -3.0311 -1.2508
 5776SOL     OW28963   3.650   4.237   9.415  0.5959  0.3624 -0.0598
 5776SOL    HW128964   3.569   4.187   9.411  1.3241 -0.8336  0.1607
 5776SOL    HW228965   3.633   4.275   9.501  3.3480 -0.0648  0.6617
 5777SOL     OW28966   1.352   2.514  12.217 -0.1652  0.1259  0.3537
 5777SOL    HW128967   1.398   2.465  12.149  0.0382  1.9536 -0.8190
 5777SOL    HW228968   1.414   2.570  12.263  0.4864  0.6193 -1.1131
 5778SOL     OW28969   4.136   4.061   2.755 -0.1820  0.6850  0.2108
 5778SOL    HW128970   4.156   4.117   2.829  0.4268  0.7123  0.0250
 5778SOL    HW228971   4.204   3.995   2.766  0.2514  0.9588 -0.7735
 5779SOL     OW28972   0.293   1.475   2.591  0.0399  0.2672  0.6030
 5779SOL    HW128973   0.338   1.502   2.671  0.2783  0.0677  0.5346
 5779SOL    HW228974   0.260   1.561   2.563 -0.2579 -0.0898 -0.1509
 5780SOL     OW28975   3.505   2.892  17.311  0.6864 -0.1267  0.2211
 5780SOL    HW128976   3.477   2.976  17.274  4.2826  0.0371 -2.0453
 5780SOL    HW228977   3.422   2.849  17.332  0.7050  1.3916  3.4449
 5781SOL     OW28978   4.467   1.180   6.746 -0.1462  0.4996  0.1488
 5781SOL    HW128979   4.541   1.195   6.804  2.0578  0.2760 -2.6525
 5781SOL    HW228980   4.502   1.147   6.664 -0.9805  2.4006 -0.9790
 5782SOL     OW28981   3.246   2.041  12.016  0.1664 -0.1458 -0.7683
 5782SOL    HW128982   3.270   2.041  12.109  0.0232 -0.2991 -0.7305
 5782SOL    HW228983   3.158   2.077  12.011  1.7870  3.4740 -2.6129
 5783SOL     OW28984   0.273   3.934  12.807  0.0051  0.0923  0.4829
 5783SOL    HW128985   0.295   3.906  12.718  1.0314 -2.3856  1.5031
 5783SOL    HW228986   0.206   3.866  12.818 -0.1226  0.2710  0.8285
 5784SOL     OW28987   3.281   0.807   6.828 -0.5247 -0.4058 -0.2727
 5784SOL    HW128988   3.189   0.813   6.803 -0.9813 -0.8818  1.2896
 5784SOL    HW228989   3.269   0.832   6.920 -1.0794  1.1145 -0.7485
 5785SOL     OW28990   3.906   4.202   2.323 -0.1427  0.5256  0.4885
 5785SOL    HW128991   3.989   4.168   2.291 -0.3309 -1.7681  2.4257
 5785SOL    HW228992   3.928   4.237   2.410 -0.7257 -0.7637  1.1681
 5786SOL     OW28993   2.544   2.983   7.037 -1.0448  0.0380  0.2223
 5786SOL    HW128994   2.479   3.014   6.973 -0.1542  0.4574 -0.4767
 5786SOL    HW228995   2.492   2.947   7.109  0.7434 -1.9063  0.5397
 5787SOL     OW28996   2.501   0.607  10.481 -0.1110  0.6782 -0.9677
 5787SOL    HW128997   2.534   0.642  10.398 -1.0238  0.0767 -1.5801
 5787SOL    HW228998   2.506   0.688  10.531 -2.2352  1.7877 -2.5697
 5788SOL     OW28999   2.021   0.108   1.744  0.2127  0.1541 -0.2355
 5788SOL    HW129000   2.065   0.168   1.804 -1.8115  0.6599  0.7457
 5788SOL    HW229001   1.939   0.153   1.727  0.4837 -0.6305 -3.5892
 5789SOL     OW29002   2.364   2.489   6.047  0.5296 -0.4956  0.3065
 5789SOL    HW129003   2.460   2.481   6.048  0.6471  1.1975  1.6511
 5789SOL    HW229004   2.369   2.582   6.067 -0.4005 -0.5977  1.0094
 5790SOL     OW29005   3.734   0.970   2.216  0.0874  0.4450 -0.3988
 5790SOL    HW129006   3.820   0.957   2.176  0.8089 -1.4123  1.7322
 5790SOL    HW229007   3.757   0.984   2.308 -1.2726  0.8887 -0.1346
 5791SOL     OW29008   0.642   0.172   7.263 -0.0719  1.0206 -0.5650
 5791SOL    HW129009   0.556   0.162   7.224 -0.6495 -1.1251  1.2561
 5791SOL    HW229010   0.704   0.149   7.194 -1.2297  2.3096 -2.0194
 5792SOL     OW29011   0.769   2.711   5.045 -0.2623 -0.7553 -0.2190
 5792SOL    HW129012   0.854   2.670   5.032 -0.7155 -1.8879  0.4214
 5792SOL    HW229013   0.800   2.795   5.080  0.0224 -0.7271 -0.5362
 5793SOL     OW29014   1.240   4.185   7.505  0.3725  0.1089 -0.2323
 5793SOL    HW129015   1.198   4.192   7.590 -0.4215 -2.0575 -0.4513
 5793SOL    HW229016   1.189   4.116   7.461 -2.1534 -0.1420  3.1431
 5794SOL     OW29017   1.415   3.329  17.209  0.6668  0.3393  0.2370
 5794SOL    HW129018   1.434   3.408  17.158 -0.4847  2.2232  2.7344
 5794SOL    HW229019   1.500   3.284  17.204  0.2239 -0.6074  1.2239
 5795SOL     OW29020   3.436   0.615  16.754  0.0933 -0.0033 -0.5765
 5795SOL    HW129021   3.489   0.581  16.826 -0.6079 -0.2759 -0.1864
 5795SOL    HW229022   3.357   0.564  16.774 -1.0177  1.4210 -1.3240
 5796SOL     OW29023   2.087   3.967   6.360 -0.0017  0.8103  0.6419
 5796SOL    HW129024   2.176   3.939   6.338  0.0595  1.1789  0.4117
 5796SOL    HW229025   2.054   3.883   6.391  1.8905 -0.5407 -0.9369
 5797SOL     OW29026   4.499   4.368   9.123 -0.0845  0.2163  0.3138
 5797SOL    HW129027   4.484   4.333   9.036 -0.2140  2.0370 -0.3922
 5797SOL    HW229028   4.413   4.356   9.164  0.0012  0.6799  0.6355
 5798SOL     OW29029   0.253   0.305   3.264  0.1714  0.7075 -0.1916
 5798SOL    HW129030   0.179   0.259   3.304  1.4100 -0.8786  0.2355
 5798SOL    HW229031   0.206   0.362   3.203  1.5497  0.3685 -1.5629
 5799SOL     OW29032   2.034   4.394   0.037 -0.4017  0.3072  0.1080
 5799SOL    HW129033   2.069   4.336   0.104 -1.8628  1.5637  1.9602
 5799SOL    HW229034   2.027   4.340  17.719 -1.0262 -1.7869  1.6254
 5800SOL     OW29035   3.029   2.121  14.078 -0.6297  0.2413  0.4381
 5800SOL    HW129036   2.987   2.154  13.999  0.8368  1.6653  0.2496
 5800SOL    HW229037   2.999   2.032  14.062  1.2848 -0.9471  3.4785
 5801SOL     OW29038   2.024   1.803   1.978 -0.2003  0.4137  0.3600
 5801SOL    HW129039   1.940   1.762   1.997 -1.0677  0.7745 -2.6949
 5801SOL    HW229040   2.077   1.724   1.989  2.2837  1.8447 -1.2967
 5802SOL     OW29041   4.451   1.480  17.012 -0.4267  0.1838 -0.0353
 5802SOL    HW129042   4.522   1.500  16.951  0.1208 -1.8506 -0.0651
 5802SOL    HW229043   4.382   1.476  16.946 -0.1346 -1.2444 -0.2587
 5803SOL     OW29044   3.780   4.312   3.946 -0.7260  0.4770 -0.0292
 5803SOL    HW129045   3.815   4.317   3.857  1.7982  0.8313  0.9844
 5803SOL    HW229046   3.730   4.231   3.946 -1.0351  0.6649 -0.1407
 5804SOL     OW29047   0.121   3.134   6.850  0.1036 -0.3189 -0.3124
 5804SOL    HW129048   0.098   3.171   6.935 -2.1632  0.2296 -1.1456
 5804SOL    HW229049   0.072   3.187   6.787 -0.7430 -1.5337 -0.6579
 5805SOL     OW29050   2.619   3.964  17.411  0.1962  0.3719  0.6181
 5805SOL    HW129051   2.606   4.039  17.353  2.6200  0.8601  0.6829
 5805SOL    HW229052   2.669   4.006  17.481  0.0902 -0.3010  1.0943
 5806SOL     OW29053   4.453   1.826  15.480 -0.9940 -0.8239 -0.4147
 5806SOL    HW129054   4.509   1.883  15.429  0.8618 -2.2159  0.0439
 5806SOL    HW229055   4.474   1.743  15.436 -0.2395 -1.2670  0.7608
 5807SOL     OW29056   3.451   1.617   6.690 -0.1067 -0.1476  0.4015
 5807SOL    HW129057   3.387   1.586   6.755 -0.6935  0.7062  0.2217
 5807SOL    HW229058   3.436   1.711   6.696  3.7589  0.2891  3.1726
 5808SOL     OW29059   2.887   2.770   7.249 -0.0426  0.0267  0.2907
 5808SOL    HW129060   2.941   2.745   7.324  1.5674  0.5274 -0.6972
 5808SOL    HW229061   2.820   2.702   7.262 -1.4213  0.9734 -1.8214
 5809SOL     OW29062   2.958   2.666   4.450 -0.2216 -0.1706  0.0373
 5809SOL    HW129063   2.992   2.612   4.379 -2.1817 -0.5369 -0.6280
 5809SOL    HW229064   2.972   2.603   4.521 -0.0191 -0.7710 -0.5391
 5810SOL     OW29065   4.197   0.787   0.181  0.4578 -0.0937  0.2584
 5810SOL    HW129066   4.247   0.867   0.198  2.5085 -0.8505 -2.3680
 5810SOL    HW229067   4.142   0.823   0.112  0.1548 -1.1194 -0.0290
 5811SOL     OW29068   4.556   1.153   5.509 -0.0343 -0.1782 -0.2637
 5811SOL    HW129069   4.540   1.246   5.494 -0.1302 -0.3646 -1.2902
 5811SOL    HW229070   4.587   1.144   5.599 -2.2166 -0.1444  0.4821
 5812SOL     OW29071   3.241   3.808   9.046 -0.2973 -0.3984 -0.5916
 5812SOL    HW129072   3.318   3.862   9.061 -1.7253  0.8773  2.2587
 5812SOL    HW229073   3.271   3.717   9.049 -1.5417 -0.8084 -0.0726
 5813SOL     OW29074   0.837   0.880   4.730  0.2110  0.3869 -0.1586
 5813SOL    HW129075   0.888   0.890   4.650  1.9381 -1.5245  0.6764
 5813SOL    HW229076   0.788   0.961   4.740 -1.0909 -0.6832  2.1260
 5814SOL     OW29077   4.736   1.833   9.366 -0.2868  0.3883  0.0659
 5814SOL    HW129078   4.646   1.862   9.385 -0.2052  1.0769 -0.5724
 5814SOL    HW229079   0.043   1.840   9.448  0.1563  0.2400 -0.1803
 5815SOL     OW29080   1.851   3.129  13.542  0.0956  0.0030  0.2522
 5815SOL    HW129081   1.878   3.199  13.601 -0.9799 -0.3178  1.1178
 5815SOL    HW229082   1.776   3.100  13.594 -0.3654  1.4103  0.3656
 5816SOL     OW29083   3.484   2.305  12.525  0.4720  0.3468  0.2981
 5816SOL    HW129084   3.573   2.282  12.550  0.0863 -2.3244 -0.8345
 5816SOL    HW229085   3.507   2.362  12.452  0.3020 -0.6746 -0.5485
 5817SOL     OW29086   2.467   2.207   8.852 -0.6987 -0.1641 -0.3779
 5817SOL    HW129087   2.516   2.167   8.780  0.9926 -0.6057  1.0180
 5817SOL    HW229088   2.525   2.180   8.923 -0.9814 -3.2839 -1.3247
 5818SOL     OW29089   2.994   1.738  12.116 -0.7324 -0.3519 -0.2372
 5818SOL    HW129090   3.072   1.794  12.121 -0.2411 -1.0162 -0.4360
 5818SOL    HW229091   2.941   1.789  12.177  0.0503  1.1815 -0.8416
 5819SOL     OW29092   2.447   0.909  13.727  0.0152 -0.1679  0.0078
 5819SOL    HW129093   2.360   0.871  13.719  0.8502 -1.9139 -0.9261
 5819SOL    HW229094   2.497   0.828  13.712  0.2169  0.2078 -1.3296
 5820SOL     OW29095   2.527   4.238   5.684 -0.3801  0.7460  0.1801
 5820SOL    HW129096   2.509   4.322   5.642 -0.1354  1.0188  0.6177
 5820SOL    HW229097   2.623   4.231   5.678 -0.2423  2.9859 -0.4487
 5821SOL     OW29098   3.476   1.585   3.314  0.7467 -0.1776  0.1772
 5821SOL    HW129099   3.406   1.651   3.311  0.3044 -0.6494  0.1202
 5821SOL    HW229100   3.430   1.502   3.302  1.3830 -0.7284  1.6071
 5822SOL     OW29101   3.073   0.111   6.362  0.1655 -0.2215 -0.3213
 5822SOL    HW129102   2.989   0.154   6.375 -1.1296 -1.4459 -4.5482
 5822SOL    HW229103   3.144   0.158   6.404  0.9994 -0.1731 -1.7808
 5823SOL     OW29104   2.145   0.532  14.593 -0.4410  0.0201 -0.0702
 5823SOL    HW129105   2.186   0.584  14.662 -1.8353  0.1360  0.6648
 5823SOL    HW229106   2.082   0.594  14.558  1.9949  1.6893 -1.5505
 5824SOL     OW29107   1.849   3.939  10.426  0.1230 -0.4275 -0.0373
 5824SOL    HW129108   1.937   3.901  10.435  0.4923  0.8032  1.5041
 5824SOL    HW229109   1.805   3.854  10.418  2.3741 -1.7640  1.7108
 5825SOL     OW29110   3.297   0.485   5.412 -0.8591  0.0552  0.5994
 5825SOL    HW129111   3.204   0.486   5.438 -0.6758  1.7043  1.2356
 5825SOL    HW229112   3.304   0.580   5.399 -1.2966  0.3898  2.7237
 5826SOL     OW29113   1.000   3.967   6.145  0.1901 -0.3696  0.2664
 5826SOL    HW129114   1.004   3.958   6.050  2.3868  0.0130  0.3378
 5826SOL    HW229115   1.088   3.953   6.180  0.1085  1.2433  1.0708
 5827SOL     OW29116   1.172   1.302  10.362  0.4794 -0.2882  0.3657
 5827SOL    HW129117   1.103   1.297  10.296  0.3609 -0.9605  0.5403
 5827SOL    HW229118   1.184   1.212  10.394 -0.6768 -0.1362  1.2095
 5828SOL     OW29119   3.051   1.327   1.537  0.2484 -0.2079  0.1515
 5828SOL    HW129120   3.100   1.409   1.532 -0.2049  0.0140 -0.6453
 5828SOL    HW229121   3.107   1.268   1.588  0.3584 -2.5107 -2.6512
 5829SOL     OW29122   1.782   4.294   2.881 -0.1903  0.4485 -0.0465
 5829SOL    HW129123   1.856   4.273   2.938 -1.7767  2.1876  2.6627
 5829SOL    HW229124   1.802   4.246   2.801 -2.7524 -1.4420  0.4741
 5830SOL     OW29125   1.759   1.061   9.977 -0.1665 -0.0298  0.4727
 5830SOL    HW129126   1.825   1.040   9.911 -0.5920  0.5041 -0.1243
 5830SOL    HW229127   1.753   1.154   9.953  0.8749 -0.3552 -1.0456
 5831SOL     OW29128   0.931   4.504   7.826  0.1453 -0.0361 -0.3337
 5831SOL    HW129129   0.897   4.570   7.886 -1.5067 -2.9504  1.9104
 5831SOL    HW229130   0.901   4.428   7.875 -0.9726 -1.0977 -2.6647
 5832SOL     OW29131   2.409   4.507   1.687 -0.5306 -0.1035  0.0160
 5832SOL    HW129132   2.327   4.554   1.694 -0.7561 -0.2475 -1.6695
 5832SOL    HW229133   2.447   4.551   1.610 -1.4704 -0.1324 -0.4592
 5833SOL     OW29134   1.100   3.235   6.999 -0.3221 -0.2190 -0.0698
 5833SOL    HW129135   1.005   3.230   7.002 -0.2932 -0.4278  0.4663
 5833SOL    HW229136   1.126   3.143   7.001  0.5740  0.0476  0.6553
 5834SOL     OW29137   0.234   2.737   4.290  0.0367 -0.3316 -0.0197
 5834SOL    HW129138   0.146   2.702   4.296  0.0552 -0.3571  0.0885
 5834SOL    HW229139   0.276   2.711   4.372 -1.0907 -0.4299  0.5142
 5835SOL     OW29140   4.268   1.055  12.227  0.3104  0.4627  0.3510
 5835SOL    HW129141   4.260   1.075  12.134  0.4299 -0.1628  0.2089
 5835SOL    HW229142   4.182   1.015  12.240  0.7789 -0.6491 -0.0530
 5836SOL     OW29143   4.561   0.676   5.172 -0.0384  0.4024 -0.2566
 5836SOL    HW129144   4.576   0.766   5.202  0.5834 -0.3752  1.7354
 5836SOL    HW229145   4.558   0.620   5.250 -1.5205 -0.3948 -0.8729
 5837SOL     OW29146   1.374   4.199   6.347 -0.3327 -0.2036  0.1158
 5837SOL    HW129147   1.470   4.204   6.343 -0.2949 -1.3368 -0.3151
 5837SOL    HW229148   1.350   4.284   6.311  0.6344 -0.4331 -1.1102
 5838SOL     OW29149   3.137   2.007   3.869 -0.5183  0.6323  0.0817
 5838SOL    HW129150   3.124   1.935   3.930  0.3805  0.2636 -0.1525
 5838SOL    HW229151   3.173   2.073   3.928  1.4986 -0.8293  0.5218
 5839SOL     OW29152   3.221   0.171   6.862 -0.3458 -0.0395  0.2174
 5839SOL    HW129153   3.220   0.157   6.768  1.1874  0.6440  0.1097
 5839SOL    HW229154   3.133   0.200   6.889  0.2577  1.2953  0.7645
 5840SOL     OW29155   4.475   0.412   2.903 -0.6440 -0.0805  0.2538
 5840SOL    HW129156   4.430   0.380   2.982 -1.4860 -0.0584 -0.2161
 5840SOL    HW229157   4.396   0.458   2.876  0.0467  0.3546 -1.0171
 5841SOL     OW29158   1.489   4.327   2.757  0.8088 -0.1047  0.1957
 5841SOL    HW129159   1.398   4.314   2.782  1.0197 -3.5799 -0.8145
 5841SOL    HW229160   1.544   4.292   2.827  2.9461  0.0904 -1.3926
 5842SOL     OW29161   0.866   2.026  17.528 -0.2823  0.0409 -0.1009
 5842SOL    HW129162   0.808   2.101  17.523 -0.7406 -0.0998  3.0640
 5842SOL    HW229163   0.834   1.988  17.446  0.9754 -0.8709 -0.1764
 5843SOL     OW29164   0.767   0.068   8.860  0.2085 -0.4053 -0.0501
 5843SOL    HW129165   0.756   0.133   8.929 -1.4110 -1.4915  0.7132
 5843SOL    HW229166   0.858   0.082   8.834  0.1627 -2.0184 -1.0766
 5844SOL     OW29167   0.842   3.492   6.211 -0.7093  0.0462  0.2851
 5844SOL    HW129168   0.852   3.539   6.294  0.9153  0.3597 -0.0884
 5844SOL    HW229169   0.890   3.552   6.153  0.8333 -1.5512 -0.0792
 5845SOL     OW29170   0.874   3.763  12.715 -0.0362 -0.0591 -0.2917
 5845SOL    HW129171   0.903   3.779  12.805  1.0738 -2.6008 -0.2032
 5845SOL    HW229172   0.913   3.838  12.672 -1.3852 -0.0286 -1.4490
 5846SOL     OW29173   2.542   2.617   5.090  0.0440  0.0910 -0.2245
 5846SOL    HW129174   2.505   2.705   5.086  2.0378  1.0052  1.4776
 5846SOL    HW229175   2.470   2.560   5.064  0.2171  0.1106 -0.7355
 5847SOL     OW29176   3.968   2.148  13.566 -0.0734  0.2799  0.1726
 5847SOL    HW129177   4.018   2.088  13.621 -2.9541 -0.2430  2.1935
 5847SOL    HW229178   3.903   2.181  13.627  1.3078  1.1462  1.1862
 5848SOL     OW29179   2.125   2.032   8.702 -0.0571  0.8856 -0.1517
 5848SOL    HW129180   2.136   2.123   8.673  2.4943  0.8515  0.7109
 5848SOL    HW229181   2.217   2.007   8.695 -0.4150 -0.9053  1.5155
 5849SOL     OW29182   1.359   0.782   4.359 -0.4184  0.4458 -0.2914
 5849SOL    HW129183   1.384   0.707   4.413 -0.0480  2.0333  1.7497
 5849SOL    HW229184   1.374   0.860   4.412  1.4325  0.7208 -1.2088
 5850SOL     OW29185   3.739   4.547   8.027 -0.4082  0.5081  0.0594
 5850SOL    HW129186   3.646   4.530   8.042 -0.7826  1.9413 -0.6926
 5850SOL    HW229187   3.778   4.579   8.108  1.3886  0.3619 -0.7367
 5851SOL     OW29188   4.543   1.712   7.184  0.2882  0.1759 -0.3536
 5851SOL    HW129189   4.559   1.692   7.276 -1.6828  1.0620  0.1723
 5851SOL    HW229190   4.514   1.625   7.157 -1.6767  0.8867 -0.5137
 5852SOL     OW29191   3.802   4.390  16.242  0.2067  0.2030  0.4223
 5852SOL    HW129192   3.725   4.440  16.268 -0.3093  0.0334 -0.7939
 5852SOL    HW229193   3.819   4.347  16.326 -0.5586 -0.0430  0.4494
 5853SOL     OW29194   3.987   3.948  11.508  0.3120  0.0193 -0.6655
 5853SOL    HW129195   3.955   3.985  11.591 -1.0256 -0.0835 -1.1259
 5853SOL    HW229196   3.918   3.955  11.442  0.2440 -0.4142 -0.6405
 5854SOL     OW29197   4.065   3.735  12.297  0.0315 -0.5538 -0.8708
 5854SOL    HW129198   4.019   3.674  12.355 -1.9039  1.0286 -0.7282
 5854SOL    HW229199   4.153   3.730  12.334 -0.0874  2.8254 -0.1356
 5855SOL     OW29200   2.092   0.494   9.888  0.3185  0.4270  0.0895
 5855SOL    HW129201   2.041   0.495   9.807  2.5010  0.1842 -1.2678
 5855SOL    HW229202   2.153   0.422   9.875 -0.0686  0.0695  0.2296
 5856SOL     OW29203   3.698   1.282  16.420  0.9456  0.2425 -0.2088
 5856SOL    HW129204   3.627   1.276  16.356  0.8743 -3.0982  0.1852
 5856SOL    HW229205   3.774   1.324  16.379 -0.5542  1.8743 -1.3316
 5857SOL     OW29206   2.147   3.740   2.825 -0.2089 -0.1631 -0.5864
 5857SOL    HW129207   2.241   3.741   2.806  0.3425  0.3042  2.2155
 5857SOL    HW229208   2.123   3.697   2.743  1.2012  2.3846 -2.3535
 5858SOL     OW29209   0.232   0.652  12.695  0.7309 -0.1034  0.0919
 5858SOL    HW129210   0.235   0.575  12.752  2.0127 -0.8408 -0.9704
 5858SOL    HW229211   0.271   0.723  12.747  1.8085  0.8144 -1.9742
 5859SOL     OW29212   2.934   1.887  12.330  0.2902  0.0123  0.7869
 5859SOL    HW129213   2.917   1.841  12.413  1.1095  2.4380  2.3058
 5859SOL    HW229214   3.030   1.892  12.331  0.2824  0.1583  0.3860
 5860SOL     OW29215   0.124   1.612   7.462 -0.1964 -0.2481  0.3893
 5860SOL    HW129216   0.051   1.673   7.469  0.1937  0.3187 -0.5882
 5860SOL    HW229217   0.173   1.642   7.539  1.4499  1.7095 -1.4446
 5861SOL     OW29218   3.115   2.756   8.248  0.3649 -1.0762  0.4530
 5861SOL    HW129219   3.161   2.840   8.252  0.5532 -1.0724 -1.9537
 5861SOL    HW229220   3.098   2.746   8.342  1.0788 -2.9061  0.3872
 5862SOL     OW29221   2.310   0.348   7.354  0.0986 -0.0559 -0.2703
 5862SOL    HW129222   2.369   0.392   7.415  0.1945 -1.0058  0.3173
 5862SOL    HW229223   2.287   0.267   7.399 -1.6506  0.0380 -0.9906
 5863SOL     OW29224   0.077   0.940   2.597  0.5863  0.1173  0.3897
 5863SOL    HW129225   0.008   0.964   2.534 -0.0861 -0.6723  0.8194
 5863SOL    HW229226   0.127   1.019   2.614 -1.0634  1.0400  0.9251
 5864SOL     OW29227   3.132   0.624   3.333  0.0832  0.4162  0.3308
 5864SOL    HW129228   3.197   0.576   3.282 -0.4964 -1.0186  0.9436
 5864SOL    HW229229   3.163   0.615   3.423  1.2102  2.4152  0.1406
 5865SOL     OW29230   0.595   4.024   7.859  0.6051 -0.2605  0.4986
 5865SOL    HW129231   0.531   4.084   7.820 -0.3267 -1.9942 -0.6379
 5865SOL    HW229232   0.666   4.024   7.795  0.4715 -1.3318  0.3590
 5866SOL     OW29233   4.546   4.647   6.968 -0.3481  0.3764  0.1795
 5866SOL    HW129234   4.588   4.732   6.959  0.7246 -0.3058 -1.2688
 5866SOL    HW229235   4.516   4.637   7.058  0.5112  0.2584  0.4436
 5867SOL     OW29236   2.192   3.768   9.468 -0.1919  0.6540  0.3166
 5867SOL    HW129237   2.226   3.850   9.503 -1.3472  0.6310  1.5121
 5867SOL    HW229238   2.113   3.801   9.425 -0.6419 -0.2451  0.4481
 5868SOL     OW29239   3.228   3.580   3.123  0.0334  1.0356 -0.2933
 5868SOL    HW129240   3.263   3.574   3.212 -0.4360 -1.4794 -0.2637
 5868SOL    HW229241   3.303   3.609   3.072 -1.3306  3.3058 -1.0059
 5869SOL     OW29242   2.109   0.866   9.526  0.2586 -0.2815 -0.2165
 5869SOL    HW129243   2.054   0.809   9.581  3.7346 -0.7611  2.7923
 5869SOL    HW229244   2.172   0.892   9.593  0.6913 -0.9626 -0.3537
 5870SOL     OW29245   3.329   1.799   5.357  0.4114 -0.0951  0.3990
 5870SOL    HW129246   3.268   1.735   5.393  0.7737 -1.8057 -1.9490
 5870SOL    HW229247   3.404   1.797   5.417  2.1292 -0.6555 -1.7505
 5871SOL     OW29248   0.888   1.866   4.731  0.0103  0.3933  0.4956
 5871SOL    HW129249   0.858   1.922   4.803  1.5171  2.2088 -0.2811
 5871SOL    HW229250   0.959   1.919   4.695  1.2026 -1.7676 -0.3007
 5872SOL     OW29251   0.587   4.521   9.528 -0.1105  0.2558  0.0199
 5872SOL    HW129252   0.620   4.472   9.603  0.7463  2.3393  0.9856
 5872SOL    HW229253   0.672   4.533   9.486  0.7039  1.9655  2.2001
 5873SOL     OW29254   0.102   3.076   6.004 -0.2929  0.2693 -0.2114
 5873SOL    HW129255   0.189   3.036   5.991 -0.9774 -0.5187 -2.3978
 5873SOL    HW229256   0.121   3.159   5.961 -0.0890  0.0354 -0.5747
 5874SOL     OW29257   2.205   3.421   6.936  0.0213  0.3769  0.2408
 5874SOL    HW129258   2.148   3.345   6.945  0.7524 -0.6389 -3.7695
 5874SOL    HW229259   2.293   3.382   6.933  0.1755  0.8117 -0.8918
 5875SOL     OW29260   2.006   2.549   4.796 -0.7797 -0.1855 -0.0018
 5875SOL    HW129261   2.029   2.501   4.717  0.3177 -0.4761  0.4973
 5875SOL    HW229262   2.076   2.613   4.788 -2.5387  1.5441 -1.3550
 5876SOL     OW29263   2.977   4.097  15.297  0.1295 -0.2448 -0.1011
 5876SOL    HW129264   2.991   4.040  15.372 -0.5887 -0.5248 -0.1783
 5876SOL    HW229265   2.889   4.132  15.314  0.3957 -0.7108  2.1828
 5877SOL     OW29266   3.111   3.460   7.050 -0.2670  0.3389  0.1346
 5877SOL    HW129267   3.113   3.556   7.053  0.1005  0.3161  0.7343
 5877SOL    HW229268   3.173   3.449   6.979  0.3055 -1.5571  0.9288
 5878SOL     OW29269   1.010   2.306  14.343 -0.0653  0.5095 -0.7480
 5878SOL    HW129270   0.929   2.258  14.323  0.9340 -0.5422 -2.2887
 5878SOL    HW229271   0.967   2.391  14.347  0.0949  0.5556 -0.0856
 5879SOL     OW29272   3.514   4.503   8.181 -0.0498 -0.3111  0.3224
 5879SOL    HW129273   3.553   4.510   8.268 -1.0819 -0.1789  0.7751
 5879SOL    HW229274   3.462   4.584   8.179  0.9475  0.3021 -0.5184
 5880SOL     OW29275   1.483   1.993   5.486  0.7026 -0.7657  0.1332
 5880SOL    HW129276   1.574   2.002   5.460  0.1253 -1.2814 -2.0431
 5880SOL    HW229277   1.480   1.904   5.523 -2.8043 -0.7011  0.0551
 5881SOL     OW29278   1.196   3.369   2.368 -0.1265 -0.1348  0.1774
 5881SOL    HW129279   1.168   3.278   2.367 -0.0165 -0.1544 -1.0145
 5881SOL    HW229280   1.244   3.371   2.451  2.0767  0.9556 -1.1280
 5882SOL     OW29281   0.262   3.447  12.633  0.2935 -0.0719 -0.0375
 5882SOL    HW129282   0.238   3.415  12.547 -0.1656  1.5522 -0.5146
 5882SOL    HW229283   0.337   3.501  12.607 -0.6377  0.4247 -1.6330
 5883SOL     OW29284   1.370   2.789  11.964  0.2030 -0.7045 -0.5721
 5883SOL    HW129285   1.445   2.755  12.013  1.1231  1.5204 -0.4162
 5883SOL    HW229286   1.355   2.875  12.004 -1.8204 -1.7714  0.8912
 5884SOL     OW29287   4.346   3.903   0.212 -0.3614  0.1145  0.5191
 5884SOL    HW129288   4.422   3.929   0.264  0.1412  0.0193 -0.1637
 5884SOL    HW229289   4.335   3.981   0.157  1.1942  0.9528  1.3887
 5885SOL     OW29290   1.108   0.238   3.786 -0.0238 -0.2581  0.1055
 5885SOL    HW129291   1.142   0.265   3.700 -2.5140  0.8738 -0.5088
 5885SOL    HW229292   1.082   0.148   3.766 -0.8548 -0.2694  1.2715
 5886SOL     OW29293   0.514   1.068   6.455  0.2309  0.0677  0.8342
 5886SOL    HW129294   0.447   1.043   6.391 -0.1505  1.5757  0.6512
 5886SOL    HW229295   0.552   1.150   6.422 -0.0756 -1.0321 -2.2683
 5887SOL     OW29296   1.208   3.608  17.628 -0.4933 -0.3607 -0.2311
 5887SOL    HW129297   1.247   3.527  17.661  1.9354  0.5034 -0.9777
 5887SOL    HW229298   1.141   3.571  17.571 -0.3900 -1.2482  0.2315
 5888SOL     OW29299   0.347   2.875  11.769  0.3745 -0.6534 -0.1315
 5888SOL    HW129300   0.372   2.786  11.743  0.0022 -0.2870 -1.7513
 5888SOL    HW229301   0.345   2.926  11.687  1.4552  0.3615  0.4756
 5889SOL     OW29302   0.855   3.411  15.897 -0.4049  0.0912 -0.4618
 5889SOL    HW129303   0.919   3.480  15.914  0.7467 -1.5306  1.7760
 5889SOL    HW229304   0.831   3.441  15.809 -0.9652  0.3969 -0.2083
 5890SOL     OW29305   2.920   0.951   3.106  0.5737  0.1950 -0.3837
 5890SOL    HW129306   2.986   1.012   3.074 -0.7939  2.3025  0.7978
 5890SOL    HW229307   2.911   0.889   3.033 -2.1930  0.1480  0.0108
 5891SOL     OW29308   4.033   4.437   9.753 -0.0430 -0.0167  0.4417
 5891SOL    HW129309   4.095   4.474   9.691  1.4349 -1.0482  1.3218
 5891SOL    HW229310   4.047   4.347   9.726  3.1563  0.1603  1.5509
 5892SOL     OW29311   1.126   0.507   8.640  0.1881  0.4971  0.4799
 5892SOL    HW129312   1.118   0.581   8.580 -2.3749  0.5242  0.8616
 5892SOL    HW229313   1.214   0.513   8.679  0.4335  0.3117 -0.0450
 5893SOL     OW29314   3.033   3.055   3.403  0.0050 -0.0180 -0.0639
 5893SOL    HW129315   2.988   3.088   3.325  2.4199  0.9919 -1.0479
 5893SOL    HW229316   3.016   3.131   3.459 -1.2388 -0.8400  0.6587
 5894SOL     OW29317   2.207   2.209  16.187 -0.1094 -0.6316  0.3729
 5894SOL    HW129318   2.282   2.172  16.234  2.3154  1.3584 -1.9369
 5894SOL    HW229319   2.203   2.150  16.111 -3.0438  2.5036 -1.9083
 5895SOL     OW29320   4.311   4.306  17.624  0.0244 -0.8802  0.3053
 5895SOL    HW129321   4.248   4.329  17.554 -3.5883  1.2010  4.2298
 5895SOL    HW229322   4.374   4.377  17.616 -1.6600  0.5436 -0.6076
 5896SOL     OW29323   2.642   3.538   5.142 -0.6150  0.9992  0.3583
 5896SOL    HW129324   2.704   3.611   5.147  3.2638 -2.2928  0.2466
 5896SOL    HW229325   2.582   3.545   5.216 -0.3829  1.6546  0.4877
 5897SOL     OW29326   3.983   4.724   3.807 -0.2478 -0.1109 -0.0158
 5897SOL    HW129327   3.975   4.667   3.883  0.5701  0.4506  0.4926
 5897SOL    HW229328   3.912   4.698   3.748 -0.7751  0.6352  0.2900
 5898SOL     OW29329   2.979   0.383   8.158  0.3163 -0.0488 -0.1717
 5898SOL    HW129330   3.020   0.469   8.148 -0.8712  0.6347  0.8931
 5898SOL    HW229331   2.897   0.406   8.202  2.0054  2.6338  1.5280
 5899SOL     OW29332   3.819   2.307  13.763  0.4987  0.0055 -0.5058
 5899SOL    HW129333   3.784   2.232  13.812  0.7866 -0.8414 -1.6103
 5899SOL    HW229334   3.900   2.318  13.813  0.2568 -0.8986  0.0741
 5900SOL     OW29335   1.158   1.705   8.918  0.0074  0.3581  0.1092
 5900SOL    HW129336   1.226   1.662   8.969  0.9573  1.6072 -0.0887
 5900SOL    HW229337   1.132   1.775   8.979 -0.0216 -1.3438  2.0595
 5901SOL     OW29338   4.154   2.268   1.106  0.6771  0.0541 -0.3256
 5901SOL    HW129339   4.069   2.290   1.069  0.3889 -1.6061 -0.6541
 5901SOL    HW229340   4.211   2.282   1.030  0.3948  1.1338 -0.3421
 5902SOL     OW29341   2.597   3.245   0.287  0.1691  0.5439 -0.0602
 5902SOL    HW129342   2.510   3.266   0.254 -0.4420 -0.6749  0.7928
 5902SOL    HW229343   2.638   3.327   0.260  0.2604  1.0329  1.5378
 5903SOL     OW29344   0.346   4.023  11.191  0.5142 -0.1979  0.2666
 5903SOL    HW129345   0.340   3.974  11.273 -0.8286 -0.9602 -0.2745
 5903SOL    HW229346   0.401   4.098  11.214  1.1534 -0.8145  0.7393
 5904SOL     OW29347   2.537   2.552   7.067 -0.0696 -0.4286  0.1169
 5904SOL    HW129348   2.582   2.491   7.008 -1.9510 -0.3803 -1.3630
 5904SOL    HW229349   2.468   2.584   7.008  0.4202 -3.0356 -1.8388
 5905SOL     OW29350   3.771   3.774   4.641 -0.2558 -0.0328 -0.2417
 5905SOL    HW129351   3.716   3.812   4.709  1.1940  4.2229 -1.4011
 5905SOL    HW229352   3.790   3.853   4.589 -0.2371  0.2464  0.1893
 5906SOL     OW29353   3.401   1.181   7.902 -0.1076 -0.0476  0.2601
 5906SOL    HW129354   3.484   1.166   7.948  0.7630  3.2287 -0.2344
 5906SOL    HW229355   3.406   1.276   7.890 -1.1754 -0.1439 -0.9706
 5907SOL     OW29356   3.890   3.008   2.752  0.6649 -0.4090 -0.1320
 5907SOL    HW129357   3.859   3.056   2.829  0.4493 -0.1819 -0.3608
 5907SOL    HW229358   3.813   2.966   2.712  0.4277 -0.5089  0.4210
 5908SOL     OW29359   1.671   0.455   4.844  0.1274  0.2231  0.4402
 5908SOL    HW129360   1.592   0.409   4.872 -0.1526  0.2805 -0.2614
 5908SOL    HW229361   1.629   0.541   4.844  1.4875  0.8803 -0.5115
 5909SOL     OW29362   1.351   1.317   2.459  0.3113 -0.5342 -0.3305
 5909SOL    HW129363   1.402   1.389   2.425  2.1131 -1.9804 -0.6799
 5909SOL    HW229364   1.415   1.273   2.515  1.2431  0.6261 -0.4903
 5910SOL     OW29365   3.375   4.712  10.990 -0.1709 -0.3021  0.2871
 5910SOL    HW129366   3.453   4.658  10.980 -0.1719 -0.0663 -1.0130
 5910SOL    HW229367   3.309   4.680  10.929 -1.2359  0.6025  0.9525
 5911SOL     OW29368   1.635   3.730  16.910 -0.3515 -0.1583  0.1556
 5911SOL    HW129369   1.694   3.798  16.877 -2.1294  1.3457  0.0931
 5911SOL    HW229370   1.604   3.714  16.821  2.6763 -2.8504 -0.4366
 5912SOL     OW29371   4.445   3.749  14.453  0.1292 -0.7978 -0.0731
 5912SOL    HW129372   4.377   3.691  14.487 -1.3179  0.2558 -1.1962
 5912SOL    HW229373   4.387   3.814  14.414  1.0568 -0.8449 -1.5626
 5913SOL     OW29374   4.021   0.282   2.809  0.4967 -0.5646 -0.4460
 5913SOL    HW129375   3.964   0.337   2.862  0.4371  0.5381 -1.6539
 5913SOL    HW229376   3.991   0.310   2.722  1.3669  0.7631 -0.3142
 5914SOL     OW29377   0.767   3.676   4.943 -0.0719 -0.5897 -0.5629
 5914SOL    HW129378   0.817   3.685   5.024 -3.5944  0.5894  1.5146
 5914SOL    HW229379   0.775   3.582   4.929 -0.4576 -0.5108 -1.3061
 5915SOL     OW29380   3.709   0.811  13.453 -0.0479  0.3958  0.6592
 5915SOL    HW129381   3.729   0.778  13.365 -2.7263 -1.4171  0.7346
 5915SOL    HW229382   3.618   0.833  13.437  0.2121 -1.3918 -3.3155
 5916SOL     OW29383   1.697   1.809   6.665  0.4925 -0.0584 -0.7231
 5916SOL    HW129384   1.759   1.875   6.695  0.5633 -0.4923  0.0610
 5916SOL    HW229385   1.637   1.810   6.739  0.6469 -3.2635 -0.5839
 5917SOL     OW29386   3.126   1.583  16.552  0.4762 -0.1884 -0.2423
 5917SOL    HW129387   3.179   1.607  16.476  0.0655  0.2683 -0.3839
 5917SOL    HW229388   3.035   1.587  16.521  0.2835 -0.6744  0.2561
 5918SOL     OW29389   1.163   4.058   3.778  0.5327  0.0600  0.0306
 5918SOL    HW129390   1.183   4.097   3.862  0.8022  0.9725 -0.4578
 5918SOL    HW229391   1.067   4.053   3.779  0.6286 -1.1906  2.3404
 5919SOL     OW29392   4.562   1.999   8.092 -0.4657 -0.0529  0.5529
 5919SOL    HW129393   4.481   2.048   8.079 -0.4448 -0.3883 -0.9442
 5919SOL    HW229394   4.613   2.054   8.150  1.0369 -1.4064  0.5095
 5920SOL     OW29395   4.467   2.728   7.024  0.1059 -0.2810  0.2072
 5920SOL    HW129396   4.442   2.735   7.116 -3.2877  1.4855 -0.8384
 5920SOL    HW229397   4.413   2.655   6.994  0.7669  0.6648 -3.4134
 5921SOL     OW29398   0.201   2.310   5.379 -0.5908 -0.6343 -0.2043
 5921SOL    HW129399   0.111   2.279   5.367 -1.4014  1.1716  1.1805
 5921SOL    HW229400   0.219   2.371   5.308 -0.1516 -1.3512 -0.7114
 5922SOL     OW29401   2.949   3.100   6.999  0.2784 -0.0114  0.5942
 5922SOL    HW129402   2.904   3.017   6.988 -2.2615  1.2586  1.5155
 5922SOL    HW229403   2.899   3.172   6.961  0.5250  0.8235  1.8398
 5923SOL     OW29404   3.743   1.432   6.328 -0.2670  0.1715  0.3128
 5923SOL    HW129405   3.661   1.456   6.284 -1.3417 -2.1960  1.0463
 5923SOL    HW229406   3.718   1.412   6.418  0.5539 -1.3935  0.1910
 5924SOL     OW29407   0.823   1.405   6.750  0.0124  0.1790  0.2676
 5924SOL    HW129408   0.774   1.331   6.716  2.8671 -0.6849 -1.9540
 5924SOL    HW229409   0.766   1.433   6.822 -1.7129 -1.3157 -0.5425
 5925SOL     OW29410   0.251   3.578   8.105 -0.2480  0.0131 -0.6494
 5925SOL    HW129411   0.176   3.628   8.075 -0.4572  0.4199  0.5810
 5925SOL    HW229412   0.326   3.624   8.067 -0.1368  0.1762 -0.2369
 5926SOL     OW29413   1.817   1.403   8.731 -0.2253 -0.1193 -0.2320
 5926SOL    HW129414   1.887   1.440   8.677 -0.2043  0.6988  0.3566
 5926SOL    HW229415   1.784   1.329   8.679  1.1067  0.4596 -1.8921
 5927SOL     OW29416   1.976   3.430   6.330 -0.1663 -0.4971  0.4948
 5927SOL    HW129417   2.064   3.463   6.314  0.5320 -3.4853 -1.9298
 5927SOL    HW229418   1.924   3.500   6.291  1.9489  1.3307  0.9827
 5928SOL     OW29419   0.521   1.417   4.531 -0.1487 -0.1689  1.1493
 5928SOL    HW129420   0.585   1.425   4.461 -0.9479  0.7461  0.5415
 5928SOL    HW229421   0.471   1.336   4.519 -0.7638  0.2575  0.8680
 5929SOL     OW29422   2.888   4.378   3.201  0.7617 -0.5376  0.5050
 5929SOL    HW129423   2.881   4.395   3.295  0.8310 -0.7354  0.5462
 5929SOL    HW229424   2.949   4.304   3.209  2.3882  0.6776 -0.6498
 5930SOL     OW29425   3.132   1.643  17.448 -0.1106 -0.4319  0.5815
 5930SOL    HW129426   3.105   1.713  17.507 -1.4099 -0.2731 -0.1947
 5930SOL    HW229427   3.225   1.637  17.469  0.0774  0.5055  0.0157
 5931SOL     OW29428   2.580   4.737   5.990  0.2579  0.1914 -0.1384
 5931SOL    HW129429   2.667   0.026   5.961  1.2100 -0.2409  2.2096
 5931SOL    HW229430   2.606   4.693   6.071 -1.4663  0.1487  0.3889
 5932SOL     OW29431   0.998   0.067   2.113 -0.1420  0.0272 -0.4117
 5932SOL    HW129432   0.954   0.119   2.046 -1.1710 -1.8202 -1.1623
 5932SOL    HW229433   1.070   0.125   2.141  0.7241 -1.3010  0.1407
 5933SOL     OW29434   3.298   3.112  12.025  0.4498  0.6558  0.8943
 5933SOL    HW129435   3.223   3.144  12.075 -0.1550  2.5281 -1.2111
 5933SOL    HW229436   3.308   3.185  11.963  0.3975 -1.0707 -1.1620
 5934SOL     OW29437   1.377   0.280   1.993 -0.2876 -0.3170 -0.3612
 5934SOL    HW129438   1.353   0.362   1.950  3.6554  0.3088 -1.3057
 5934SOL    HW229439   1.386   0.308   2.085  1.0243  2.9184 -1.4726
 5935SOL     OW29440   3.563   1.213   9.962 -0.3011  0.1651  0.1350
 5935SOL    HW129441   3.469   1.234   9.960 -0.4883 -0.8640 -2.1654
 5935SOL    HW229442   3.582   1.272  10.035  1.9334 -1.5299  0.9077
 5936SOL     OW29443   2.627   4.313  15.618  0.0323 -0.1242  0.1580
 5936SOL    HW129444   2.638   4.259  15.696  1.0293  0.5471  0.4842
 5936SOL    HW229445   2.535   4.322  15.592  0.3904  1.5367 -0.5078
 5937SOL     OW29446   4.080   2.640  14.959  0.6129 -0.7319  0.0836
 5937SOL    HW129447   4.129   2.633  15.041 -0.6194  0.0843  0.8926
 5937SOL    HW229448   3.997   2.680  14.986 -0.5767 -1.4091 -2.5609
 5938SOL     OW29449   2.491   2.528   3.279  0.2209 -0.7665  0.3097
 5938SOL    HW129450   2.416   2.490   3.234 -1.7252  1.5132  1.6639
 5938SOL    HW229451   2.545   2.450   3.285  0.3467 -0.7706 -0.8379
 5939SOL     OW29452   0.114   0.211   0.043 -0.6067  0.2256  0.1146
 5939SOL    HW129453   0.188   0.217  17.743 -1.4692 -0.7307 -1.0616
 5939SOL    HW229454   0.120   0.297   0.084  0.5115 -0.5833  1.6531
 5940SOL     OW29455   4.692   2.232   5.344 -0.1340  0.0399 -0.5524
 5940SOL    HW129456   4.695   2.190   5.258 -0.5812 -0.7702 -0.1770
 5940SOL    HW229457   4.599   2.235   5.368  0.5687  2.6815  1.8994
 5941SOL     OW29458   2.244   2.633   9.392 -0.4099  0.5653  0.5195
 5941SOL    HW129459   2.323   2.579   9.386 -0.2460  0.9564 -1.0798
 5941SOL    HW229460   2.191   2.608   9.468 -1.0477  2.0285  0.5521
 5942SOL     OW29461   1.890   3.172   5.113 -0.0571 -0.3598  0.5512
 5942SOL    HW129462   1.977   3.137   5.093 -0.2700 -0.9075  0.5786
 5942SOL    HW229463   1.838   3.161   5.034  2.2441 -0.3219 -0.9760
 5943SOL     OW29464   4.563   2.450   3.363  0.2599 -0.1331  0.5290
 5943SOL    HW129465   4.476   2.443   3.403  0.5437 -0.8288  1.0212
 5943SOL    HW229466   4.607   2.382   3.412 -0.4675  0.1715  1.6084
 5944SOL     OW29467   1.958   0.440   8.471 -0.4395 -0.6342  0.1880
 5944SOL    HW129468   2.030   0.449   8.408  0.5782  0.1852  1.4587
 5944SOL    HW229469   1.889   0.395   8.424  1.1669  0.5822 -3.3407
 5945SOL     OW29470   1.881   0.860   8.925  0.4121 -0.3410  0.2267
 5945SOL    HW129471   1.795   0.858   8.968  0.3284  2.6076  0.1875
 5945SOL    HW229472   1.920   0.928   8.979 -1.6869 -0.3231  1.7574
 5946SOL     OW29473   1.996   2.633   6.822 -0.0583  0.4016 -0.6218
 5946SOL    HW129474   2.053   2.600   6.753 -0.3517 -1.5385  0.0564
 5946SOL    HW229475   1.915   2.633   6.771  1.0087 -1.3742 -2.3207
 5947SOL     OW29476   0.747   0.106   2.283  0.4306 -0.4500  0.0685
 5947SOL    HW129477   0.713   0.034   2.336 -0.3408 -1.6219 -2.0149
 5947SOL    HW229478   0.837   0.079   2.265  0.2681 -0.8888 -0.0815
 5948SOL     OW29479   3.861   4.616   7.018 -0.0917  0.2242  0.2211
 5948SOL    HW129480   3.878   4.598   7.111 -0.5471  0.1298  0.2865
 5948SOL    HW229481   3.954   4.621   6.998  0.2092 -1.8700  1.1356
 5949SOL     OW29482   1.257   2.050   3.180  0.0893 -0.3402 -0.1293
 5949SOL    HW129483   1.324   1.988   3.150  2.0472  0.7164  2.1238
 5949SOL    HW229484   1.200   2.049   3.103 -0.6471 -2.1402  0.4371
 5950SOL     OW29485   0.072   3.096   5.602  0.1243 -0.2401  0.0594
 5950SOL    HW129486   0.101   3.022   5.656  2.2573  0.8867  0.4252
 5950SOL    HW229487   4.740   3.068   5.546  0.1381  0.8609 -0.5011
 5951SOL     OW29488   2.270   1.816  13.043 -1.3371  0.1291 -0.1812
 5951SOL    HW129489   2.351   1.800  13.092 -0.8264  0.4122 -0.9341
 5951SOL    HW229490   2.228   1.730  13.047 -1.0550  0.0043  0.0931
 5952SOL     OW29491   1.614   1.957   1.815 -0.4325 -0.1971  0.3683
 5952SOL    HW129492   1.533   1.909   1.831  0.2511 -1.5054 -0.1073
 5952SOL    HW229493   1.613   1.983   1.723 -3.7349  0.7352  0.6803
 5953SOL     OW29494   3.012   1.429   2.007  0.5404 -0.7584  0.2052
 5953SOL    HW129495   2.926   1.440   1.967  1.9298  0.0031 -2.6140
 5953SOL    HW229496   3.013   1.337   2.032  2.2006 -1.0541 -0.8838
 5954SOL     OW29497   0.074   2.547  15.392  0.0726 -0.5371  0.7668
 5954SOL    HW129498   0.017   2.471  15.400  1.4136 -1.6957 -0.8868
 5954SOL    HW229499   0.153   2.530  15.444 -0.8142 -0.4267  2.1634
 5955SOL     OW29500   0.096   3.643   9.747 -0.0554  0.3824 -0.3819
 5955SOL    HW129501   0.005   3.618   9.734  0.8699 -0.7881 -4.5130
 5955SOL    HW229502   0.122   3.646   9.655  0.8039 -0.6447 -0.1702
 5956SOL     OW29503   2.057   1.033   5.432  0.3865  1.0613  0.0252
 5956SOL    HW129504   2.006   0.953   5.419  1.7728 -0.0159  1.1004
 5956SOL    HW229505   2.068   1.037   5.527 -2.8865  0.7454  0.4293
 5957SOL     OW29506   2.487   3.450  14.179 -0.4785 -0.5049 -0.2249
 5957SOL    HW129507   2.465   3.506  14.104  1.6070  0.8124  0.1364
 5957SOL    HW229508   2.421   3.382  14.181 -1.3073  0.3586  2.0502
 5958SOL     OW29509   1.294   1.589   5.751 -0.0447  0.4427 -0.0529
 5958SOL    HW129510   1.335   1.577   5.665 -1.6108 -1.8712 -0.4866
 5958SOL    HW229511   1.296   1.683   5.769 -0.2545  0.2479  0.9442
 5959SOL     OW29512   3.509   3.740   2.307 -0.3989  0.1716  0.2423
 5959SOL    HW129513   3.581   3.711   2.251  0.2920 -2.0498  2.2420
 5959SOL    HW229514   3.560   3.792   2.369  0.5514 -1.8036  1.1309
 5960SOL     OW29515   4.693   2.711   5.602  0.1300  0.1811 -0.5055
 5960SOL    HW129516   0.020   2.738   5.664  0.4231  0.1656 -0.8239
 5960SOL    HW229517   4.717   2.619   5.591 -0.1769  0.3106 -2.2582
 5961SOL     OW29518   0.075   0.027   2.312 -0.0852  0.0188 -0.1221
 5961SOL    HW129519   0.070   4.673   2.322 -0.3797 -0.0355 -0.7705
 5961SOL    HW229520   0.086   0.045   2.219 -1.1573 -2.1037 -0.6446
 5962SOL     OW29521   4.646   1.405   2.696  0.0201  0.0362 -0.2636
 5962SOL    HW129522   4.706   1.474   2.724 -1.8353  1.3749  0.3672
 5962SOL    HW229523   4.560   1.446   2.698  0.1874  0.5229 -3.4872
 5963SOL     OW29524   2.676   2.399   5.217 -0.0152 -0.1947  0.3772
 5963SOL    HW129525   2.657   2.339   5.145 -0.5863  0.7898 -0.2919
 5963SOL    HW229526   2.616   2.471   5.202  0.9397  1.1739  3.1867
 5964SOL     OW29527   1.540   2.791   1.851  0.1278  0.1875 -0.4012
 5964SOL    HW129528   1.493   2.711   1.874 -0.0431  1.4590  3.6197
 5964SOL    HW229529   1.617   2.786   1.907 -0.4015 -0.3459  0.2706
 5965SOL     OW29530   0.445   0.681   7.416 -0.5501  0.0478 -0.2632
 5965SOL    HW129531   0.353   0.659   7.403 -0.9094  1.3746  0.0866
 5965SOL    HW229532   0.486   0.615   7.360 -0.0932 -0.3685  0.5683
 5966SOL     OW29533   3.617   1.303   1.228  0.3556  0.0596 -0.0762
 5966SOL    HW129534   3.557   1.229   1.232  0.5430 -0.1036 -0.2852
 5966SOL    HW229535   3.567   1.377   1.262  0.3638 -0.3590  0.8668
 5967SOL     OW29536   1.965   1.861  14.865 -0.2341  0.0601  0.6680
 5967SOL    HW129537   1.883   1.900  14.897 -0.0862 -0.9269  2.2279
 5967SOL    HW229538   2.029   1.898  14.927  1.5634 -0.8750 -0.6446
 5968SOL     OW29539   2.190   1.150   3.790  0.0261 -0.5366 -0.2134
 5968SOL    HW129540   2.184   1.226   3.732 -2.1299 -0.7373 -0.2638
 5968SOL    HW229541   2.239   1.175   3.868  1.1202  0.2882 -1.1777
 5969SOL     OW29542   4.116   0.626  12.939  0.6193  0.7003 -0.3058
 5969SOL    HW129543   4.077   0.691  12.880 -1.1180 -1.0753 -1.1437
 5969SOL    HW229544   4.038   0.579  12.970  0.8409 -0.3531 -1.3517
 5970SOL     OW29545   3.084   2.618   9.114  0.1685  0.0676 -0.0289
 5970SOL    HW129546   2.991   2.595   9.122  0.0149  1.3990  2.1266
 5970SOL    HW229547   3.075   2.707   9.081  1.2610  0.6699  1.2850
 5971SOL     OW29548   4.153   1.783  11.120 -0.1659 -0.3375  0.1045
 5971SOL    HW129549   4.097   1.711  11.093  0.2974 -0.1179 -1.5014
 5971SOL    HW229550   4.202   1.735  11.186 -0.8218  0.8027  1.4072
 5972SOL     OW29551   2.451   1.591   7.975 -0.3577 -0.3326  0.4390
 5972SOL    HW129552   2.453   1.559   7.885  2.8305  1.6124 -0.1470
 5972SOL    HW229553   2.370   1.642   7.975 -0.4858 -0.5520 -0.5428
 5973SOL     OW29554   4.324   2.556   3.519 -0.3453 -0.7581 -0.1745
 5973SOL    HW129555   4.265   2.485   3.546 -1.3645  1.3434  3.0280
 5973SOL    HW229556   4.274   2.596   3.448  0.1460 -0.9835 -0.6465
 5974SOL     OW29557   2.834   4.633   7.175  0.0077  0.2925 -0.0175
 5974SOL    HW129558   2.875   4.703   7.124 -0.2095  0.8170  0.5209
 5974SOL    HW229559   2.835   4.561   7.113  1.3045 -0.4290  0.8239
 5975SOL     OW29560   0.884   0.472   6.352  0.2420 -0.2215 -0.6302
 5975SOL    HW129561   0.794   0.456   6.324 -0.4563  0.1293  1.4307
 5975SOL    HW229562   0.930   0.507   6.275 -2.7733  2.9487 -1.0057
 5976SOL     OW29563   3.020   2.131   2.646  0.1744 -0.3310  0.7462
 5976SOL    HW129564   3.017   2.058   2.585 -0.7348  1.2974 -1.1396
 5976SOL    HW229565   2.945   2.108   2.700 -0.3891  1.3070  0.6544
 5977SOL     OW29566   2.236   1.720   7.764  0.1758 -0.3804  0.0550
 5977SOL    HW129567   2.197   1.793   7.813  0.8281  0.7374 -1.1219
 5977SOL    HW229568   2.181   1.707   7.687 -0.3065 -0.2523  0.3786
 5978SOL     OW29569   4.036   4.296   2.921  0.8849  0.0768 -0.0338
 5978SOL    HW129570   4.120   4.341   2.909 -0.5221  2.8996  0.7735
 5978SOL    HW229571   3.976   4.366   2.894 -0.6880 -0.8504  1.0884
 5979SOL     OW29572   2.632   3.263  17.666  0.3691 -0.3029  0.8304
 5979SOL    HW129573   2.587   3.344  17.640  1.3283  0.4551  1.5193
 5979SOL    HW229574   2.613   3.204  17.593  0.4096  2.0948 -1.1194
 5980SOL     OW29575   3.806   1.427   4.700 -0.5321  0.0577  0.3811
 5980SOL    HW129576   3.718   1.450   4.731 -0.9431 -1.3204  0.2469
 5980SOL    HW229577   3.787   1.369   4.626 -5.0850  1.1207  0.6937
 5981SOL     OW29578   0.234   0.805   2.238  0.2533  0.1607 -0.3123
 5981SOL    HW129579   0.278   0.801   2.154  1.2016 -0.3438  0.2049
 5981SOL    HW229580   0.239   0.898   2.259 -0.8245  0.3257 -0.7632
 5982SOL     OW29581   2.574   3.817   2.917 -0.1536  0.2376  0.2556
 5982SOL    HW129582   2.652   3.765   2.898  1.0908  2.0764  0.4263
 5982SOL    HW229583   2.516   3.769   2.857 -1.9609  0.9422  1.4318
 5983SOL     OW29584   4.012   2.262  12.188  0.3338 -0.0583 -0.0760
 5983SOL    HW129585   4.009   2.298  12.100  1.6225  0.9331  0.2676
 5983SOL    HW229586   4.103   2.234  12.197 -0.1974 -1.4991  0.8970
 5984SOL     OW29587   3.860   0.056   3.457 -0.2162  0.0792 -0.2860
 5984SOL    HW129588   3.849   4.730   3.525 -0.2734  0.0716 -0.3029
 5984SOL    HW229589   3.859   0.136   3.510  1.5320  1.0514 -1.7218
 5985SOL     OW29590   2.415   1.837   4.371  0.1831 -0.5599 -0.1079
 5985SOL    HW129591   2.469   1.914   4.354  0.0181 -0.5741 -0.6963
 5985SOL    HW229592   2.366   1.822   4.290  1.6521  1.8627 -1.4516
 5986SOL     OW29593   1.370   0.515   8.790  0.3962 -0.0991 -0.1088
 5986SOL    HW129594   1.407   0.569   8.860 -1.6680 -0.4889  1.2666
 5986SOL    HW229595   1.437   0.531   8.723  1.7986  0.7061  1.4865
 5987SOL     OW29596   2.192   3.236   3.741 -0.3520  0.0484 -0.2235
 5987SOL    HW129597   2.230   3.250   3.655  2.5638  0.2369  1.0577
 5987SOL    HW229598   2.104   3.220   3.708 -0.9954  2.4194  0.3901
 5988SOL     OW29599   0.827   1.524   8.969 -0.5727  0.3554 -0.3432
 5988SOL    HW129600   0.896   1.591   8.973 -0.7338  0.4709  0.4651
 5988SOL    HW229601   0.750   1.579   8.984  0.9700  1.8529  2.0677
 5989SOL     OW29602   1.874   1.213   5.643  0.3374 -0.4524 -0.4798
 5989SOL    HW129603   1.837   1.125   5.651  0.5432 -0.5857 -1.0321
 5989SOL    HW229604   1.921   1.218   5.726  1.1577 -2.6356 -0.8136
 5990SOL     OW29605   2.290   4.009  14.980  0.1595  0.4458 -0.2637
 5990SOL    HW129606   2.199   3.999  14.953  0.1138  1.1142 -0.3591
 5990SOL    HW229607   2.323   4.079  14.924  1.6591 -1.0998 -1.3163
 5991SOL     OW29608   3.014   1.119   8.794 -0.1752  0.0401 -0.0191
 5991SOL    HW129609   3.095   1.068   8.798  0.1781  0.5923 -0.1474
 5991SOL    HW229610   3.009   1.140   8.887 -0.3389  2.4065 -0.5711
 5992SOL     OW29611   0.579   4.491  11.386 -0.1114  0.0413 -0.4709
 5992SOL    HW129612   0.563   4.582  11.409  2.2785  0.1397  0.8087
 5992SOL    HW229613   0.601   4.495  11.293  0.6639  2.0141 -0.1911
 5993SOL     OW29614   0.649   1.789   1.463  0.0957  0.0758  0.5626
 5993SOL    HW129615   0.737   1.788   1.500  0.1561  1.3899  0.4445
 5993SOL    HW229616   0.664   1.807   1.370 -2.5908  1.5532  0.4258
 5994SOL     OW29617   4.631   3.757   0.434 -0.0400 -0.6418 -0.4329
 5994SOL    HW129618   4.662   3.707   0.358  0.7775  0.2936 -0.7123
 5994SOL    HW229619   4.608   3.692   0.500 -0.8267 -1.2531 -1.3088
 5995SOL     OW29620   2.815   3.038   2.059  0.2588  0.2567  0.6656
 5995SOL    HW129621   2.860   2.954   2.067  1.4531  0.6533 -1.7210
 5995SOL    HW229622   2.817   3.079   2.146  0.8048 -0.9947  1.2493
 5996SOL     OW29623   2.508   3.444   2.419  0.2911 -0.1983  0.2597
 5996SOL    HW129624   2.466   3.505   2.357  0.2431  0.5059  0.9922
 5996SOL    HW229625   2.600   3.462   2.403  0.2724 -0.0485  0.3219
 5997SOL     OW29626   1.612   4.363   5.854  0.3272 -0.5627 -0.2724
 5997SOL    HW129627   1.632   4.445   5.899 -0.2657 -0.4978 -0.1207
 5997SOL    HW229628   1.534   4.335   5.902 -0.1778  1.5618  0.1550
 5998SOL     OW29629   0.209   3.971  13.072  0.1600  0.6105 -0.2414
 5998SOL    HW129630   0.262   3.978  12.993 -0.5553 -0.2594 -0.7995
 5998SOL    HW229631   0.274   3.946  13.138  0.8296 -1.3980 -1.6667
 5999SOL     OW29632   4.013   0.663   6.867 -0.1866  0.4767  0.3901
 5999SOL    HW129633   3.920   0.643   6.860 -0.3144  1.5917 -0.9241
 5999SOL    HW229634   4.026   0.688   6.959  1.1288  0.1959  0.2902
 6000SOL     OW29635   4.395   2.348  13.573 -0.3524  0.0253 -0.1856
 6000SOL    HW129636   4.423   2.436  13.599  0.3491 -0.3513  0.3438
 6000SOL    HW229637   4.472   2.320  13.524 -1.3861  0.8054 -2.2724
 6001SOL     OW29638   4.220   1.698   5.080  0.1294  0.2096  0.0195
 6001SOL    HW129639   4.130   1.679   5.052  0.2065  0.0201 -0.0962
 6001SOL    HW229640   4.215   1.790   5.105  1.9870  0.8185 -1.9152
 6002SOL     OW29641   4.247   4.415  15.662 -0.1416 -0.1406  0.3199
 6002SOL    HW129642   4.182   4.476  15.696 -0.9075  0.2217 -1.7560
 6002SOL    HW229643   4.233   4.409  15.567  1.1030  2.1426  0.0070
 6003SOL     OW29644   1.803   2.920   1.700 -0.2167  0.5209 -0.0766
 6003SOL    HW129645   1.852   2.855   1.649 -1.3610  0.9583 -1.7320
 6003SOL    HW229646   1.734   2.940   1.637 -1.2144 -1.9481  0.2164
 6004SOL     OW29647   3.314   3.980   6.749  0.2665  0.2710  0.3022
 6004SOL    HW129648   3.388   4.008   6.694 -1.7563  1.2341 -1.9234
 6004SOL    HW229649   3.246   4.024   6.698  2.6489  1.8717 -1.5134
 6005SOL     OW29650   2.159   3.288   2.841  0.1752  0.1511 -0.1379
 6005SOL    HW129651   2.072   3.328   2.842 -0.0433 -0.4052  2.7410
 6005SOL    HW229652   2.171   3.266   2.748 -1.3340  0.2720 -0.3594
 6006SOL     OW29653   1.493   0.765   6.054  0.4931  0.0573  0.2110
 6006SOL    HW129654   1.547   0.811   6.119 -2.6276  0.4024  2.5563
 6006SOL    HW229655   1.559   0.710   6.011 -1.0327  0.0276 -2.1193
 6007SOL     OW29656   1.961   1.855   8.307  0.2371 -0.1774 -0.5620
 6007SOL    HW129657   1.924   1.940   8.332  1.1790 -0.2960  1.2493
 6007SOL    HW229658   2.044   1.884   8.268  0.9303 -1.1941  0.1530
 6008SOL     OW29659   3.230   2.882   7.809  0.9211 -0.1201 -0.7398
 6008SOL    HW129660   3.215   2.924   7.724 -1.1483 -0.4077 -0.5289
 6008SOL    HW229661   3.318   2.916   7.824  0.0741  3.0144 -2.8203
 6009SOL     OW29662   3.580   1.436   8.096 -0.2509  0.4925  0.7877
 6009SOL    HW129663   3.545   1.369   8.154 -1.4323  1.2195  0.9220
 6009SOL    HW229664   3.571   1.517   8.145  1.0685  0.6286  0.8126
 6010SOL     OW29665   0.095   0.192   9.135 -1.0549  0.2187 -0.5214
 6010SOL    HW129666   0.087   0.135   9.211 -0.3224  0.4574 -0.2613
 6010SOL    HW229667   0.098   0.279   9.175 -0.3738 -0.4323  0.8519
 6011SOL     OW29668   3.608   0.221   6.004 -0.4436 -0.0320  0.0123
 6011SOL    HW129669   3.591   0.137   5.961  1.4206 -0.3477 -0.0880
 6011SOL    HW229670   3.645   0.184   6.083  0.6381  0.3914 -0.2953
 6012SOL     OW29671   1.386   4.724   8.998 -0.3605  0.0491  0.2405
 6012SOL    HW129672   1.446   4.719   9.072  2.2621  0.8684 -1.8050
 6012SOL    HW229673   1.327   0.055   9.022  0.0030 -0.5653  2.8762
 6013SOL     OW29674   3.091   0.499   6.210  0.1510 -0.2147 -0.7143
 6013SOL    HW129675   2.999   0.491   6.184 -0.2931  2.4779  0.0010
 6013SOL    HW229676   3.071   0.516   6.303  1.5247 -1.6720 -0.1532
 6014SOL     OW29677   1.659   2.462   7.177  0.3471 -0.4249 -0.9403
 6014SOL    HW129678   1.566   2.480   7.168  0.1685 -1.8725 -1.9375
 6014SOL    HW229679   1.678   2.414   7.096  1.0429 -2.1822  0.2501
 6015SOL     OW29680   0.699   4.255   4.372 -0.2765 -0.7778 -0.2138
 6015SOL    HW129681   0.663   4.218   4.453  1.5172 -0.2949  0.8337
 6015SOL    HW229682   0.759   4.321   4.407 -0.7391 -1.4183  1.8036
 6016SOL     OW29683   0.528   3.993   9.650 -1.2045 -0.1030  0.2630
 6016SOL    HW129684   0.480   4.006   9.731 -0.1609 -0.8053  1.0087
 6016SOL    HW229685   0.492   4.057   9.589 -0.4536 -2.4382 -2.6162
 6017SOL     OW29686   0.103   0.042   6.319 -0.5851 -0.4313  0.5702
 6017SOL    HW129687   0.076   0.045   6.227 -1.9306 -0.6200  0.9521
 6017SOL    HW229688   0.023   0.065   6.367 -1.7837 -0.3449 -1.4522
 6018SOL     OW29689   1.832   1.502   9.172  0.2507  0.2517  0.1447
 6018SOL    HW129690   1.893   1.575   9.164 -1.1349  1.5790  1.6167
 6018SOL    HW229691   1.743   1.537   9.180  0.3033  0.6979 -1.3002
 6019SOL     OW29692   0.189   3.905   2.493 -0.1456  0.4100  1.1155
 6019SOL    HW129693   0.214   3.997   2.492  2.8479 -0.3724  1.4973
 6019SOL    HW229694   0.197   3.878   2.585 -0.3682 -1.6899  0.5119
 6020SOL     OW29695   1.267   0.255   6.289 -1.0840 -0.6124  0.1885
 6020SOL    HW129696   1.299   0.165   6.300 -0.9197 -0.1905  3.1249
 6020SOL    HW229697   1.342   0.312   6.271 -1.7410  0.4580  0.8588
 6021SOL     OW29698   1.616   1.396  15.638  0.4441  0.2759  0.1039
 6021SOL    HW129699   1.616   1.312  15.683  0.3297  0.1169 -0.1922
 6021SOL    HW229700   1.522   1.401  15.622  0.4356  0.9190  0.3694
 6022SOL     OW29701   4.573   1.931   4.557 -0.7243 -0.3845  0.0723
 6022SOL    HW129702   4.536   1.967   4.476  2.1856 -0.1288 -1.1521
 6022SOL    HW229703   4.654   1.982   4.557 -0.3678 -0.9536 -0.0728
 6023SOL     OW29704   3.743   0.221   5.534  0.7868  0.0832  0.2124
 6023SOL    HW129705   3.779   0.183   5.614 -0.4264  1.1584  1.2592
 6023SOL    HW229706   3.653   0.226   5.567  0.8051 -1.2724  0.4571
 6024SOL     OW29707   1.442   1.140   6.830  0.8192 -0.7230  0.2019
 6024SOL    HW129708   1.404   1.104   6.910  1.1808  0.7137  1.0277
 6024SOL    HW229709   1.447   1.069   6.766 -0.8483 -0.5279 -0.1374
 6025SOL     OW29710   0.595   2.691   1.231  0.6607 -0.0342 -0.0901
 6025SOL    HW129711   0.600   2.777   1.188 -0.2558 -0.3262 -0.7750
 6025SOL    HW229712   0.529   2.709   1.298 -0.4947 -0.6575 -1.0537
 6026SOL     OW29713   4.486   0.395   3.587 -0.1824 -0.4745 -0.3300
 6026SOL    HW129714   4.484   0.488   3.607  0.7838 -0.3710 -0.7132
 6026SOL    HW229715   4.459   0.353   3.668  0.9240 -0.7589 -0.1192
 6027SOL     OW29716   1.359   1.864   1.771  0.2932 -0.1535  0.1800
 6027SOL    HW129717   1.275   1.880   1.728 -1.0979 -0.5051  2.7662
 6027SOL    HW229718   1.368   1.774   1.738  0.3736  1.0071 -2.9461
 6028SOL     OW29719   0.524   1.195   8.771 -0.1699  0.0493 -0.4928
 6028SOL    HW129720   0.587   1.168   8.838 -0.0635 -0.6460 -0.8794
 6028SOL    HW229721   0.567   1.268   8.726 -1.3224  0.0661 -1.5763
 6029SOL     OW29722   1.032   3.740   2.677  0.6574  0.1344  0.1668
 6029SOL    HW129723   1.054   3.682   2.604 -0.3840  1.8468 -1.5214
 6029SOL    HW229724   1.035   3.827   2.636 -3.9205  1.5506  2.9074
 6030SOL     OW29725   3.728   1.928   2.812  0.4321  0.3071  0.1030
 6030SOL    HW129726   3.820   1.913   2.835 -0.1199 -3.1396 -0.0256
 6030SOL    HW229727   3.736   2.006   2.757 -2.3195  0.2862 -0.3331
 6031SOL     OW29728   1.895   2.820   9.231 -0.4598  0.0595  0.1485
 6031SOL    HW129729   1.974   2.828   9.285  0.5209 -0.8501 -1.1363
 6031SOL    HW229730   1.926   2.842   9.143  1.0127 -1.2890  0.3146
 6032SOL     OW29731   1.206   4.336   1.886 -0.1278 -0.4501 -0.2364
 6032SOL    HW129732   1.132   4.339   1.825  0.2266 -0.9470 -0.6940
 6032SOL    HW229733   1.164   4.389   1.953  4.0242  0.0932  1.8984
 6033SOL     OW29734   0.848   2.368   2.621  0.6253 -0.2500  0.4634
 6033SOL    HW129735   0.923   2.428   2.622  0.4812 -0.0880  1.1735
 6033SOL    HW229736   0.868   2.303   2.554 -0.9421 -2.6729  2.3706
 6034SOL     OW29737   3.858   4.253   3.339 -0.7431 -0.1281  0.7237
 6034SOL    HW129738   3.920   4.324   3.326  0.0917 -0.9939 -0.0267
 6034SOL    HW229739   3.892   4.204   3.413  0.3483 -0.4687 -0.0116
 6035SOL     OW29740   2.993   3.246   5.509 -0.0022  0.3012  0.0222
 6035SOL    HW129741   3.088   3.240   5.515  0.1049  3.1807  1.2781
 6035SOL    HW229742   2.988   3.341   5.502  0.9690  0.3618  0.2560
 6036SOL     OW29743   1.253   3.852   6.683 -0.3226 -0.3882  0.4492
 6036SOL    HW129744   1.226   3.881   6.770  0.8849 -1.4977  1.1954
 6036SOL    HW229745   1.293   3.931   6.648 -2.6931  0.5459 -0.1461
 6037SOL     OW29746   3.764   4.375  11.483  0.2388 -0.3379  0.0926
 6037SOL    HW129747   3.692   4.417  11.529 -1.5401  1.5952 -4.4497
 6037SOL    HW229748   3.788   4.436  11.413  0.4049 -0.0372  0.4120
 6038SOL     OW29749   3.395   3.124   6.684 -0.0659 -0.5006  0.1984
 6038SOL    HW129750   3.301   3.111   6.697  0.1437 -1.3592  0.8168
 6038SOL    HW229751   3.397   3.144   6.591 -0.2552  0.8982  0.4834
 6039SOL     OW29752   0.667   2.574   3.761 -0.0280 -0.4073 -0.3959
 6039SOL    HW129753   0.621   2.658   3.761  1.6245  0.4848  1.2772
 6039SOL    HW229754   0.743   2.604   3.811  0.8828 -3.3088 -0.0345
 6040SOL     OW29755   3.578   1.521  13.143  0.0508 -0.2194  0.1961
 6040SOL    HW129756   3.615   1.477  13.220  1.6175  1.5315  0.4323
 6040SOL    HW229757   3.651   1.581  13.131  0.3219 -0.7721 -0.8985
 6041SOL     OW29758   2.101   2.912  12.003 -0.3081  0.1083  0.6760
 6041SOL    HW129759   2.055   2.843  12.052  1.4016 -2.1164 -0.8412
 6041SOL    HW229760   2.191   2.905  12.034 -0.0648 -3.8286 -0.8322
 6042SOL     OW29761   1.935   3.963   5.389  0.0036 -0.3587  0.2864
 6042SOL    HW129762   1.917   4.014   5.469  3.3217  0.2018  0.6730
 6042SOL    HW229763   1.998   3.898   5.419  1.6306  2.0922  2.1980
 6043SOL     OW29764   1.220   4.536   7.842 -0.0109  0.4705  0.1597
 6043SOL    HW129765   1.213   4.541   7.747 -0.6195  1.0850  0.2368
 6043SOL    HW229766   1.129   4.522   7.868  0.0014  1.7905  0.9046
 6044SOL     OW29767   1.038   1.182   8.653  0.0676  0.0886  0.1080
 6044SOL    HW129768   1.088   1.164   8.733 -2.2332 -3.1691  0.8027
 6044SOL    HW229769   0.973   1.247   8.680  0.2173  0.7370 -1.0925
 6045SOL     OW29770   1.711   4.416   7.720 -0.6042  0.3792 -0.5449
 6045SOL    HW129771   1.691   4.465   7.640  0.6047 -0.2414 -1.2343
 6045SOL    HW229772   1.626   4.387   7.753 -0.1354 -0.3676  0.0156
 6046SOL     OW29773   0.997   2.900   9.526 -0.1643 -0.5290 -0.1952
 6046SOL    HW129774   0.903   2.883   9.530 -0.3221  0.5118  0.3554
 6046SOL    HW229775   1.006   2.976   9.468 -0.5998 -0.5266 -0.2599
 6047SOL     OW29776   4.632   1.711   4.264  0.3028  0.2824 -0.1445
 6047SOL    HW129777   4.725   1.693   4.277  0.5419  1.5750 -0.0610
 6047SOL    HW229778   4.637   1.806   4.272  0.6121  0.0973  1.9534
 6048SOL     OW29779   2.956   3.194   4.148 -0.5413 -0.2885 -0.7907
 6048SOL    HW129780   2.988   3.262   4.089  2.2067 -0.3039  0.6964
 6048SOL    HW229781   2.963   3.117   4.091  0.8056 -0.3936 -0.4848
 6049SOL     OW29782   2.024   0.546   4.751  0.4157 -0.1126  0.3806
 6049SOL    HW129783   2.053   0.620   4.697  1.6265 -0.6250  0.3301
 6049SOL    HW229784   1.972   0.494   4.690 -1.2783  0.9836  0.8612
 6050SOL     OW29785   4.291   0.853   6.021  0.2593  0.3850 -0.3951
 6050SOL    HW129786   4.258   0.845   5.932 -2.4587 -0.2129  0.6751
 6050SOL    HW229787   4.365   0.913   6.009  0.7081 -0.0325  0.3065
 6051SOL     OW29788   4.276   0.312   0.636 -0.1097  0.4335  0.1327
 6051SOL    HW129789   4.263   0.354   0.721  1.9296  0.4000  0.4716
 6051SOL    HW229790   4.320   0.376   0.580 -1.0914 -1.5003 -2.8649
 6052SOL     OW29791   2.142   3.365   8.183  0.5918 -0.1366  0.2461
 6052SOL    HW129792   2.217   3.363   8.125  1.8076 -0.6934  1.8359
 6052SOL    HW229793   2.088   3.439   8.155 -0.9084 -0.7213  1.5742
 6053SOL     OW29794   0.650   3.851   6.469  0.7993  0.0645 -0.1042
 6053SOL    HW129795   0.566   3.896   6.466 -0.2941 -1.9449  0.9830
 6053SOL    HW229796   0.649   3.805   6.385 -2.4036  0.5617 -0.3228
 6054SOL     OW29797   2.699   0.615  14.096  0.3548 -0.1626  0.0353
 6054SOL    HW129798   2.720   0.570  14.014  0.3032 -1.7925  0.9242
 6054SOL    HW229799   2.748   0.561  14.157 -2.3570 -0.3258  2.0656
 6055SOL     OW29800   2.078   3.325   8.930  0.3887  0.5513 -0.3070
 6055SOL    HW129801   2.158   3.364   8.965  0.0201  0.8859  0.1625
 6055SOL    HW229802   2.021   3.397   8.958  0.1555  1.0302 -2.0149
 6056SOL     OW29803   4.211   2.580   4.206 -0.0366 -0.4959  0.0825
 6056SOL    HW129804   4.188   2.665   4.243  0.0325 -0.3721 -0.1649
 6056SOL    HW229805   4.178   2.605   4.120 -1.8652 -0.6741  0.7369
 6057SOL     OW29806   0.944   2.312   7.965  0.4560  0.0811 -0.0270
 6057SOL    HW129807   0.966   2.236   7.912  1.7078 -1.0857  2.1615
 6057SOL    HW229808   0.853   2.325   7.941  0.4405 -2.0546 -1.0208
 6058SOL     OW29809   4.260   1.520   9.155 -0.4869 -0.7056 -0.3969
 6058SOL    HW129810   4.290   1.457   9.221 -1.3510 -0.1682  0.4986
 6058SOL    HW229811   4.295   1.489   9.071  0.1504 -1.8349  0.2895
 6059SOL     OW29812   3.506   4.505  11.564 -0.4415 -0.0753  0.3304
 6059SOL    HW129813   3.469   4.437  11.621 -1.4679  0.4548  0.2824
 6059SOL    HW229814   3.426   4.543  11.527 -0.6600  0.4163  1.3246
 6060SOL     OW29815   3.762   1.974   6.371 -0.0066  0.3324  0.1411
 6060SOL    HW129816   3.724   2.024   6.298  0.0918 -0.5467 -0.5056
 6060SOL    HW229817   3.855   1.982   6.354  0.2131  2.9004  2.3910
 6061SOL     OW29818   2.231   4.038  17.352  0.1162  0.2926 -0.0685
 6061SOL    HW129819   2.286   3.977  17.401  0.3890  1.3038  0.8715
 6061SOL    HW229820   2.168   3.972  17.323 -0.0008 -0.6727  2.4117
 6062SOL     OW29821   3.895   1.158   7.189 -0.9496  0.1108 -0.8728
 6062SOL    HW129822   3.853   1.121   7.267  2.9296 -1.7466  0.2999
 6062SOL    HW229823   3.978   1.111   7.185 -0.1349  1.3685  1.3287
 6063SOL     OW29824   3.004   0.174  12.856  0.0793 -0.3125  0.3912
 6063SOL    HW129825   2.948   0.096  12.850  0.5164 -0.4871 -1.2486
 6063SOL    HW229826   2.974   0.202  12.942  0.4053  2.2470 -0.3343
 6064SOL     OW29827   3.342   1.332   9.791  0.0401  0.3806  0.1827
 6064SOL    HW129828   3.310   1.243   9.800 -2.2775  1.3856  1.9185
 6064SOL    HW229829   3.266   1.383   9.819  1.1345  1.6439  0.8949
 6065SOL     OW29830   3.529   3.036   5.873 -0.0107 -0.1624 -0.5554
 6065SOL    HW129831   3.461   3.097   5.845  0.4596  1.8309  2.6676
 6065SOL    HW229832   3.550   2.983   5.796  2.0910 -1.9489  1.2498
 6066SOL     OW29833   2.978   2.495   6.702  0.2697 -0.3581 -0.1636
 6066SOL    HW129834   2.897   2.486   6.752  0.6343  0.0888  0.5057
 6066SOL    HW229835   2.983   2.587   6.676 -0.7685  0.1326  1.4477
 6067SOL     OW29836   2.485   4.740   3.746 -0.3343  0.1992  0.1115
 6067SOL    HW129837   2.487   0.022   3.653  0.8477 -1.1781 -0.2053
 6067SOL    HW229838   2.570   4.698   3.760 -0.3328  0.6728  1.4927
 6068SOL     OW29839   2.046   0.199   1.253 -0.1837 -0.3084  0.3163
 6068SOL    HW129840   1.984   0.271   1.267 -0.4306 -0.2151 -1.2294
 6068SOL    HW229841   2.073   0.184   1.343 -2.6688  0.3416  1.1636
 6069SOL     OW29842   1.371   0.591  14.297 -0.1036 -0.1042 -0.3364
 6069SOL    HW129843   1.365   0.588  14.202 -1.5934  0.7757 -0.2631
 6069SOL    HW229844   1.304   0.655  14.321  0.3743  0.0239  0.6522
 6070SOL     OW29845   3.292   2.878   4.409 -0.1518 -0.4751  0.4962
 6070SOL    HW129846   3.259   2.955   4.364  2.1160  0.6398  0.7332
 6070SOL    HW229847   3.301   2.826   4.329  0.6897  2.9260 -1.6019
 6071SOL     OW29848   0.686   4.668   6.170 -0.2637  0.1732 -0.2618
 6071SOL    HW129849   0.687   4.575   6.145 -0.4199  0.0810  0.0785
 6071SOL    HW229850   0.734   4.669   6.252 -0.5562 -0.9191 -0.0740
 6072SOL     OW29851   1.709   0.559   6.252  0.5705  0.1194  0.0990
 6072SOL    HW129852   1.658   0.510   6.317 -2.1718 -0.0113 -2.1702
 6072SOL    HW229853   1.768   0.486   6.232  1.4250  0.6169  0.8179
 6073SOL     OW29854   1.811   2.903   8.454  0.6928 -0.2522 -0.2037
 6073SOL    HW129855   1.864   2.859   8.520  2.7034  0.7222 -1.1541
 6073SOL    HW229856   1.787   2.838   8.388  1.9555  0.5660 -1.4727
 6074SOL     OW29857   2.590   1.110   9.912  0.5560 -0.3951 -0.1035
 6074SOL    HW129858   2.598   1.052   9.987 -1.3015 -1.4542 -0.7304
 6074SOL    HW229859   2.676   1.152   9.909  0.3665 -0.0077 -0.1006
 6075SOL     OW29860   4.523   0.889   5.380  0.2823  0.1240  0.3682
 6075SOL    HW129861   4.496   0.975   5.413 -1.9420 -1.0933  1.7218
 6075SOL    HW229862   4.485   0.825   5.441  0.0198  1.9806  2.1600
 6076SOL     OW29863   3.936   1.667   7.715 -0.0288 -0.3589  0.7057
 6076SOL    HW129864   3.850   1.673   7.755 -0.3647  1.5709 -0.2971
 6076SOL    HW229865   3.959   1.760   7.706 -0.6782 -0.2770 -0.0768
 6077SOL     OW29866   3.305   2.604   7.574  0.0728  0.5926 -0.3034
 6077SOL    HW129867   3.319   2.510   7.562 -2.9104  0.1536 -0.2823
 6077SOL    HW229868   3.386   2.633   7.532 -0.2387  0.5653 -0.9260
 6078SOL     OW29869   3.457   3.149   8.293 -0.2672 -0.8961  0.6863
 6078SOL    HW129870   3.488   3.199   8.368  0.3572  1.3781 -1.1137
 6078SOL    HW229871   3.461   3.066   8.340  0.3574 -1.4068 -0.2836
 6079SOL     OW29872   0.919   0.400  16.213 -0.1597  0.4589 -0.5937
 6079SOL    HW129873   0.912   0.425  16.305 -1.1735  1.5580 -0.9734
 6079SOL    HW229874   0.943   0.481  16.168 -0.1601 -0.4957 -2.3129
 6080SOL     OW29875   3.974   3.719   3.277  0.0272 -0.2732  0.3145
 6080SOL    HW129876   4.047   3.705   3.336  1.0083  0.1799 -0.7900
 6080SOL    HW229877   4.025   3.764   3.210  0.2230  1.0936  1.3837
 6081SOL     OW29878   3.382   2.162  11.821 -0.6546 -0.1430  0.3404
 6081SOL    HW129879   3.354   2.252  11.839  1.8245  0.1766  2.6516
 6081SOL    HW229880   3.336   2.110  11.887  1.1409  0.6543  2.2092
 6082SOL     OW29881   1.025   2.344   1.705  0.2041 -0.3444 -0.5951
 6082SOL    HW129882   1.030   2.249   1.717 -0.3763 -0.2295  0.5397
 6082SOL    HW229883   0.932   2.351   1.684  0.5746  1.8631 -1.5443
 6083SOL     OW29884   1.344   2.157   8.379 -0.6683 -0.7375 -0.0838
 6083SOL    HW129885   1.364   2.240   8.337  0.1963  0.0570  1.9060
 6083SOL    HW229886   1.382   2.101   8.311 -1.1750 -1.2010  0.0133
 6084SOL     OW29887   3.027   1.012   1.417 -0.0470 -0.0759 -0.1303
 6084SOL    HW129888   3.093   1.031   1.483 -0.7526 -0.2799  0.6450
 6084SOL    HW229889   3.014   1.100   1.381  0.9350 -0.8391 -2.3079
 6085SOL     OW29890   4.024   1.460   4.218 -0.1332  0.2917 -0.2249
 6085SOL    HW129891   4.035   1.424   4.130  1.2583 -1.8637  0.8234
 6085SOL    HW229892   4.097   1.424   4.268 -1.1386 -1.4698 -0.0076
 6086SOL     OW29893   1.768   1.779   4.602  0.6062  0.1328 -0.4303
 6086SOL    HW129894   1.684   1.743   4.629  0.3219  1.6187  0.6697
 6086SOL    HW229895   1.823   1.719   4.654  0.8746 -0.5229 -1.4748
 6087SOL     OW29896   2.570   1.042   6.654  0.3160 -0.0270  0.2382
 6087SOL    HW129897   2.508   1.114   6.644  1.0041  0.2174 -2.2561
 6087SOL    HW229898   2.521   0.983   6.712 -0.9538 -0.9612 -1.7667
 6088SOL     OW29899   2.108   2.192  15.763  0.0251 -0.2008  0.5108
 6088SOL    HW129900   2.059   2.122  15.806  0.0854 -0.6903 -0.2192
 6088SOL    HW229901   2.144   2.233  15.841 -0.4752 -0.0215  0.6452
 6089SOL     OW29902   4.185   1.529   8.238 -0.3086 -1.0099 -0.1815
 6089SOL    HW129903   4.245   1.533   8.163  0.7522 -3.6706  0.5512
 6089SOL    HW229904   4.207   1.614   8.276  1.5422 -1.3386 -0.5536
 6090SOL     OW29905   2.278   0.128   8.633 -0.5244 -0.8669  0.1422
 6090SOL    HW129906   2.353   0.097   8.583  0.1768  0.1826  0.5198
 6090SOL    HW229907   2.291   0.222   8.617  0.6053 -0.8888  0.9247
 6091SOL     OW29908   1.503   3.331   4.499  0.2544 -0.2114  0.1606
 6091SOL    HW129909   1.507   3.236   4.499  1.5775 -0.1494 -1.4765
 6091SOL    HW229910   1.446   3.344   4.575  0.1480  0.7156 -0.0675
 6092SOL     OW29911   1.745   2.913   2.952  0.4741  0.6746  0.6020
 6092SOL    HW129912   1.702   2.993   2.982 -0.3212  0.2143  0.6893
 6092SOL    HW229913   1.696   2.890   2.873  0.3344  2.9963  0.0247
 6093SOL     OW29914   4.411   0.712   2.556 -0.3230 -0.5433  0.5433
 6093SOL    HW129915   4.354   0.789   2.554 -0.4487 -0.6442  0.1052
 6093SOL    HW229916   4.430   0.701   2.463  2.9273 -0.0519  1.1534
 6094SOL     OW29917   0.442   1.663   4.475  0.2123 -0.5611  0.2557
 6094SOL    HW129918   0.480   1.583   4.511  2.4388 -0.7386 -2.4972
 6094SOL    HW229919   0.507   1.691   4.412  0.0137  0.8590  0.6946
 6095SOL     OW29920   1.629   2.860   7.957  0.4248 -0.1513 -0.0138
 6095SOL    HW129921   1.674   2.912   7.890  0.3887 -0.4833 -0.3013
 6095SOL    HW229922   1.581   2.799   7.900  0.1324 -1.4584  1.6314
 6096SOL     OW29923   3.599   0.259   1.042 -0.1315  0.5565  0.0165
 6096SOL    HW129924   3.509   0.244   1.072  0.1361  1.1905  1.1711
 6096SOL    HW229925   3.627   0.311   1.118  0.2148 -0.4272  0.5701
 6097SOL     OW29926   0.819   1.826   4.129  0.5635  0.5351 -0.3355
 6097SOL    HW129927   0.880   1.839   4.201 -0.8046 -0.4250  0.9862
 6097SOL    HW229928   0.850   1.882   4.058  2.5259  0.5495  0.5337
 6098SOL     OW29929   1.943   0.515   3.164  0.1528  0.0381  0.3509
 6098SOL    HW129930   1.901   0.600   3.172 -0.3772 -0.1769 -0.1519
 6098SOL    HW229931   1.868   0.456   3.153 -0.7942  1.4115 -0.5300
 6099SOL     OW29932   1.903   4.564  13.944  0.2741 -0.3888 -0.2772
 6099SOL    HW129933   1.925   4.657  13.937 -0.8014 -0.2433 -1.7272
 6099SOL    HW229934   1.988   4.520  13.944  0.3286 -0.3072  2.0112
 6100SOL     OW29935   3.349   1.759   8.474 -0.0211 -0.1324 -0.3545
 6100SOL    HW129936   3.336   1.742   8.567 -0.4132 -1.0332 -0.5805
 6100SOL    HW229937   3.431   1.809   8.469  0.8362 -1.4229  0.9227
 6101SOL     OW29938   0.769   1.653   7.274  0.1966 -1.5150  0.1443
 6101SOL    HW129939   0.755   1.671   7.367 -2.5372 -1.4427 -0.2834
 6101SOL    HW229940   0.860   1.677   7.255  0.5692 -1.5160  1.8847
 6102SOL     OW29941   1.763   4.004   9.153  0.3943  0.0560 -0.4829
 6102SOL    HW129942   1.698   4.044   9.096 -1.1536 -0.4260  0.9355
 6102SOL    HW229943   1.764   3.916   9.116  0.9018 -1.0243  2.0729
 6103SOL     OW29944   3.398   4.402   7.610  0.5585 -0.0936  0.5293
 6103SOL    HW129945   3.461   4.470   7.635  1.1732 -1.0199  1.5009
 6103SOL    HW229946   3.458   4.334   7.580 -1.9545 -0.7745 -2.8894
 6104SOL     OW29947   4.021   2.142   6.002 -0.6057  0.3032 -0.0224
 6104SOL    HW129948   3.973   2.210   5.956  2.0488  2.2552  0.0915
 6104SOL    HW229949   4.053   2.204   6.067  0.6003  0.1612 -0.4830
 6105SOL     OW29950   2.328   2.558  13.159 -0.1907  0.2991 -0.4183
 6105SOL    HW129951   2.416   2.536  13.128 -1.0112 -0.7693 -1.9919
 6105SOL    HW229952   2.298   2.471  13.187 -0.5431  0.8420  0.8705
 6106SOL     OW29953   2.102   1.656   8.075 -0.0507 -0.0597 -0.0895
 6106SOL    HW129954   2.033   1.614   8.126  1.4662 -1.1369  1.0839
 6106SOL    HW229955   2.106   1.593   8.003 -0.2235 -0.8235  0.5680
 6107SOL     OW29956   2.356   1.708   8.251  0.1574 -0.1280  0.1739
 6107SOL    HW129957   2.404   1.626   8.241 -1.8480 -1.1952 -0.6394
 6107SOL    HW229958   2.277   1.690   8.200 -0.7891 -1.1853  2.0389
 6108SOL     OW29959   0.567   3.499   7.793 -0.5036 -0.2892  0.2880
 6108SOL    HW129960   0.519   3.533   7.717  1.1023 -0.5836 -0.8565
 6108SOL    HW229961   0.496   3.460   7.844 -0.2069  0.0315  0.9488
 6109SOL     OW29962   0.467   2.933   5.355 -0.1972  0.4657  0.5845
 6109SOL    HW129963   0.481   2.905   5.265 -2.6728  0.8874  0.0756
 6109SOL    HW229964   0.372   2.934   5.363 -0.1658  0.1365  1.0305
 6110SOL     OW29965   2.197   4.731   5.740 -0.3476 -0.0450 -0.2816
 6110SOL    HW129966   2.165   4.675   5.668 -1.5173  1.3023 -0.7898
 6110SOL    HW229967   2.290   0.000   5.719 -0.7828  2.3104 -1.0997
 6111SOL     OW29968   3.186   2.554   3.496 -0.3494 -0.6993  0.0984
 6111SOL    HW129969   3.181   2.565   3.401 -2.4022 -3.0547 -0.0615
 6111SOL    HW229970   3.122   2.617   3.529 -0.0777  0.7091 -2.0856
 6112SOL     OW29971   1.631   1.603   8.539 -0.0446  0.0793  0.0760
 6112SOL    HW129972   1.707   1.657   8.560 -0.6102  0.5467  0.9083
 6112SOL    HW229973   1.562   1.668   8.524  0.3175  0.3298 -0.5484
 6113SOL     OW29974   0.821   2.337   6.093 -0.3075  0.1159 -0.0830
 6113SOL    HW129975   0.794   2.360   6.182  1.7057  1.3370  0.2248
 6113SOL    HW229976   0.873   2.415   6.070 -0.9828  1.2974  2.4467
 6114SOL     OW29977   4.309   2.321   4.220 -0.0967  0.0296  0.1250
 6114SOL    HW129978   4.263   2.405   4.222  0.0104  0.1434 -2.5525
 6114SOL    HW229979   4.393   2.355   4.189  0.2806 -0.6070  0.4422
 6115SOL     OW29980   2.131   2.841   6.258 -0.5201 -0.1062 -0.2859
 6115SOL    HW129981   2.054   2.881   6.217 -0.9271 -1.7934 -1.1577
 6115SOL    HW229982   2.190   2.866   6.187 -0.7844 -0.4742 -0.6313
 6116SOL     OW29983   1.728   4.703   4.261 -0.2361 -0.3515  0.1610
 6116SOL    HW129984   1.643   4.687   4.220 -1.0024  2.5994  0.5945
 6116SOL    HW229985   1.763   4.615   4.274  0.9006  0.3119  1.6377
 6117SOL     OW29986   0.592   2.671   7.093  0.7140 -0.1218  0.1886
 6117SOL    HW129987   0.685   2.652   7.101  0.5374 -0.6481  1.0362
 6117SOL    HW229988   0.589   2.688   6.999 -2.2596  3.8374  0.9647
 6118SOL     OW29989   4.011   2.317   7.406  0.6031 -0.3648  0.2026
 6118SOL    HW129990   4.005   2.404   7.447 -2.1644  0.0541 -1.1032
 6118SOL    HW229991   3.923   2.297   7.374  0.9717 -2.2574  0.3902
 6119SOL     OW29992   3.238   4.073   7.453  0.4677 -0.5147 -0.1407
 6119SOL    HW129993   3.163   4.128   7.478 -0.3367  0.2442 -4.3186
 6119SOL    HW229994   3.193   3.992   7.476 -1.4193  0.1585 -1.5173
 6120SOL     OW29995   0.033   2.171   6.373 -0.0227 -0.1836 -0.5641
 6120SOL    HW129996   0.108   2.221   6.341 -1.0832  0.7831 -1.4975
 6120SOL    HW229997   0.016   2.120   6.294 -0.4431  0.8810 -1.1560
 6121SOL     OW29998   4.461   2.790   1.545  0.4021 -0.1715 -0.2314
 6121SOL    HW129999   4.422   2.703   1.547  1.5841 -0.6132  2.8395
 6121SOL    HW230000   4.437   2.821   1.457  2.6863 -1.4936 -1.3225
 6122SOL     OW30001   3.998   0.403   9.214  0.0763 -0.0455  0.2550
 6122SOL    HW130002   4.085   0.366   9.201  0.0609  0.7506 -2.0858
 6122SOL    HW230003   3.982   0.379   9.306  0.2128  0.1576  0.3310
 6123SOL     OW30004   4.612   2.091  13.038  0.4798 -0.2199  0.3983
 6123SOL    HW130005   4.529   2.047  13.018  0.8781 -0.4400 -0.7879
 6123SOL    HW230006   4.644   2.095  12.948 -0.9792  0.0124 -0.1046
 6124SOL     OW30007   0.432   1.582  13.504  0.3103 -0.0649 -0.1122
 6124SOL    HW130008   0.457   1.674  13.507 -0.1610  0.1125 -1.3610
 6124SOL    HW230009   0.376   1.587  13.426  0.1175  5.1611  0.3730
 6125SOL     OW30010   0.083   1.959   1.686  0.3996 -0.1576 -0.4648
 6125SOL    HW130011   0.152   1.896   1.706  1.9191  1.1888 -1.4185
 6125SOL    HW230012   0.086   2.008   1.768 -0.6023 -1.7161  0.4946
 6126SOL     OW30013   4.338   3.683   0.468  0.0114  0.0244 -0.1256
 6126SOL    HW130014   4.300   3.670   0.382  1.3781  0.2642 -0.7584
 6126SOL    HW230015   4.383   3.767   0.459  0.0189 -0.0161 -0.4433
 6127SOL     OW30016   3.323   2.936   5.117 -0.5192 -0.0266 -0.0057
 6127SOL    HW130017   3.277   2.983   5.047  1.4596  1.5650 -0.2434
 6127SOL    HW230018   3.303   2.844   5.098  0.1508 -0.3723  0.9742
 6128SOL     OW30019   2.944   0.323   6.656  0.1619  0.0217  0.4859
 6128SOL    HW130020   2.958   0.418   6.656  0.3083  0.0054 -1.2213
 6128SOL    HW230021   2.947   0.301   6.562  2.0643 -1.7015  0.9546
 6129SOL     OW30022   3.898   0.203   8.678  0.3718  0.3831  0.1757
 6129SOL    HW130023   3.889   0.113   8.709  0.5455  0.2587 -0.1349
 6129SOL    HW230024   3.894   0.245   8.764  2.1865 -1.1010  0.9828
 6130SOL     OW30025   0.743   1.156   7.623  0.2869  0.3613  0.4086
 6130SOL    HW130026   0.753   1.109   7.540  0.5156 -1.8439  1.6792
 6130SOL    HW230027   0.649   1.173   7.617  0.3506  0.3228 -0.6274
 6131SOL     OW30028   0.673   2.123  16.456 -0.4584  0.5121 -0.4714
 6131SOL    HW130029   0.687   2.063  16.383  0.9716  0.6176 -0.2871
 6131SOL    HW230030   0.735   2.193  16.438 -0.0718  0.1682 -0.4924
 6132SOL     OW30031   4.023   1.136   5.992  0.1019 -0.1751 -0.9960
 6132SOL    HW130032   4.072   1.169   5.917 -1.0741 -0.8072 -2.0503
 6132SOL    HW230033   3.949   1.089   5.953 -0.1054  0.6724 -1.6288
 6133SOL     OW30034   3.334   0.966   3.985  0.2062 -0.3298 -0.4511
 6133SOL    HW130035   3.251   1.010   3.965  0.8227  0.6370 -0.8996
 6133SOL    HW230036   3.303   0.885   4.024  1.2091 -1.8915 -2.9169
 6134SOL     OW30037   2.819   1.290   7.833 -0.8752  0.1955  0.0357
 6134SOL    HW130038   2.856   1.352   7.895  0.7022 -0.9621  0.2603
 6134SOL    HW230039   2.812   1.344   7.754 -0.7386  1.1627  0.6912
 6135SOL     OW30040   3.161   0.924   8.205  0.3346 -0.7601 -0.1420
 6135SOL    HW130041   3.228   0.887   8.263  1.6192  1.9227  0.0464
 6135SOL    HW230042   3.205   0.949   8.124 -1.4381 -0.1985 -0.9338
 6136SOL     OW30043   2.472   1.068  12.902  0.2137  0.0491 -0.8058
 6136SOL    HW130044   2.514   0.994  12.947  1.7673  1.6889  0.4243
 6136SOL    HW230045   2.520   1.138  12.947  0.1217 -1.1664  1.2104
 6137SOL     OW30046   3.817   3.398   0.929 -0.2751 -0.1836  0.2715
 6137SOL    HW130047   3.787   3.480   0.890 -0.8818 -1.3129 -1.6586
 6137SOL    HW230048   3.904   3.409   0.967 -0.8872 -1.2589  1.9710
 6138SOL     OW30049   4.532   0.317   2.445  0.1242  0.5391 -0.4728
 6138SOL    HW130050   4.544   0.254   2.373  1.7510  0.6883 -0.3263
 6138SOL    HW230051   4.492   0.256   2.507 -1.5764  0.7536 -1.3639
 6139SOL     OW30052   0.140   4.181   3.363  0.1224  0.5306  1.0941
 6139SOL    HW130053   0.212   4.224   3.318 -0.0586 -0.0110  0.2919
 6139SOL    HW230054   0.125   4.241   3.436 -2.3325  0.2306  0.8686
 6140SOL     OW30055   2.969   4.516   6.116 -0.1119 -0.0651 -0.0130
 6140SOL    HW130056   3.003   4.556   6.036  0.8226 -1.9475 -0.5610
 6140SOL    HW230057   3.039   4.526   6.181 -1.5598  0.3098  1.5000
 6141SOL     OW30058   1.506   4.435   4.649  0.5130  0.0692 -0.8193
 6141SOL    HW130059   1.421   4.474   4.670  0.4163 -1.4391  1.4642
 6141SOL    HW230060   1.488   4.376   4.575  0.1133  1.2031 -1.6358
 6142SOL     OW30061   2.421   0.640   8.458 -0.2805  0.0121 -0.5230
 6142SOL    HW130062   2.483   0.608   8.393 -0.6220  3.2225 -2.4328
 6142SOL    HW230063   2.462   0.632   8.544  1.1594 -2.8223 -1.4779
 6143SOL     OW30064   4.039   0.545   7.681 -0.2515  0.3183 -0.0819
 6143SOL    HW130065   4.085   0.579   7.757  0.4601 -4.5487  1.6648
 6143SOL    HW230066   4.106   0.498   7.631 -1.1211 -1.2896  0.2292
 6144SOL     OW30067   4.085   1.894   5.413 -0.2722  0.0253  0.4577
 6144SOL    HW130068   4.128   1.814   5.443 -1.6824 -0.8287  0.1913
 6144SOL    HW230069   4.074   1.937   5.498  0.1546  0.2111  0.4173
 6145SOL     OW30070   1.413   1.109  12.256 -0.1978 -0.0161 -0.5538
 6145SOL    HW130071   1.371   1.123  12.341 -0.5315  0.2743 -0.7688
 6145SOL    HW230072   1.422   1.013  12.256  0.3076  0.0331 -0.6419
 6146SOL     OW30073   3.561   3.670   1.323 -0.4019 -0.1184  0.1660
 6146SOL    HW130074   3.564   3.603   1.391 -0.9984 -0.4245 -0.1136
 6146SOL    HW230075   3.609   3.627   1.252  1.6074 -1.4195  2.3295
 6147SOL     OW30076   2.740   2.556   6.191 -0.2198  0.0998 -0.4580
 6147SOL    HW130077   2.652   2.587   6.212 -0.2649 -1.4813  1.6823
 6147SOL    HW230078   2.700   2.476   6.155 -0.5805 -0.0665  0.3153
 6148SOL     OW30079   0.193   2.440   6.516 -0.4225 -0.5325  0.0603
 6148SOL    HW130080   0.135   2.398   6.580  0.0707 -2.5938 -0.8317
 6148SOL    HW230081   0.221   2.363   6.467 -1.6056  0.3082 -1.9674
 6149SOL     OW30082   3.197   1.474   3.471 -0.1101 -0.5013  0.0389
 6149SOL    HW130083   3.201   1.399   3.531 -1.8063 -0.3761  0.3227
 6149SOL    HW230084   3.246   1.447   3.394 -1.4570  2.3204 -1.7924
 6150SOL     OW30085   0.077   0.833  14.907  0.7589 -0.3457 -0.2977
 6150SOL    HW130086   0.131   0.868  14.836  0.8895 -0.9356 -0.4953
 6150SOL    HW230087   0.062   0.907  14.965 -0.2268 -1.4079  0.7950
 6151SOL     OW30088   1.990   1.952  17.194  0.1728 -0.3762  0.3932
 6151SOL    HW130089   2.032   1.870  17.222  2.5985  0.8990  0.4491
 6151SOL    HW230090   2.027   1.958  17.106  0.9849  0.6858  0.8073
 6152SOL     OW30091   2.310   3.701   2.467  0.6783  0.1988 -0.0364
 6152SOL    HW130092   2.282   3.702   2.376 -0.7850  0.4501  0.4173
 6152SOL    HW230093   2.391   3.751   2.458  1.7450 -1.7137 -1.0311
 6153SOL     OW30094   1.104   1.943   1.662 -0.0993 -0.0725  0.1930
 6153SOL    HW130095   1.060   1.874   1.612 -0.0272  0.0626 -0.0582
 6153SOL    HW230096   1.024   1.974   1.704  0.5888 -1.6714  2.6618
 6154SOL     OW30097   2.053   0.233   6.116  0.1907  0.2046 -0.2274
 6154SOL    HW130098   2.048   0.159   6.055  1.1499 -0.0653  0.0188
 6154SOL    HW230099   2.115   0.192   6.175  0.5869  1.3550  0.1403
 6155SOL     OW30100   1.098   0.200   5.622 -0.5638  0.3881  0.1745
 6155SOL    HW130101   1.033   0.141   5.583 -0.1626  1.2998 -1.8644
 6155SOL    HW230102   1.157   0.198   5.547  1.2592 -0.2392  1.6270
 6156SOL     OW30103   4.144   2.196   7.614  0.1500  0.2795  0.3859
 6156SOL    HW130104   4.116   2.107   7.638  1.7067  0.5071  3.1080
 6156SOL    HW230105   4.088   2.215   7.538  0.2154  1.7310  0.7108
 6157SOL     OW30106   4.676   4.660   1.350  0.0917 -0.0489  0.2205
 6157SOL    HW130107   4.707   4.670   1.440  0.4536  1.1268 -0.0353
 6157SOL    HW230108   4.582   4.659   1.369 -0.0850 -0.2635 -0.6749
 6158SOL     OW30109   2.026   2.779  11.001 -0.1617  0.2505 -0.0725
 6158SOL    HW130110   1.987   2.735  10.926  0.9628 -2.2187  0.8112
 6158SOL    HW230111   1.994   2.726  11.073 -1.1689 -0.6352 -1.1868
 6159SOL     OW30112   4.315   2.816   6.174  0.4204 -0.1859 -0.1968
 6159SOL    HW130113   4.226   2.806   6.207 -0.4452 -1.7390 -2.9451
 6159SOL    HW230114   4.355   2.740   6.217 -2.9071 -1.1291  1.2403
 6160SOL     OW30115   3.351   4.214   4.936  0.3237 -0.0700  0.1273
 6160SOL    HW130116   3.441   4.204   4.966  0.6433 -0.6870 -1.0298
 6160SOL    HW230117   3.354   4.309   4.922  1.2525 -0.0809  0.2502
 6161SOL     OW30118   0.848   0.820  13.721 -0.4996  0.0552 -0.0020
 6161SOL    HW130119   0.787   0.874  13.670 -2.4040 -2.2095 -0.1119
 6161SOL    HW230120   0.818   0.843  13.809 -0.4366 -0.5648  0.1779
 6162SOL     OW30121   3.690   1.140   4.166  0.8296  0.0924 -0.1270
 6162SOL    HW130122   3.666   1.216   4.218  0.8951  0.5506 -0.7662
 6162SOL    HW230123   3.631   1.075   4.204 -0.5175  1.0156 -0.6351
 6163SOL     OW30124   1.040   3.597   3.138  0.0222  0.5483  0.4721
 6163SOL    HW130125   1.031   3.659   3.065 -1.0786  0.6175  0.6640
 6163SOL    HW230126   0.992   3.519   3.109 -0.1344  0.2120  1.6448
 6164SOL     OW30127   2.816   2.159   6.320 -0.1794 -0.1871  0.3866
 6164SOL    HW130128   2.784   2.073   6.291 -1.2772  1.2086 -2.6087
 6164SOL    HW230129   2.735   2.208   6.336 -0.5889 -0.8235  0.3092
 6165SOL     OW30130   0.568   2.373   7.057 -0.0878 -0.5459 -0.6308
 6165SOL    HW130131   0.520   2.345   7.135  1.6168  1.6191  1.2065
 6165SOL    HW230132   0.532   2.461   7.047  0.1732 -0.4882 -1.0829
 6166SOL     OW30133   0.866   3.372   4.969  0.4797 -0.2513  0.4372
 6166SOL    HW130134   0.819   3.297   5.007  1.0086 -0.3823  0.8275
 6166SOL    HW230135   0.942   3.385   5.025 -0.7909  0.9796  1.8834
 6167SOL     OW30136   2.875   2.151   1.876  0.1574  0.0959 -0.2290
 6167SOL    HW130137   2.826   2.068   1.873  2.3726 -1.1409 -2.1402
 6167SOL    HW230138   2.922   2.156   1.793  0.1368  1.4380 -0.1534
 6168SOL     OW30139   2.625   1.214   8.572 -0.1118 -0.5513 -0.0543
 6168SOL    HW130140   2.596   1.296   8.533  0.7148 -0.2920 -0.1327
 6168SOL    HW230141   2.720   1.220   8.559 -0.1563 -1.9792 -1.1199
 6169SOL     OW30142   3.404   2.061   6.803 -0.6168 -0.2867  0.0575
 6169SOL    HW130143   3.474   2.041   6.864  0.7850 -0.5248 -1.6184
 6169SOL    HW230144   3.432   1.995   6.739 -1.5241  0.1820 -0.8294
 6170SOL     OW30145   1.727   4.375   3.269  0.1277 -0.2926 -0.1211
 6170SOL    HW130146   1.737   4.283   3.295 -0.8632 -0.1085  0.9005
 6170SOL    HW230147   1.813   4.384   3.228 -0.2308 -0.5886 -0.9411
 6171SOL     OW30148   3.374   3.801   7.812 -0.3383 -0.1374  0.1614
 6171SOL    HW130149   3.408   3.887   7.838 -3.0261  0.8535  0.4232
 6171SOL    HW230150   3.453   3.771   7.766 -0.6358  1.4006 -1.3457
 6172SOL     OW30151   0.567   2.151  11.091  0.2196 -0.1875  0.5090
 6172SOL    HW130152   0.662   2.158  11.088  0.2184 -0.5661 -0.4623
 6172SOL    HW230153   0.554   2.201  11.171  0.6430  2.5139 -1.1013
 6173SOL     OW30154   3.507   0.878  11.840  0.1465  0.3415  0.3417
 6173SOL    HW130155   3.581   0.860  11.781 -1.3699  1.6738 -1.9401
 6173SOL    HW230156   3.449   0.912  11.772  0.1237 -1.2557 -0.4414
 6174SOL     OW30157   4.735   3.236   7.075  0.3238 -0.5482  0.1984
 6174SOL    HW130158   4.686   3.318   7.076 -1.0357 -1.3465 -1.1554
 6174SOL    HW230159   4.664   3.177   7.099  0.5659 -0.1935  1.7844
 6175SOL     OW30160   3.575   1.106   3.925 -0.0419  0.4491 -0.1199
 6175SOL    HW130161   3.609   1.141   4.007  1.4283 -0.7803 -0.2066
 6175SOL    HW230162   3.487   1.073   3.946  0.1803 -0.6172 -0.8717
 6176SOL     OW30163   1.439   4.249   3.205 -0.5775 -0.0763  0.1999
 6176SOL    HW130164   1.396   4.175   3.248 -0.4154 -0.7842 -0.8489
 6176SOL    HW230165   1.526   4.250   3.245  0.5303 -2.0644 -2.1562
 6177SOL     OW30166   0.036   1.448  11.246  0.6037 -0.5763  0.1359
 6177SOL    HW130167   0.070   1.378  11.302 -1.3014 -0.4451  1.4612
 6177SOL    HW230168   4.693   1.413  11.217  0.8581 -2.7282  1.9951
 6178SOL     OW30169   0.689   1.673  17.236  0.1292 -0.2520  0.4252
 6178SOL    HW130170   0.599   1.695  17.258 -0.1682  1.5078 -2.5532
 6178SOL    HW230171   0.726   1.680  17.324  1.4317  0.9360 -0.2081
 6179SOL     OW30172   1.985   2.301   2.801 -0.2984  0.3748 -0.1665
 6179SOL    HW130173   1.920   2.240   2.767  0.8468 -0.0130 -1.6567
 6179SOL    HW230174   2.043   2.251   2.858 -4.0110 -3.7105  0.0018
 6180SOL     OW30175   1.133   4.678   2.774  0.6013 -0.2483 -0.4049
 6180SOL    HW130176   1.073   4.609   2.747  2.1513 -1.0261 -1.8656
 6180SOL    HW230177   1.182   4.619   2.831  2.7491  2.3062  0.3487
 6181SOL     OW30178   3.725   1.082   7.988  0.5069  0.6075  0.4622
 6181SOL    HW130179   3.727   0.988   7.969  1.2052  0.2190  2.5125
 6181SOL    HW230180   3.737   1.068   8.082 -2.2783  0.8612  0.8490
 6182SOL     OW30181   3.318   3.927   2.669  0.0619 -0.1119 -0.3547
 6182SOL    HW130182   3.319   3.858   2.604  1.3090  0.1888 -0.6538
 6182SOL    HW230183   3.258   3.990   2.628 -1.7327 -2.1235 -0.7679
 6183SOL     OW30184   0.522   2.049   2.774  0.7011 -0.0184  0.3317
 6183SOL    HW130185   0.464   2.109   2.819 -1.1501 -0.7326 -1.1011
 6183SOL    HW230186   0.473   2.043   2.692  0.3081 -0.6786  0.6099
 6184SOL     OW30187   4.678   4.006   7.351  0.6186  0.8181  0.4344
 6184SOL    HW130188   4.647   3.993   7.441  0.7878 -0.9272  0.2376
 6184SOL    HW230189   4.608   4.062   7.317  0.8931  1.3466  0.7445
 6185SOL     OW30190   3.334   1.080   5.109 -0.3097 -0.5245  0.0025
 6185SOL    HW130191   3.307   1.093   5.200 -0.1966  1.6157 -0.2649
 6185SOL    HW230192   3.420   1.040   5.119 -0.9299 -2.1063 -0.9962
 6186SOL     OW30193   0.592   3.481   0.720 -0.7290 -0.3681  0.3938
 6186SOL    HW130194   0.634   3.553   0.766 -1.2066  1.1032 -1.4749
 6186SOL    HW230195   0.502   3.502   0.742 -0.7679 -0.4446  0.3090
 6187SOL     OW30196   2.121   1.531   1.626  0.3629  0.4175  0.5959
 6187SOL    HW130197   2.030   1.500   1.629  0.9438 -1.3382  0.5171
 6187SOL    HW230198   2.172   1.464   1.672 -0.7366 -1.3150 -0.6832
 6188SOL     OW30199   3.843   0.512   4.635 -0.0590 -0.3186 -0.0362
 6188SOL    HW130200   3.869   0.427   4.598 -0.3587 -0.6604  0.5302
 6188SOL    HW230201   3.764   0.481   4.680 -0.3606 -1.0932 -1.0899
 6189SOL     OW30202   1.844   2.194   7.584 -0.1150  0.2099 -0.1791
 6189SOL    HW130203   1.839   2.100   7.569 -0.5870  0.5635 -2.3421
 6189SOL    HW230204   1.935   2.213   7.560  0.0634 -0.6766 -0.1741
 6190SOL     OW30205   1.178   0.245  17.523  0.0491 -0.3821  0.3148
 6190SOL    HW130206   1.148   0.329  17.556  2.8813  1.0825 -0.8401
 6190SOL    HW230207   1.166   0.258  17.429 -0.7953 -0.1976  0.4510
 6191SOL     OW30208   3.852   0.343   7.720 -0.2984 -0.7372 -0.6529
 6191SOL    HW130209   3.886   0.348   7.810  1.1244  3.1622 -1.4011
 6191SOL    HW230210   3.912   0.410   7.686 -1.9091  1.0701  0.0645
 6192SOL     OW30211   0.476   0.244  13.176  0.0687 -0.3537 -0.8329
 6192SOL    HW130212   0.511   0.187  13.107  0.2905 -1.2120 -0.0037
 6192SOL    HW230213   0.524   0.326  13.159 -0.3693  0.4570  1.9688
 6193SOL     OW30214   3.355   3.408   2.364  0.6038  0.0684  0.2051
 6193SOL    HW130215   3.400   3.460   2.297 -0.1666  0.5519  0.0709
 6193SOL    HW230216   3.389   3.318   2.365 -0.4893 -0.3285  1.8250
 6194SOL     OW30217   3.849   3.756   7.307 -0.3524 -0.3352 -0.0218
 6194SOL    HW130218   3.790   3.773   7.233  0.2249  1.0181 -0.1635
 6194SOL    HW230219   3.819   3.666   7.319 -2.8008  0.3376 -1.0781
 6195SOL     OW30220   4.175   0.475   7.076 -0.3409  0.3624  0.4691
 6195SOL    HW130221   4.159   0.456   7.169  1.0318  0.2131  0.6789
 6195SOL    HW230222   4.115   0.546   7.056  0.9771  1.2354 -0.4002
 6196SOL     OW30223   0.149   0.554  13.877 -0.2716 -0.0609  0.2904
 6196SOL    HW130224   0.214   0.499  13.832  0.5809  0.9254  0.3020
 6196SOL    HW230225   0.188   0.636  13.845  1.3624 -1.6482 -1.8080
 6197SOL     OW30226   3.752   2.824   3.525  0.3412  0.3412  0.3132
 6197SOL    HW130227   3.657   2.827   3.520  0.1745 -0.8113  2.6802
 6197SOL    HW230228   3.784   2.898   3.473 -1.8068  0.4477 -0.8592
 6198SOL     OW30229   3.514   2.395   9.687 -0.3764 -0.0844  0.7034
 6198SOL    HW130230   3.538   2.308   9.718 -1.8524 -1.2502 -1.3731
 6198SOL    HW230231   3.579   2.448   9.733 -2.8336  0.5025  3.5015
 6199SOL     OW30232   2.094   4.600   7.435 -0.0710 -0.1977 -0.7099
 6199SOL    HW130233   2.164   4.596   7.370  1.4380  0.6960  0.8616
 6199SOL    HW230234   2.059   4.511   7.433  0.9905 -0.6264  0.0252
 6200SOL     OW30235   1.296   0.902   1.869  0.3544  0.4614 -0.1551
 6200SOL    HW130236   1.202   0.894   1.857  0.1120  1.2762  1.2528
 6200SOL    HW230237   1.303   0.856   1.952  1.6299  1.1070  0.0939
 6201SOL     OW30238   4.349   4.448  16.312 -0.7812  0.5592 -0.3329
 6201SOL    HW130239   4.410   4.463  16.385 -1.6033  0.3886  0.3905
 6201SOL    HW230240   4.359   4.526  16.258 -0.9351  0.4527 -0.5129
 6202SOL     OW30241   4.263   4.036  10.967 -0.1730 -0.0165  0.1282
 6202SOL    HW130242   4.332   4.094  10.997  0.0671  0.2693 -0.9892
 6202SOL    HW230243   4.292   3.955  11.009  0.2338 -0.6947 -1.4940
 6203SOL     OW30244   2.478   0.405   3.664  0.0552  0.4976 -0.6184
 6203SOL    HW130245   2.561   0.386   3.708  0.1847 -1.5123 -1.7195
 6203SOL    HW230246   2.502   0.489   3.627  1.5935 -0.5659 -2.0281
 6204SOL     OW30247   3.269   3.008   8.520  0.0021 -0.4610 -0.3526
 6204SOL    HW130248   3.187   3.041   8.483 -0.1339 -1.6280 -1.0991
 6204SOL    HW230249   3.308   3.090   8.550  1.0575 -1.2448  0.4153
 6205SOL     OW30250   1.185   1.859   9.565 -0.0090  0.1688  0.0048
 6205SOL    HW130251   1.109   1.906   9.598 -0.6818  1.7155 -3.7763
 6205SOL    HW230252   1.237   1.868   9.645  1.1349  2.1087 -0.9491
 6206SOL     OW30253   0.012   4.424  11.179  0.0651 -0.0927  0.0331
 6206SOL    HW130254   4.685   4.452  11.118 -1.6867 -1.2641  1.4256
 6206SOL    HW230255   0.010   4.328  11.175 -0.8314  0.0017 -1.7179
 6207SOL     OW30256   1.049   3.917   5.467 -0.6232 -0.1659  0.3035
 6207SOL    HW130257   1.101   3.855   5.519 -0.8995 -0.0171  0.7577
 6207SOL    HW230258   1.080   4.000   5.503 -0.7236 -0.0458  0.1108
 6208SOL     OW30259   0.551   3.762  11.225 -0.5147 -0.1296 -0.2400
 6208SOL    HW130260   0.481   3.789  11.284 -1.6964 -1.0115 -1.2566
 6208SOL    HW230261   0.630   3.807  11.254  0.0012 -0.6628 -0.8189
 6209SOL     OW30262   0.771   4.026   7.624  0.0893 -0.2330 -0.2390
 6209SOL    HW130263   0.740   4.111   7.595  0.5320 -0.0914 -0.3031
 6209SOL    HW230264   0.814   3.989   7.547 -0.0892  0.9948 -0.9119
 6210SOL     OW30265   2.069   0.571   7.981 -0.2936  0.3442  0.3716
 6210SOL    HW130266   1.993   0.538   7.933 -0.2616 -0.9393  1.1907
 6210SOL    HW230267   2.114   0.632   7.922 -0.1425  3.2671  3.5710
 6211SOL     OW30268   3.806   1.993   4.713  0.2889 -0.5842 -0.0087
 6211SOL    HW130269   3.785   2.071   4.765  2.0122 -1.0140  1.3287
 6211SOL    HW230270   3.769   1.919   4.760  0.7512 -0.4463  0.5774
 6212SOL     OW30271   4.567   3.906   3.759  0.2608 -0.2349  0.2061
 6212SOL    HW130272   4.648   3.858   3.743  2.1069  3.6127 -1.8183
 6212SOL    HW230273   4.583   3.985   3.707 -2.1947 -1.1828 -2.0067
 6213SOL     OW30274   3.525   2.237   8.645 -0.4658  0.9251 -0.6460
 6213SOL    HW130275   3.508   2.318   8.597 -2.4107  0.4341 -0.7887
 6213SOL    HW230276   3.534   2.280   8.730 -2.5652 -0.0641  0.0883
 6214SOL     OW30277   0.361   4.043   9.841 -0.2492  0.6970  0.2104
 6214SOL    HW130278   0.277   4.006   9.814 -0.5613  1.4613  0.1519
 6214SOL    HW230279   0.351   4.027   9.936  2.5972  0.4012  0.4484
 6215SOL     OW30280   4.642   0.464   8.007  0.1594 -0.5780 -0.4488
 6215SOL    HW130281   4.697   0.390   7.979  0.2245 -1.0633  0.9803
 6215SOL    HW230282   4.646   0.516   7.926  2.1973  3.6088  2.3599
 6216SOL     OW30283   1.243   2.528   3.346  0.3814  0.0354 -0.1528
 6216SOL    HW130284   1.296   2.463   3.301 -2.0304 -0.1788 -2.6648
 6216SOL    HW230285   1.299   2.606   3.347  0.4627 -0.0279  0.5985
 6217SOL     OW30286   3.243   1.152   4.871  0.2848  0.0472  0.7016
 6217SOL    HW130287   3.277   1.239   4.852  1.3841 -0.7336 -0.9523
 6217SOL    HW230288   3.264   1.148   4.964 -1.9252  0.3472  1.2234
 6218SOL     OW30289   1.224   3.583  10.969 -0.7968  0.4315  0.0866
 6218SOL    HW130290   1.195   3.626  11.049 -0.5806  0.6777  0.0341
 6218SOL    HW230291   1.213   3.493  11.000  1.5278 -0.4888 -1.7997
 6219SOL     OW30292   0.338   3.037   8.072  0.1153 -0.2027 -0.1937
 6219SOL    HW130293   0.314   2.994   7.990  1.5612 -1.7843  0.2033
 6219SOL    HW230294   0.409   3.096   8.044 -0.1686  0.8756  1.3132
 6220SOL     OW30295   0.209   3.357   2.718  0.4082  0.0949  0.3495
 6220SOL    HW130296   0.213   3.371   2.624 -0.9924 -0.3947  0.2043
 6220SOL    HW230297   0.135   3.412   2.744 -0.7053 -0.0458 -2.5941
 6221SOL     OW30298   4.673   0.431  10.796  0.0294 -1.2926 -0.2866
 6221SOL    HW130299   4.716   0.391  10.721  2.6983  0.7280  0.1473
 6221SOL    HW230300   4.720   0.513  10.813 -1.7369 -0.0983 -1.0834
 6222SOL     OW30301   2.293   4.158   9.126  0.3036 -0.4619  0.1830
 6222SOL    HW130302   2.264   4.162   9.035 -0.2690 -1.7303  0.3138
 6222SOL    HW230303   2.208   4.167   9.168  1.2687  2.0160  1.6134
 6223SOL     OW30304   2.711   4.045   3.675 -0.1699  0.1318  0.1431
 6223SOL    HW130305   2.706   3.973   3.612  1.1191  0.0512  0.1427
 6223SOL    HW230306   2.734   4.006   3.759 -1.6747  2.2193  1.5232
 6224SOL     OW30307   2.799   2.818   7.007  0.2289 -0.1261  0.6757
 6224SOL    HW130308   2.830   2.791   7.094 -1.3978 -2.4305  0.5270
 6224SOL    HW230309   2.711   2.853   7.022  0.7725  1.2717  0.6488
 6225SOL     OW30310   0.335   0.290   4.430  0.3292 -1.0415 -0.2302
 6225SOL    HW130311   0.366   0.255   4.346 -1.0018 -0.6583 -0.8864
 6225SOL    HW230312   0.328   0.382   4.405  0.6886 -1.2915 -1.2593
 6226SOL     OW30313   4.068   3.232   9.242  0.1138  0.2311 -0.2865
 6226SOL    HW130314   3.980   3.253   9.210  0.2918 -1.1691 -1.7331
 6226SOL    HW230315   4.103   3.184   9.167 -2.6587 -0.4374 -1.1496
 6227SOL     OW30316   4.411   4.045   8.874 -0.3548 -0.2902 -0.2595
 6227SOL    HW130317   4.441   4.112   8.811  0.4646 -1.2113 -0.8539
 6227SOL    HW230318   4.493   3.996   8.879 -0.2865 -0.2389 -0.8625
 6228SOL     OW30319   4.529   4.366   6.906  0.0301  0.0081 -0.0655
 6228SOL    HW130320   4.517   4.349   6.999 -2.4051 -1.0097 -0.5777
 6228SOL    HW230321   4.533   4.459   6.883 -0.0719  0.4900  1.8693
 6229SOL     OW30322   2.404   0.128   9.247  0.1174 -0.2580 -0.3942
 6229SOL    HW130323   2.458   0.106   9.171 -1.3664 -2.4478 -0.8125
 6229SOL    HW230324   2.320   0.119   9.202 -1.3493  0.5471  2.1928
 6230SOL     OW30325   0.963   1.798   7.696  0.6643  0.1714 -0.1583
 6230SOL    HW130326   0.989   1.706   7.702 -0.7230 -0.1152  1.7811
 6230SOL    HW230327   1.036   1.826   7.750 -0.9028 -2.0513  3.1217
 6231SOL     OW30328   0.323   0.893   6.046 -0.4807 -0.0186  0.4009
 6231SOL    HW130329   0.375   0.923   5.972  0.5625 -0.7548  0.8419
 6231SOL    HW230330   0.259   0.843   5.995 -0.7317 -0.8103  1.4879
 6232SOL     OW30331   3.267   4.292   8.300 -0.0269  0.6297  0.3876
 6232SOL    HW130332   3.348   4.338   8.278 -0.3881  1.0517 -0.0472
 6232SOL    HW230333   3.231   4.358   8.361  0.3548 -0.8703  2.2423
 6233SOL     OW30334   3.165   0.648  13.935 -0.0072 -0.1402  0.0619
 6233SOL    HW130335   3.181   0.708  13.862 -0.2609  0.5538  0.5785
 6233SOL    HW230336   3.252   0.634  13.973  0.6699  2.6442 -0.4266
 6234SOL     OW30337   2.139   0.508   6.148  0.2259  0.5629  0.2772
 6234SOL    HW130338   2.087   0.428   6.145 -3.1350  2.7983 -2.3034
 6234SOL    HW230339   2.146   0.524   6.054 -1.7679 -1.2432 -0.1922
 6235SOL     OW30340   4.322   3.671   2.399  0.0395 -0.3120 -0.5077
 6235SOL    HW130341   4.241   3.623   2.386 -0.5656  0.8001 -0.8670
 6235SOL    HW230342   4.296   3.756   2.435  1.8926 -0.5024  1.3096
 6236SOL     OW30343   0.847   4.391   3.110 -0.1163 -0.0994  0.3825
 6236SOL    HW130344   0.824   4.375   3.202 -0.8189 -0.0224  0.2174
 6236SOL    HW230345   0.941   4.411   3.115 -0.1607  0.4446 -0.9495
 6237SOL     OW30346   2.194   1.053   0.562 -0.1765  0.3747 -0.1324
 6237SOL    HW130347   2.274   1.007   0.534 -0.6824  0.7184 -2.1469
 6237SOL    HW230348   2.152   0.981   0.609  1.9000 -1.0207 -0.3708
 6238SOL     OW30349   1.071   0.615   1.779  0.2702 -0.3906 -0.5038
 6238SOL    HW130350   0.996   0.580   1.826  0.6595  2.2447  2.0515
 6238SOL    HW230351   1.040   0.691   1.731  0.3056 -0.6995 -1.0241
 6239SOL     OW30352   2.396   1.657  13.625  0.3388  0.3507 -0.4011
 6239SOL    HW130353   2.453   1.732  13.645 -0.0328 -0.1184  2.3909
 6239SOL    HW230354   2.440   1.622  13.547  0.6422  1.9887 -0.9761
 6240SOL     OW30355   1.355   1.092  14.103 -0.1362  0.6188 -0.1861
 6240SOL    HW130356   1.414   1.162  14.130 -1.2560  1.7714 -0.7122
 6240SOL    HW230357   1.276   1.112  14.153 -0.9788 -0.8371 -0.9095
 6241SOL     OW30358   3.039   3.702  13.164 -0.2060 -0.2194  0.1850
 6241SOL    HW130359   2.951   3.731  13.187  1.0294  2.2070  1.9634
 6241SOL    HW230360   3.014   3.660  13.082 -0.1966  1.3072 -0.6097
 6242SOL     OW30361   3.471   0.545   7.113  0.4430  0.9446  0.2182
 6242SOL    HW130362   3.392   0.492   7.103  1.2184  0.2464 -2.3374
 6242SOL    HW230363   3.514   0.504   7.038 -1.5613 -0.1143 -0.3398
 6243SOL     OW30364   1.433   3.390   4.235 -0.5922  0.2005 -0.0029
 6243SOL    HW130365   1.401   3.480   4.231 -1.1255 -0.0599 -1.6683
 6243SOL    HW230366   1.469   3.371   4.321 -2.1564 -0.6823  0.4462
 6244SOL     OW30367   4.097   4.621   8.954 -0.2032  0.5008 -0.2992
 6244SOL    HW130368   4.133   4.674   9.026  0.2547 -0.0726 -0.1015
 6244SOL    HW230369   4.157   4.631   8.880 -0.1494 -0.8168 -0.4295
 6245SOL     OW30370   2.399   0.709   5.241 -0.1563  0.7640 -0.1229
 6245SOL    HW130371   2.364   0.797   5.249  1.5848  1.3004  1.4301
 6245SOL    HW230372   2.379   0.657   5.319  2.3134 -0.8890 -0.5812
 6246SOL     OW30373   2.800   1.655   7.440  0.8289 -0.0527  0.5985
 6246SOL    HW130374   2.815   1.714   7.366 -0.9440  1.3345  1.3831
 6246SOL    HW230375   2.722   1.688   7.483 -0.0308 -0.3890 -0.7087
 6247SOL     OW30376   1.710   0.758   4.404 -0.3593  0.2825 -0.1651
 6247SOL    HW130377   1.666   0.673   4.404  1.2014 -0.5293  0.5784
 6247SOL    HW230378   1.674   0.804   4.328  0.3294  0.1187 -0.5823
 6248SOL     OW30379   2.731   3.899   3.915  0.8993  0.2959  0.2480
 6248SOL    HW130380   2.649   3.852   3.926  0.7101  0.6037  0.1380
 6248SOL    HW230381   2.797   3.856   3.970  1.7137  1.8664  0.5271
 6249SOL     OW30382   2.593   0.566   9.320  0.2267 -0.5597  0.4081
 6249SOL    HW130383   2.534   0.571   9.396 -0.4438 -1.2150 -0.0726
 6249SOL    HW230384   2.616   0.658   9.307  0.4322 -0.4858  1.2857
 6250SOL     OW30385   0.364   2.510   2.313 -0.4123  0.2074 -0.1744
 6250SOL    HW130386   0.342   2.549   2.398 -0.0774 -0.7841  0.3614
 6250SOL    HW230387   0.440   2.565   2.292  1.4512 -1.2535  2.5961
 6251SOL     OW30388   2.452   3.250   9.641 -0.3028  0.1772  0.3661
 6251SOL    HW130389   2.488   3.168   9.607  1.5034  1.1078  0.0146
 6251SOL    HW230390   2.520   3.286   9.698  0.7320  1.1046 -1.4443
 6252SOL     OW30391   4.566   0.952   2.786 -0.2963  0.3902  0.1616
 6252SOL    HW130392   4.609   0.966   2.871 -1.8362  0.2659  0.9586
 6252SOL    HW230393   4.642   0.954   2.728  0.5891 -0.0987  1.2984
 6253SOL     OW30394   1.174   3.214   5.326  0.4481 -0.0205 -0.3274
 6253SOL    HW130395   1.215   3.264   5.398 -0.7273  0.8270 -0.2358
 6253SOL    HW230396   1.246   3.164   5.288  1.2103  1.9030 -1.4180
 6254SOL     OW30397   3.383   4.264   6.867  0.3917  0.3664  0.0237
 6254SOL    HW130398   3.313   4.278   6.931 -2.0605 -2.0958 -2.0755
 6254SOL    HW230399   3.446   4.218   6.922 -0.6570 -1.4201 -0.2570
 6255SOL     OW30400   0.679   1.327   5.961 -0.1565  0.1820  0.5419
 6255SOL    HW130401   0.745   1.261   5.938 -0.2695  0.3248 -0.2006
 6255SOL    HW230402   0.729   1.405   5.986  0.6486 -0.1529 -0.0092
 6256SOL     OW30403   2.931   0.940   0.042 -0.3387 -0.1185 -0.6672
 6256SOL    HW130404   3.024   0.963   0.052 -0.9770  1.8200  0.6057
 6256SOL    HW230405   2.893   1.011  17.751  1.2926 -0.5146 -2.4528
 6257SOL     OW30406   1.890   0.695   1.742 -0.0749  0.1088 -0.6814
 6257SOL    HW130407   1.872   0.601   1.753 -0.6037  0.5581  2.1916
 6257SOL    HW230408   1.813   0.723   1.694  0.2723 -0.0454 -1.3221
 6258SOL     OW30409   3.243   3.728  15.222  0.2858 -0.5121  0.4853
 6258SOL    HW130410   3.233   3.807  15.169 -0.8024 -0.2054  1.1415
 6258SOL    HW230411   3.232   3.657  15.159 -0.8045  2.1489 -2.3228
 6259SOL     OW30412   2.573   2.329  10.908 -0.2217 -0.0472 -0.5859
 6259SOL    HW130413   2.640   2.291  10.851  1.0884 -0.7750  1.4641
 6259SOL    HW230414   2.597   2.297  10.995  2.7892  0.2451 -1.2866
 6260SOL     OW30415   0.154   2.298   2.599 -0.0689 -0.0593 -0.0985
 6260SOL    HW130416   0.083   2.296   2.664  0.1507  1.1129  0.1689
 6260SOL    HW230417   0.184   2.388   2.588  0.8327 -0.6872 -2.8869
 6261SOL     OW30418   1.407   3.787   9.709 -0.2276  0.4440 -0.0953
 6261SOL    HW130419   1.451   3.762   9.790 -1.3459  0.3979  0.5079
 6261SOL    HW230420   1.483   3.832   9.672  0.7855  1.4215  3.1001
 6262SOL     OW30421   1.983   1.681   3.562  0.1146  0.2400 -0.7795
 6262SOL    HW130422   1.942   1.763   3.590  1.3933  0.6236 -0.0612
 6262SOL    HW230423   1.995   1.633   3.644  0.2835 -1.2155 -1.6730
 6263SOL     OW30424   0.120   4.331   9.278 -0.7074 -0.2417 -0.2421
 6263SOL    HW130425   0.067   4.267   9.232 -1.0958 -2.2826  3.1101
 6263SOL    HW230426   0.144   4.272   9.349  1.9921 -0.0178 -0.9551
 6264SOL     OW30427   3.389   3.042   3.968  0.0339  0.3116 -0.1935
 6264SOL    HW130428   3.437   3.068   4.046 -0.7983  0.1095  0.3846
 6264SOL    HW230429   3.464   3.033   3.908  0.6984  1.5051  0.4540
 6265SOL     OW30430   0.788   3.909   5.341 -0.5552  0.1359  0.0891
 6265SOL    HW130431   0.868   3.906   5.393 -0.0272  0.3734 -0.7127
 6265SOL    HW230432   0.821   3.868   5.261 -0.7494 -0.9075  0.5532
 6266SOL     OW30433   3.165   4.428   9.868  0.3188 -1.0810 -0.0800
 6266SOL    HW130434   3.203   4.439   9.781  2.0913  1.0390  0.9735
 6266SOL    HW230435   3.236   4.386   9.917  1.0010  0.9729  0.6783
 6267SOL     OW30436   2.221   3.771  15.411  0.8818 -0.5793  0.8352
 6267SOL    HW130437   2.177   3.818  15.341  1.8421  2.6018  2.3925
 6267SOL    HW230438   2.185   3.683  15.402 -1.6704  0.4743  0.8862
 6268SOL     OW30439   1.968   1.019   7.601 -0.0720  0.1511  0.1011
 6268SOL    HW130440   1.934   0.972   7.677  3.6923 -0.1199  1.5999
 6268SOL    HW230441   1.979   1.110   7.627 -1.4285 -0.2815  2.2254
 6269SOL     OW30442   0.224   1.644   1.552 -0.1527 -0.1301  0.0050
 6269SOL    HW130443   0.212   1.714   1.488 -3.2780 -1.1752 -0.5505
 6269SOL    HW230444   0.277   1.689   1.618 -1.3968 -0.1262  0.9944
 6270SOL     OW30445   2.805   2.604  14.640 -0.0143 -0.0911 -0.3919
 6270SOL    HW130446   2.751   2.681  14.621 -0.2756 -0.0058  0.6597
 6270SOL    HW230447   2.872   2.622  14.575 -0.5078 -2.8364 -1.6608
 6271SOL     OW30448   0.012   2.806   2.172 -0.4671 -0.0553 -0.5045
 6271SOL    HW130449   4.708   2.865   2.110 -0.1212  1.0125  0.2628
 6271SOL    HW230450   0.106   2.815   2.155 -0.2297  2.9260  2.5076
 6272SOL     OW30451   3.171   3.018   7.586 -0.0616 -0.4074  0.0806
 6272SOL    HW130452   3.103   3.030   7.519  1.6782 -0.7073 -1.7619
 6272SOL    HW230453   3.249   2.979   7.546 -0.2899 -0.0762 -0.7021
 6273SOL     OW30454   0.356   1.496   8.531 -0.2162 -0.0673  0.0526
 6273SOL    HW130455   0.293   1.434   8.495 -3.6517  3.5875 -0.2313
 6273SOL    HW230456   0.301   1.569   8.559 -0.4813 -0.8579  1.6110
 6274SOL     OW30457   3.476   0.323   7.763 -0.2000  0.3875 -0.0738
 6274SOL    HW130458   3.448   0.346   7.852 -2.3461 -1.2145 -0.3294
 6274SOL    HW230459   3.428   0.388   7.711  0.0971  0.7693  0.1342
 6275SOL     OW30460   0.594   0.663  12.801  0.4517  0.0568 -0.1845
 6275SOL    HW130461   0.621   0.741  12.849 -0.7580 -0.1952  0.9148
 6275SOL    HW230462   0.597   0.704  12.715 -0.1412  0.6887  0.0954
 6276SOL     OW30463   1.118   3.570   8.194 -0.6326  0.6313  0.1584
 6276SOL    HW130464   1.033   3.555   8.235 -1.0052 -0.9720 -1.2005
 6276SOL    HW230465   1.099   3.538   8.106  0.9501 -0.5078  0.2248
 6277SOL     OW30466   3.192   1.448   8.823  0.1566  0.0081 -0.1791
 6277SOL    HW130467   3.179   1.399   8.742 -1.5079  1.2613 -0.6730
 6277SOL    HW230468   3.105   1.470   8.857 -0.0553 -0.2360 -0.5655
 6278SOL     OW30469   2.461   1.771   6.190 -0.0620  0.0292 -0.1133
 6278SOL    HW130470   2.542   1.748   6.236  1.1161  2.1191 -1.1591
 6278SOL    HW230471   2.447   1.695   6.133  0.6726  0.9524 -1.5328
 6279SOL     OW30472   0.698   0.053   3.431 -0.0660 -0.8801  0.5525
 6279SOL    HW130473   0.632   0.054   3.361  0.2067  1.8103  0.3186
 6279SOL    HW230474   0.730   0.142   3.415  1.0693 -1.2949  0.5217
 6280SOL     OW30475   2.761   0.148   3.666 -0.2964  0.2516  0.3135
 6280SOL    HW130476   2.713   0.188   3.594 -0.5768  0.3476  0.5547
 6280SOL    HW230477   2.752   0.223   3.725 -0.9590  0.0736  0.4403
 6281SOL     OW30478   3.617   4.289  13.358  0.0049 -0.3246  0.4303
 6281SOL    HW130479   3.636   4.368  13.306 -2.2348 -0.1131 -0.0484
 6281SOL    HW230480   3.665   4.218  13.316  3.5411  1.4379  1.4802
 6282SOL     OW30481   3.289   1.422   4.797  0.7248 -0.3534  0.4863
 6282SOL    HW130482   3.234   1.422   4.719 -0.2202 -1.0664  1.1563
 6282SOL    HW230483   3.239   1.483   4.851 -1.8111 -2.6254  0.7458
 6283SOL     OW30484   1.137   2.757   0.087  0.2915  0.6471 -0.6432
 6283SOL    HW130485   1.163   2.766   0.178 -0.2954 -2.4077 -0.1466
 6283SOL    HW230486   1.216   2.730   0.040  1.6403  0.3386  1.8273
 6284SOL     OW30487   1.731   3.058   6.853  0.1095 -0.1646 -0.1104
 6284SOL    HW130488   1.660   3.101   6.804  0.7762 -0.1099 -1.0247
 6284SOL    HW230489   1.805   3.104   6.813  0.3635 -0.9917 -0.5942
 6285SOL     OW30490   1.735   0.057   8.605  0.4083 -0.1329 -0.0931
 6285SOL    HW130491   1.786   0.032   8.528  2.3355  0.3678  1.0100
 6285SOL    HW230492   1.660   0.097   8.562  0.0043 -0.9810 -0.1851
 6286SOL     OW30493   2.485   0.589   2.459  0.3270  0.1796  0.7817
 6286SOL    HW130494   2.394   0.589   2.489  0.2949 -1.5072  0.7109
 6286SOL    HW230495   2.503   0.682   2.447  0.4731  0.2217  1.3292
 6287SOL     OW30496   0.869   2.338   3.202 -0.5232 -0.3941  0.5941
 6287SOL    HW130497   0.893   2.247   3.222 -0.5139 -0.2762  1.1427
 6287SOL    HW230498   0.911   2.381   3.277  1.8963 -3.0034  0.7543
 6288SOL     OW30499   4.563   3.438   7.417  0.1498 -0.3891  0.2589
 6288SOL    HW130500   4.531   3.395   7.338 -1.6417 -0.4996  1.0561
 6288SOL    HW230501   4.587   3.362   7.470 -0.5596 -1.6251 -1.2215
 6289SOL     OW30502   1.758   3.267   3.997  0.5041  0.0469 -0.1585
 6289SOL    HW130503   1.849   3.284   3.972  0.6086 -0.3408 -0.0451
 6289SOL    HW230504   1.758   3.188   4.052  2.0955 -0.6688 -1.1508
 6290SOL     OW30505   1.303   3.851   5.948 -0.4589  0.8750 -0.3790
 6290SOL    HW130506   1.220   3.853   5.899  0.0967 -2.2415 -1.5026
 6290SOL    HW230507   1.281   3.903   6.025 -0.0682  0.7162 -0.1639
 6291SOL     OW30508   0.956   3.408  17.401  0.3359  0.1799 -0.1746
 6291SOL    HW130509   1.015   3.483  17.401 -0.9257  1.1574  1.5052
 6291SOL    HW230510   0.987   3.354  17.328  0.1218 -1.4290  0.9215
 6292SOL     OW30511   4.458   0.559   8.196 -0.6366  0.2012 -0.1332
 6292SOL    HW130512   4.451   0.484   8.255 -0.0861 -0.7555 -1.2785
 6292SOL    HW230513   4.521   0.537   8.126 -0.2421 -0.1480  0.3337
 6293SOL     OW30514   1.309   0.911   8.834  0.0469 -0.5920 -0.3976
 6293SOL    HW130515   1.316   0.825   8.875  1.0907  0.0256  0.7116
 6293SOL    HW230516   1.390   0.917   8.782  1.2150 -0.1438  1.4850
 6294SOL     OW30517   3.569   3.540   1.794 -0.4952  0.2893 -0.1775
 6294SOL    HW130518   3.616   3.610   1.748 -1.4432  0.7633 -0.4318
 6294SOL    HW230519   3.633   3.525   1.863 -0.9042  0.1665  0.1728
 6295SOL     OW30520   2.918   4.529   1.138  0.3640 -0.3686  0.0227
 6295SOL    HW130521   2.827   4.531   1.109  0.4614 -1.7839 -0.3829
 6295SOL    HW230522   2.906   4.518   1.232  0.3586 -1.3321 -0.0936
 6296SOL     OW30523   4.081   4.144   5.941 -0.3972  0.4048 -0.2067
 6296SOL    HW130524   4.023   4.220   5.949  0.5589  1.2297 -0.9941
 6296SOL    HW230525   4.018   4.074   5.956 -0.1590  0.1027 -0.6304
 6297SOL     OW30526   3.922   3.593  14.523 -0.1101  0.0279  0.1555
 6297SOL    HW130527   3.944   3.571  14.614 -1.3827 -0.2033  0.4030
 6297SOL    HW230528   3.964   3.679  14.525 -2.0253  0.9724 -0.7875
 6298SOL     OW30529   0.147   4.556  11.848 -0.1088  0.6084  0.5078
 6298SOL    HW130530   0.110   4.499  11.916  2.8568 -1.4871  0.3823
 6298SOL    HW230531   0.225   4.506  11.823 -0.4672  0.4357 -0.2691
 6299SOL     OW30532   2.465   2.396   9.439  0.1722 -0.0741  0.2214
 6299SOL    HW130533   2.425   2.310   9.426 -0.2588 -0.0729  1.5743
 6299SOL    HW230534   2.471   2.393   9.534 -0.3574 -1.0733  0.2253
 6300SOL     OW30535   2.769   3.212   7.418  0.2679 -0.4986 -0.0731
 6300SOL    HW130536   2.735   3.265   7.345  2.1411 -1.4336 -1.6200
 6300SOL    HW230537   2.721   3.130   7.411  0.2994 -0.5173 -0.0679
 6301SOL     OW30538   2.848   2.516   2.987  0.6364  0.2519 -0.4204
 6301SOL    HW130539   2.911   2.444   2.981 -1.5240 -1.3784 -3.0043
 6301SOL    HW230540   2.767   2.477   2.955  1.0373  0.6800 -1.9451
 6302SOL     OW30541   3.225   0.114   0.212  0.1393  0.4413  0.2764
 6302SOL    HW130542   3.281   0.041   0.183  0.4007  0.8094 -0.1417
 6302SOL    HW230543   3.181   0.138   0.130 -1.6613  1.8379  1.6836
 6303SOL     OW30544   4.662   0.402   1.031 -0.0823  0.1909 -0.2603
 6303SOL    HW130545   4.695   0.328   1.082 -1.6651  0.0411  0.5290
 6303SOL    HW230546   4.580   0.429   1.071 -0.8284  2.6960 -3.5133
 6304SOL     OW30547   0.448   4.617  14.045  0.5052 -0.2710 -0.4088
 6304SOL    HW130548   0.419   4.681  14.110  1.5324  0.0243 -0.2365
 6304SOL    HW230549   0.511   4.570  14.099  1.4520  0.3076 -1.0152
 6305SOL     OW30550   4.655   0.791   1.457 -0.0685 -0.1743  0.3068
 6305SOL    HW130551   4.601   0.802   1.535  0.4083 -1.6967  0.8552
 6305SOL    HW230552   4.596   0.819   1.387  0.6379  0.2546 -0.1230
 6306SOL     OW30553   1.090   0.061   9.001  0.1774 -0.0970  0.2053
 6306SOL    HW130554   1.079   0.155   8.986  0.1315  0.1565  1.8272
 6306SOL    HW230555   1.076   0.042   9.093  0.3156 -1.5918 -0.0833
 6307SOL     OW30556   0.995   2.517  11.273  0.3135  0.2542 -0.5233
 6307SOL    HW130557   0.992   2.612  11.283 -1.9682  0.1473 -0.2731
 6307SOL    HW230558   1.073   2.503  11.327  0.1264  0.7253 -0.1404
 6308SOL     OW30559   1.434   2.067   7.259 -0.3563  0.0486  0.5819
 6308SOL    HW130560   1.517   2.104   7.288 -0.4296 -0.1635  1.0573
 6308SOL    HW230561   1.404   2.144   7.210 -0.0870 -0.9443 -1.1711
 6309SOL     OW30562   2.274   1.411   4.651 -0.0931  0.0631 -0.3339
 6309SOL    HW130563   2.269   1.379   4.561  0.5764  1.3051 -0.8083
 6309SOL    HW230564   2.199   1.372   4.695  0.7791  1.0603  1.9896
 6310SOL     OW30565   0.288   1.954   5.090  0.3838 -0.4689  0.2473
 6310SOL    HW130566   0.329   2.026   5.042 -0.5272 -0.6816 -0.8617
 6310SOL    HW230567   0.316   1.968   5.180  0.8662 -2.1132  0.3631
 6311SOL     OW30568   1.347   1.014   5.504 -0.1847 -0.0138  0.4678
 6311SOL    HW130569   1.289   1.089   5.492 -1.5507 -1.0119  0.7990
 6311SOL    HW230570   1.309   0.953   5.567 -0.0801 -1.2252 -0.6274
 6312SOL     OW30571   0.486   3.886   5.650  1.0755  0.2560 -0.0535
 6312SOL    HW130572   0.580   3.907   5.651  1.4597 -1.5588  1.1693
 6312SOL    HW230573   0.484   3.849   5.561 -0.1888  0.1285  0.0264
 6313SOL     OW30574   2.725   4.573   4.463 -0.1674  0.2863  0.3174
 6313SOL    HW130575   2.821   4.575   4.459 -0.1979  2.9650  0.8273
 6313SOL    HW230576   2.703   4.486   4.495 -0.2294  0.1370 -0.1282
 6314SOL     OW30577   4.112   2.137  14.114  0.7918 -0.1851 -0.0380
 6314SOL    HW130578   4.120   2.227  14.084 -2.7990  0.6772  1.6487
 6314SOL    HW230579   4.019   2.125  14.132  0.5694  1.9663  0.2257
 6315SOL     OW30580   1.226   0.826   5.111  0.5727 -0.2831  0.2967
 6315SOL    HW130581   1.161   0.843   5.179  1.3822 -0.6270  1.1613
 6315SOL    HW230582   1.276   0.907   5.120 -0.9480  0.6341  0.4385
 6316SOL     OW30583   0.514   4.630   7.326 -1.1196  0.3026 -0.6449
 6316SOL    HW130584   0.559   4.696   7.379  1.0457 -1.2514 -0.5322
 6316SOL    HW230585   0.585   4.572   7.298 -0.0777  0.7800  0.9586
 6317SOL     OW30586   2.609   4.598   8.800 -0.2070  0.0322 -0.0938
 6317SOL    HW130587   2.661   4.614   8.721  1.1074  2.4776  1.2994
 6317SOL    HW230588   2.561   4.680   8.792  1.9818  1.4078  1.2177
 6318SOL     OW30589   0.441   3.231   1.894  0.4129 -0.0374 -0.5640
 6318SOL    HW130590   0.383   3.307   1.891  0.2650 -0.1009  0.5791
 6318SOL    HW230591   0.444   3.220   1.989  2.0981  0.0417 -0.6007
 6319SOL     OW30592   2.256   3.781   1.889 -0.5032 -0.0824 -0.0040
 6319SOL    HW130593   2.165   3.761   1.905 -0.4512  0.4096  0.8805
 6319SOL    HW230594   2.285   3.705   1.838  1.9932  1.9015 -1.5816
 6320SOL     OW30595   1.633   1.872   6.429 -0.0460  0.2622 -0.1847
 6320SOL    HW130596   1.681   1.793   6.402  0.1183  0.5953 -0.8471
 6320SOL    HW230597   1.639   1.866   6.525  2.1477  0.5601 -0.3003
 6321SOL     OW30598   0.105   0.062   4.980  0.3847 -0.6438  0.2992
 6321SOL    HW130599   0.159   0.100   4.910 -0.0117  1.0539  0.9136
 6321SOL    HW230600   0.178   0.031   5.034  0.4086 -1.5873 -0.2839
 6322SOL     OW30601   1.901   1.554   3.056 -0.3048  0.2235 -0.1216
 6322SOL    HW130602   1.911   1.578   3.147 -2.7996  0.4734  0.1059
 6322SOL    HW230603   1.888   1.637   3.011  0.5941 -0.0539 -0.8865
 6323SOL     OW30604   2.852   3.375   6.994 -0.5690  0.2993 -0.7565
 6323SOL    HW130605   2.943   3.395   7.014  0.6535 -1.9961 -3.9396
 6323SOL    HW230606   2.817   3.433   7.062  0.1827 -0.9773  0.7472
 6324SOL     OW30607   2.721   1.723   5.931 -0.0692 -0.1007 -0.3894
 6324SOL    HW130608   2.710   1.792   5.996 -0.7128  1.2343 -1.9135
 6324SOL    HW230609   2.627   1.705   5.928 -0.5170  2.5554 -1.8300
 6325SOL     OW30610   2.749   0.369   6.845  0.7333 -0.0963 -0.2820
 6325SOL    HW130611   2.687   0.393   6.776  2.4637 -0.9845 -2.1403
 6325SOL    HW230612   2.830   0.401   6.804  1.0493  0.4644  0.7555
 6326SOL     OW30613   4.555   2.921   9.135  0.0516 -0.5805  0.0536
 6326SOL    HW130614   4.627   2.903   9.074 -0.2503 -1.4134 -0.0612
 6326SOL    HW230615   4.486   2.868   9.095  0.7379 -1.4252 -0.0025
 6327SOL     OW30616   0.435   1.746   6.820  0.6113  0.3694  0.2522
 6327SOL    HW130617   0.436   1.813   6.888  3.0339  0.5065  0.0834
 6327SOL    HW230618   0.493   1.679   6.854 -1.0279 -0.2349  1.9008
 6328SOL     OW30619   0.413   0.712   0.718 -0.0389 -0.5053  0.9013
 6328SOL    HW130620   0.465   0.632   0.722  0.1542 -0.3160  2.0394
 6328SOL    HW230621   0.428   0.738   0.627 -0.7898 -0.9475  0.6505
 6329SOL     OW30622   0.128   4.477   1.272 -0.1382  0.3927  0.2463
 6329SOL    HW130623   0.054   4.533   1.293 -1.1059 -0.4042 -1.0128
 6329SOL    HW230624   0.149   4.517   1.188 -1.8667 -4.9431 -2.7275
 6330SOL     OW30625   4.023   0.145   2.141 -0.5617  0.4650  0.3466
 6330SOL    HW130626   4.051   0.157   2.232 -1.0645 -2.0197  0.8328
 6330SOL    HW230627   3.939   0.189   2.154  0.3564  3.1016 -2.5108
 6331SOL     OW30628   0.654   0.893  15.916 -0.1872  0.4707 -0.1523
 6331SOL    HW130629   0.675   0.946  15.993  2.3584 -2.2043  1.0069
 6331SOL    HW230630   0.693   0.957  15.856  0.1469 -1.9991 -2.5405
 6332SOL     OW30631   0.137   2.018   0.680 -0.0060 -0.4995  0.2020
 6332SOL    HW130632   0.165   2.109   0.692  1.9247 -1.1588  0.5729
 6332SOL    HW230633   0.044   2.020   0.704 -0.0886  2.9449 -0.3003
 6333SOL     OW30634   2.252   1.858   4.066  0.1422 -0.5459  0.1416
 6333SOL    HW130635   2.245   1.881   3.973 -3.9642 -0.5842  0.4324
 6333SOL    HW230636   2.216   1.938   4.106  2.9569 -0.0965  1.8295
 6334SOL     OW30637   1.838   3.071   8.729 -0.0832  0.3652 -0.0019
 6334SOL    HW130638   1.810   3.016   8.657 -1.6075 -0.6784  1.3903
 6334SOL    HW230639   1.934   3.070   8.724 -0.0491 -2.7145  1.1767
 6335SOL     OW30640   3.855   1.662   2.686  0.3643  0.1504  0.6907
 6335SOL    HW130641   3.829   1.644   2.776  1.7585 -2.2182  0.6272
 6335SOL    HW230642   3.950   1.652   2.692  0.3974 -0.7422 -1.2474
 6336SOL     OW30643   2.885   0.194   3.028 -0.1992  0.2567 -0.7485
 6336SOL    HW130644   2.864   0.193   3.122 -1.0986  1.1176 -0.9386
 6336SOL    HW230645   2.811   0.246   2.997 -1.9777 -0.1705  2.7413
 6337SOL     OW30646   0.884   2.631   3.892  0.0027  0.3382 -0.0324
 6337SOL    HW130647   0.902   2.674   3.975 -0.9471 -1.2428  1.0033
 6337SOL    HW230648   0.956   2.571   3.870 -1.1090 -0.3227 -1.8725
 6338SOL     OW30649   3.906   1.989   0.209  0.0934  0.3713 -0.2088
 6338SOL    HW130650   3.897   1.965   0.117 -0.6733 -1.7413  0.4382
 6338SOL    HW230651   3.998   2.014   0.211  0.1906 -0.0539  0.6516
 6339SOL     OW30652   3.419   4.097   9.399  0.6546  0.1098  0.3706
 6339SOL    HW130653   3.396   4.008   9.426  1.2549 -0.1730 -0.0498
 6339SOL    HW230654   3.341   4.150   9.383 -0.1671 -0.3046  3.0167
 6340SOL     OW30655   2.263   0.711   2.240  0.1182  0.6775 -0.3618
 6340SOL    HW130656   2.269   0.625   2.282  1.1834  0.5148 -0.8327
 6340SOL    HW230657   2.172   0.740   2.239 -0.7037 -1.8248  1.2511
 6341SOL     OW30658   1.115   1.732   9.314  0.3989  0.2151  0.1447
 6341SOL    HW130659   1.120   1.814   9.362 -1.3032  0.4200 -0.0326
 6341SOL    HW230660   1.206   1.717   9.288 -0.4919 -1.7732 -1.8346
 6342SOL     OW30661   4.144   4.259   4.760 -0.8016 -0.3218  0.0231
 6342SOL    HW130662   4.199   4.181   4.759  0.0150  0.2421  0.6250
 6342SOL    HW230663   4.190   4.314   4.824 -0.2754  0.0127 -0.6426
 6343SOL     OW30664   0.145   0.416   8.260 -0.0023 -0.7143 -0.7192
 6343SOL    HW130665   0.101   0.356   8.201  0.7009 -1.6091 -0.3296
 6343SOL    HW230666   0.214   0.448   8.203  0.5381 -0.3570  0.1310
 6344SOL     OW30667   1.761   2.295   6.953 -0.6024  0.0742  0.6999
 6344SOL    HW130668   1.742   2.285   6.860 -1.8242  1.0415  0.8336
 6344SOL    HW230669   1.844   2.342   6.962 -1.8402  2.7385 -1.7628
 6345SOL     OW30670   0.580   1.893   4.595 -0.4402  0.4678  0.1028
 6345SOL    HW130671   0.607   1.810   4.555  0.7743  1.2813 -0.7518
 6345SOL    HW230672   0.591   1.960   4.528 -1.2687 -0.2560 -0.7569
 6346SOL     OW30673   3.454   3.832   5.682 -0.3000  0.2093  0.4031
 6346SOL    HW130674   3.383   3.880   5.638 -0.4303 -0.0114  0.3731
 6346SOL    HW230675   3.449   3.871   5.769  1.7213  0.0609  0.5680
 6347SOL     OW30676   0.627   3.287   8.731 -0.4677  0.3616  0.3966
 6347SOL    HW130677   0.635   3.369   8.682  1.9632  0.3182  0.7077
 6347SOL    HW230678   0.641   3.236   8.651  2.3353 -0.0824  1.1640
 6348SOL     OW30679   2.055   2.367   9.131  0.1509  0.5770 -0.1243
 6348SOL    HW130680   2.059   2.463   9.130  0.2201  0.5719 -0.2960
 6348SOL    HW230681   2.135   2.337   9.088  1.2339  0.4207  1.9971
 6349SOL     OW30682   0.338   4.272   2.149  0.4776  0.1713 -0.2373
 6349SOL    HW130683   0.369   4.286   2.059 -2.3000 -0.7693 -1.3342
 6349SOL    HW230684   0.384   4.190   2.170  0.7072  0.7482  1.4957
 6350SOL     OW30685   1.042   0.725   5.328  0.2736  0.0833 -0.2414
 6350SOL    HW130686   1.034   0.752   5.419 -3.7227 -2.2185  0.1160
 6350SOL    HW230687   1.007   0.636   5.334  0.1959  0.1647  0.5024
 6351SOL     OW30688   3.809   0.548   8.090  0.1688 -0.0539 -0.4389
 6351SOL    HW130689   3.788   0.484   8.158 -0.0418  0.1167 -0.3469
 6351SOL    HW230690   3.861   0.502   8.024  2.0070 -1.1936  1.7706
 6352SOL     OW30691   4.225   3.577   5.294 -0.1727 -0.7334  0.1640
 6352SOL    HW130692   4.214   3.672   5.285  0.0581 -0.8982 -1.8684
 6352SOL    HW230693   4.176   3.543   5.219 -0.0212  1.1494 -0.8071
 6353SOL     OW30694   2.826   0.229   1.807 -0.6245 -0.2895  0.0000
 6353SOL    HW130695   2.780   0.148   1.783  1.6455 -1.5189 -0.2157
 6353SOL    HW230696   2.776   0.260   1.882 -0.5649  1.9489 -0.8954
 6354SOL     OW30697   4.018   1.981   4.524 -0.4006  0.4800 -0.4931
 6354SOL    HW130698   3.975   2.034   4.458  1.5589  1.0740 -1.3001
 6354SOL    HW230699   3.941   1.974   4.580  0.7249  0.5968  1.0814
 6355SOL     OW30700   3.676   3.970   7.905  0.3445 -0.2009 -0.1025
 6355SOL    HW130701   3.596   3.977   7.958 -1.2530  0.9027 -2.6868
 6355SOL    HW230702   3.662   4.059   7.873  0.1656 -0.9931 -2.1773
 6356SOL     OW30703   1.889   2.057  16.856  0.3258 -0.0075  0.3379
 6356SOL    HW130704   1.874   1.995  16.786  0.3256  0.5904 -0.1910
 6356SOL    HW230705   1.818   2.121  16.848  1.6322  1.5608  1.1335
 6357SOL     OW30706   2.952   1.626   9.193  0.3558 -0.2960 -0.3896
 6357SOL    HW130707   3.047   1.632   9.208  0.5646 -0.3859 -1.6631
 6357SOL    HW230708   2.917   1.652   9.278  0.8839 -1.5439  0.2173
 6358SOL     OW30709   3.848   1.881  12.661 -0.1158  0.2014  0.4159
 6358SOL    HW130710   3.880   1.791  12.668 -1.3630 -0.3926 -1.4361
 6358SOL    HW230711   3.754   1.863  12.655 -0.2868  0.9705  0.7486
 6359SOL     OW30712   0.089   3.763  11.076  0.1742 -0.7179  0.1581
 6359SOL    HW130713   0.161   3.815  11.039  0.1952 -0.6546  0.2878
 6359SOL    HW230714   0.030   3.832  11.106  1.0425  0.4553 -0.8278
 6360SOL     OW30715   0.458   2.751  16.906  0.0845 -0.0859 -0.9589
 6360SOL    HW130716   0.456   2.827  16.965 -0.5971  0.3384 -1.5301
 6360SOL    HW230717   0.429   2.786  16.821 -0.2231  1.3727 -0.2573
 6361SOL     OW30718   2.589   4.447   7.663 -0.1809 -0.1207 -0.2147
 6361SOL    HW130719   2.530   4.515   7.630 -0.1509  1.2070  2.5340
 6361SOL    HW230720   2.531   4.371   7.674 -0.3802 -0.6105 -4.4232
 6362SOL     OW30721   2.705   2.236   3.221 -0.2872  0.0218 -0.0107
 6362SOL    HW130722   2.698   2.140   3.223 -0.8461  0.0187 -1.7364
 6362SOL    HW230723   2.694   2.251   3.127  1.8125  1.3132 -0.0387
 6363SOL     OW30724   3.468   2.161   6.130 -0.5499 -0.5320 -0.2621
 6363SOL    HW130725   3.409   2.098   6.089 -1.5459  1.3488 -1.7035
 6363SOL    HW230726   3.403   2.211   6.179  0.0763 -1.3675  1.3966
 6364SOL     OW30727   4.493   2.863   3.463  0.1974 -0.3806  0.5713
 6364SOL    HW130728   4.516   2.833   3.374  0.8968 -2.3724  1.4154
 6364SOL    HW230729   4.521   2.787   3.513  0.5211 -0.8574 -0.3283
 6365SOL     OW30730   4.244   2.381   5.466  0.6001  0.5748  0.0943
 6365SOL    HW130731   4.204   2.410   5.383  0.6438 -1.0765 -0.4987
 6365SOL    HW230732   4.281   2.461   5.503  0.3547  0.5493  0.3957
 6366SOL     OW30733   1.918   3.842   5.984 -0.2795  0.0818  0.1253
 6366SOL    HW130734   1.895   3.763   6.033 -1.1325  1.4448  1.9297
 6366SOL    HW230735   1.969   3.796   5.917  0.8066  1.3392  0.0970
 6367SOL     OW30736   4.103   0.781   1.292  0.0849 -0.1115 -0.2404
 6367SOL    HW130737   4.183   0.817   1.254  0.8487  0.5638  2.0076
 6367SOL    HW230738   4.034   0.832   1.250 -1.0411  0.5277  2.3857
 6368SOL     OW30739   3.475   1.366   6.218 -0.1105  0.0197  0.1600
 6368SOL    HW130740   3.452   1.300   6.153 -0.0378 -1.2501  1.4258
 6368SOL    HW230741   3.392   1.373   6.266 -0.1130 -1.1651  0.3169
 6369SOL     OW30742   2.461   3.184   5.975  0.0909  0.2302 -0.6359
 6369SOL    HW130743   2.436   3.276   5.969  1.2872  0.5817 -0.2283
 6369SOL    HW230744   2.412   3.139   5.906  0.0243  0.0166 -0.4505
 6370SOL     OW30745   4.366   4.536   7.712  0.5132 -0.3256 -0.2092
 6370SOL    HW130746   4.282   4.512   7.749  0.9689 -0.6669  0.6041
 6370SOL    HW230747   4.362   4.472   7.641  1.3845 -1.2998  0.6201
 6371SOL     OW30748   0.139   3.030  13.747  0.1064  0.0388  0.2283
 6371SOL    HW130749   0.044   3.025  13.760  0.0594 -1.7815 -0.8442
 6371SOL    HW230750   0.169   2.972  13.817  2.7079 -1.7009 -2.3575
 6372SOL     OW30751   3.402   2.648   1.217 -0.0899  0.1563  0.1490
 6372SOL    HW130752   3.396   2.558   1.184 -1.2265  1.5782 -3.5848
 6372SOL    HW230753   3.491   2.660   1.184  0.3395  1.6136  1.8524
 6373SOL     OW30754   4.329   2.043   5.883  0.1188  0.2373  0.1922
 6373SOL    HW130755   4.322   1.963   5.935 -0.2641 -0.4002 -0.8446
 6373SOL    HW230756   4.256   2.095   5.918  0.3536  0.1153  0.8749
 6374SOL     OW30757   2.379   0.859   8.063 -0.3413 -0.0536  0.0291
 6374SOL    HW130758   2.334   0.882   8.144 -2.0538  1.3785 -1.3297
 6374SOL    HW230759   2.339   0.925   8.005  0.3688  1.0763  0.8136
 6375SOL     OW30760   4.494   3.702  14.825 -0.7841  0.1269  0.4269
 6375SOL    HW130761   4.556   3.750  14.880 -1.5932  1.9682 -0.2663
 6375SOL    HW230762   4.551   3.642  14.778 -0.8069  0.8476 -0.5233
 6376SOL     OW30763   3.782   3.099   5.975  0.2315 -0.2987  0.2048
 6376SOL    HW130764   3.694   3.091   5.939  0.2553 -0.9439  0.2913
 6376SOL    HW230765   3.822   3.166   5.919 -0.2986  0.2843  0.5400
 6377SOL     OW30766   2.041   4.274   3.000 -0.0005 -0.3968 -0.2307
 6377SOL    HW130767   2.032   4.322   3.082 -0.8880 -2.4778  0.9013
 6377SOL    HW230768   2.097   4.335   2.953  0.7025 -0.9622 -0.1179
 6378SOL     OW30769   2.568   2.677  17.019 -0.0617  0.1507 -0.4192
 6378SOL    HW130770   2.502   2.746  17.005  1.7165  1.8747 -0.2581
 6378SOL    HW230771   2.635   2.724  17.069 -0.1922  2.2169 -2.1795
 6379SOL     OW30772   1.418   3.051   7.087 -0.1090 -0.3658 -0.2145
 6379SOL    HW130773   1.483   3.102   7.039 -2.1146  1.8067 -0.6433
 6379SOL    HW230774   1.352   3.045   7.018  0.1825 -0.1260 -0.5135
 6380SOL     OW30775   4.596   4.721   6.210  0.2616 -0.1180 -0.3397
 6380SOL    HW130776   4.523   0.005   6.268  1.4460  0.9906  0.6753
 6380SOL    HW230777   4.567   0.012   6.124 -0.8436 -1.1945 -0.3765
 6381SOL     OW30778   1.226   1.621   7.056 -0.1066  0.8088  0.3459
 6381SOL    HW130779   1.236   1.680   6.981  0.0655 -0.9554 -1.0331
 6381SOL    HW230780   1.209   1.541   7.005  0.2002  2.4496 -2.3389
 6382SOL     OW30781   1.946   4.060  10.707  0.2565  0.0481  0.1770
 6382SOL    HW130782   1.890   4.001  10.757 -1.2051 -0.2291 -1.7815
 6382SOL    HW230783   1.921   4.036  10.618 -1.0494 -0.9386  0.8074
 6383SOL     OW30784   3.661   1.449   3.923 -0.0018 -0.1329 -0.2398
 6383SOL    HW130785   3.693   1.539   3.913  0.7334 -0.5999 -2.1038
 6383SOL    HW230786   3.693   1.406   3.843 -0.3298  0.2825 -0.6000
 6384SOL     OW30787   1.910   3.578   1.386  0.3953  0.2205 -0.1427
 6384SOL    HW130788   1.929   3.543   1.473 -4.5929 -0.0173  0.8455
 6384SOL    HW230789   1.984   3.638   1.374 -0.2840  1.0073 -0.4214
 6385SOL     OW30790   2.884   2.149   5.332  0.6977 -0.4593  0.0087
 6385SOL    HW130791   2.875   2.087   5.404 -0.6486 -0.1749  0.0746
 6385SOL    HW230792   2.947   2.216   5.360  0.2222  0.0077 -0.0493
 6386SOL     OW30793   0.161   2.722   2.589 -0.2677 -0.0392  0.4535
 6386SOL    HW130794   0.232   2.663   2.614 -1.2965 -1.0311  1.0563
 6386SOL    HW230795   0.196   2.811   2.596 -0.1519  0.1149 -2.2121
 6387SOL     OW30796   4.457   4.247   0.639 -0.4510  0.6043  0.2444
 6387SOL    HW130797   4.379   4.219   0.687  2.2346 -2.1156  3.0584
 6387SOL    HW230798   4.471   4.330   0.684  3.1621  0.0096  0.2117
 6388SOL     OW30799   4.384   1.549  17.275  0.3067  0.3119  0.1447
 6388SOL    HW130800   4.468   1.543  17.229 -1.5405 -1.4935 -3.0309
 6388SOL    HW230801   4.333   1.485  17.225  1.5724  0.8550 -1.8460
 6389SOL     OW30802   4.236   3.366   4.372 -0.1444 -0.4177  0.1386
 6389SOL    HW130803   4.311   3.333   4.422  0.1746 -0.7824 -0.5826
 6389SOL    HW230804   4.210   3.294   4.316  2.8272 -3.2246  2.3377
 6390SOL     OW30805   1.854   4.562  11.857  0.6043  0.3980  0.1267
 6390SOL    HW130806   1.878   4.601  11.942 -0.7400 -0.0872  0.7311
 6390SOL    HW230807   1.936   4.513  11.846  1.1924  1.4772 -0.2894
 6391SOL     OW30808   2.143   0.869   2.883  0.2178 -0.4963 -0.6218
 6391SOL    HW130809   2.180   0.892   2.798  2.9293 -0.4776  0.5752
 6391SOL    HW230810   2.049   0.872   2.864  0.6103  1.2323 -2.3124
 6392SOL     OW30811   4.421   4.362   5.011 -0.3653  0.1708 -0.0369
 6392SOL    HW130812   4.412   4.453   4.984  2.5035  0.5821  0.4030
 6392SOL    HW230813   4.341   4.348   5.062  0.7488  1.5822  2.1121
 6393SOL     OW30814   1.734   4.183   4.388  0.0965 -0.1383 -0.1507
 6393SOL    HW130815   1.726   4.131   4.468 -0.2289 -1.2118 -0.8966
 6393SOL    HW230816   1.698   4.128   4.319  1.3429  0.7711 -1.5324
 6394SOL     OW30817   3.570   2.888   2.588 -0.3748 -0.2520  0.0680
 6394SOL    HW130818   3.596   2.864   2.499 -2.2359 -0.9750 -0.2639
 6394SOL    HW230819   3.604   2.978   2.595  1.1138 -0.7581 -0.5101
 6395SOL     OW30820   3.164   4.396   1.647 -0.0324 -0.1381 -0.2433
 6395SOL    HW130821   3.132   4.309   1.672 -0.2896  0.0828  0.2102
 6395SOL    HW230822   3.175   4.441   1.731 -1.1919 -1.2486  0.5030
 6396SOL     OW30823   1.898   3.780   6.420 -0.4937 -0.1087 -0.6600
 6396SOL    HW130824   1.837   3.845   6.455  0.0373 -0.4645  0.9429
 6396SOL    HW230825   1.867   3.751   6.334 -1.1472 -2.4335  0.3737
 6397SOL     OW30826   1.583   2.757   5.991  0.9395  0.2153  0.4364
 6397SOL    HW130827   1.528   2.718   5.923  0.5131 -0.0073  0.9137
 6397SOL    HW230828   1.561   2.711   6.072  3.0250  0.4261  1.1372
 6398SOL     OW30829   4.302   4.183   7.938 -0.0252 -0.2086  0.0038
 6398SOL    HW130830   4.220   4.151   7.898 -0.6064 -0.5086  1.4389
 6398SOL    HW230831   4.325   4.099   7.979  2.0085  1.1137  1.5381
 6399SOL     OW30832   4.044   1.456   3.057  0.2342  0.1389 -0.4052
 6399SOL    HW130833   4.034   1.508   2.978 -0.1427  1.2998  0.4011
 6399SOL    HW230834   4.084   1.520   3.116 -0.7918  0.2470  0.1826
 6400SOL     OW30835   1.705   3.893   2.369 -0.2281 -0.2098 -0.0379
 6400SOL    HW130836   1.758   3.918   2.444 -0.9038 -1.1892  0.7664
 6400SOL    HW230837   1.715   3.798   2.358 -1.7740 -0.6429  2.2888
 6401SOL     OW30838   0.122   1.627   6.935 -0.0953 -0.4575  0.2242
 6401SOL    HW130839   0.119   1.552   6.875  0.8443  0.5176 -1.0514
 6401SOL    HW230840   0.086   1.702   6.887 -0.1137  0.4478  1.6495
 6402SOL     OW30841   0.292   3.036   3.501  0.0338  0.9963 -0.0515
 6402SOL    HW130842   0.268   3.070   3.587 -1.3758  1.1355 -0.5130
 6402SOL    HW230843   0.214   3.057   3.450  0.7287 -0.1416 -1.5814
 6403SOL     OW30844   1.903   1.132  11.172 -0.2055 -0.6882 -0.3095
 6403SOL    HW130845   1.977   1.160  11.118  0.0665  1.4075  1.1423
 6403SOL    HW230846   1.948   1.086  11.243  0.0692  0.6847  0.4065
 6404SOL     OW30847   4.138   4.635   3.414  0.5290 -0.2766  0.2992
 6404SOL    HW130848   4.161   4.699   3.347  0.2508  1.0579  1.4758
 6404SOL    HW230849   4.078   4.582   3.361 -3.1899  2.7520  1.4727
 6405SOL     OW30850   0.768   3.581  16.968  0.1240  0.1747 -0.1808
 6405SOL    HW130851   0.859   3.568  16.942  0.1813 -0.6747  0.4510
 6405SOL    HW230852   0.717   3.573  16.887  0.3433 -0.8726 -0.2226
 6406SOL     OW30853   1.987   3.755   1.933  0.1386  0.5916 -0.2877
 6406SOL    HW130854   1.943   3.671   1.924 -0.4616  0.5964  2.5901
 6406SOL    HW230855   1.939   3.808   1.869 -2.1643  1.0115  1.7978
 6407SOL     OW30856   2.178   3.914  13.715  0.5416 -0.3943 -0.3725
 6407SOL    HW130857   2.187   4.002  13.752  2.3077 -0.4102 -0.7621
 6407SOL    HW230858   2.269   3.885  13.723  0.0073 -1.8067  0.5578
 6408SOL     OW30859   4.396   4.184   1.925  0.2404  0.1795  0.2252
 6408SOL    HW130860   4.449   4.185   1.845  1.0199  0.9051  0.7501
 6408SOL    HW230861   4.399   4.279   1.938 -1.0734  0.6299 -2.6427
 6409SOL     OW30862   3.144   4.359  16.231  0.0269 -0.0641 -0.6762
 6409SOL    HW130863   3.082   4.303  16.277 -0.3081  0.5534 -0.3788
 6409SOL    HW230864   3.112   4.448  16.241  0.4572 -0.1564  1.4602
 6410SOL     OW30865   1.155   0.365  15.800  0.0717 -0.0063 -0.3077
 6410SOL    HW130866   1.227   0.328  15.749  0.1843 -1.2030  0.6995
 6410SOL    HW230867   1.115   0.288  15.841  1.2761 -0.7976 -0.6126
 6411SOL     OW30868   4.178   0.001   7.544 -0.0099  0.7131 -0.4417
 6411SOL    HW130869   4.103   0.030   7.493 -0.2322  1.5395  0.3556
 6411SOL    HW230870   4.213   4.675   7.485 -1.7353 -2.9544  2.7042
 6412SOL     OW30871   1.657   3.882  16.184 -0.1534  0.1303  0.2158
 6412SOL    HW130872   1.589   3.950  16.190  1.1801  1.6320 -1.6037
 6412SOL    HW230873   1.734   3.936  16.202 -0.2962  0.2271  0.5531
 6413SOL     OW30874   3.767   3.660   3.441  0.0798 -1.1226 -0.4872
 6413SOL    HW130875   3.836   3.669   3.375  0.7088  0.4172  0.4055
 6413SOL    HW230876   3.807   3.613   3.514 -0.1180 -1.0594 -0.3404
 6414SOL     OW30877   3.905   4.068   3.034  0.1154  0.5478  0.0496
 6414SOL    HW130878   3.925   4.146   2.982 -0.4780  0.1573 -0.7554
 6414SOL    HW230879   3.993   4.049   3.068  0.9709  5.2044  0.4417
 6415SOL     OW30880   2.378   4.378  15.419  0.0943 -0.1066  0.5476
 6415SOL    HW130881   2.392   4.386  15.325 -1.4300 -2.4236  0.1434
 6415SOL    HW230882   2.420   4.463  15.433 -0.5201  0.4282 -0.9353
 6416SOL     OW30883   3.512   4.672  10.573  0.4976 -0.2617 -0.7578
 6416SOL    HW130884   3.442   4.715  10.524 -0.0270  1.2568  1.3089
 6416SOL    HW230885   3.463   4.641  10.649  0.3720  0.5969 -0.4796
 6417SOL     OW30886   1.638   0.340  10.319 -0.1061 -0.8255  0.2708
 6417SOL    HW130887   1.574   0.400  10.281 -2.8719 -1.1474  4.3707
 6417SOL    HW230888   1.585   0.260  10.322  0.1426 -1.0535 -1.4960
 6418SOL     OW30889   2.322   4.677   8.345 -0.4714  0.4864  0.0881
 6418SOL    HW130890   2.266   4.619   8.396 -0.5122 -0.7110 -1.2950
 6418SOL    HW230891   2.352   4.604   8.290  0.2303  1.9745 -1.5014
 6419SOL     OW30892   0.234   0.013   4.153 -0.0927  0.3192 -0.0908
 6419SOL    HW130893   0.273   0.007   4.066 -1.6049  0.0603 -0.7558
 6419SOL    HW230894   0.156   0.067   4.141 -0.4855 -0.4688 -1.0712
 6420SOL     OW30895   3.707   0.828   7.823  0.3855 -0.3847  0.0344
 6420SOL    HW130896   3.802   0.815   7.830  0.5745 -0.4556 -2.9210
 6420SOL    HW230897   3.669   0.741   7.836 -2.5452  1.0891  1.4157
 6421SOL     OW30898   1.951   3.038  17.154 -0.2961 -0.0343  0.4231
 6421SOL    HW130899   1.879   2.989  17.194 -1.1048  1.7025  1.1067
 6421SOL    HW230900   1.937   3.014  17.063  0.3330 -2.3261  0.9418
 6422SOL     OW30901   0.448   4.704   6.984  0.0730 -0.3262  0.4178
 6422SOL    HW130902   0.415   0.019   7.054  1.2285 -0.5133  1.1262
 6422SOL    HW230903   0.367   4.670   6.946 -0.2544  0.2911  0.5753
 6423SOL     OW30904   0.863   4.281   4.861  0.2849 -0.0533 -0.2256
 6423SOL    HW130905   0.888   4.236   4.941  1.0776 -1.3956 -1.2379
 6423SOL    HW230906   0.910   4.363   4.878  0.5522 -0.4090  0.7657
 6424SOL     OW30907   1.945   3.684  11.193  0.0448 -0.4106 -0.3261
 6424SOL    HW130908   1.985   3.680  11.106  2.0778  0.4821  0.5707
 6424SOL    HW230909   1.873   3.742  11.170 -1.2243 -1.0782  1.9596
 6425SOL     OW30910   2.252   3.723   6.567  0.0440 -0.3593  0.0053
 6425SOL    HW130911   2.300   3.760   6.641 -1.3800  2.6301 -0.5693
 6425SOL    HW230912   2.170   3.693   6.606 -0.0903  1.9461  1.5147
 6426SOL     OW30913   1.267   3.402   6.873  0.4318  0.6114 -0.0453
 6426SOL    HW130914   1.199   3.352   6.918  1.9461 -2.0079 -0.6429
 6426SOL    HW230915   1.335   3.338   6.853  1.0258  1.0996  0.4013
 6427SOL     OW30916   3.523   1.290   5.308 -0.2729 -0.6272  0.6548
 6427SOL    HW130917   3.512   1.334   5.392 -0.1368 -0.4456  0.5776
 6427SOL    HW230918   3.434   1.253   5.305  0.0307 -1.1841 -1.6131
 6428SOL     OW30919   0.720   4.508   4.067 -0.3381  0.1248  0.0443
 6428SOL    HW130920   0.689   4.427   4.027  1.5369 -0.4562 -0.2234
 6428SOL    HW230921   0.759   4.539   3.986 -0.5480  0.6317  0.1334
 6429SOL     OW30922   2.921   1.866   6.978  0.2494 -0.2124 -0.2330
 6429SOL    HW130923   2.972   1.913   7.044 -0.0791 -1.6839  1.0782
 6429SOL    HW230924   2.994   1.849   6.918  0.3604  1.0062 -0.4431
 6430SOL     OW30925   3.941   3.872  15.202  0.5473  0.2690 -0.2275
 6430SOL    HW130926   3.987   3.955  15.207  0.3991  0.3043  0.6312
 6430SOL    HW230927   3.917   3.850  15.292  0.4635  0.8270 -0.1148
 6431SOL     OW30928   1.834   1.851   3.725  0.3207 -0.0190  0.0557
 6431SOL    HW130929   1.804   1.930   3.680  0.2781  1.6373  2.9909
 6431SOL    HW230930   1.910   1.888   3.770  0.2902 -1.3564  1.2289
 6432SOL     OW30931   2.844   4.695  12.052  0.9636 -0.1835  0.0127
 6432SOL    HW130932   2.877   4.733  12.134  0.5806  2.0058 -0.8499
 6432SOL    HW230933   2.888   0.006  11.985  0.3862  1.5671  0.9649
 6433SOL     OW30934   0.612   1.015  17.442 -0.9108  0.8189 -0.0587
 6433SOL    HW130935   0.543   1.080  17.430 -1.8353 -0.2575 -0.6069
 6433SOL    HW230936   0.685   1.073  17.461 -0.9464  0.2807  1.7721
 6434SOL     OW30937   2.186   1.479  13.600  0.7350  0.2023 -0.3477
 6434SOL    HW130938   2.271   1.523  13.601 -0.3108  2.2143  0.8036
 6434SOL    HW230939   2.149   1.511  13.682 -0.3436  0.2753 -0.8652
 6435SOL     OW30940   0.560   1.822   3.586  0.1437  0.7273 -0.2075
 6435SOL    HW130941   0.638   1.785   3.543  0.2159  0.4155  0.1941
 6435SOL    HW230942   0.582   1.813   3.678 -1.3082 -0.6970 -0.0153
 6436SOL     OW30943   3.590   3.973   7.275 -0.0943 -0.0118 -0.8101
 6436SOL    HW130944   3.539   3.952   7.197 -1.7900 -0.9476  0.5421
 6436SOL    HW230945   3.681   3.956   7.251 -0.1154 -0.4784 -0.5634
 6437SOL     OW30946   1.632   3.319   7.659 -0.2650 -0.2242  0.8474
 6437SOL    HW130947   1.646   3.405   7.620 -1.4050 -0.8750 -0.9993
 6437SOL    HW230948   1.680   3.328   7.741  2.2265  0.1615 -0.6425
 6438SOL     OW30949   2.369   1.220   3.056 -0.1500 -0.0767  0.1378
 6438SOL    HW130950   2.363   1.181   3.144  1.8177 -0.6240  0.0122
 6438SOL    HW230951   2.279   1.208   3.025 -0.8519  1.6209  1.5311
 6439SOL     OW30952   1.722   3.561   3.369 -0.1456  0.1952 -0.7327
 6439SOL    HW130953   1.729   3.623   3.441  3.1925 -1.1537  0.0983
 6439SOL    HW230954   1.690   3.612   3.294  1.8928  0.0660 -1.6932
 6440SOL     OW30955   4.562   4.280   8.197  0.2117 -0.1790 -0.3572
 6440SOL    HW130956   4.630   4.286   8.263  2.5565 -2.1976 -2.5990
 6440SOL    HW230957   4.597   4.206   8.148 -1.8440 -1.5095  0.1665
 6441SOL     OW30958   3.961   2.151  13.070  0.5820  0.7372  0.3191
 6441SOL    HW130959   3.963   2.119  13.160 -0.1407  0.2824  0.1785
 6441SOL    HW230960   3.882   2.204  13.082 -0.2244 -0.5039  0.5323
 6442SOL     OW30961   1.081   0.140   4.958  0.8903 -0.2425 -0.2980
 6442SOL    HW130962   1.176   0.134   4.966  1.0866  2.1183 -0.8681
 6442SOL    HW230963   1.063   0.195   4.882  2.1244 -2.0733 -1.9191
 6443SOL     OW30964   1.016   1.265  10.841  0.2867 -0.5955  0.0330
 6443SOL    HW130965   1.093   1.211  10.821  1.3916  0.5309  1.2032
 6443SOL    HW230966   1.049   1.346  10.801 -0.4814  0.5634  1.7320
 6444SOL     OW30967   2.258   0.942   5.232 -0.1168  0.3235  0.0863
 6444SOL    HW130968   2.247   1.005   5.161 -0.3373 -1.5886 -1.5855
 6444SOL    HW230969   2.165   0.926   5.248  0.1822 -0.5200  0.9738
 6445SOL     OW30970   4.547   4.071  13.174  0.7577 -0.4790 -0.8251
 6445SOL    HW130971   4.474   4.098  13.119  0.9424 -1.0066 -1.3249
 6445SOL    HW230972   4.596   4.153  13.180  0.7675 -0.6664  1.8967
 6446SOL     OW30973   0.404   4.396   3.983  0.2425  0.1504  0.3964
 6446SOL    HW130974   0.414   4.373   4.075 -0.9664 -3.7147 -0.4153
 6446SOL    HW230975   0.494   4.387   3.951 -0.8080 -0.4205 -2.4405
 6447SOL     OW30976   1.524   2.559   6.752  0.3946  0.2393 -0.1399
 6447SOL    HW130977   1.469   2.606   6.689 -1.1140 -1.1580  0.1231
 6447SOL    HW230978   1.463   2.536   6.822  0.8581  0.4835  0.3461
 6448SOL     OW30979   1.283   4.584   4.798 -0.7082 -0.2060 -0.0607
 6448SOL    HW130980   1.260   4.669   4.761 -0.1670 -0.3399 -0.6967
 6448SOL    HW230981   1.293   4.613   4.889 -1.6884  1.0969 -0.3676
 6449SOL     OW30982   1.605   4.056   1.730  0.2196  0.2698  0.3231
 6449SOL    HW130983   1.684   4.011   1.758 -0.4730 -0.4806  1.0999
 6449SOL    HW230984   1.628   4.148   1.738  0.5482  0.0873  1.3814
 6450SOL     OW30985   3.295   3.476  10.886 -0.3391  0.0387 -0.3184
 6450SOL    HW130986   3.304   3.424  10.966 -0.2415  0.9117  0.2421
 6450SOL    HW230987   3.321   3.563  10.917 -2.7791  0.4158  0.6672
 6451SOL     OW30988   3.174   1.354   7.372 -0.6935  0.3904  0.0298
 6451SOL    HW130989   3.186   1.448   7.387  0.2007  0.5860 -1.9200
 6451SOL    HW230990   3.251   1.325   7.420  1.4066  0.7487 -3.1010
 6452SOL     OW30991   2.081   0.464  15.334  0.6222  0.3839  0.2501
 6452SOL    HW130992   2.135   0.439  15.409 -1.6258  3.4640  2.8982
 6452SOL    HW230993   2.096   0.385  15.283  1.7433 -0.5709  2.0487
 6453SOL     OW30994   0.519   4.090   5.270  0.1809  0.0640  0.0283
 6453SOL    HW130995   0.546   4.001   5.292 -0.5722 -0.5187 -1.4524
 6453SOL    HW230996   0.520   4.093   5.175  1.3799  3.6731  0.1726
 6454SOL     OW30997   0.221   0.621   0.904  0.1214 -0.0115  0.7444
 6454SOL    HW130998   0.165   0.578   0.839  0.5446  1.6089 -0.6649
 6454SOL    HW230999   0.275   0.670   0.843 -0.3993 -1.5158 -0.9227
 6455SOL     OW31000   1.279   3.889   7.600  0.2336  0.2710 -0.1663
 6455SOL    HW131001   1.206   3.900   7.539  1.6597 -1.8136 -2.2845
 6455SOL    HW231002   1.246   3.922   7.683 -1.9297 -2.7430  0.1551
 6456SOL     OW31003   4.132   3.198   4.965  0.0682  0.1223 -0.2359
 6456SOL    HW131004   4.214   3.153   4.982 -0.1708  0.1691  1.0753
 6456SOL    HW231005   4.080   3.143   4.906  2.7067 -0.6957 -1.7784
 6457SOL     OW31006   1.847   2.766  13.600  0.3809 -0.5041 -0.5801
 6457SOL    HW131007   1.836   2.745  13.507 -2.1712  1.3773 -0.7165
 6457SOL    HW231008   1.763   2.729  13.628 -0.1746  1.0249 -0.2213
 6458SOL     OW31009   3.016   1.960   8.043  0.1714  0.2474 -0.3341
 6458SOL    HW131010   2.925   1.988   8.039  0.4254  0.7940 -2.6571
 6458SOL    HW231011   3.020   1.930   8.134  1.4057 -0.7520 -0.7068
 6459SOL     OW31012   1.726   3.791  10.097  0.0569 -0.1696 -0.6536
 6459SOL    HW131013   1.717   3.886  10.106  0.4055 -0.3881  2.0939
 6459SOL    HW231014   1.754   3.768  10.186 -0.9432 -1.8116 -0.7497
 6460SOL     OW31015   2.358   3.693   8.829 -0.0922 -0.2625 -0.1572
 6460SOL    HW131016   2.394   3.713   8.915  0.6238 -0.0535 -0.4980
 6460SOL    HW231017   2.416   3.622   8.802  1.4750  0.7388  0.5659
 6461SOL     OW31018   1.489   3.785   8.401 -0.2286  0.5981  0.7124
 6461SOL    HW131019   1.439   3.733   8.337  1.4332  0.5029 -0.4790
 6461SOL    HW231020   1.423   3.795   8.470 -0.0821 -0.9077  1.0838
 6462SOL     OW31021   3.006   3.927   5.252 -0.3594 -0.5901 -0.5776
 6462SOL    HW131022   3.099   3.908   5.264 -0.8092 -0.8861  2.2605
 6462SOL    HW231023   3.000   4.011   5.297  1.0773 -0.7405 -0.0841
 6463SOL     OW31024   4.062   3.617   5.001  0.3857  0.1747 -0.1137
 6463SOL    HW131025   4.036   3.582   4.916  1.0490  2.9632 -1.4703
 6463SOL    HW231026   3.977   3.620   5.046 -0.2947 -0.7996 -1.3229
 6464SOL     OW31027   2.817   2.950   8.578  0.4016 -0.4156 -0.8159
 6464SOL    HW131028   2.820   3.012   8.651  2.9359  0.6689 -1.8491
 6464SOL    HW231029   2.889   2.891   8.603 -0.3241 -0.4852  1.1033
 6465SOL     OW31030   0.639   3.591  14.549  0.5391  0.1517  0.3749
 6465SOL    HW131031   0.617   3.669  14.600  0.3909  0.4796 -0.1970
 6465SOL    HW231032   0.556   3.560  14.514  0.8185 -0.9769  0.7128
 6466SOL     OW31033   1.535   3.241   8.659 -0.7365 -0.2523 -0.2609
 6466SOL    HW131034   1.629   3.256   8.647 -1.2653  1.9671 -1.6794
 6466SOL    HW231035   1.514   3.331   8.682  1.1041 -0.1030  0.8064
 6467SOL     OW31036   4.409   1.726   3.732 -0.2147 -0.4964  0.1045
 6467SOL    HW131037   4.484   1.724   3.672 -0.7292  0.6234 -0.5817
 6467SOL    HW231038   4.425   1.812   3.771  2.0882 -0.1699 -1.5305
 6468SOL     OW31039   4.163   0.492   6.079  0.5245 -0.0001 -0.2232
 6468SOL    HW131040   4.110   0.569   6.099  0.6049 -1.0912  4.1678
 6468SOL    HW231041   4.163   0.492   5.983  1.7202  1.4516 -0.2162
 6469SOL     OW31042   1.714   4.026  17.707 -0.3510 -0.1341  0.1104
 6469SOL    HW131043   1.680   4.110  17.676  1.5381 -0.0051 -1.6513
 6469SOL    HW231044   1.775   4.019  17.633 -0.1585 -1.0720  0.3521
 6470SOL     OW31045   3.977   0.800   7.862  0.2687 -0.3087 -0.0291
 6470SOL    HW131046   4.036   0.851   7.806  0.1250  0.0315  0.1280
 6470SOL    HW231047   4.040   0.765   7.925  0.9771  1.4592  0.2589
 6471SOL     OW31048   3.694   3.785   6.782  0.2759 -0.4675 -0.4483
 6471SOL    HW131049   3.643   3.818   6.708  0.3668  0.0819 -0.2653
 6471SOL    HW231050   3.736   3.710   6.740 -1.0624 -0.5575 -1.6168
 6472SOL     OW31051   4.541   2.333   7.961 -0.1872 -0.3861 -0.2478
 6472SOL    HW131052   4.579   2.315   7.875  2.8055 -2.9785  1.6135
 6472SOL    HW231053   4.461   2.384   7.947 -2.3484 -3.2611  1.5127
 6473SOL     OW31054   0.495   0.950   7.488  0.2962 -0.1342  0.0373
 6473SOL    HW131055   0.516   0.943   7.581 -2.1520  0.0615  0.6033
 6473SOL    HW231056   0.488   0.858   7.460 -2.7599  0.0248  0.2838
 6474SOL     OW31057   0.677   3.826   1.701 -0.4172 -0.1785  0.1827
 6474SOL    HW131058   0.696   3.809   1.794  1.3142  0.6102 -0.0207
 6474SOL    HW231059   0.586   3.796   1.693  0.0771 -1.1109 -1.8604
 6475SOL     OW31060   4.491   1.185  14.543 -0.0125  0.2196 -0.3285
 6475SOL    HW131061   4.404   1.200  14.506 -0.5367 -0.1984  0.7526
 6475SOL    HW231062   4.516   1.104  14.500 -0.9399 -0.4458  0.3881
 6476SOL     OW31063   2.354   2.671   0.536 -0.8286 -0.2843  0.0997
 6476SOL    HW131064   2.271   2.626   0.525 -0.5630 -1.0806  1.3759
 6476SOL    HW231065   2.413   2.636   0.470 -2.1494 -0.9411 -0.7203
 6477SOL     OW31066   1.751   0.278   7.560  0.2631  0.0520  0.1564
 6477SOL    HW131067   1.801   0.196   7.561 -2.2923 -1.5382 -0.4641
 6477SOL    HW231068   1.661   0.246   7.566  0.9462 -1.7389  0.9046
 6478SOL     OW31069   4.566   3.024   5.788  0.1255  0.6213 -0.4412
 6478SOL    HW131070   4.478   2.992   5.807  0.1964  0.3246 -0.6002
 6478SOL    HW231071   4.612   2.953   5.835 -1.0857 -0.8386 -1.4503
 6479SOL     OW31072   4.204   3.390   0.198 -0.2928 -0.0677 -0.0431
 6479SOL    HW131073   4.269   3.439   0.147 -1.5670  3.1793  1.4595
 6479SOL    HW231074   4.155   3.454   0.248 -1.3452 -0.3776 -0.6637
 6480SOL     OW31075   3.874   3.116   2.268  0.2530  0.6458 -0.0238
 6480SOL    HW131076   3.824   3.082   2.194  0.6873  0.5736 -0.2840
 6480SOL    HW231077   3.954   3.138   2.220 -0.4276 -0.4851 -1.6731
 6481SOL     OW31078   3.020   4.236  14.857 -0.0311  0.6819 -1.0467
 6481SOL    HW131079   3.059   4.323  14.856  0.0291  0.6833  1.7136
 6481SOL    HW231080   3.006   4.223  14.951  0.8228 -0.8373 -1.1263
 6482SOL     OW31081   2.669   1.036   7.423 -0.0565  0.1663 -0.0383
 6482SOL    HW131082   2.706   0.956   7.460 -0.1154  0.5812  0.9120
 6482SOL    HW231083   2.590   0.996   7.387 -1.6188  2.6272  0.6255
 6483SOL     OW31084   2.984   2.195  12.815 -0.0275 -0.3279 -0.1118
 6483SOL    HW131085   3.049   2.263  12.800 -1.3389  0.2776 -3.1035
 6483SOL    HW231086   3.028   2.116  12.785 -2.2224 -1.6916  0.2505
 6484SOL     OW31087   2.804   0.697  11.160  0.7138 -0.4772 -0.2911
 6484SOL    HW131088   2.767   0.767  11.106  1.3843  1.1273  1.3436
 6484SOL    HW231089   2.792   0.748  11.240 -3.3590 -1.1738 -0.4865
 6485SOL     OW31090   4.561   2.571   8.942  0.3160 -1.0034  0.1572
 6485SOL    HW131091   4.574   2.480   8.916 -1.9772 -0.9673 -1.1557
 6485SOL    HW231092   4.481   2.593   8.894  0.1183 -2.6444 -0.2811
 6486SOL     OW31093   2.572   3.231   4.401 -0.4839 -0.4981 -0.3462
 6486SOL    HW131094   2.504   3.219   4.334  0.6551  0.0091 -1.5814
 6486SOL    HW231095   2.527   3.185   4.472  2.7925 -1.9981  0.7377
 6487SOL     OW31096   4.386   4.346   8.852  0.4469  0.8531 -0.0192
 6487SOL    HW131097   4.370   4.436   8.824  0.6972  0.7802 -0.4026
 6487SOL    HW231098   4.442   4.328   8.776  0.3539 -1.1771  0.4012
 6488SOL     OW31099   2.898   4.174   3.935  0.1214  0.2833 -0.2640
 6488SOL    HW131100   2.896   4.238   4.006  2.3250  0.4468 -0.3538
 6488SOL    HW231101   2.920   4.091   3.979 -0.1525  0.3430 -0.0141
 6489SOL     OW31102   1.445   1.899   9.476  0.1081 -0.2306 -0.2200
 6489SOL    HW131103   1.479   1.812   9.494 -0.8765 -0.7880 -1.0064
 6489SOL    HW231104   1.357   1.881   9.510  0.4414 -0.0063  0.7494
 6490SOL     OW31105   2.297   3.460  11.357  0.0158 -0.3849 -0.3151
 6490SOL    HW131106   2.347   3.542  11.353 -0.4991 -0.0995 -0.8308
 6490SOL    HW231107   2.356   3.397  11.399 -1.2130  1.1318  3.6713
 6491SOL     OW31108   3.570   4.094   6.121 -0.3581 -0.6444 -0.4566
 6491SOL    HW131109   3.629   4.025   6.150  1.3602 -0.0307 -2.5139
 6491SOL    HW231110   3.567   4.145   6.202  1.6821 -0.2689 -0.6204
 6492SOL     OW31111   4.662   1.736   8.388  0.2679  0.1090 -0.2279
 6492SOL    HW131112   4.600   1.769   8.452  1.4606  1.4166  0.2642
 6492SOL    HW231113   4.671   1.813   8.331  1.5670 -1.6562 -2.4194
 6493SOL     OW31114   0.843   2.640  10.561 -0.4200 -0.5313 -0.0014
 6493SOL    HW131115   0.861   2.586  10.639 -0.2143  1.7706  1.5295
 6493SOL    HW231116   0.930   2.677  10.547  0.1376 -1.1228  1.8870
 6494SOL     OW31117   2.588   3.968  10.467  0.3783 -1.1218 -0.2383
 6494SOL    HW131118   2.556   4.032  10.403 -1.7017  0.0809  2.0223
 6494SOL    HW231119   2.569   3.884  10.426 -0.9710 -0.8222 -0.2045
 6495SOL     OW31120   0.181   3.913   0.660 -0.2131 -0.3731 -0.6821
 6495SOL    HW131121   0.213   4.001   0.636  1.0721 -0.8757 -0.8237
 6495SOL    HW231122   0.215   3.915   0.749 -2.0596 -1.1806  0.0327
 6496SOL     OW31123   3.803   3.769  16.072 -0.1101 -0.2325  0.4125
 6496SOL    HW131124   3.727   3.771  16.130 -1.5627  0.0421 -1.4966
 6496SOL    HW231125   3.762   3.744  15.989  1.7984  0.2620 -0.6971
 6497SOL     OW31126   3.034   3.791  11.851  0.2669  0.3313  0.3843
 6497SOL    HW131127   3.074   3.829  11.773 -2.4378  2.0722 -0.1538
 6497SOL    HW231128   3.050   3.860  11.916  1.1270 -0.3387  0.8767
 6498SOL     OW31129   3.449   0.216  10.704  0.4016  0.0661  0.7124
 6498SOL    HW131130   3.401   0.133  10.708  1.0799 -0.2970  1.3071
 6498SOL    HW231131   3.459   0.251  10.792  0.6067  0.8377  0.3839
 6499SOL     OW31132   0.985   4.430   4.188  0.0398  0.1300  0.0473
 6499SOL    HW131133   0.893   4.435   4.160  0.2961 -1.9076 -1.1249
 6499SOL    HW231134   0.986   4.428   4.284 -2.1228 -0.7647  0.0672
 6500SOL     OW31135   3.201   0.038  14.028  0.0404  0.9736 -0.2697
 6500SOL    HW131136   3.232   0.109  14.084 -0.0912  0.9400 -0.1546
 6500SOL    HW231137   3.185   0.089  13.948 -2.1318  1.4484  0.4944
 6501SOL     OW31138   3.301   3.782   6.268  0.8702  0.5029 -0.4521
 6501SOL    HW131139   3.373   3.724   6.242  0.4611 -1.2515  2.3979
 6501SOL    HW231140   3.350   3.863   6.287  0.3548  0.6222  0.3646
 6502SOL     OW31141   0.756   1.094   2.634  0.6863 -0.3423 -0.0732
 6502SOL    HW131142   0.750   1.111   2.540 -0.5098  1.1372  0.2745
 6502SOL    HW231143   0.684   1.031   2.633  0.9661 -0.6798  0.6622
 6503SOL     OW31144   1.189   0.779   0.328 -0.4719  0.5024  0.0017
 6503SOL    HW131145   1.130   0.773   0.252 -0.6020  0.5730  0.0976
 6503SOL    HW231146   1.203   0.873   0.339  0.4217  0.4399 -0.5493
 6504SOL     OW31147   4.292   2.605   5.797  0.0929  0.7579  0.0979
 6504SOL    HW131148   4.315   2.613   5.704  1.9326  2.0885  0.6744
 6504SOL    HW231149   4.370   2.652   5.825 -0.9594  2.0384  0.8476
 6505SOL     OW31150   3.406   0.676   4.071 -0.4931  0.1862 -0.2607
 6505SOL    HW131151   3.320   0.643   4.044 -1.3057  1.8233  0.2801
 6505SOL    HW231152   3.395   0.645   4.161 -0.3028 -1.3972 -0.7940
 6506SOL     OW31153   4.430   1.612   5.237  0.1449  0.0217  0.3731
 6506SOL    HW131154   4.363   1.644   5.176  3.6479  1.1103 -2.9146
 6506SOL    HW231155   4.376   1.552   5.288 -0.4270 -0.9546 -1.3564
 6507SOL     OW31156   2.285   2.170   6.040 -0.2493  0.2597  0.0790
 6507SOL    HW131157   2.371   2.213   6.045 -0.7229  0.8169  3.2307
 6507SOL    HW231158   2.224   2.229   6.084  0.2318  0.1477  0.8940
 6508SOL     OW31159   2.269   1.353   6.878  0.0808  0.3066 -0.6884
 6508SOL    HW131160   2.174   1.339   6.879  0.5606 -2.7370  0.1435
 6508SOL    HW231161   2.294   1.271   6.835  0.6480  0.7508 -1.2197
 6509SOL     OW31162   3.099   3.217  12.184  0.0069 -0.1051 -0.1022
 6509SOL    HW131163   3.098   3.313  12.175 -1.2888 -0.1660 -0.6335
 6509SOL    HW231164   3.011   3.202  12.218  0.6302 -0.7996  1.1922
 6510SOL     OW31165   1.182   0.377  14.412 -0.5430  0.0484  0.1601
 6510SOL    HW131166   1.254   0.319  14.389  0.7798  1.4204  0.8927
 6510SOL    HW231167   1.215   0.428  14.485 -0.4407 -2.6853  2.0196
 6511SOL     OW31168   0.666   3.035   6.837 -0.0390  0.3571  0.1973
 6511SOL    HW131169   0.575   3.055   6.860 -0.2335 -1.3040  0.8883
 6511SOL    HW231170   0.653   2.962   6.775 -1.9271 -0.4985  1.5883
 6512SOL     OW31171   3.788   1.049   9.297 -0.2436  0.2039  0.1587
 6512SOL    HW131172   3.704   1.041   9.342 -1.3697 -0.8742 -2.1918
 6512SOL    HW231173   3.833   1.117   9.348  1.3364 -1.1484  0.5718
 6513SOL     OW31174   0.179   0.366   7.174  0.3492 -0.0585 -0.4353
 6513SOL    HW131175   0.096   0.341   7.215  0.5298 -0.1148 -0.1037
 6513SOL    HW231176   0.147   0.398   7.090  1.4949 -0.7054 -1.1180
 6514SOL     OW31177   0.939   3.209   9.595  0.1568 -0.6585 -0.3030
 6514SOL    HW131178   1.026   3.240   9.569  0.0571  0.9907  1.3639
 6514SOL    HW231179   0.964   3.128   9.640  0.5425 -1.2305 -1.5204
 6515SOL     OW31180   4.166   3.279   7.173 -0.3866  0.0999  0.3505
 6515SOL    HW131181   4.095   3.329   7.132  0.0259  0.3574 -0.0395
 6515SOL    HW231182   4.242   3.335   7.160 -0.3026 -0.3760 -1.1968
 6516SOL     OW31183   1.675   3.063   6.440 -0.5517 -0.2969  0.0502
 6516SOL    HW131184   1.628   3.021   6.513 -1.0070  0.8271  0.4030
 6516SOL    HW231185   1.713   2.983   6.404  2.1064  0.8709  0.2678
 6517SOL     OW31186   1.184   3.675   9.544  0.1683  0.5749 -0.2074
 6517SOL    HW131187   1.104   3.686   9.595  1.7354  0.8568  2.1886
 6517SOL    HW231188   1.249   3.723   9.596  1.4736  2.5674 -3.7265
 6518SOL     OW31189   1.547   0.464  17.398  0.1253 -0.7750 -0.0513
 6518SOL    HW131190   1.453   0.457  17.384  0.2604  1.3709 -2.0440
 6518SOL    HW231191   1.554   0.517  17.477  0.8974 -1.2406  0.2012
 6519SOL     OW31192   2.938   0.734   3.697  0.3518 -0.5282 -0.7166
 6519SOL    HW131193   3.005   0.674   3.728 -0.2232  0.8251  3.1171
 6519SOL    HW231194   2.872   0.745   3.766  0.3421  1.9177 -1.1186
 6520SOL     OW31195   1.955   3.511  15.858 -0.2407 -0.4819 -0.1632
 6520SOL    HW131196   1.920   3.550  15.938 -1.7232 -0.2183 -0.9395
 6520SOL    HW231197   1.875   3.503  15.804 -1.1151 -1.7848  1.3357
 6521SOL     OW31198   1.100   4.686   9.275  0.2677  0.0851 -0.7723
 6521SOL    HW131199   1.129   4.660   9.363 -0.7535 -2.5613 -1.2196
 6521SOL    HW231200   1.089   4.612   9.216 -0.2377 -0.5076  0.0697
 6522SOL     OW31201   4.385   2.501   1.543 -0.0016  0.1418 -0.3472
 6522SOL    HW131202   4.381   2.442   1.468  1.4520 -1.2276  0.6442
 6522SOL    HW231203   4.409   2.434   1.607  1.4923 -0.1883 -1.2550
 6523SOL     OW31204   4.420   1.934   4.925  0.0137 -0.2688 -0.0972
 6523SOL    HW131205   4.336   1.948   4.879  0.3514 -1.2701 -1.0285
 6523SOL    HW231206   4.393   1.954   5.014  0.9445  2.3517 -0.4005
 6524SOL     OW31207   2.763   4.410  15.972 -0.0579  0.2734 -0.0338
 6524SOL    HW131208   2.749   4.494  16.016 -2.8350  1.2972 -2.8310
 6524SOL    HW231209   2.836   4.428  15.914  0.2318 -1.1369 -0.0886
 6525SOL     OW31210   3.098   1.204  10.347  0.9204 -0.1044  0.4204
 6525SOL    HW131211   3.016   1.218  10.394  0.9594 -1.1201  0.7948
 6525SOL    HW231212   3.117   1.111  10.361 -4.8757 -1.4044 -0.5269
 6526SOL     OW31213   4.287   2.015  15.542 -0.0248 -0.3202 -0.1498
 6526SOL    HW131214   4.316   2.039  15.630 -1.1124  0.0728  0.1060
 6526SOL    HW231215   4.342   1.937  15.532 -1.9908 -1.7384 -0.1202
 6527SOL     OW31216   0.016   0.600  11.828 -0.3670 -0.2423 -0.3145
 6527SOL    HW131217   0.088   0.641  11.780  0.7117  0.6266  2.0217
 6527SOL    HW231218   0.052   0.511  11.837 -2.0784 -0.8539  0.3927
 6528SOL     OW31219   1.727   4.566  16.958  0.1247  0.4994  0.2892
 6528SOL    HW131220   1.768   4.609  17.033  0.6707  3.4861 -1.7532
 6528SOL    HW231221   1.806   4.529  16.918 -0.4494 -1.8120  1.2601
 6529SOL     OW31222   4.614   3.283   5.877 -0.4442 -0.4095 -0.0842
 6529SOL    HW131223   4.527   3.302   5.912 -0.8728 -1.1308 -0.7447
 6529SOL    HW231224   4.613   3.187   5.873 -1.6422 -0.3579 -0.8677
 6530SOL     OW31225   3.016   2.899   9.288  0.5741  0.4371  0.0537
 6530SOL    HW131226   3.077   2.885   9.216 -2.0697  0.0744 -2.1510
 6530SOL    HW231227   2.932   2.883   9.244  1.9252 -1.7973 -1.7333
 6531SOL     OW31228   1.371   2.622   5.194 -0.2155  0.5210 -0.4154
 6531SOL    HW131229   1.358   2.662   5.280 -2.3898 -1.8794  0.3622
 6531SOL    HW231230   1.340   2.536   5.220 -1.6852  0.6809 -1.6239
 6532SOL     OW31231   3.890   3.612   6.705  1.1846 -0.0720  0.5801
 6532SOL    HW131232   3.954   3.541   6.703  1.2272  0.0168 -0.9325
 6532SOL    HW231233   3.850   3.578   6.785 -1.9571  0.2450 -0.8618
 6533SOL     OW31234   3.196   1.416   6.224 -0.0447  0.0824 -0.0976
 6533SOL    HW131235   3.226   1.491   6.275  0.6169  0.5905 -1.2451
 6533SOL    HW231236   3.204   1.350   6.294  3.5660  0.3025 -0.3090
 6534SOL     OW31237   0.224   3.148   9.904 -0.3275  0.3525 -0.0039
 6534SOL    HW131238   0.183   3.208   9.843 -0.7105 -0.9079 -0.9929
 6534SOL    HW231239   0.156   3.157   9.971 -0.2769  1.0059 -0.0433
 6535SOL     OW31240   2.967   2.517   1.974 -0.3444  0.4525  0.4910
 6535SOL    HW131241   3.046   2.489   1.927  0.0794  2.0401  0.2743
 6535SOL    HW231242   3.009   2.572   2.040  0.5795 -0.8935  1.0458
 6536SOL     OW31243   0.173   4.003   0.219 -0.4188 -0.1474  0.5591
 6536SOL    HW131244   0.218   3.937   0.271  2.7001  0.5735 -1.2592
 6536SOL    HW231245   0.089   3.959   0.203  0.4590 -1.2007 -1.1160
 6537SOL     OW31246   4.668   3.604   3.160  0.3941  0.1467 -0.0935
 6537SOL    HW131247   4.738   3.627   3.221 -0.0054 -0.1649  0.4802
 6537SOL    HW231248   4.592   3.637   3.208 -1.7168 -2.5436 -1.5995
 6538SOL     OW31249   1.160   4.394   5.645 -0.2656  0.1273 -0.0053
 6538SOL    HW131250   1.075   4.382   5.685  0.0902  0.0230  0.7120
 6538SOL    HW231251   1.192   4.465   5.700  1.3793 -1.0385  0.5558
 6539SOL     OW31252   4.154   1.640   4.508 -0.8806 -0.5925  0.1170
 6539SOL    HW131253   4.235   1.655   4.556 -1.2616 -0.0811  0.6120
 6539SOL    HW231254   4.150   1.714   4.446 -0.7139 -0.6385  0.0508
 6540SOL     OW31255   4.595   4.602   4.657 -0.1896  0.0731  0.4416
 6540SOL    HW131256   4.539   4.659   4.605  2.5147  1.4095 -0.9985
 6540SOL    HW231257   4.590   4.659   4.734 -0.2648  1.0634 -0.3018
 6541SOL     OW31258   0.497   0.455   8.901 -0.3594  0.3577 -0.0387
 6541SOL    HW131259   0.466   0.396   8.969 -0.9943 -1.8092 -2.1981
 6541SOL    HW231260   0.432   0.437   8.833 -0.1920 -0.2517 -0.0386
 6542SOL     OW31261   2.871   2.025   6.619  0.1452  0.0210  0.2885
 6542SOL    HW131262   2.910   2.086   6.681  0.3159  0.5331 -0.3162
 6542SOL    HW231263   2.836   2.082   6.551  0.4516 -0.1797 -0.0375
 6543SOL     OW31264   0.421   3.586  11.789 -0.3793 -0.0504  0.3635
 6543SOL    HW131265   0.496   3.525  11.785  0.1508  0.7364 -1.4549
 6543SOL    HW231266   0.376   3.560  11.869 -0.9532  0.1398  0.0948
 6544SOL     OW31267   2.639   4.265  16.202 -0.1825 -0.3277  0.1104
 6544SOL    HW131268   2.564   4.293  16.254  0.6560  0.8957  0.6519
 6544SOL    HW231269   2.634   4.322  16.125  0.7365  0.0409  0.3207
 6545SOL     OW31270   4.587   2.695  14.019 -0.4082  0.7066 -0.0853
 6545SOL    HW131271   4.600   2.761  14.087 -0.7996 -0.3869  1.0360
 6545SOL    HW231272   4.496   2.709  13.990 -0.4552  1.4449  0.4178
 6546SOL     OW31273   1.820   0.317   8.270  0.6885  0.1358  0.4503
 6546SOL    HW131274   1.826   0.222   8.271 -1.7444 -0.0055  0.0047
 6546SOL    HW231275   1.788   0.334   8.181 -0.4304 -0.7405  0.6927
 6547SOL     OW31276   4.513   3.389  12.824 -0.6007 -0.1328 -0.2299
 6547SOL    HW131277   4.556   3.341  12.753  1.6391 -1.1152  1.7995
 6547SOL    HW231278   4.478   3.313  12.871 -0.9360  0.9195  1.1971
 6548SOL     OW31279   0.552   0.079  13.529 -0.2253  0.4962  0.4544
 6548SOL    HW131280   0.632   0.130  13.525  0.6186 -0.5594  3.9131
 6548SOL    HW231281   0.548   0.044  13.618 -3.3949 -1.2115 -0.3320
 6549SOL     OW31282   0.238   4.676  12.074 -0.3898  0.0869 -0.4886
 6549SOL    HW131283   0.294   4.654  11.999  1.3664 -2.8806  1.6925
 6549SOL    HW231284   0.226   0.029  12.058  0.6277  0.0027 -1.7693
 6550SOL     OW31285   2.389   0.088   4.513  0.2621  0.0225  0.1024
 6550SOL    HW131286   2.449   0.039   4.458  1.8085  2.4209 -0.3636
 6550SOL    HW231287   2.445   0.086   4.590 -0.5746 -1.1008  0.6747
 6551SOL     OW31288   4.665   3.551  15.635 -0.2843 -0.4874 -0.3274
 6551SOL    HW131289   4.635   3.641  15.632  1.2464  0.0485  0.6931
 6551SOL    HW231290   4.616   3.506  15.704  0.7463 -1.1925 -0.0571
 6552SOL     OW31291   3.827   2.109   4.333 -0.3230 -0.1401  0.4194
 6552SOL    HW131292   3.797   2.118   4.243 -0.4864 -0.8264  0.4096
 6552SOL    HW231293   3.879   2.188   4.350 -0.4537  0.0453 -0.0426
 6553SOL     OW31294   0.495   2.474   9.345  0.6592  0.4271  0.6665
 6553SOL    HW131295   0.482   2.385   9.312  1.4656 -0.1173  1.8404
 6553SOL    HW231296   0.401   2.490   9.338  0.5778  0.6361  2.4341
 6554SOL     OW31297   3.015   2.304   8.684  0.2476 -0.2280  0.6220
 6554SOL    HW131298   2.966   2.288   8.604 -3.1611  1.1338  2.4285
 6554SOL    HW231299   2.976   2.240   8.743 -0.2291 -0.7961 -0.3173
 6555SOL     OW31300   3.226   3.552   7.769 -0.5647 -0.0630 -0.4516
 6555SOL    HW131301   3.242   3.541   7.675 -1.4372 -0.5225 -0.5478
 6555SOL    HW231302   3.287   3.621   7.793 -2.2429  1.7591 -1.4357
 6556SOL     OW31303   1.645   4.545   0.642  0.1316 -0.1392 -0.1651
 6556SOL    HW131304   1.724   4.555   0.590  0.3815 -1.9765 -0.1392
 6556SOL    HW231305   1.586   4.492   0.589 -0.4238 -0.1383  0.4480
 6557SOL     OW31306   3.032   4.146   3.189  0.0901  0.1551  0.2982
 6557SOL    HW131307   3.039   4.122   3.096  1.6372  0.4513  0.3465
 6557SOL    HW231308   3.099   4.085   3.221 -0.0816 -1.3730 -2.1730
 6558SOL     OW31309   3.357   3.196   9.957 -0.1648  0.1202  0.2994
 6558SOL    HW131310   3.333   3.275   9.908  1.2150  0.2954 -0.0857
 6558SOL    HW231311   3.345   3.236  10.044 -1.3666 -0.0895  0.2310
 6559SOL     OW31312   4.534   3.177   5.528 -0.5783 -0.0733  0.1092
 6559SOL    HW131313   4.565   3.143   5.613 -0.0468  1.2995  0.4527
 6559SOL    HW231314   4.461   3.232   5.552  0.1960  1.9491 -2.1979
 6560SOL     OW31315   2.358   2.155   4.839  0.7459 -0.4974  0.0290
 6560SOL    HW131316   2.417   2.152   4.764 -0.3581 -2.0420 -0.7689
 6560SOL    HW231317   2.396   2.222   4.896 -0.3731 -0.0939  0.3145
 6561SOL     OW31318   4.470   3.020   2.566 -0.0756  0.2420 -0.8121
 6561SOL    HW131319   4.504   2.937   2.599  1.8945  1.0652 -0.7706
 6561SOL    HW231320   4.450   3.062   2.649  2.5833 -0.9286  0.4474
 6562SOL     OW31321   1.602   2.568   4.346 -0.2136 -0.4373  0.1935
 6562SOL    HW131322   1.603   2.475   4.320  0.9770 -0.8185  1.6407
 6562SOL    HW231323   1.668   2.567   4.415  0.3121 -0.7832 -0.3108
 6563SOL     OW31324   3.015   0.684  17.260 -0.6289 -0.0289  0.1461
 6563SOL    HW131325   3.009   0.686  17.164  2.9083 -0.2058 -0.0757
 6563SOL    HW231326   2.973   0.599  17.269 -2.0474  0.4588 -1.8205
 6564SOL     OW31327   1.419   2.088   2.243 -0.5224 -0.3815 -0.4586
 6564SOL    HW131328   1.423   2.100   2.148 -0.2181  0.0962 -0.3838
 6564SOL    HW231329   1.325   2.075   2.255 -0.6558  1.2457  0.1401
 6565SOL     OW31330   4.502   3.235   7.229 -0.1973  0.6904 -0.1620
 6565SOL    HW131331   4.458   3.203   7.150  1.0505 -0.6583 -0.3136
 6565SOL    HW231332   4.502   3.152   7.278  0.5742 -0.4068 -2.0039
 6566SOL     OW31333   3.549   3.181  11.835  0.0272  0.5027  0.3509
 6566SOL    HW131334   3.559   3.190  11.740  3.7907  1.6580  0.8829
 6566SOL    HW231335   3.467   3.230  11.850 -0.4601  0.4677 -2.1166
 6567SOL     OW31336   0.375   4.642   5.887 -0.1003 -0.7704 -0.2851
 6567SOL    HW131337   0.347   4.696   5.813  0.0607  1.8073  1.5094
 6567SOL    HW231338   0.444   4.701   5.920 -0.6255 -0.5070  0.3510
 6568SOL     OW31339   1.674   0.548  10.648  0.1635 -0.0969 -0.3606
 6568SOL    HW131340   1.716   0.496  10.579 -0.8148 -0.9269 -0.3426
 6568SOL    HW231341   1.657   0.480  10.713  0.0453 -0.1823 -0.4794
 6569SOL     OW31342   1.868   4.193   6.150 -0.3899 -0.7018  0.1901
 6569SOL    HW131343   1.825   4.190   6.065  1.3421  0.8405 -0.7346
 6569SOL    HW231344   1.789   4.166   6.196 -1.3428  0.5296 -0.7420
 6570SOL     OW31345   4.717   1.092   8.590  0.2258  0.2235 -0.1726
 6570SOL    HW131346   0.057   1.053   8.557  0.4381 -0.1744  0.8180
 6570SOL    HW231347   4.659   1.083   8.515 -0.6102  1.1294  0.3585
 6571SOL     OW31348   3.466   4.462  12.873 -1.2102  0.2539 -0.0451
 6571SOL    HW131349   3.557   4.493  12.878 -0.9556 -0.5597  0.4003
 6571SOL    HW231350   3.470   4.383  12.820 -0.1546  0.3446 -0.1117
 6572SOL     OW31351   2.175   1.451   3.358 -0.0295 -0.2712  0.1921
 6572SOL    HW131352   2.106   1.385   3.353  0.2727 -0.5729  0.0080
 6572SOL    HW231353   2.127   1.533   3.341  0.8746  0.3286  0.5354
 6573SOL     OW31354   4.588   1.800   5.905  0.2052  0.2134 -0.0707
 6573SOL    HW131355   4.497   1.781   5.881  0.4142 -1.6221  0.5268
 6573SOL    HW231356   4.596   1.731   5.971  0.7760  0.6736  0.3456
 6574SOL     OW31357   0.282   2.671   5.614 -0.3056 -0.6200 -0.0505
 6574SOL    HW131358   0.327   2.669   5.530  0.6691  0.6159  0.4430
 6574SOL    HW231359   0.233   2.588   5.618 -2.4229  0.6315  0.1774
 6575SOL     OW31360   1.932   0.269   2.883 -0.3419  0.1456 -0.9974
 6575SOL    HW131361   1.865   0.299   2.944 -0.4363 -2.0882  0.0251
 6575SOL    HW231362   1.912   0.175   2.884 -0.4067  0.1726  0.2672
 6576SOL     OW31363   3.252   4.178   5.689 -0.3011 -0.4607  0.4191
 6576SOL    HW131364   3.229   4.095   5.647  0.3408  0.7100 -2.2493
 6576SOL    HW231365   3.320   4.171   5.755  0.0121 -3.1353 -0.2058
 6577SOL     OW31366   1.677   0.158   6.073  0.0254 -0.0969 -0.1205
 6577SOL    HW131367   1.599   0.102   6.074  0.9889 -1.4175  1.6645
 6577SOL    HW231368   1.691   0.167   5.979  0.8948  0.1320  0.0338
 6578SOL     OW31369   0.929   4.600   0.831 -0.7785  0.2661  0.1372
 6578SOL    HW131370   0.974   4.556   0.759 -1.9081  0.8476 -0.9419
 6578SOL    HW231371   0.994   4.590   0.900 -1.8505  0.1794  1.1423
 6579SOL     OW31372   3.762   3.547   4.417  0.3748 -0.6037 -0.3172
 6579SOL    HW131373   3.714   3.621   4.453  0.5818 -0.0796 -1.1092
 6579SOL    HW231374   3.734   3.556   4.326  2.1214 -0.1052 -0.8235
 6580SOL     OW31375   2.084   2.200   0.309 -0.0677 -0.1556 -0.1377
 6580SOL    HW131376   2.086   2.127   0.248 -1.9198  0.4904 -0.9670
 6580SOL    HW231377   2.051   2.161   0.391 -3.7082  0.1686 -1.4328
 6581SOL     OW31378   1.857   1.768   5.354  0.0616  0.1108  0.0144
 6581SOL    HW131379   1.931   1.826   5.340  1.9038 -2.1922  0.1051
 6581SOL    HW231380   1.830   1.793   5.442 -0.4594  3.2701 -1.0713
 6582SOL     OW31381   1.602   1.693   2.813  0.2373  0.0645  0.0908
 6582SOL    HW131382   1.695   1.683   2.832  0.0209 -1.1528  0.5354
 6582SOL    HW231383   1.593   1.774   2.762  0.7223  0.6240  0.8864
 6583SOL     OW31384   3.494   3.209   6.406  0.4536 -0.4421 -0.3867
 6583SOL    HW131385   3.568   3.264   6.432 -0.4600 -0.1751  1.6477
 6583SOL    HW231386   3.538   3.142   6.354  3.5631  0.5202  0.9933
 6584SOL     OW31387   0.919   2.207   7.573  0.1376  0.6567  0.1391
 6584SOL    HW131388   0.848   2.159   7.616  1.0594  0.7580  1.7649
 6584SOL    HW231389   0.891   2.292   7.607 -1.9350 -0.3021  0.8811
 6585SOL     OW31390   1.977   0.288  17.001  0.4156 -0.1505  0.1328
 6585SOL    HW131391   2.011   0.214  17.051 -0.2268 -0.6676 -0.1967
 6585SOL    HW231392   1.909   0.328  17.056  2.6609  2.2142  1.1875
 6586SOL     OW31393   1.212   0.433   4.817 -0.1310 -0.0469  0.7088
 6586SOL    HW131394   1.194   0.517   4.774 -0.2524 -2.4298 -3.9626
 6586SOL    HW231395   1.121   0.406   4.832 -0.0215  0.7774  2.8267
 6587SOL     OW31396   0.688   3.035   3.599 -0.2445 -0.3075  0.3262
 6587SOL    HW131397   0.643   3.118   3.589 -1.4243 -0.8653  1.0455
 6587SOL    HW231398   0.757   3.067   3.658 -0.5024  1.0563 -0.1104
 6588SOL     OW31399   1.613   4.409  11.294 -0.0018 -0.9595 -0.2218
 6588SOL    HW131400   1.552   4.366  11.354 -0.8127  0.0716 -0.3087
 6588SOL    HW231401   1.557   4.427  11.218  0.3610 -5.7906 -1.6391
 6589SOL     OW31402   2.441   4.183   9.683 -0.0695 -0.5583  0.6827
 6589SOL    HW131403   2.406   4.206   9.769 -0.8137  0.1056  0.2017
 6589SOL    HW231404   2.536   4.176   9.695 -0.0665 -0.6928  0.5729
 6590SOL     OW31405   0.712   2.446   5.757 -0.5645  0.2662  0.5316
 6590SOL    HW131406   0.654   2.408   5.823 -1.1291  0.8810  0.3895
 6590SOL    HW231407   0.789   2.463   5.812 -1.0718 -1.1720  1.6690
 6591SOL     OW31408   3.028   0.271   0.035 -0.3674 -0.3525 -0.3230
 6591SOL    HW131409   2.997   0.339  17.735 -0.4760 -0.6195 -0.5706
 6591SOL    HW231410   3.097   0.225  17.746  1.2389  0.2172  1.4075
 6592SOL     OW31411   4.336   0.470   2.097  0.0555  0.0112 -0.2267
 6592SOL    HW131412   4.360   0.377   2.090  0.3393  0.1575 -1.1802
 6592SOL    HW231413   4.319   0.472   2.191 -1.6084 -0.9920 -0.5095
 6593SOL     OW31414   4.464   0.873   3.831  0.2193  0.0117  0.3778
 6593SOL    HW131415   4.458   0.952   3.884  0.4474 -0.2809  0.8401
 6593SOL    HW231416   4.552   0.888   3.798 -0.4238  1.7043 -0.5638
 6594SOL     OW31417   1.738   1.977   0.158  0.4954  0.1741 -0.6720
 6594SOL    HW131418   1.722   2.069   0.180  0.8459  0.0165  0.2173
 6594SOL    HW231419   1.707   1.982   0.067 -1.4177  0.9656  0.0239
 6595SOL     OW31420   3.409   0.850   1.726 -0.1985 -0.3752  0.2825
 6595SOL    HW131421   3.475   0.801   1.775  2.8636  1.9992 -1.4818
 6595SOL    HW231422   3.382   0.917   1.789 -0.8657 -0.3658 -0.0152
 6596SOL     OW31423   3.648   1.238   2.583 -0.5844  0.8090  0.3071
 6596SOL    HW131424   3.677   1.300   2.649  0.3002  1.6181 -0.8293
 6596SOL    HW231425   3.578   1.199   2.634 -0.4545 -0.1593 -0.2579
 6597SOL     OW31426   1.305   3.950   4.496 -0.0731 -0.4218 -0.4545
 6597SOL    HW131427   1.293   3.887   4.424 -0.9537 -0.1122 -0.5784
 6597SOL    HW231428   1.236   4.011   4.470 -1.4297 -2.5917 -1.9423
 6598SOL     OW31429   0.285   2.013  14.574 -0.6713 -0.4117  0.3493
 6598SOL    HW131430   0.280   2.106  14.552 -1.8407 -0.4274  0.5542
 6598SOL    HW231431   0.215   1.978  14.519 -0.1608 -1.4608  0.3603
 6599SOL     OW31432   1.242   0.888   7.238  0.1392 -0.6041 -0.6514
 6599SOL    HW131433   1.186   0.950   7.286  1.9957  0.6290 -0.0879
 6599SOL    HW231434   1.209   0.803   7.269 -0.9462 -0.0361 -0.2470
 6600SOL     OW31435   1.529   1.343  12.504  0.3857  0.0866 -0.1403
 6600SOL    HW131436   1.478   1.262  12.499  1.5954 -0.6876  0.0200
 6600SOL    HW231437   1.495   1.381  12.585  0.0268  1.0217 -0.7301
 6601SOL     OW31438   1.313   0.166  13.130 -0.2576  0.1435 -0.1475
 6601SOL    HW131439   1.229   0.136  13.164 -0.2337 -0.5425 -0.6886
 6601SOL    HW231440   1.344   0.081  13.097  2.4022  0.1668  2.2339
 6602SOL     OW31441   4.247   3.964   1.985 -0.0242  0.0563 -0.3113
 6602SOL    HW131442   4.295   4.041   1.955  2.2870 -0.9819  0.7230
 6602SOL    HW231443   4.314   3.919   2.037 -0.3870  0.5951  0.6391
 6603SOL     OW31444   0.985   3.037   4.314 -0.4390  0.2009 -0.0788
 6603SOL    HW131445   1.001   3.130   4.333 -0.1697  0.3720 -1.1510
 6603SOL    HW231446   1.015   3.029   4.224 -2.8381 -0.7987 -0.8091
 6604SOL     OW31447   1.741   0.306   3.071  0.2955  0.0999 -0.2632
 6604SOL    HW131448   1.655   0.295   3.111 -0.3801 -0.4169 -1.8291
 6604SOL    HW231449   1.797   0.267   3.138  1.5314  0.3674 -1.1483
 6605SOL     OW31450   1.386   3.076   8.866  0.4641  0.5276  0.9186
 6605SOL    HW131451   1.406   2.985   8.841  2.3988  0.4003  2.9522
 6605SOL    HW231452   1.433   3.117   8.794  4.3408  1.7250  4.1431
 6606SOL     OW31453   2.197   0.992   1.857  0.3510 -0.4918  0.1747
 6606SOL    HW131454   2.246   0.910   1.862  1.1698 -0.3197 -4.7342
 6606SOL    HW231455   2.201   1.027   1.768  0.1314  0.4495  0.5402
 6607SOL     OW31456   3.075   3.023   3.953 -0.0367 -0.5535  0.4245
 6607SOL    HW131457   3.170   3.019   3.944 -0.4139 -2.2365 -2.5904
 6607SOL    HW231458   3.049   2.931   3.953  1.6770 -1.0415  0.5707
 6608SOL     OW31459   4.648   0.565   7.757 -0.9527 -0.1876  0.4034
 6608SOL    HW131460   4.671   0.655   7.735 -1.7767 -0.0246  0.1958
 6608SOL    HW231461   4.648   0.521   7.672 -0.7623  0.2092  0.1965
 6609SOL     OW31462   2.585   0.754  17.099  0.1912  1.0245  0.5238
 6609SOL    HW131463   2.517   0.764  17.032  2.3086  1.0904 -1.6111
 6609SOL    HW231464   2.653   0.728  17.037 -0.6269 -2.7546  1.1774
 6610SOL     OW31465   2.462   0.799  14.037  0.2341  0.4756  0.4537
 6610SOL    HW131466   2.495   0.829  13.953  1.3129  0.0665  0.7280
 6610SOL    HW231467   2.546   0.775  14.076  0.1269 -0.2935  0.2104
 6611SOL     OW31468   1.240   0.738   9.085 -0.3202 -0.4180 -0.3098
 6611SOL    HW131469   1.211   0.791   9.160  0.3918  0.2735 -0.5243
 6611SOL    HW231470   1.168   0.677   9.103 -0.9438 -0.1685 -2.0172
 6612SOL     OW31471   1.721   4.305  10.601  0.0595  0.0543  0.5756
 6612SOL    HW131472   1.733   4.235  10.666 -0.4157 -2.0510 -1.6191
 6612SOL    HW231473   1.785   4.369  10.632  1.5505 -0.7399 -0.8388
 6613SOL     OW31474   4.054   1.268   1.312 -0.5544 -0.2435  0.0409
 6613SOL    HW131475   4.048   1.323   1.234  2.1697 -0.0705 -0.0563
 6613SOL    HW231476   3.963   1.257   1.339 -1.0020  1.4559 -0.8021
 6614SOL     OW31477   3.731   2.442   5.347 -0.6542 -0.4288  0.1980
 6614SOL    HW131478   3.727   2.518   5.406 -0.8070 -0.0868 -0.2570
 6614SOL    HW231479   3.639   2.417   5.358 -1.3809  1.6879 -1.1359
 6615SOL     OW31480   2.381   1.953  12.765  0.0561  0.1459  0.1216
 6615SOL    HW131481   2.463   1.920  12.730  1.2957  0.3803  2.7426
 6615SOL    HW231482   2.393   1.921  12.855 -4.1756 -0.2103  0.5850
 6616SOL     OW31483   3.776   4.103   6.450  0.2174  0.8193 -0.1782
 6616SOL    HW131484   3.724   4.175   6.413 -1.4834 -0.7530 -0.8304
 6616SOL    HW231485   3.860   4.119   6.408  1.3466 -3.5166  0.4359
 6617SOL     OW31486   1.772   1.361   2.171  0.0826  0.5181  0.2476
 6617SOL    HW131487   1.842   1.351   2.106  0.3752 -1.8820  0.9237
 6617SOL    HW231488   1.759   1.455   2.156 -1.8416  0.4466  1.4685
 6618SOL     OW31489   2.486   1.466  14.292 -0.4961 -0.3891  0.4442
 6618SOL    HW131490   2.465   1.534  14.356 -1.4658  1.8550 -2.2635
 6618SOL    HW231491   2.447   1.496  14.210  0.1248 -1.1607 -0.1409
 6619SOL     OW31492   0.891   2.956   5.030 -0.9561 -0.4481  0.1746
 6619SOL    HW131493   0.951   3.002   4.971 -1.3850 -0.8628 -0.5899
 6619SOL    HW231494   0.962   2.952   5.094 -1.4975 -1.0701  0.7272
 6620SOL     OW31495   1.605   3.454  16.838 -0.3104  0.5570 -0.1247
 6620SOL    HW131496   1.615   3.513  16.763 -0.4583 -1.2089 -1.5667
 6620SOL    HW231497   1.510   3.450  16.829 -0.2919 -2.0582  0.8737
 6621SOL     OW31498   4.562   1.323   7.917 -0.1272  0.2007  0.0971
 6621SOL    HW131499   4.644   1.325   7.866  0.0462  0.8803  0.3988
 6621SOL    HW231500   4.556   1.233   7.947 -0.0611  0.1422 -0.0645
 6622SOL     OW31501   0.539   4.614   3.556 -0.5491 -0.3345 -0.4982
 6622SOL    HW131502   0.531   4.694   3.607  0.1542 -0.8728  0.4588
 6622SOL    HW231503   0.621   4.637   3.512 -1.3327  2.0962 -0.6860
 6623SOL     OW31504   1.445   2.413  15.239 -0.2962 -0.2180 -0.3573
 6623SOL    HW131505   1.538   2.434  15.249 -0.9998  2.4112  0.7379
 6623SOL    HW231506   1.392   2.477  15.287  2.4255  1.3891  0.5725
 6624SOL     OW31507   1.675   0.139   4.476 -0.5627 -0.0453  0.1366
 6624SOL    HW131508   1.733   0.204   4.437 -1.1380 -0.1836 -0.9434
 6624SOL    HW231509   1.671   0.069   4.411  0.6310  1.5800 -1.6984
 6625SOL     OW31510   2.698   1.487   7.120  0.1062 -0.0264 -0.0771
 6625SOL    HW131511   2.681   1.568   7.072  1.6411 -1.9566 -3.8261
 6625SOL    HW231512   2.605   1.464   7.123 -0.4280  1.8870 -2.4437
 6626SOL     OW31513   4.111   4.600  11.050  0.2744  0.2189  0.1369
 6626SOL    HW131514   4.185   4.658  11.034 -0.7958  1.8919  1.3076
 6626SOL    HW231515   4.041   4.666  11.054 -0.0319 -0.2615  2.4838
 6627SOL     OW31516   3.039   0.806   2.885  0.1495 -0.1456 -0.0657
 6627SOL    HW131517   3.102   0.745   2.847  1.8439  0.1068  2.3103
 6627SOL    HW231518   2.997   0.841   2.806 -3.2322  2.5234  2.9212
 6628SOL     OW31519   4.595   3.187   8.453  0.0898 -0.3860  0.0211
 6628SOL    HW131520   4.541   3.252   8.410  1.5933 -0.2191 -1.6364
 6628SOL    HW231521   4.531   3.131   8.496  0.1537 -0.9605 -0.6241
 6629SOL     OW31522   0.221   2.169   7.241  0.1752 -0.1912  0.1815
 6629SOL    HW131523   0.164   2.104   7.282  3.4543 -1.5779  2.5737
 6629SOL    HW231524   0.187   2.174   7.152  1.2554 -1.8192 -0.3172
 6630SOL     OW31525   2.309   3.011  16.134 -0.0496  0.0872  0.4131
 6630SOL    HW131526   2.239   2.954  16.166 -0.6190 -0.7081 -2.2322
 6630SOL    HW231527   2.276   3.028  16.046 -0.0715 -1.2398  0.1568
 6631SOL     OW31528   0.200   0.237   7.763  0.0901 -0.1669  0.4369
 6631SOL    HW131529   0.283   0.190   7.767  0.3358  0.2182 -0.1325
 6631SOL    HW231530   0.227   0.323   7.794 -0.7642 -0.0030  0.7218
 6632SOL     OW31531   2.995   1.160   3.674  0.5162 -0.3833 -0.5540
 6632SOL    HW131532   3.048   1.084   3.652  3.7512  1.6457  0.1664
 6632SOL    HW231533   3.065   1.226   3.681 -0.1658  0.4623 -1.6784
 6633SOL     OW31534   3.551   4.321   9.671  0.2024 -0.2404 -0.3505
 6633SOL    HW131535   3.462   4.353   9.654  0.6019  0.6256 -0.8491
 6633SOL    HW231536   3.554   4.295   9.763 -0.4225  0.4148 -0.1445
 6634SOL     OW31537   2.974   3.017   7.367  0.1805 -0.0137  0.3772
 6634SOL    HW131538   2.906   3.085   7.376 -0.0908 -0.0415 -1.4812
 6634SOL    HW231539   2.940   2.971   7.291 -0.4498 -0.9033  1.1923
 6635SOL     OW31540   1.829   0.167   5.376 -0.0092 -0.6796  0.4779
 6635SOL    HW131541   1.736   0.164   5.402 -0.2704 -1.2363 -0.5499
 6635SOL    HW231542   1.816   0.135   5.287  1.4916 -2.2605  0.8329
 6636SOL     OW31543   1.642   3.728   9.366 -0.1388  0.8424 -0.2296
 6636SOL    HW131544   1.559   3.771   9.345 -0.5874 -0.1074 -0.4098
 6636SOL    HW231545   1.684   3.730   9.280 -1.3066 -1.4312 -0.8454
 6637SOL     OW31546   0.166   0.696   8.189  0.2427  0.3365  0.4783
 6637SOL    HW131547   0.200   0.651   8.111 -0.0823  1.2423 -0.1742
 6637SOL    HW231548   0.229   0.760   8.220 -0.3480  1.8634 -1.4910
 6638SOL     OW31549   3.040   3.920   3.695 -0.0914  0.0775 -0.4382
 6638SOL    HW131550   2.956   3.920   3.741  1.2583  1.9261  2.0072
 6638SOL    HW231551   3.052   4.014   3.679  0.4228  0.3012  1.2833
 6639SOL     OW31552   0.755   0.338   5.485 -0.2288 -0.2932  0.2406
 6639SOL    HW131553   0.766   0.257   5.434  2.2032  0.0068  0.3068
 6639SOL    HW231554   0.677   0.313   5.534  0.8918 -3.2939  0.4964
 6640SOL     OW31555   1.622   1.102   7.086  0.3828  0.5555  0.1177
 6640SOL    HW131556   1.536   1.130   7.116 -0.5877 -0.1156 -2.0080
 6640SOL    HW231557   1.673   1.183   7.085  0.9164  0.2575  3.7367
 6641SOL     OW31558   3.828   0.014   4.768  0.5585  0.1638  0.3618
 6641SOL    HW131559   3.904   0.071   4.769 -0.2448  1.2919 -1.6973
 6641SOL    HW231560   3.817   4.737   4.861  1.1987 -0.6216  0.2830
 6642SOL     OW31561   3.413   0.421   6.045 -0.0035  0.0118  0.2513
 6642SOL    HW131562   3.350   0.355   6.074  2.0510 -1.9397  0.1607
 6642SOL    HW231563   3.490   0.365   6.047 -1.4056 -1.8900  1.4870
 6643SOL     OW31564   4.432   1.419   7.471 -0.4666 -0.6422  0.0161
 6643SOL    HW131565   4.520   1.427   7.433  0.4077 -0.3986  2.0863
 6643SOL    HW231566   4.390   1.363   7.406  0.7882 -2.0239  0.3803
 6644SOL     OW31567   2.646   0.343   9.149  0.3767 -0.7026 -0.1614
 6644SOL    HW131568   2.597   0.397   9.087  1.2868 -1.3047 -1.4023
 6644SOL    HW231569   2.665   0.412   9.213 -0.1027 -1.5009  0.8465
 6645SOL     OW31570   3.685   3.895   2.454  0.3639 -0.9608 -0.4585
 6645SOL    HW131571   3.778   3.898   2.476  0.1253 -1.3573  0.6134
 6645SOL    HW231572   3.648   3.928   2.536 -0.6876 -2.7791 -0.1934
 6646SOL     OW31573   1.361   0.460   4.558 -0.0905 -0.4459  0.1389
 6646SOL    HW131574   1.272   0.443   4.527 -0.0533 -0.5124  0.0708
 6646SOL    HW231575   1.358   0.443   4.653  0.0464  1.4562  0.4921
 6647SOL     OW31576   1.676   4.554   2.895 -0.6980  0.5359 -0.2715
 6647SOL    HW131577   1.610   4.519   2.955 -0.6865 -0.8586 -1.0808
 6647SOL    HW231578   1.729   4.476   2.881 -0.4211  0.6555  0.1076
 6648SOL     OW31579   2.391   2.287   2.443 -0.4765  0.1324  0.0826
 6648SOL    HW131580   2.334   2.243   2.380 -1.2026  1.5530 -0.2470
 6648SOL    HW231581   2.469   2.231   2.437 -0.3477  0.2806  0.4111
 6649SOL     OW31582   1.170   0.253   9.490 -0.3131  0.1282 -0.1588
 6649SOL    HW131583   1.209   0.165   9.496  0.6047  0.5067 -0.5337
 6649SOL    HW231584   1.244   0.303   9.456 -0.0916 -0.5696 -0.7001
 6650SOL     OW31585   2.085   0.019   6.686  0.3686 -0.5011 -0.1245
 6650SOL    HW131586   2.135   0.083   6.636 -3.6547  1.0649 -2.1588
 6650SOL    HW231587   2.088   4.677   6.639 -0.1991 -0.4577 -0.2351
 6651SOL     OW31588   0.163   1.503  17.089  0.2139  0.3779  0.3963
 6651SOL    HW131589   0.155   1.595  17.116  2.8233  1.2691 -1.8484
 6651SOL    HW231590   0.178   1.512  16.995 -2.0749 -2.1238 -0.2015
 6652SOL     OW31591   3.310   3.893   4.635 -0.2445 -0.0636  0.1291
 6652SOL    HW131592   3.303   3.915   4.728 -2.2687 -1.9631  0.4264
 6652SOL    HW231593   3.392   3.937   4.610  0.4042 -1.5086 -0.2728
 6653SOL     OW31594   2.854   0.339   2.595  0.7768 -0.0346 -0.5845
 6653SOL    HW131595   2.884   0.338   2.504  0.3260  0.3198 -0.7376
 6653SOL    HW231596   2.936   0.312   2.637  1.3359  1.4702 -0.7234
 6654SOL     OW31597   2.691   1.041   5.759 -0.2732 -0.0068  0.2262
 6654SOL    HW131598   2.632   1.057   5.832  0.8550  0.4170  1.0480
 6654SOL    HW231599   2.658   1.103   5.694 -0.7493 -0.1541  0.3262
 6655SOL     OW31600   4.365   0.269   7.844  0.6176 -0.4952 -0.1431
 6655SOL    HW131601   4.342   0.176   7.842  0.2418 -0.3764 -1.3701
 6655SOL    HW231602   4.459   0.259   7.859  0.9323  0.4233 -1.4496
 6656SOL     OW31603   4.714   3.033   8.851  1.0509  0.2452 -0.5652
 6656SOL    HW131604   4.691   3.074   8.934  0.3814 -1.6692  0.1711
 6656SOL    HW231605   0.047   2.982   8.884 -1.1317 -1.5423  1.4848
 6657SOL     OW31606   0.677   2.809   8.481 -0.4310  0.1224  0.2552
 6657SOL    HW131607   0.729   2.733   8.453 -2.0105 -0.9442  0.1663
 6657SOL    HW231608   0.733   2.854   8.544  0.0231 -1.0446  0.6861
 6658SOL     OW31609   2.294   1.391  10.259  0.1876  0.4732 -0.0816
 6658SOL    HW131610   2.354   1.452  10.216 -0.9990  0.5640 -1.6210
 6658SOL    HW231611   2.237   1.451  10.309 -2.3040 -0.5167 -1.7549
 6659SOL     OW31612   3.150   3.095   4.964  0.3296  0.1696 -0.0652
 6659SOL    HW131613   3.104   3.159   5.019 -1.1049 -0.1051 -0.9538
 6659SOL    HW231614   3.129   3.118   4.873 -0.5336 -0.7190 -0.0948
 6660SOL     OW31615   2.134   1.255   9.770 -0.2510  0.3084 -0.3436
 6660SOL    HW131616   2.157   1.346   9.754 -1.8966  0.6875 -0.4912
 6660SOL    HW231617   2.221   1.215   9.775 -0.6637 -0.3856  1.3574
 6661SOL     OW31618   1.961   0.086   4.138 -0.3407  0.1670  0.1944
 6661SOL    HW131619   2.015   0.146   4.188 -0.7326  1.3473 -0.8024
 6661SOL    HW231620   1.890   0.062   4.198 -0.3340  1.4640  0.7293
 6662SOL     OW31621   0.089   2.257   9.545 -0.2066  0.0680  0.0762
 6662SOL    HW131622   0.170   2.218   9.511  0.8542  1.5320  0.9327
 6662SOL    HW231623   0.028   2.184   9.555 -0.7060  0.5125  0.2654
 6663SOL     OW31624   2.616   4.325   3.117  0.3010  0.8895 -0.1804
 6663SOL    HW131625   2.647   4.238   3.089 -1.9027 -0.0439  0.2766
 6663SOL    HW231626   2.702   4.362   3.137  0.6347  1.4426 -2.6860
 6664SOL     OW31627   2.354   0.512   8.834 -0.0673  0.3842 -0.4576
 6664SOL    HW131628   2.283   0.448   8.838  0.7040 -0.6053 -2.7159
 6664SOL    HW231629   2.300   0.587   8.857 -0.9004  0.2284 -1.8822
 6665SOL     OW31630   4.309   4.513   4.151 -0.3097  0.2433  0.4183
 6665SOL    HW131631   4.334   4.520   4.059 -0.5311 -0.5251  0.3006
 6665SOL    HW231632   4.285   4.602   4.176 -1.6906  0.0542 -0.2243
 6666SOL     OW31633   4.537   1.713   7.979 -0.1519  0.2479 -0.0499
 6666SOL    HW131634   4.467   1.704   7.914  1.0360 -0.8385 -1.1585
 6666SOL    HW231635   4.498   1.751   8.058 -0.2601 -0.8903  0.4371
 6667SOL     OW31636   2.800   0.375  14.182 -0.1533 -0.0118 -0.1915
 6667SOL    HW131637   2.843   0.292  14.204  0.3410 -0.2115 -1.8976
 6667SOL    HW231638   2.710   0.352  14.206 -0.8481  2.6631 -0.2722
 6668SOL     OW31639   3.626   1.575  14.675  0.5390  0.3540 -0.5334
 6668SOL    HW131640   3.706   1.594  14.627  1.1047  0.2936  0.3899
 6668SOL    HW231641   3.585   1.524  14.604 -1.2058  0.8422  0.1173
 6669SOL     OW31642   1.309   2.511   8.079  0.0239  0.0858  0.1645
 6669SOL    HW131643   1.215   2.496   8.080 -0.1173  1.0358  0.9862
 6669SOL    HW231644   1.323   2.576   8.148  0.4356 -0.4716  0.6072
 6670SOL     OW31645   3.673   1.445   7.837 -0.1969  1.0713  0.5035
 6670SOL    HW131646   3.694   1.536   7.855 -0.0362  0.8377  1.4882
 6670SOL    HW231647   3.639   1.418   7.923  0.6022  1.5842  0.9802
 6671SOL     OW31648   3.999   0.278   1.016  0.1691  0.6103 -0.6347
 6671SOL    HW131649   4.060   0.350   1.033  1.3648 -0.5678  0.0157
 6671SOL    HW231650   3.936   0.312   0.952 -0.3998  0.5403 -0.1014
 6672SOL     OW31651   0.123   1.409   4.737 -1.0269  0.0793 -0.2527
 6672SOL    HW131652   0.062   1.470   4.778  0.9671  1.6640  0.3331
 6672SOL    HW231653   0.199   1.467   4.729 -1.4646  0.5619 -0.9813
 6673SOL     OW31654   4.532   1.677  16.830 -0.2514 -0.0218  0.3293
 6673SOL    HW131655   4.453   1.645  16.786 -1.5038  0.6337  2.0742
 6673SOL    HW231656   4.501   1.712  16.914 -1.8148 -0.2801 -0.1393
 6674SOL     OW31657   2.685   4.603  12.581 -0.1638 -0.2325 -0.0683
 6674SOL    HW131658   2.755   4.577  12.520  0.5753 -1.1533  1.1790
 6674SOL    HW231659   2.667   4.515  12.615  1.1511 -0.6966 -0.5723
 6675SOL     OW31660   0.223   2.739  14.048  0.7640  0.2909  0.0350
 6675SOL    HW131661   0.198   2.660  14.000  2.4657  0.3751 -0.9947
 6675SOL    HW231662   0.209   2.701  14.135  1.2639 -3.1270 -1.3789
 6676SOL     OW31663   4.301   0.965   3.533 -0.1645 -0.4776  0.5175
 6676SOL    HW131664   4.274   0.874   3.547 -1.8750  0.3490  2.5727
 6676SOL    HW231665   4.317   0.993   3.623  2.3146  2.1843 -0.7415
 6677SOL     OW31666   4.445   3.729   3.265  0.5576  0.3286 -0.1513
 6677SOL    HW131667   4.393   3.777   3.329  1.6881  0.6727  0.4925
 6677SOL    HW231668   4.439   3.793   3.193  1.0800 -1.0421 -1.4175
 6678SOL     OW31669   0.464   3.829  11.651  0.4276 -0.4670 -0.1870
 6678SOL    HW131670   0.550   3.862  11.680  0.4846  1.2579 -2.2838
 6678SOL    HW231671   0.460   3.745  11.696  0.9961  0.3450  1.3963
 6679SOL     OW31672   1.545   1.750  14.660 -1.0261  0.1801  0.3489
 6679SOL    HW131673   1.610   1.740  14.729  1.4216  2.3665 -1.6196
 6679SOL    HW231674   1.590   1.823  14.618  0.4108 -0.3353  1.0058
 6680SOL     OW31675   3.516   3.155   2.986 -0.2146  0.3910 -0.4188
 6680SOL    HW131676   3.522   3.195   2.899 -2.6203 -1.6756 -1.5037
 6680SOL    HW231677   3.424   3.137   3.003 -0.3323  1.1532 -0.2388
 6681SOL     OW31678   0.909   0.984  13.169 -0.1145  0.1789 -0.4557
 6681SOL    HW131679   0.923   0.893  13.194  3.2047  0.7828 -0.2038
 6681SOL    HW231680   0.827   1.009  13.212  0.2422 -0.2678  0.4862
 6682SOL     OW31681   2.729   2.597   6.519 -0.3421  0.2684 -0.0983
 6682SOL    HW131682   2.677   2.613   6.440 -1.0111  0.6961  0.4284
 6682SOL    HW231683   2.731   2.684   6.558 -1.1193 -0.2437  1.0903
 6683SOL     OW31684   1.499   0.968   6.603 -0.1522  0.0192 -0.1876
 6683SOL    HW131685   1.510   0.886   6.650  0.4550 -0.3268 -0.9582
 6683SOL    HW231686   1.583   1.003   6.576 -1.9196  1.6022 -3.5778
 6684SOL     OW31687   4.646   1.072   7.289 -0.2525  0.5356 -0.0703
 6684SOL    HW131688   4.601   1.084   7.373 -0.7159  1.8738 -0.5130
 6684SOL    HW231689   4.580   1.022   7.241  2.2213 -0.6641 -2.1861
 6685SOL     OW31690   4.461   0.636  15.308 -0.0973  0.3004 -0.0347
 6685SOL    HW131691   4.495   0.573  15.372 -2.3872 -0.8038  0.0789
 6685SOL    HW231692   4.526   0.621  15.239  0.5607  0.2429  0.5872
 6686SOL     OW31693   3.857   0.655   7.534 -0.4882 -0.5621 -0.1066
 6686SOL    HW131694   3.775   0.642   7.581  0.0813 -2.6159  0.3190
 6686SOL    HW231695   3.916   0.611   7.596  2.3268 -0.1330 -2.4748
 6687SOL     OW31696   2.181   1.237  17.110 -0.2804  0.1436 -0.0569
 6687SOL    HW131697   2.091   1.203  17.116  0.1337 -1.0186 -0.4864
 6687SOL    HW231698   2.242   1.167  17.089  0.3672  0.1237  1.8870
 6688SOL     OW31699   2.075   1.868   7.212 -0.1729 -0.1217 -0.0587
 6688SOL    HW131700   1.999   1.852   7.268 -0.3000 -3.8167 -1.3145
 6688SOL    HW231701   2.152   1.901   7.258  0.3777 -0.2503 -0.8928
 6689SOL     OW31702   2.169   0.695   8.874  0.3667 -0.0552  0.3434
 6689SOL    HW131703   2.139   0.731   8.791 -1.1896  0.5663  1.1701
 6689SOL    HW231704   2.210   0.770   8.918  0.8558  0.9585 -1.8604
 6690SOL     OW31705   0.957   4.636   2.331  0.0354  0.6540  0.0513
 6690SOL    HW131706   0.969   4.653   2.238  0.1580 -0.2751 -0.1027
 6690SOL    HW231707   1.037   4.670   2.372  2.0109 -1.9237 -1.7222
 6691SOL     OW31708   0.230   1.381   3.612 -0.0878 -0.5847  0.2419
 6691SOL    HW131709   0.204   1.435   3.537 -0.2384 -0.2229  0.5511
 6691SOL    HW231710   0.281   1.442   3.667 -3.7471  1.1692  1.7092
 6692SOL     OW31711   0.669   0.621   8.781  0.3133  0.3656 -0.6273
 6692SOL    HW131712   0.745   0.573   8.814 -0.7483  1.3117  3.1082
 6692SOL    HW231713   0.598   0.566   8.813 -1.7987  2.8274 -1.1495
 6693SOL     OW31714   2.969   2.353  14.271 -0.2803  0.2847 -0.2194
 6693SOL    HW131715   2.942   2.390  14.187 -0.2265 -1.0684 -0.8339
 6693SOL    HW231716   2.994   2.266  14.240  0.0387  0.2491  0.1316
 6694SOL     OW31717   4.549   0.044   2.347 -0.3072 -0.3858 -0.4176
 6694SOL    HW131718   4.632   0.025   2.302  0.5149  0.3673  0.7814
 6694SOL    HW231719   4.560   4.737   2.429  1.9955  2.0052  0.6781
 6695SOL     OW31720   0.171   4.117   7.247  0.1863 -0.8975  0.1330
 6695SOL    HW131721   0.094   4.061   7.257 -0.3925 -0.0197  0.5675
 6695SOL    HW231722   0.184   4.115   7.152  0.9631  2.6196  0.1599
 6696SOL     OW31723   0.301   3.331  11.634 -0.6343 -0.1192  0.3489
 6696SOL    HW131724   0.370   3.319  11.699  1.0337  0.0671 -1.3601
 6696SOL    HW231725   0.333   3.410  11.590  0.3302 -0.0597  1.1588
 6697SOL     OW31726   4.068   2.814   5.638 -0.6561 -0.1949  0.6501
 6697SOL    HW131727   4.160   2.802   5.662  0.0427 -3.4136 -3.6953
 6697SOL    HW231728   4.041   2.872   5.709  0.0479  0.6948  0.1824
 6698SOL     OW31729   0.910   2.386   4.834 -0.4362 -0.1976  0.4757
 6698SOL    HW131730   0.943   2.470   4.867  0.6594 -0.3781 -0.1615
 6698SOL    HW231731   0.915   2.333   4.913 -3.7319 -2.1098 -0.5940
 6699SOL     OW31732   0.721   0.842  17.688 -0.6954  0.0656 -0.0028
 6699SOL    HW131733   0.682   0.828  17.602  1.2966  0.2470 -0.9278
 6699SOL    HW231734   0.810   0.867  17.663 -0.1498 -0.0472  1.7872
 6700SOL     OW31735   1.784   2.371  17.608 -0.2709  0.2789  0.3274
 6700SOL    HW131736   1.846   2.417  17.552 -0.3768 -0.4176 -0.3650
 6700SOL    HW231737   1.802   2.412  17.693  0.8077 -2.3001  1.3349
 6701SOL     OW31738   2.575   3.327   3.107  0.4845 -0.2651  0.1400
 6701SOL    HW131739   2.487   3.349   3.079  1.1022  1.5951 -0.3232
 6701SOL    HW231740   2.613   3.414   3.119  0.9792 -0.7275  2.0464
 6702SOL     OW31741   1.253   3.749  14.083 -0.8404 -0.1126  0.0567
 6702SOL    HW131742   1.347   3.734  14.089 -1.2233 -2.1293  1.2414
 6702SOL    HW231743   1.216   3.687  14.146  0.0290 -2.1662 -1.4495
 6703SOL     OW31744   2.636   3.815   1.521  0.0673 -0.0934 -0.4425
 6703SOL    HW131745   2.683   3.855   1.448  2.5220 -0.2526  1.0804
 6703SOL    HW231746   2.665   3.866   1.596  1.4979 -3.1519  1.0535
 6704SOL     OW31747   3.772   0.017  15.235 -0.2672  0.5145 -0.3894
 6704SOL    HW131748   3.859   4.724  15.257  0.4319  0.1466 -3.7084
 6704SOL    HW231749   3.712   4.695  15.276  1.4221 -0.4938  0.5358
 6705SOL     OW31750   3.532   1.341   6.597  0.3239 -0.0707 -0.9871
 6705SOL    HW131751   3.602   1.403   6.619 -0.7149  0.2944  1.2230
 6705SOL    HW231752   3.475   1.335   6.673  2.6811 -0.4749  0.7505
 6706SOL     OW31753   0.944   3.679   6.038 -0.1445 -0.3855 -0.3622
 6706SOL    HW131754   1.028   3.648   6.005  0.3475 -0.2970  0.7878
 6706SOL    HW231755   0.898   3.688   5.955 -1.0809 -0.9126  0.0850
 6707SOL     OW31756   4.639   4.647   4.283 -0.0215 -0.3353 -0.5616
 6707SOL    HW131757   4.591   4.681   4.207 -1.5465 -0.9771  0.1139
 6707SOL    HW231758   4.671   4.730   4.319 -1.6197 -0.0284  0.1242
 6708SOL     OW31759   2.798   3.034   5.478  0.0032  0.3083 -0.1728
 6708SOL    HW131760   2.858   3.101   5.511  0.0703 -0.5854  1.5614
 6708SOL    HW231761   2.860   2.975   5.434  0.5548  0.7835 -0.0280
 6709SOL     OW31762   3.341   4.584   4.652  0.0146  0.2899 -0.2131
 6709SOL    HW131763   3.265   4.529   4.632 -0.5335  1.7560 -2.1726
 6709SOL    HW231764   3.383   4.571   4.567 -1.4980 -2.9943 -0.4765
 6710SOL     OW31765   1.101   2.204  15.056  0.4686 -0.1227  0.8587
 6710SOL    HW131766   1.180   2.151  15.061  0.7254  0.0405 -1.6761
 6710SOL    HW231767   1.033   2.137  15.070 -1.0444  1.5995  1.8597
 6711SOL     OW31768   4.237   0.490   5.230  0.1345  0.0535  0.9566
 6711SOL    HW131769   4.242   0.549   5.155  2.6042  0.7269  1.6334
 6711SOL    HW231770   4.318   0.438   5.227  0.1536  0.1440 -0.0176
 6712SOL     OW31771   1.671   0.578   3.365  0.0779 -0.4668 -0.1118
 6712SOL    HW131772   1.668   0.485   3.387 -2.9927 -0.8322 -2.0320
 6712SOL    HW231773   1.750   0.609   3.408 -0.2720  0.0015  0.2011
 6713SOL     OW31774   0.965   3.054   1.885 -0.0770  0.6885 -0.3723
 6713SOL    HW131775   0.878   3.085   1.859 -0.9277 -0.9579  0.5076
 6713SOL    HW231776   0.987   3.132   1.937  0.9778 -0.1112  0.3895
 6714SOL     OW31777   2.140   1.725   5.844 -0.2521  0.1275  0.3318
 6714SOL    HW131778   2.089   1.800   5.873  1.5194  1.2955  0.4159
 6714SOL    HW231779   2.131   1.729   5.749  1.5741 -0.1242  0.1501
 6715SOL     OW31780   3.914   3.569  12.469  0.4140  0.0586  1.0193
 6715SOL    HW131781   3.884   3.506  12.403 -0.6678  1.3366  0.2698
 6715SOL    HW231782   3.846   3.573  12.536  0.0532  1.6964  0.5600
 6716SOL     OW31783   0.551   3.747   1.042 -0.2948 -0.0235  0.1806
 6716SOL    HW131784   0.463   3.721   1.068 -0.9950  1.3312 -0.8481
 6716SOL    HW231785   0.595   3.662   1.047  1.7427  0.9687 -1.0086
 6717SOL     OW31786   1.787   2.944   7.750  0.6082 -0.3063 -0.1788
 6717SOL    HW131787   1.777   2.943   7.655  0.5469  0.7772 -0.1735
 6717SOL    HW231788   1.882   2.937   7.763  0.1399 -0.7677  2.9400
 6718SOL     OW31789   0.126   4.185   9.490 -0.3579  0.2083  0.3486
 6718SOL    HW131790   0.088   4.247   9.552  0.2412  0.3794  0.5442
 6718SOL    HW231791   0.083   4.100   9.490  1.4477 -0.7079 -2.2336
 6719SOL     OW31792   2.424   3.252   2.192 -1.0555 -0.1774 -0.3188
 6719SOL    HW131793   2.343   3.287   2.154 -0.9789  0.1846 -0.1490
 6719SOL    HW231794   2.465   3.220   2.112 -0.2864 -3.3058  1.3046
 6720SOL     OW31795   3.023   0.499   4.479  0.3212 -0.1309 -0.3962
 6720SOL    HW131796   3.113   0.499   4.511  0.2085 -0.0127 -0.0779
 6720SOL    HW231797   3.029   0.418   4.429  0.6459  0.1021 -0.7347
 6721SOL     OW31798   2.945   0.106   1.105 -0.2071 -0.0863 -0.3850
 6721SOL    HW131799   3.012   0.055   1.059  0.5652  0.8480 -0.3081
 6721SOL    HW231800   2.884   0.041   1.139 -2.8180  1.4027 -2.2894
 6722SOL     OW31801   1.022   3.793   2.927 -0.4047 -0.2802 -0.1605
 6722SOL    HW131802   1.024   3.771   2.833 -2.7443  0.8824 -0.4861
 6722SOL    HW231803   0.930   3.796   2.954 -0.5993 -4.6382 -0.2801
 6723SOL     OW31804   0.083   3.743   1.453 -0.1399 -0.5882 -1.0458
 6723SOL    HW131805   0.053   3.832   1.435  3.7735  0.8522 -0.5215
 6723SOL    HW231806   0.065   3.757   1.546  0.0536 -0.6085 -1.0052
 6724SOL     OW31807   3.440   2.807   4.816 -0.2607 -0.0555  0.0627
 6724SOL    HW131808   3.426   2.754   4.895  2.4849  2.9341  2.5882
 6724SOL    HW231809   3.483   2.883   4.855 -1.7436  1.8243 -2.0165
 6725SOL     OW31810   0.410   4.698   8.521  0.0191 -0.1928  0.1273
 6725SOL    HW131811   0.439   0.027   8.579  0.8196  1.4549 -2.2336
 6725SOL    HW231812   0.357   0.015   8.465 -0.7181 -1.2023 -0.2278
 6726SOL     OW31813   3.605   4.552  10.944  0.0976 -0.1937 -0.0730
 6726SOL    HW131814   3.548   4.487  10.986  0.6751 -0.6312  0.0439
 6726SOL    HW231815   3.620   4.513  10.858 -0.5409  0.6193 -0.5420
 6727SOL     OW31816   1.743   0.663  13.543 -0.3877 -0.1588  0.0631
 6727SOL    HW131817   1.724   0.572  13.523 -0.0464 -0.2915  0.3384
 6727SOL    HW231818   1.839   0.667  13.541 -0.3631 -1.5546 -1.0016
 6728SOL     OW31819   3.626   4.412   6.625 -0.0754  0.1497  0.2794
 6728SOL    HW131820   3.621   4.497   6.582  0.0411  0.5562  1.0854
 6728SOL    HW231821   3.629   4.430   6.719  2.0959  2.0874 -0.1698
 6729SOL     OW31822   0.389   0.978   6.690  0.2741  0.2247  0.3856
 6729SOL    HW131823   0.416   0.889   6.712 -0.3646 -0.0078  0.2563
 6729SOL    HW231824   0.416   0.989   6.599 -0.1245  1.0232  0.3616
 6730SOL     OW31825   1.450   0.003   6.002 -0.4518  0.3897  0.4619
 6730SOL    HW131826   1.362   4.740   6.037  0.2936  0.8259  2.3995
 6730SOL    HW231827   1.429   0.035   5.915  0.6295 -1.9143 -0.6361
 6731SOL     OW31828   1.080   2.114   7.875 -1.2655  0.5664  0.0148
 6731SOL    HW131829   1.085   2.056   7.799  2.1991  0.0467  0.5954
 6731SOL    HW231830   1.045   2.053   7.939 -0.3608 -0.1170 -0.1432
 6732SOL     OW31831   1.920   3.259  11.103 -0.2083 -0.5558  0.3148
 6732SOL    HW131832   1.936   3.311  11.181 -0.6588 -0.6437  0.4672
 6732SOL    HW231833   1.997   3.203  11.092 -2.1027 -3.7976  3.7387
 6733SOL     OW31834   1.152   2.608  16.252  0.2993  0.0662 -0.3777
 6733SOL    HW131835   1.231   2.642  16.210  0.3500 -0.0022 -0.3385
 6733SOL    HW231836   1.147   2.665  16.329 -2.0144  1.1597 -1.3552
 6734SOL     OW31837   3.881   1.562   2.021 -0.4467 -0.0121 -0.1186
 6734SOL    HW131838   3.821   1.488   2.026 -0.4464 -0.0817 -1.1917
 6734SOL    HW231839   3.831   1.630   2.067 -2.5466 -2.8887  1.8231
 6735SOL     OW31840   4.438   0.110   3.672  0.7202 -0.2844 -0.0685
 6735SOL    HW131841   4.361   0.060   3.644 -1.1800  1.8335  1.3617
 6735SOL    HW231842   4.401   0.146   3.753  0.2013  0.4007 -0.6185
 6736SOL     OW31843   2.403   4.070   3.618  0.3100  0.5275 -0.3433
 6736SOL    HW131844   2.442   4.034   3.539 -1.4511 -3.0469  0.3904
 6736SOL    HW231845   2.459   4.026   3.682  1.6285  0.4927 -1.5303
 6737SOL     OW31846   2.259   2.939   2.055  0.0153 -0.3833  0.1395
 6737SOL    HW131847   2.251   2.970   1.965 -2.5458  1.9616  1.1793
 6737SOL    HW231848   2.353   2.924   2.063 -0.0551 -1.3484 -0.8149
 6738SOL     OW31849   0.706   1.278  10.724 -0.7072  0.0317 -0.5785
 6738SOL    HW131850   0.620   1.300  10.687 -0.5752  1.1363 -0.2321
 6738SOL    HW231851   0.768   1.290  10.653  1.4782  0.8332  1.4510
 6739SOL     OW31852   1.621   1.395  12.257 -0.3244 -0.2230  0.1146
 6739SOL    HW131853   1.703   1.444  12.264 -1.6201  1.9689  0.0178
 6739SOL    HW231854   1.604   1.361  12.345  1.4306 -0.1472  0.4785
 6740SOL     OW31855   4.738   0.604  17.387 -0.1234 -0.1863  0.2811
 6740SOL    HW131856   4.693   0.672  17.438 -0.4994  1.7453 -2.6060
 6740SOL    HW231857   0.026   0.665  17.319 -4.9564  2.1556  0.2977
 6741SOL     OW31858   2.989   0.271   8.566  0.7459 -0.7271 -0.7717
 6741SOL    HW131859   2.952   0.220   8.493 -0.0684  0.2836 -1.0573
 6741SOL    HW231860   2.961   0.216   8.639  1.3209 -0.2696 -0.2131
 6742SOL     OW31861   0.436   0.111   7.785 -0.4765  0.3721  0.5289
 6742SOL    HW131862   0.472   0.061   7.711  0.3958 -0.3676  1.4431
 6742SOL    HW231863   0.479   0.062   7.855  0.5267  0.7113  0.1521
 6743SOL     OW31864   0.656   0.019  16.831 -0.5646  0.1743  0.0135
 6743SOL    HW131865   0.602   0.099  16.832  1.2490  1.4154 -1.5190
 6743SOL    HW231866   0.607   4.723  16.757  0.5094  0.5756 -0.8806
 6744SOL     OW31867   2.216   3.311   9.542  0.3844 -0.3390  0.1117
 6744SOL    HW131868   2.175   3.233   9.577 -0.5041  0.4099  0.7506
 6744SOL    HW231869   2.309   3.298   9.560  0.0805  0.4376  2.2608
 6745SOL     OW31870   3.036   3.384   2.730  0.5940  0.2492  0.5669
 6745SOL    HW131871   3.080   3.305   2.698 -0.0792  0.3639 -0.6349
 6745SOL    HW231872   2.958   3.375   2.676  1.0033 -1.4742  0.2672
 6746SOL     OW31873   0.110   0.386  15.068 -0.8204  0.1659 -0.2340
 6746SOL    HW131874   0.113   0.474  15.031  0.3163 -0.8128 -2.4635
 6746SOL    HW231875   0.015   0.372  15.067 -1.1699  2.7405 -1.0900
 6747SOL     OW31876   2.796   3.907   2.344 -0.2939  0.1289 -0.2120
 6747SOL    HW131877   2.847   3.937   2.419 -0.6005 -0.8194  0.3730
 6747SOL    HW231878   2.851   3.958   2.285  3.7527 -2.3515  1.4964
 6748SOL     OW31879   4.620   0.346   9.669 -0.3154  0.0599  0.0572
 6748SOL    HW131880   4.668   0.351   9.587 -0.9445  0.0760 -0.3103
 6748SOL    HW231881   4.582   0.261   9.648  1.3854 -0.1924 -1.8978
 6749SOL     OW31882   1.058   1.973  12.071 -0.2670 -0.3131  0.0150
 6749SOL    HW131883   0.988   1.912  12.092 -1.1399 -0.6501 -3.8747
 6749SOL    HW231884   1.138   1.922  12.082 -0.3972 -0.7020 -0.8688
 6750SOL     OW31885   3.759   3.461  16.113 -0.3253  0.4142 -0.6449
 6750SOL    HW131886   3.823   3.405  16.158 -0.0340 -0.0125 -1.6004
 6750SOL    HW231887   3.789   3.550  16.130  0.8729 -0.1263  0.0682
 6751SOL     OW31888   0.154   4.094   8.681 -0.2292  0.1044  0.6059
 6751SOL    HW131889   0.234   4.116   8.634 -0.6072  1.6235  0.6734
 6751SOL    HW231890   0.087   4.099   8.612  0.5263  0.9821 -0.0507
 6752SOL     OW31891   2.530   3.529   4.731  0.6056  0.1679 -0.0835
 6752SOL    HW131892   2.490   3.540   4.817  1.3518  0.3998  0.2345
 6752SOL    HW231893   2.457   3.491   4.683 -0.0838 -1.2943  2.1294
 6753SOL     OW31894   4.671   2.354   3.863  0.0809  0.2911  0.1351
 6753SOL    HW131895   4.713   2.304   3.793 -0.5406 -1.2045  0.8505
 6753SOL    HW231896   4.603   2.396   3.810  0.2720  1.9788  1.2177
 6754SOL     OW31897   0.277   0.013   2.861 -1.0712  0.0655  0.0914
 6754SOL    HW131898   0.260   0.105   2.841  0.6723  0.3263 -0.1633
 6754SOL    HW231899   0.320   0.029   2.945  0.5565  0.1147 -0.7634
 6755SOL     OW31900   2.469   4.272   5.953  0.2624  0.2844 -0.1573
 6755SOL    HW131901   2.427   4.358   5.946  0.8950  0.6325  0.3560
 6755SOL    HW231902   2.499   4.265   5.862 -0.9197 -1.5089 -0.4227
 6756SOL     OW31903   1.479   2.015   4.073  0.2713 -0.3046 -0.3710
 6756SOL    HW131904   1.475   1.943   4.136  0.6527  0.5692  0.6464
 6756SOL    HW231905   1.401   2.069   4.088  0.3886 -0.4300  0.7150
 6757SOL     OW31906   3.149   1.873  16.640 -0.2371 -0.4424 -0.6109
 6757SOL    HW131907   3.096   1.802  16.676 -1.5165  0.6087 -0.4366
 6757SOL    HW231908   3.085   1.916  16.584 -2.3765 -0.5960  1.7581
 6758SOL     OW31909   1.171   1.322  12.489 -0.7695 -0.3136  0.3795
 6758SOL    HW131910   1.122   1.243  12.469  0.2096 -1.6268  3.2060
 6758SOL    HW231911   1.145   1.390  12.425 -0.6076 -1.1930 -0.6196
 6759SOL     OW31912   2.881   1.880  13.530  0.5898 -0.1674  0.3804
 6759SOL    HW131913   2.939   1.806  13.509  0.8799  0.2981 -0.4560
 6759SOL    HW231914   2.923   1.950  13.480  1.1913 -0.5196  0.3827
 6760SOL     OW31915   3.555   0.281   0.771 -0.4844  0.3854 -0.1428
 6760SOL    HW131916   3.636   0.233   0.753 -1.2007 -1.5758  1.9258
 6760SOL    HW231917   3.558   0.278   0.866 -1.7952 -0.6660 -0.1228
 6761SOL     OW31918   0.817   3.136   6.572  0.2641 -0.3736 -0.0565
 6761SOL    HW131919   0.770   3.162   6.652  0.5259  1.4451 -0.4918
 6761SOL    HW231920   0.850   3.221   6.542  3.2285 -0.7324  2.2047
 6762SOL     OW31921   1.338   2.558   4.394  0.3796 -0.2960 -0.0235
 6762SOL    HW131922   1.322   2.507   4.315  3.0732 -0.9680 -0.1454
 6762SOL    HW231923   1.433   2.551   4.389  0.3342 -1.2847  0.6498
 6763SOL     OW31924   1.565   1.822   6.877  0.4582 -0.1230 -0.1218
 6763SOL    HW131925   1.565   1.781   6.963  2.4734 -2.4393 -1.2210
 6763SOL    HW231926   1.569   1.914   6.900  0.2158  0.0439 -0.7355
 6764SOL     OW31927   3.185   0.606   8.040 -0.1102 -0.3294 -0.1454
 6764SOL    HW131928   3.123   0.643   8.103 -0.8757 -0.0716 -1.0338
 6764SOL    HW231929   3.268   0.590   8.084  0.2674  0.9202 -0.3966
 6765SOL     OW31930   4.370   3.149   8.158 -0.0472  0.2236  0.0308
 6765SOL    HW131931   4.339   3.233   8.125  0.9425  0.4030 -0.4507
 6765SOL    HW231932   4.313   3.143   8.235 -1.8519  1.9373 -1.1839
 6766SOL     OW31933   4.489   1.274  14.808  0.1955  0.0090 -0.1671
 6766SOL    HW131934   4.460   1.226  14.731 -1.1265  0.3307  0.1351
 6766SOL    HW231935   4.426   1.252  14.876  0.0974 -0.5771 -0.4472
 6767SOL     OW31936   3.712   1.092   2.930 -0.5277 -0.1470  0.1592
 6767SOL    HW131937   3.782   1.060   2.986 -0.2767 -1.6798 -1.0378
 6767SOL    HW231938   3.739   1.059   2.844  0.6636  2.4558 -0.4818
 6768SOL     OW31939   3.836   1.055  17.446 -0.0400 -0.4103  0.1495
 6768SOL    HW131940   3.806   0.984  17.503 -0.5907  1.0937  1.7559
 6768SOL    HW231941   3.750   1.073  17.408 -0.6396 -0.4542  1.4823
 6769SOL     OW31942   3.675   4.501   6.177  0.2896  0.0320  0.6071
 6769SOL    HW131943   3.648   4.576   6.230 -0.8328  0.4969 -0.6363
 6769SOL    HW231944   3.769   4.491   6.195  0.2713 -1.8996 -0.3202
 6770SOL     OW31945   3.253   0.776   9.269 -0.0872  0.0969  0.0390
 6770SOL    HW131946   3.179   0.777   9.330  0.0620  2.0706  0.1970
 6770SOL    HW231947   3.205   0.822   9.200 -0.7776  1.6837  1.5833
 6771SOL     OW31948   1.215   0.704   2.785  0.5452 -0.0480 -1.1132
 6771SOL    HW131949   1.143   0.651   2.751 -1.2556 -0.6943  3.7494
 6771SOL    HW231950   1.198   0.693   2.879 -2.9690 -3.5279 -2.1675
 6772SOL     OW31951   1.162   3.222  17.248 -0.2830  0.1230  0.0184
 6772SOL    HW131952   1.168   3.130  17.224 -0.0558  0.0403  0.3971
 6772SOL    HW231953   1.253   3.231  17.276  0.3879  0.5845 -2.3317
 6773SOL     OW31954   1.411   4.552   9.282  0.3549 -0.0225  0.2968
 6773SOL    HW131955   1.470   4.622   9.310  1.3954 -1.1998  1.0080
 6773SOL    HW231956   1.356   4.552   9.360  1.3585  0.7414  1.0136
 6774SOL     OW31957   1.819   2.866   7.026  0.1203 -0.1134  0.0648
 6774SOL    HW131958   1.837   2.937   7.088 -0.7559  0.8452 -0.7812
 6774SOL    HW231959   1.777   2.922   6.961  1.1805  1.8049  1.0470
 6775SOL     OW31960   3.942   3.465   8.705  0.0160  0.1489 -0.1349
 6775SOL    HW131961   3.987   3.516   8.638  0.9750 -1.6640 -0.8491
 6775SOL    HW231962   4.020   3.419   8.736 -0.4460 -0.4695  0.1120
 6776SOL     OW31963   2.132   3.840   8.839 -0.3527 -0.2960 -0.2309
 6776SOL    HW131964   2.170   3.928   8.843 -1.6045  0.2465 -0.3150
 6776SOL    HW231965   2.207   3.780   8.834 -0.2313 -0.1224 -0.5430
 6777SOL     OW31966   1.036   1.389   5.938 -0.2031  0.7426 -0.3942
 6777SOL    HW131967   1.005   1.302   5.964 -0.1378  0.7991 -0.1232
 6777SOL    HW231968   0.966   1.448   5.968 -1.2385 -0.6977  0.0468
 6778SOL     OW31969   2.735   3.532   3.113  0.0348 -0.0035 -0.3245
 6778SOL    HW131970   2.768   3.620   3.129  2.7379 -1.4001  1.7211
 6778SOL    HW231971   2.804   3.482   3.157  0.4336  0.6544 -0.2078
 6779SOL     OW31972   0.270   4.582   6.341  0.2917  0.3941 -0.0204
 6779SOL    HW131973   0.232   4.515   6.285  0.7059 -0.4874  0.7560
 6779SOL    HW231974   0.202   4.650   6.343  0.5139  0.6349 -0.6088
 6780SOL     OW31975   3.450   2.161  10.630  0.1015 -0.0295  0.0947
 6780SOL    HW131976   3.394   2.093  10.666  1.6189 -2.4239 -2.0983
 6780SOL    HW231977   3.443   2.137  10.538  2.7077  0.9031 -0.3453
 6781SOL     OW31978   4.296   0.776   2.039 -0.1051 -0.3422  0.1587
 6781SOL    HW131979   4.323   0.823   1.960  0.5505  2.0073  1.8016
 6781SOL    HW231980   4.319   0.686   2.014 -0.1313 -0.7282  1.5482
 6782SOL     OW31981   0.452   3.803  17.216 -0.6199 -0.5481  0.2651
 6782SOL    HW131982   0.443   3.731  17.279 -2.4762  1.7659  2.6155
 6782SOL    HW231983   0.538   3.774  17.185  0.1939  2.0374  0.0898
 6783SOL     OW31984   0.846   0.741   7.479 -0.1432  0.1182  0.0070
 6783SOL    HW131985   0.774   0.804   7.488 -0.0486  0.3503 -0.9365
 6783SOL    HW231986   0.873   0.739   7.571 -0.1770 -0.1920  0.0107
 6784SOL     OW31987   3.504   3.729  16.449 -0.3596  0.5430  0.2754
 6784SOL    HW131988   3.483   3.732  16.542 -0.7169 -0.5060  0.2257
 6784SOL    HW231989   3.458   3.654  16.411 -0.1492  0.5098  0.0865
 6785SOL     OW31990   0.392   4.436   9.354  0.2856 -0.0192  0.3166
 6785SOL    HW131991   0.446   4.484   9.418 -1.6050  0.4002  1.5877
 6785SOL    HW231992   0.304   4.447   9.390  0.0853  1.4031 -0.6268
 6786SOL     OW31993   0.082   1.970   7.304 -0.1811  0.7505  0.1563
 6786SOL    HW131994   0.120   1.893   7.260 -0.7229  0.3059  0.4638
 6786SOL    HW231995   0.015   1.993   7.240  0.7367 -0.6752 -1.3275
 6787SOL     OW31996   1.370   4.118   7.194  0.6294  0.3805  0.2652
 6787SOL    HW131997   1.310   4.065   7.142  0.4676  0.3625  0.4684
 6787SOL    HW231998   1.313   4.193   7.211 -0.4051 -0.2459 -0.4143
 6788SOL     OW31999   0.671   1.897   0.523  1.0399 -0.8144  0.0394
 6788SOL    HW132000   0.594   1.857   0.482 -0.9043  2.6350  0.3609
 6788SOL    HW232001   0.707   1.940   0.445 -0.0535 -0.5414 -0.3207
 6789SOL     OW32002   2.378   4.062   6.108 -0.3941 -0.1262  0.2149
 6789SOL    HW132003   2.407   4.134   6.052 -0.8860 -0.6333 -0.6855
 6789SOL    HW232004   2.287   4.048   6.083 -1.5431  1.6965  3.4707
 6790SOL     OW32005   3.507   3.787   5.407  0.2356  0.6259  0.0238
 6790SOL    HW132006   3.519   3.877   5.437  0.4752  0.6768 -0.2169
 6790SOL    HW232007   3.580   3.746   5.454 -0.5288 -0.6139  0.1311
 6791SOL     OW32008   2.186   3.554  10.783 -0.1027 -0.7429  0.5393
 6791SOL    HW132009   2.256   3.518  10.839  0.5030  0.2633  0.4293
 6791SOL    HW232010   2.138   3.477  10.754  0.4355 -1.1861  0.8268
 6792SOL     OW32011   0.733   1.757   2.538 -0.1420  0.4105 -0.2256
 6792SOL    HW132012   0.764   1.670   2.511  2.4492  0.3313  2.9700
 6792SOL    HW232013   0.729   1.792   2.449 -0.9579  0.8690 -0.0013
 6793SOL     OW32014   4.398   2.050   9.599  0.2250 -0.3154 -0.3456
 6793SOL    HW132015   4.390   2.046   9.694 -3.1633  1.2453 -0.5780
 6793SOL    HW232016   4.354   2.131   9.575 -0.4901  0.1530  2.5520
 6794SOL     OW32017   3.727   0.835   6.598 -0.3062  0.0107 -0.2930
 6794SOL    HW132018   3.812   0.833   6.554 -0.3619  2.2319 -0.4901
 6794SOL    HW232019   3.703   0.927   6.588 -0.9278 -0.0252  0.9237
 6795SOL     OW32020   0.995   0.235  15.992  0.3571 -0.4551 -0.4540
 6795SOL    HW132021   0.915   0.183  16.001 -1.3515  1.5625 -4.0392
 6795SOL    HW232022   0.967   0.316  16.034 -0.1287 -1.4354  1.1096
 6796SOL     OW32023   2.090   1.520  15.369 -0.1753  0.1672 -0.2331
 6796SOL    HW132024   2.060   1.610  15.358  3.3778  1.3975 -0.0206
 6796SOL    HW232025   2.184   1.525  15.352  0.0477 -0.9801  0.6640
 6797SOL     OW32026   1.069   3.732   6.335  1.0370  0.3620  0.1593
 6797SOL    HW132027   1.034   3.708   6.249  0.8817  2.0510 -0.2543
 6797SOL    HW232028   1.135   3.797   6.310  1.0633  0.2001 -0.1954
 6798SOL     OW32029   1.777   0.059   6.838  0.5017 -0.4617  0.0040
 6798SOL    HW132030   1.818   0.037   6.754  1.0701  0.3445  0.0701
 6798SOL    HW232031   1.833   0.128   6.875  0.7354 -0.6855  0.0725
 6799SOL     OW32032   1.232   2.792   4.430 -0.2435 -0.0760  0.0995
 6799SOL    HW132033   1.276   2.707   4.433  0.8853  0.5685  1.5054
 6799SOL    HW232034   1.247   2.806   4.336 -3.0678  0.1708 -0.3214
 6800SOL     OW32035   1.469   2.798   1.583  0.8179  0.3414  0.5060
 6800SOL    HW132036   1.412   2.875   1.587  3.0592  1.9273  2.3121
 6800SOL    HW232037   1.483   2.771   1.674  0.5690  0.1448  0.4839
 6801SOL     OW32038   3.074   3.974   9.265 -0.3618 -0.3372  0.4025
 6801SOL    HW132039   3.147   4.021   9.224  0.0250  0.1182  1.6231
 6801SOL    HW232040   3.076   4.015   9.351 -0.5540  0.6321 -0.0437
 6802SOL     OW32041   3.647   3.247   5.305  0.5280 -0.0090 -0.2764
 6802SOL    HW132042   3.585   3.209   5.244 -2.0038 -0.0852  2.3318
 6802SOL    HW232043   3.659   3.177   5.370 -0.9630 -0.4825 -0.5267
 6803SOL     OW32044   0.979   0.559   9.188 -0.3069  0.3342  0.4040
 6803SOL    HW132045   1.051   0.495   9.192 -0.0324  0.5798 -0.5602
 6803SOL    HW232046   0.920   0.513   9.248 -0.0754 -0.8499 -0.2687
 6804SOL     OW32047   1.168   3.426  11.410 -0.4701 -0.1716  0.5524
 6804SOL    HW132048   1.205   3.352  11.459  1.8192  0.7303  0.1773
 6804SOL    HW232049   1.204   3.501  11.458 -2.5386  0.2017  1.4991
 6805SOL     OW32050   2.288   3.245  14.256  0.5108  0.3303  0.3931
 6805SOL    HW132051   2.332   3.170  14.295  0.4193  0.0814  0.0179
 6805SOL    HW232052   2.196   3.222  14.267  0.8365 -1.7561 -1.2294
 6806SOL     OW32053   0.572   0.897   2.288 -0.2794  0.4405 -0.7335
 6806SOL    HW132054   0.503   0.884   2.353 -1.2919  0.8347 -1.7218
 6806SOL    HW232055   0.523   0.965   2.240 -0.2309 -0.6450 -2.3203
 6807SOL     OW32056   2.578   4.602   2.818  0.2727  0.9810 -0.2737
 6807SOL    HW132057   2.665   4.641   2.816 -0.5444  2.9048  0.9153
 6807SOL    HW232058   2.600   4.520   2.862 -0.5966  0.8390 -0.0974
 6808SOL     OW32059   3.199   1.334   8.537 -0.3273 -0.6747  0.1866
 6808SOL    HW132060   3.212   1.356   8.445 -0.5018 -2.1193 -0.1855
 6808SOL    HW232061   3.277   1.281   8.554 -1.9011 -2.0233  3.0682
 6809SOL     OW32062   3.212   4.032   9.615  0.3693 -0.0887  0.5892
 6809SOL    HW132063   3.147   4.099   9.593 -0.1633  0.2684  3.1642
 6809SOL    HW232064   3.252   4.073   9.692  0.0781 -2.3429  1.9168
 6810SOL     OW32065   0.081   0.144   6.031  0.1914 -0.1780 -0.4426
 6810SOL    HW132066   0.101   0.211   6.096  3.9021 -1.6351 -0.0733
 6810SOL    HW232067   4.739   0.174   5.994  0.6368 -1.1993 -2.2485
 6811SOL     OW32068   1.163   0.054   4.659  0.3069 -0.0715 -0.0640
 6811SOL    HW132069   1.074   0.086   4.675  1.9679  2.8226  3.5443
 6811SOL    HW232070   1.216   0.134   4.651  2.0926 -0.9360  3.2782
 6812SOL     OW32071   4.097   4.727  11.883  0.3884 -0.1843  0.2600
 6812SOL    HW132072   4.147   4.731  11.802  0.3610  0.2434  0.2678
 6812SOL    HW232073   4.131   0.060  11.934 -4.2662 -0.3299  3.5729
 6813SOL     OW32074   0.359   2.056   5.344  0.3229 -0.0450  0.2015
 6813SOL    HW132075   0.329   2.145   5.363  0.8313  0.2631 -0.4322
 6813SOL    HW232076   0.310   2.005   5.408  2.5262 -0.1289  1.8238
 6814SOL     OW32077   4.060   3.184   2.632 -0.2823 -0.3733 -0.0534
 6814SOL    HW132078   4.079   3.147   2.546  1.5596 -0.9170  0.5827
 6814SOL    HW232079   4.004   3.115   2.667 -0.4260  0.2783  0.9916
 6815SOL     OW32080   2.315   3.962   1.452 -0.4670  0.2826  0.5458
 6815SOL    HW132081   2.319   3.997   1.363  0.3070 -1.0533  0.0460
 6815SOL    HW232082   2.385   4.007   1.499  1.3346 -0.6446 -1.2494
 6816SOL     OW32083   3.082   1.637   6.405 -0.0612 -0.2151 -0.0553
 6816SOL    HW132084   3.024   1.648   6.480  0.5764  2.6047  0.0160
 6816SOL    HW232085   3.169   1.637   6.447 -0.1415 -1.8775  0.1314
 6817SOL     OW32086   3.971   1.534   1.762 -0.1304 -0.1325  0.6114
 6817SOL    HW132087   3.961   1.440   1.748 -1.5645 -0.0606  1.2356
 6817SOL    HW232088   3.957   1.550   1.855 -0.2823  0.7838  0.4301
 6818SOL     OW32089   4.147   1.869   4.326  0.0299  0.0660 -0.0318
 6818SOL    HW132090   4.237   1.899   4.339 -0.2623  0.8345  0.2189
 6818SOL    HW232091   4.111   1.936   4.384 -1.4225 -1.4319  0.7951
 6819SOL     OW32092   0.415   4.578   2.566  0.3618  0.0001 -0.2192
 6819SOL    HW132093   0.414   4.537   2.480 -2.9560  0.2794 -0.3242
 6819SOL    HW232094   0.321   4.576   2.584  0.8723  0.6730  2.5386
 6820SOL     OW32095   3.447   3.513  16.977 -0.0586  0.4132  0.2691
 6820SOL    HW132096   3.523   3.504  16.919  0.1340 -1.9078  0.8861
 6820SOL    HW232097   3.407   3.597  16.955  3.7957  2.6213  1.5218
 6821SOL     OW32098   3.899   4.699   6.580  0.2161 -0.4275  0.0860
 6821SOL    HW132099   3.838   4.723   6.650 -1.3913 -1.0444 -1.1050
 6821SOL    HW232100   3.979   4.721   6.628 -0.6910 -1.4857  2.0767
 6822SOL     OW32101   3.714   2.107   6.096 -0.5563 -0.2618  0.3537
 6822SOL    HW132102   3.716   2.043   6.025  0.7947  0.7241 -0.4952
 6822SOL    HW232103   3.621   2.128   6.103 -0.3454  0.9757 -0.8019
 6823SOL     OW32104   4.298   2.571   6.590 -0.4293  0.3976 -0.0720
 6823SOL    HW132105   4.263   2.657   6.564  1.7478  0.9790 -1.1118
 6823SOL    HW232106   4.385   2.579   6.552  0.8687 -1.0713  2.5654
 6824SOL     OW32107   0.723   0.851   6.104  0.1712  0.0221  0.0536
 6824SOL    HW132108   0.701   0.763   6.072 -0.4340  0.3175 -0.3593
 6824SOL    HW232109   0.635   0.879   6.129  0.7585  1.6168  0.3445
 6825SOL     OW32110   0.789   1.213   2.379  0.2867  0.0388 -0.3101
 6825SOL    HW132111   0.747   1.298   2.366 -0.4750 -0.1536  0.8651
 6825SOL    HW232112   0.780   1.168   2.295  0.3689  0.2616 -0.4389
 6826SOL     OW32113   2.346   1.873   5.491 -0.3766 -0.0044  0.1184
 6826SOL    HW132114   2.281   1.938   5.464  0.3612  1.1565  1.1187
 6826SOL    HW232115   2.408   1.930   5.536  2.2234 -1.1319 -2.0888
 6827SOL     OW32116   4.428   3.676   7.516  0.3698  0.7213  0.1779
 6827SOL    HW132117   4.454   3.592   7.477  0.8023  0.8650  0.1590
 6827SOL    HW232118   4.443   3.665   7.610 -0.1309  2.4009  0.4554
 6828SOL     OW32119   0.762   2.222   6.711  0.1451 -0.1658  0.0655
 6828SOL    HW132120   0.752   2.227   6.616 -0.8176  1.8487  0.2752
 6828SOL    HW232121   0.673   2.201   6.739 -0.3816  0.4070 -1.1644
 6829SOL     OW32122   1.759   2.745   6.691  0.1860  0.4212  0.6912
 6829SOL    HW132123   1.697   2.818   6.695  1.8420  1.9337 -1.3172
 6829SOL    HW232124   1.701   2.673   6.716  1.0547 -0.2373  0.8099
 6830SOL     OW32125   0.816   4.287   1.982 -0.0120  0.0475 -0.0882
 6830SOL    HW132126   0.903   4.262   1.951 -1.1590 -3.0061 -0.8383
 6830SOL    HW232127   0.834   4.381   1.973  0.0486 -0.2117 -2.5895
 6831SOL     OW32128   1.677   3.653   5.554  0.1517 -0.4106 -0.1710
 6831SOL    HW132129   1.728   3.705   5.492 -0.1013  0.8113  0.6402
 6831SOL    HW232130   1.672   3.576   5.498  1.1897 -0.7290  0.1619
 6832SOL     OW32131   3.383   1.351   9.003 -0.2454 -0.1062 -0.0020
 6832SOL    HW132132   3.435   1.428   8.980  1.5707 -0.9915  1.1848
 6832SOL    HW232133   3.301   1.376   8.961  0.7145  1.1266 -1.1511
 6833SOL     OW32134   2.463   1.483   3.083  0.0929 -0.3031 -0.1756
 6833SOL    HW132135   2.532   1.473   3.149  0.6908  2.5072 -0.3784
 6833SOL    HW232136   2.433   1.392   3.073  1.4956 -0.7758 -0.0311
 6834SOL     OW32137   3.642   2.859   5.703 -0.1380  0.2284 -0.8280
 6834SOL    HW132138   3.658   2.825   5.614  3.3144 -1.2550  0.3596
 6834SOL    HW232139   3.707   2.929   5.706 -1.6162  1.6013 -1.1388
 6835SOL     OW32140   4.627   1.830   4.811  0.0872  0.1155  0.0853
 6835SOL    HW132141   4.549   1.863   4.856  0.3243 -0.1461  0.6967
 6835SOL    HW232142   4.612   1.860   4.722  2.7604 -0.2171 -0.4666
 6836SOL     OW32143   1.062   3.417   7.979 -0.3172 -0.2993  0.2458
 6836SOL    HW132144   1.078   3.353   7.909  1.5833 -1.6559  1.9320
 6836SOL    HW232145   0.970   3.434   7.957 -0.2231  0.4922  0.4735
 6837SOL     OW32146   1.969   3.521   4.592  0.5530 -0.1124 -0.1656
 6837SOL    HW132147   1.892   3.468   4.613 -0.7248  1.4387 -0.9215
 6837SOL    HW232148   1.932   3.600   4.552 -1.1193 -0.9043 -0.1788
 6838SOL     OW32149   2.446   2.233  12.204  0.5018  1.1677  0.4691
 6838SOL    HW132150   2.495   2.284  12.140 -0.5899  0.8880 -0.5899
 6838SOL    HW232151   2.490   2.242  12.289  2.3936 -1.3629 -0.2680
 6839SOL     OW32152   2.542   0.660  13.760 -0.3252  0.8811 -0.0720
 6839SOL    HW132153   2.575   0.617  13.681 -0.5899 -0.5322  0.5777
 6839SOL    HW232154   2.560   0.590  13.823 -0.8437  0.4998 -0.3498
 6840SOL     OW32155   1.323   0.264   7.285 -0.3801 -0.3041  0.0299
 6840SOL    HW132156   1.261   0.201   7.323  1.0475 -1.3612  0.6109
 6840SOL    HW232157   1.269   0.343   7.293 -0.5134 -0.3616 -0.3069
 6841SOL     OW32158   2.345   2.714   9.706 -0.3293  0.3763  0.2177
 6841SOL    HW132159   2.291   2.763   9.768 -2.4807 -0.4438 -1.0254
 6841SOL    HW232160   2.276   2.697   9.642 -0.8247  0.5262  0.7137
 6842SOL     OW32161   2.585   0.077   9.946  0.3519  0.5391  0.2783
 6842SOL    HW132162   2.679   0.064   9.942  0.7431  3.1657  1.1580
 6842SOL    HW232163   2.574   0.169   9.926  0.5649  0.6216  0.5390
 6843SOL     OW32164   4.389   3.855   3.983  0.0507  0.0092  0.3209
 6843SOL    HW132165   4.443   3.894   4.052  1.0786 -1.1388  0.1725
 6843SOL    HW232166   4.456   3.833   3.919  0.9514 -3.1567  2.3409
 6844SOL     OW32167   2.069   1.648   4.518 -0.0654 -0.7317 -0.9090
 6844SOL    HW132168   2.156   1.662   4.553 -0.2893 -1.3586 -0.0996
 6844SOL    HW232169   2.018   1.632   4.597  2.3509  0.1820  0.8329
 6845SOL     OW32170   4.578   1.108   1.360 -0.5729  0.4788 -0.0987
 6845SOL    HW132171   4.609   1.042   1.298  0.1014  1.1389 -0.4765
 6845SOL    HW232172   4.663   1.139   1.393  0.2415 -2.6006  0.6961
 6846SOL     OW32173   0.785   3.804   9.856  0.0350  0.4868 -0.2383
 6846SOL    HW132174   0.702   3.848   9.835 -1.6885 -1.7339  1.8473
 6846SOL    HW232175   0.855   3.866   9.837  1.8049 -1.1506  0.9345
 6847SOL     OW32176   3.584   2.605   9.393 -0.1806 -0.1186  0.0382
 6847SOL    HW132177   3.550   2.516   9.395  2.5298 -1.1846 -0.4409
 6847SOL    HW232178   3.660   2.578   9.445 -1.0640 -1.0982  0.8066
 6848SOL     OW32179   3.352   4.401  13.488 -0.3599 -0.0207 -0.7227
 6848SOL    HW132180   3.345   4.442  13.574  1.3048 -0.0456 -0.5713
 6848SOL    HW232181   3.414   4.333  13.512  1.8174  2.9060  2.0307
 6849SOL     OW32182   0.648   4.572  12.759 -0.3108 -0.3119  0.4936
 6849SOL    HW132183   0.677   4.586  12.669  0.5208  0.7014  0.9242
 6849SOL    HW232184   0.681   4.483  12.775  1.4475 -0.0883 -1.9271
 6850SOL     OW32185   0.917   3.528  11.302 -0.7526 -0.9701  0.3789
 6850SOL    HW132186   1.001   3.497  11.334  1.1687  3.6137 -0.1936
 6850SOL    HW232187   0.945   3.610  11.261 -0.0445 -0.5465  1.7138
 6851SOL     OW32188   4.723   1.080   6.547 -0.4897  0.2040 -0.2130
 6851SOL    HW132189   4.691   1.147   6.486  0.1241 -1.0017 -1.8362
 6851SOL    HW232190   4.644   1.027   6.544 -0.1189 -0.3170 -0.7360
 6852SOL     OW32191   1.687   0.821   8.199 -0.3091  0.4506 -0.0911
 6852SOL    HW132192   1.745   0.745   8.210 -0.3225  0.6404  1.2038
 6852SOL    HW232193   1.602   0.791   8.231 -0.8089  1.7465 -0.2158
 6853SOL     OW32194   0.208   2.502   6.073  0.0315  0.4190 -0.8956
 6853SOL    HW132195   0.146   2.435   6.044  0.5009 -0.5363  0.3566
 6853SOL    HW232196   0.288   2.451   6.080 -0.8920 -0.7194  1.0422
 6854SOL     OW32197   2.617   2.103   9.074 -0.1545 -0.0239  0.5728
 6854SOL    HW132198   2.663   2.023   9.097 -0.9794 -0.6535  0.0430
 6854SOL    HW232199   2.604   2.144   9.159  0.9713 -0.9171  1.1555
 6855SOL     OW32200   1.247   3.038   6.861 -1.1220 -0.2562 -0.2622
 6855SOL    HW132201   1.300   3.081   6.794 -0.7098 -0.4862 -0.0762
 6855SOL    HW232202   1.168   3.034   6.807 -1.4285  1.1895  0.0702
 6856SOL     OW32203   3.091   3.735   1.131 -0.9289 -0.2022  0.9516
 6856SOL    HW132204   3.168   3.689   1.164 -0.2894  0.5868  0.5625
 6856SOL    HW232205   3.094   3.795   1.206 -0.2834 -0.8144  1.4142
 6857SOL     OW32206   2.848   0.239   5.114  0.0392 -0.2620 -0.3049
 6857SOL    HW132207   2.871   0.308   5.176 -0.5830  0.5237 -0.9414
 6857SOL    HW232208   2.885   0.165   5.162  0.0224  0.5597  0.9634
 6858SOL     OW32209   4.441   2.555   8.347  0.8082  0.3425  0.1892
 6858SOL    HW132210   4.451   2.647   8.374  0.0912  0.4818 -0.0174
 6858SOL    HW232211   4.370   2.573   8.286 -0.7365 -0.3995  1.7872
 6859SOL     OW32212   3.379   2.882   0.031 -0.0606  0.3596 -0.0299
 6859SOL    HW132213   3.438   2.834  17.732  0.2240  0.4384  0.1928
 6859SOL    HW232214   3.446   2.931   0.078 -0.0429 -0.4963  0.8408
 6860SOL     OW32215   2.183   2.628   2.078  0.1938  0.1945  0.7038
 6860SOL    HW132216   2.246   2.599   2.144 -1.7920 -3.4925  0.9582
 6860SOL    HW232217   2.198   2.721   2.065  2.0479 -0.0192  1.3757
 6861SOL     OW32218   3.877   1.445   5.166 -0.1731 -0.1371 -0.5654
 6861SOL    HW132219   3.880   1.487   5.252  1.6919  0.9377 -1.1550
 6861SOL    HW232220   3.915   1.360   5.189  0.5961 -0.0591 -1.5488
 6862SOL     OW32221   0.457   2.098   8.564 -0.0585  0.2488 -0.4207
 6862SOL    HW132222   0.422   2.085   8.652  1.8214 -2.2560 -0.0186
 6862SOL    HW232223   0.553   2.090   8.568 -0.2139 -1.3465 -0.0413
 6863SOL     OW32224   1.377   0.452   3.945 -0.2263 -0.8275  0.1442
 6863SOL    HW132225   1.431   0.472   3.868 -0.1929  0.5437  0.5098
 6863SOL    HW232226   1.393   0.527   4.002 -2.6547 -0.1423 -0.0583
 6864SOL     OW32227   4.634   2.908   1.924 -0.4106  0.7470  0.3091
 6864SOL    HW132228   4.545   2.891   1.894  0.1786  1.5694 -1.8859
 6864SOL    HW232229   4.688   2.883   1.849 -2.4425 -0.5951 -0.7112
 6865SOL     OW32230   2.245   2.181   3.890  0.3620 -0.1152 -0.1022
 6865SOL    HW132231   2.335   2.202   3.864  0.2060 -0.3063 -0.8086
 6865SOL    HW232232   2.250   2.145   3.978  0.9952 -0.3573 -0.2338
 6866SOL     OW32233   0.160   0.232   5.249  0.0991 -0.1613 -0.1845
 6866SOL    HW132234   0.101   0.158   5.263 -0.2117  0.0801 -0.2230
 6866SOL    HW232235   0.175   0.212   5.157  1.2753 -1.3808  0.2579
 6867SOL     OW32236   0.229   3.854  16.604  0.3328  0.6977  0.7259
 6867SOL    HW132237   0.149   3.836  16.554 -0.6649  0.7680  2.3186
 6867SOL    HW232238   0.292   3.856  16.531  0.0667 -1.2404  0.4516
 6868SOL     OW32239   1.472   3.909   4.690 -0.3397  0.6391 -0.0902
 6868SOL    HW132240   1.443   3.820   4.711 -0.0094  0.9665  1.6775
 6868SOL    HW232241   1.412   3.922   4.616 -1.0127  0.0643  0.3515
 6869SOL     OW32242   0.875   2.842  14.521 -0.2860  0.6805 -0.1086
 6869SOL    HW132243   0.848   2.862  14.611 -1.3624  0.8163 -0.4689
 6869SOL    HW232244   0.955   2.891  14.500  1.0945 -0.7773  1.8148
 6870SOL     OW32245   0.940   3.974   4.895  0.1289  0.0191 -0.4344
 6870SOL    HW132246   0.908   4.036   4.960 -0.2289 -0.9338  0.2867
 6870SOL    HW232247   1.001   3.937   4.959 -0.5780 -1.8420 -0.8381
 6871SOL     OW32248   2.954   3.864  17.214  0.0467  0.3632  0.0992
 6871SOL    HW132249   2.915   3.801  17.274  0.1383 -1.2818 -1.5920
 6871SOL    HW232250   2.927   3.840  17.126 -1.2891  0.0453  0.5950
 6872SOL     OW32251   3.529   3.909   9.684  0.8542 -0.4206  0.6633
 6872SOL    HW132252   3.487   3.986   9.723 -0.9786 -0.8374 -0.4763
 6872SOL    HW232253   3.459   3.848   9.707  0.2840 -0.2020 -0.5416
 6873SOL     OW32254   2.735   4.289   3.761  0.5968  0.3337 -0.1981
 6873SOL    HW132255   2.810   4.253   3.809  1.6147  0.7378 -1.4697
 6873SOL    HW232256   2.699   4.207   3.727 -0.4715  0.9351 -0.5242
 6874SOL     OW32257   4.290   2.985  15.968  0.6396 -0.0223 -0.1872
 6874SOL    HW132258   4.284   2.893  15.943 -0.2140  0.0093 -0.0922
 6874SOL    HW232259   4.383   3.009  15.972  0.1839  1.6425  0.7362
 6875SOL     OW32260   2.754   4.436  14.055  0.1382  0.2628 -0.0298
 6875SOL    HW132261   2.845   4.422  14.026  0.4884  2.2153  0.1690
 6875SOL    HW232262   2.764   4.531  14.063 -0.1105  0.1201  1.9227
 6876SOL     OW32263   3.767   1.717  14.889  0.6428 -0.7042 -0.0367
 6876SOL    HW132264   3.731   1.713  14.978  0.0321  1.7835 -0.1790
 6876SOL    HW232265   3.698   1.688  14.830 -1.3916  0.8925  1.5288
 6877SOL     OW32266   2.834   4.394   2.235 -0.3700 -0.2161  0.5294
 6877SOL    HW132267   2.762   4.440   2.277 -0.7107  0.1509 -0.4485
 6877SOL    HW232268   2.791   4.329   2.179  1.6787 -1.3607  0.2743
 6878SOL     OW32269   0.893   1.796   8.332 -0.1211  0.0080  0.2541
 6878SOL    HW132270   0.801   1.786   8.308  0.9198 -0.6505 -3.5334
 6878SOL    HW232271   0.876   1.784   8.425  1.9829  1.2824  0.7997
 6879SOL     OW32272   0.536   4.149  13.356  0.2986  0.1733 -0.2828
 6879SOL    HW132273   0.535   4.100  13.274  0.1258 -0.6071  0.1869
 6879SOL    HW232274   0.526   4.077  13.419 -0.1227  0.7755  0.3317
 6880SOL     OW32275   3.653   2.454  12.051 -0.8517 -0.5991 -0.4599
 6880SOL    HW132276   3.610   2.540  12.051  0.8498  0.2575  0.0768
 6880SOL    HW232277   3.685   2.454  11.961 -0.5939 -0.7676 -0.3671
 6881SOL     OW32278   4.218   3.500   4.651 -0.0134  0.0498  0.4947
 6881SOL    HW132279   4.134   3.510   4.695  0.2799  0.0920  1.0575
 6881SOL    HW232280   4.217   3.405   4.643  0.2203  0.2203 -1.5383
 6882SOL     OW32281   2.859   2.857   7.616 -0.1843  0.2719 -0.7398
 6882SOL    HW132282   2.842   2.888   7.527 -0.6407  2.0274 -0.0364
 6882SOL    HW232283   2.953   2.841   7.605 -0.1260 -1.5019  2.3824
 6883SOL     OW32284   4.279   3.845  16.323 -0.0807 -0.6247  0.1580
 6883SOL    HW132285   4.186   3.839  16.342 -0.1771 -0.2525 -0.2158
 6883SOL    HW232286   4.282   3.911  16.254 -0.7045 -1.4045 -0.6088
 6884SOL     OW32287   4.250   3.828   6.525 -0.6075 -0.3867  0.0121
 6884SOL    HW132288   4.331   3.876   6.542 -1.6597  0.5543  2.2372
 6884SOL    HW232289   4.237   3.775   6.603 -0.2548  2.0591  1.7227
 6885SOL     OW32290   2.810   0.104   5.921 -0.5629 -0.1812  0.1141
 6885SOL    HW132291   2.904   0.100   5.938 -0.7239  0.4314  1.1609
 6885SOL    HW232292   2.797   0.195   5.894 -2.0209 -0.3594  0.2091
 6886SOL     OW32293   1.377   2.157   1.803  0.0748 -0.2273 -0.2351
 6886SOL    HW132294   1.343   2.085   1.749  2.0221 -2.0602  1.0257
 6886SOL    HW232295   1.387   2.231   1.743  0.1476  0.4939  0.6788
 6887SOL     OW32296   2.654   2.973   7.374 -0.4104  0.1839  0.7589
 6887SOL    HW132297   2.679   2.902   7.315  2.2869  1.7903 -0.0278
 6887SOL    HW232298   2.559   2.969   7.362 -0.0573  0.9432 -2.2745
 6888SOL     OW32299   4.076   1.467   7.532  0.3392 -0.1945  0.0127
 6888SOL    HW132300   3.995   1.516   7.546  1.2786  1.2863  0.2207
 6888SOL    HW232301   4.056   1.376   7.554  1.0738 -0.2122  0.6091
 6889SOL     OW32302   3.093   1.050   4.285  0.1479 -0.1059  0.1360
 6889SOL    HW132303   3.095   0.960   4.253 -2.1244 -0.1150 -0.0265
 6889SOL    HW232304   3.000   1.068   4.268  0.0429  1.6412  2.4533
 6890SOL     OW32305   0.178   2.548   7.230 -0.2345  0.1856 -0.2435
 6890SOL    HW132306   0.118   2.615   7.262 -1.1884 -1.3253  1.1279
 6890SOL    HW232307   0.200   2.581   7.143  0.4227 -1.5499 -0.7332
 6891SOL     OW32308   2.108   4.516   8.427  0.1099  0.0840 -0.6769
 6891SOL    HW132309   2.118   4.422   8.416  3.0725  0.3791 -0.6738
 6891SOL    HW232310   2.031   4.506   8.483  0.8213 -1.7468 -0.0441
 6892SOL     OW32311   1.396   1.198   8.774  0.3368 -0.4271 -0.2346
 6892SOL    HW132312   1.475   1.144   8.778  1.6125  1.1732 -4.1143
 6892SOL    HW232313   1.332   1.147   8.823  1.0496  0.3930  1.5663
 6893SOL     OW32314   1.709   1.953   8.453  0.2104 -0.5028 -0.2391
 6893SOL    HW132315   1.676   2.030   8.499  3.1536  2.7242 -3.4505
 6893SOL    HW232316   1.781   1.932   8.512 -0.7162 -0.8794  0.7492
 6894SOL     OW32317   4.626   0.898   2.168 -0.2050 -0.0208  0.0838
 6894SOL    HW132318   4.720   0.892   2.188 -0.5741  0.7847  1.9810
 6894SOL    HW232319   4.596   0.818   2.210 -0.3174  1.1380  2.1956
 6895SOL     OW32320   2.820   1.649  13.153  1.0991 -0.1406  0.4059
 6895SOL    HW132321   2.899   1.697  13.177 -1.5645  5.0723 -1.3003
 6895SOL    HW232322   2.812   1.584  13.222  0.5004 -0.9113 -0.3889
 6896SOL     OW32323   0.069   3.141   8.244 -0.1657 -0.7877  0.2471
 6896SOL    HW132324   0.006   3.126   8.314 -1.4975 -2.4826 -1.3170
 6896SOL    HW232325   0.132   3.070   8.242 -1.2910 -1.7230 -2.0080
 6897SOL     OW32326   2.240   3.500   1.563 -0.2382  0.9178 -0.4408
 6897SOL    HW132327   2.319   3.449   1.582 -1.7527 -0.6874  1.4504
 6897SOL    HW232328   2.265   3.592   1.572 -1.7684  1.3001 -0.0816
 6898SOL     OW32329   1.963   4.126   7.326  0.4980  0.6177 -0.3973
 6898SOL    HW132330   1.948   4.214   7.361 -0.9400  0.4913 -0.6727
 6898SOL    HW232331   1.954   4.071   7.404 -0.1745  0.6469 -0.4524
 6899SOL     OW32332   1.509   4.485  14.926  0.0034  0.3794 -0.5554
 6899SOL    HW132333   1.469   4.400  14.944  0.2607  0.0187 -1.7173
 6899SOL    HW232334   1.482   4.539  15.000 -0.7591  0.7530 -1.1085
 6900SOL     OW32335   4.215   0.862   7.638  0.2646  0.4366 -0.3093
 6900SOL    HW132336   4.260   0.883   7.720  1.1118 -0.0598 -0.6495
 6900SOL    HW232337   4.188   0.951   7.613  0.2350  1.3280  2.9347
 6901SOL     OW32338   2.410   0.627   4.008 -0.2814 -0.1989  0.0904
 6901SOL    HW132339   2.414   0.664   4.097 -1.4889  0.3611 -0.0908
 6901SOL    HW232340   2.371   0.541   4.022 -1.0978  0.0838 -0.4193
 6902SOL     OW32341   2.288   2.229  11.459 -0.0327 -0.2867 -0.3367
 6902SOL    HW132342   2.237   2.222  11.539 -0.2769 -0.1601 -0.4801
 6902SOL    HW232343   2.296   2.324  11.456  1.3985 -0.4186 -0.9456
 6903SOL     OW32344   1.720   2.689   3.382  0.1432 -0.2390 -0.3130
 6903SOL    HW132345   1.744   2.639   3.460 -2.7796  0.4097  1.0245
 6903SOL    HW232346   1.800   2.736   3.358 -1.3386  2.8016  0.6997
 6904SOL     OW32347   3.279   3.009   1.739  0.1021 -0.2899 -0.1444
 6904SOL    HW132348   3.352   2.948   1.729 -0.2767 -0.7866  0.0655
 6904SOL    HW232349   3.206   2.964   1.695 -0.5897 -0.8189  1.5525
 6905SOL     OW32350   0.560   0.861   7.741 -0.2956  0.2452  0.5191
 6905SOL    HW132351   0.637   0.900   7.782 -1.4420  0.7594  2.1907
 6905SOL    HW232352   0.508   0.846   7.820  0.5980 -1.5849  0.7581
 6906SOL     OW32353   2.430   3.113   6.833  0.2710 -0.4418  0.2836
 6906SOL    HW132354   2.498   3.083   6.773 -0.1354 -0.9685  0.0957
 6906SOL    HW232355   2.359   3.138   6.774 -1.2063  1.0297  2.6883
 6907SOL     OW32356   0.423   0.195   5.090  0.4804  0.0628  0.3448
 6907SOL    HW132357   0.485   0.178   5.019 -2.8039 -2.2368 -2.0029
 6907SOL    HW232358   0.416   0.290   5.083  0.5011  0.0021 -0.5204
 6908SOL     OW32359   3.361   2.497   9.111 -0.2773 -0.5518 -0.2673
 6908SOL    HW132360   3.343   2.431   9.179 -0.2323  0.6225  0.8891
 6908SOL    HW232361   3.278   2.545   9.110  0.3764  0.6252  1.0385
 6909SOL     OW32362   2.008   3.064   9.019 -0.6300  0.0462  0.0228
 6909SOL    HW132363   2.046   3.123   8.954  1.2032 -0.7834  0.3412
 6909SOL    HW232364   2.046   3.093   9.102 -0.0496 -1.5166  0.2912
 6910SOL     OW32365   1.289   0.905   7.923 -0.2225 -0.1475 -0.2264
 6910SOL    HW132366   1.260   0.908   8.014  1.1133  1.1350  0.1535
 6910SOL    HW232367   1.326   0.992   7.914  0.0485 -0.1770  0.6440
 6911SOL     OW32368   1.089   4.317   6.531 -0.0598  0.2948 -0.1648
 6911SOL    HW132369   1.074   4.243   6.472  2.2409  1.9905 -2.9088
 6911SOL    HW232370   1.156   4.366   6.483 -0.2795 -0.0229 -0.7994
 6912SOL     OW32371   2.159   1.465   5.265  0.4175 -0.3541  0.3335
 6912SOL    HW132372   2.087   1.408   5.239  1.0428 -1.2327  0.5176
 6912SOL    HW232373   2.233   1.405   5.260 -1.7063 -2.6078 -3.6019
 6913SOL     OW32374   3.392   0.820   3.163 -0.4571  0.3922 -0.1776
 6913SOL    HW132375   3.400   0.848   3.072 -0.9029 -0.5196 -0.4933
 6913SOL    HW232376   3.378   0.728   3.141  1.9456 -0.0893  0.3067
 6914SOL     OW32377   0.351   3.920   7.747 -0.1918 -0.1248 -0.4656
 6914SOL    HW132378   0.389   3.880   7.825  2.7153  2.5526 -0.4870
 6914SOL    HW232379   0.384   3.871   7.672 -3.5847 -1.9127 -0.7932
 6915SOL     OW32380   2.725   1.023   0.840  0.0651 -0.0930  0.2467
 6915SOL    HW132381   2.797   0.961   0.831  0.3030  0.2305 -0.0447
 6915SOL    HW232382   2.660   0.973   0.790 -1.7592  0.4063  2.1087
 6916SOL     OW32383   1.051   4.434  14.754 -0.3174 -0.5732  0.0106
 6916SOL    HW132384   1.104   4.514  14.754  0.5774 -1.1701 -0.6765
 6916SOL    HW232385   1.096   4.396  14.829 -0.1370 -2.1434 -0.9078
 6917SOL     OW32386   0.378   1.235   4.927 -0.3291  0.0355 -0.0412
 6917SOL    HW132387   0.392   1.170   4.858  2.0169 -0.5687  1.0127
 6917SOL    HW232388   0.362   1.312   4.872 -2.1778  1.2361  2.1790
 6918SOL     OW32389   0.843   4.366   8.067  0.4376  0.3351 -0.2973
 6918SOL    HW132390   0.796   4.431   8.119  0.3169 -0.1939  0.2516
 6918SOL    HW232391   0.790   4.289   8.090 -0.0948  0.4297 -1.1920
 6919SOL     OW32392   4.407   0.981  10.065 -0.2486 -0.2834 -0.3556
 6919SOL    HW132393   4.446   1.066  10.044  0.6603 -0.7713 -0.6197
 6919SOL    HW232394   4.479   0.922  10.046 -1.9698 -2.1460 -1.0604
 6920SOL     OW32395   1.501   0.710  17.549 -0.3048  0.5758 -0.1278
 6920SOL    HW132396   1.479   0.797  17.517 -0.4517 -0.1999 -2.2065
 6920SOL    HW232397   1.430   0.659  17.509  0.1053 -0.3883  0.3616
 6921SOL     OW32398   4.033   1.473  17.490 -0.2070  0.2504 -0.1151
 6921SOL    HW132399   3.941   1.496  17.500  0.1184  1.8053 -0.8349
 6921SOL    HW232400   4.064   1.497  17.578 -0.1213 -0.3964  0.0346
 6922SOL     OW32401   1.601   0.503   2.640 -0.3462 -0.0526  0.0996
 6922SOL    HW132402   1.511   0.498   2.608  0.1366 -2.7904 -0.8060
 6922SOL    HW232403   1.583   0.491   2.733  0.1516 -0.6823  0.1131
 6923SOL     OW32404   0.694   4.064   1.478  0.4106  0.2784 -0.3468
 6923SOL    HW132405   0.736   4.009   1.544 -1.4365 -0.1564  0.4688
 6923SOL    HW232406   0.686   4.001   1.407  1.0611 -0.0198 -0.1503
 6924SOL     OW32407   2.622   2.872   7.734 -0.0550  0.4893 -0.0292
 6924SOL    HW132408   2.687   2.868   7.664  1.1597  1.8365  1.0248
 6924SOL    HW232409   2.675   2.856   7.812 -1.1282 -0.2561  0.5440
 6925SOL     OW32410   1.090   4.242   2.589 -0.3312  0.1493 -0.5143
 6925SOL    HW132411   1.058   4.170   2.643  0.9096 -0.0796 -0.0800
 6925SOL    HW232412   1.125   4.206   2.508  1.5036  0.8295 -0.0311
 6926SOL     OW32413   3.414   0.212  12.729  0.3834 -0.0904  0.8030
 6926SOL    HW132414   3.488   0.181  12.780  0.5090 -0.7557  0.2141
 6926SOL    HW232415   3.409   0.133  12.674 -1.7956 -0.1754  1.0934
 6927SOL     OW32416   4.618   0.906   5.938 -0.7006 -0.2765  0.2498
 6927SOL    HW132417   4.609   0.835   6.002 -0.6690  0.7971  1.4454
 6927SOL    HW232418   4.665   0.876   5.861  1.3533 -2.5845  2.4004
 6928SOL     OW32419   4.473   3.066   5.190  0.2991  0.4382 -0.0998
 6928SOL    HW132420   4.406   3.125   5.226 -1.5250 -0.9076 -1.2558
 6928SOL    HW232421   4.480   3.086   5.096  0.3820 -0.7300 -0.3421
 6929SOL     OW32422   4.031   2.245   3.189  0.1884  0.6770 -0.6148
 6929SOL    HW132423   3.979   2.217   3.114  0.1364  0.4496 -0.4947
 6929SOL    HW232424   3.972   2.255   3.264  0.5460  3.1022 -0.6658
 6930SOL     OW32425   0.406   2.687  15.407  0.5798 -0.1513 -0.1059
 6930SOL    HW132426   0.385   2.595  15.392  0.7198 -0.1503 -0.3066
 6930SOL    HW232427   0.473   2.701  15.341 -1.3277  4.1705 -1.1473
 6931SOL     OW32428   2.193   4.506  13.994  0.6505 -0.0628  0.2705
 6931SOL    HW132429   2.252   4.497  14.068  0.6283  1.4887  0.4732
 6931SOL    HW232430   2.251   4.516  13.919  2.9300  0.3516  2.0780
 6932SOL     OW32431   1.317   4.446   3.457  0.2748  0.8410 -0.3963
 6932SOL    HW132432   1.390   4.387   3.473 -0.0667  0.4032 -0.4512
 6932SOL    HW232433   1.246   4.402   3.505  0.8543 -0.2704 -0.5705
 6933SOL     OW32434   2.047   0.220  13.782  0.1448 -0.1633  0.6841
 6933SOL    HW132435   2.045   0.134  13.739  0.9285  1.4808 -2.6089
 6933SOL    HW232436   2.128   0.217  13.834  0.1737  0.3576  0.6687
 6934SOL     OW32437   2.133   4.189  12.628  0.1447  0.1508 -0.6040
 6934SOL    HW132438   2.207   4.182  12.688  0.4986  3.6375 -0.6684
 6934SOL    HW232439   2.095   4.103  12.646  0.3823  0.3802  0.9826
 6935SOL     OW32440   3.546   1.816   0.287  0.8645  0.4344  0.0463
 6935SOL    HW132441   3.498   1.733   0.278 -1.3644  1.7094  0.0740
 6935SOL    HW232442   3.478   1.883   0.274  1.4861  0.9465 -0.5432
 6936SOL     OW32443   2.954   1.638   9.974  0.2989 -0.3692 -1.2503
 6936SOL    HW132444   2.901   1.584  10.034  1.6563 -0.0768  0.2115
 6936SOL    HW232445   2.888   1.705   9.958  1.3996  0.0376 -4.1317
 6937SOL     OW32446   1.592   1.453  16.003 -0.3566  0.5185 -0.4484
 6937SOL    HW132447   1.516   1.493  15.961 -0.5100  0.1299 -0.5414
 6937SOL    HW232448   1.614   1.386  15.939 -0.8627  2.9573 -3.1425
 6938SOL     OW32449   0.196   2.902   8.246 -0.6435 -0.1435  0.1130
 6938SOL    HW132450   0.235   2.961   8.181 -1.3767 -1.4830 -1.5468
 6938SOL    HW232451   0.276   2.863   8.282 -0.0583  0.9716  0.0089
 6939SOL     OW32452   1.204   4.130  11.924  0.4381 -0.1620  0.8078
 6939SOL    HW132453   1.127   4.177  11.955 -0.1136  0.3114 -1.2313
 6939SOL    HW232454   1.260   4.207  11.914 -0.9452  0.8001  0.4830
 6940SOL     OW32455   0.830   2.342   7.015  0.1506  0.4988 -0.1953
 6940SOL    HW132456   0.737   2.330   7.035  0.6867 -1.3074  1.2069
 6940SOL    HW232457   0.837   2.303   6.928 -0.7940 -0.2355  0.0577
 6941SOL     OW32458   2.538   0.451   6.639  0.3769 -0.3064  0.0476
 6941SOL    HW132459   2.456   0.498   6.656  0.8724  0.9701 -1.1025
 6941SOL    HW232460   2.504   0.361   6.635  0.4586 -0.3632  0.7261
 6942SOL     OW32461   4.466   2.166   3.657  0.4700 -0.2194 -0.0157
 6942SOL    HW132462   4.433   2.102   3.719  0.2954  1.5223  1.6971
 6942SOL    HW232463   4.561   2.156   3.653  0.5755  1.0318 -0.9409
 6943SOL     OW32464   3.707   4.106  10.873 -0.4650 -0.3296  0.0531
 6943SOL    HW132465   3.755   4.149  10.802 -0.1717 -2.2372 -0.9268
 6943SOL    HW232466   3.717   4.168  10.945  0.2649  2.8158 -2.7703
 6944SOL     OW32467   0.139   0.881   3.455 -0.2137  0.3115 -0.1182
 6944SOL    HW132468   0.211   0.819   3.469 -0.6640 -0.2276 -0.1650
 6944SOL    HW232469   0.190   0.961   3.449 -1.9489  1.6181  2.6979
 6945SOL     OW32470   3.548   2.325   2.745  0.0384  0.1380 -0.2069
 6945SOL    HW132471   3.496   2.251   2.777  0.2016  1.5260  3.3176
 6945SOL    HW232472   3.576   2.345   2.834  2.9049 -1.7088 -0.6830
 6946SOL     OW32473   4.391   4.216   2.585 -0.2826  0.0431 -0.2797
 6946SOL    HW132474   4.390   4.197   2.491  0.9118 -1.0663 -0.0639
 6946SOL    HW232475   4.321   4.282   2.593 -1.3986 -1.3292  1.3110
 6947SOL     OW32476   1.546   0.777   5.520  0.3090  0.1569  0.5276
 6947SOL    HW132477   1.477   0.832   5.484 -0.7808 -1.7695 -0.3334
 6947SOL    HW232478   1.596   0.838   5.574  2.3187 -0.2758 -0.8476
 6948SOL     OW32479   0.013   4.396   6.598  0.3344  0.7399  0.6479
 6948SOL    HW132480   0.021   4.480   6.642  1.3618  0.5378  0.8433
 6948SOL    HW232481   4.695   4.427   6.529  1.0101  1.1902  0.2802
 6949SOL     OW32482   0.754   2.111   4.131 -0.5219  0.3069 -0.4643
 6949SOL    HW132483   0.846   2.111   4.159 -0.7172 -2.1259  0.1969
 6949SOL    HW232484   0.737   2.202   4.107 -0.9421  0.8387  1.8544
 6950SOL     OW32485   2.429   2.383  10.682 -0.6717  0.7340  0.0053
 6950SOL    HW132486   2.515   2.388  10.725 -0.3273 -3.2254 -0.2905
 6950SOL    HW232487   2.456   2.366  10.592 -1.1538  2.8416 -0.5405
 6951SOL     OW32488   4.341   1.480   9.953 -0.2546  0.4908  0.4100
 6951SOL    HW132489   4.325   1.511   9.864 -1.7384  0.8176  0.8045
 6951SOL    HW232490   4.331   1.565   9.997 -0.6715 -0.2971  1.8248
 6952SOL     OW32491   2.345   0.627   7.842  0.0252  0.1236 -0.1663
 6952SOL    HW132492   2.430   0.658   7.810  1.2128 -1.9141  1.0369
 6952SOL    HW232493   2.339   0.678   7.923 -1.5017 -2.8157  1.5477
 6953SOL     OW32494   1.161   3.575  14.287  0.3520 -0.5264 -0.5193
 6953SOL    HW132495   1.086   3.633  14.297  1.7525  0.9625  1.4207
 6953SOL    HW232496   1.214   3.602  14.362  1.6712 -1.8963 -0.9354
 6954SOL     OW32497   0.313   1.590   2.901 -0.2645  0.2415  0.0984
 6954SOL    HW132498   0.400   1.603   2.939  0.3099 -3.5138  0.0422
 6954SOL    HW232499   0.258   1.546   2.966  0.8015  0.7760  1.3518
 6955SOL     OW32500   2.261   4.159  13.821  0.1652 -0.0361 -0.4279
 6955SOL    HW132501   2.334   4.181  13.763 -1.3782  0.9506 -1.9836
 6955SOL    HW232502   2.203   4.221  13.776  1.8542  0.2824 -2.2053
 6956SOL     OW32503   2.399   3.901   7.299 -0.0338 -0.0194  0.2922
 6956SOL    HW132504   2.421   3.809   7.314 -0.1165 -0.3371 -1.5095
 6956SOL    HW232505   2.356   3.888   7.215  0.5024  0.3103 -0.0364
 6957SOL     OW32506   3.716   3.411   3.780 -0.2019 -0.1149  0.1420
 6957SOL    HW132507   3.768   3.331   3.778  1.6186  1.0981 -0.9367
 6957SOL    HW232508   3.771   3.461   3.720 -0.0654  1.3024  1.4405
 6958SOL     OW32509   0.032   0.918   4.839 -0.4526  0.3500  1.1901
 6958SOL    HW132510   0.013   1.001   4.795  0.0049  0.7547  1.7429
 6958SOL    HW232511   0.090   0.952   4.908  1.4739 -0.7905  0.1237
 6959SOL     OW32512   2.515   0.344  16.300 -0.1624 -0.0668 -0.0955
 6959SOL    HW132513   2.599   0.380  16.329 -0.1096  0.0243 -0.3652
 6959SOL    HW232514   2.485   0.409  16.237  0.1105 -1.0657 -1.2494
 6960SOL     OW32515   2.728   0.555  17.239  0.0333  0.7014  0.0320
 6960SOL    HW132516   2.650   0.535  17.290  0.7753 -0.9390  0.5108
 6960SOL    HW232517   2.689   0.633  17.199  0.9525  0.6268 -1.0288
 6961SOL     OW32518   0.381   2.932   2.826 -0.3967 -0.3668  0.1346
 6961SOL    HW132519   0.317   2.934   2.898 -0.5659  2.4227 -0.0892
 6961SOL    HW232520   0.340   2.978   2.753  2.6553  1.2034 -0.5737
 6962SOL     OW32521   3.827   0.576   0.953  0.0706 -0.6319 -1.2456
 6962SOL    HW132522   3.874   0.560   1.035 -0.3999  1.4566 -0.5839
 6962SOL    HW232523   3.775   0.650   0.983  1.7815 -0.1163  0.4566
 6963SOL     OW32524   1.197   1.944   9.994 -0.0380  0.1044  0.7936
 6963SOL    HW132525   1.253   1.973   9.921 -0.3848 -1.0586  0.0708
 6963SOL    HW232526   1.247   1.957  10.074  0.7065 -0.0247  0.3605
 6964SOL     OW32527   3.835   3.756   7.862  1.2035 -0.0380 -0.2383
 6964SOL    HW132528   3.847   3.718   7.775  1.8528 -1.9803  0.6941
 6964SOL    HW232529   3.777   3.829   7.842  0.7903 -0.0220  0.9988
 6965SOL     OW32530   1.040   1.926   9.042  0.0105  0.2107 -0.2218
 6965SOL    HW132531   1.061   1.962   9.128 -0.8693 -3.4510  1.5134
 6965SOL    HW232532   0.976   1.991   9.012  2.8015  2.2374 -1.8204
 6966SOL     OW32533   1.225   4.061   9.272  0.8569 -0.3341 -0.1524
 6966SOL    HW132534   1.156   4.126   9.255 -1.1057 -2.2855  0.4207
 6966SOL    HW232535   1.263   4.090   9.355  0.4200 -1.2451  0.3647
 6967SOL     OW32536   3.615   2.203   7.113 -0.3471 -0.1386 -0.3372
 6967SOL    HW132537   3.615   2.130   7.051 -0.4346  0.3042 -0.8620
 6967SOL    HW232538   3.653   2.275   7.062 -0.3085  0.8287  1.0295
 6968SOL     OW32539   0.579   2.812  16.126  0.1634  0.0169  0.2416
 6968SOL    HW132540   0.572   2.907  16.123  1.2567  0.0586 -1.5236
 6968SOL    HW232541   0.657   2.788  16.176  1.5372 -1.3342 -2.5388
 6969SOL     OW32542   3.538   4.338   0.796 -0.0209 -0.4401 -0.1583
 6969SOL    HW132543   3.449   4.313   0.823 -0.1404  2.1015  1.7846
 6969SOL    HW232544   3.533   4.317   0.703 -1.6189  0.4430 -0.2697
 6970SOL     OW32545   3.698   2.507   4.768 -0.0215  0.6438  0.0540
 6970SOL    HW132546   3.648   2.475   4.693 -0.7344 -0.7797  1.1304
 6970SOL    HW232547   3.640   2.469   4.834 -0.7987  0.4625 -0.7297
 6971SOL     OW32548   0.618   2.000   4.349 -0.3976  0.6300 -0.3275
 6971SOL    HW132549   0.658   2.047   4.277  0.4733  2.8856  1.6356
 6971SOL    HW232550   0.606   1.912   4.314 -1.6091  0.3657  0.7576
 6972SOL     OW32551   0.149   1.454   6.698  0.0124  0.0393  0.1351
 6972SOL    HW132552   0.181   1.500   6.620 -1.9102 -1.6792 -1.6589
 6972SOL    HW232553   0.184   1.366   6.689 -0.0449 -0.0192  0.4736
 6973SOL     OW32554   4.270   0.934   2.591  0.1820 -0.2822 -0.7894
 6973SOL    HW132555   4.273   0.954   2.685 -0.2285 -1.1756 -0.5927
 6973SOL    HW232556   4.285   1.020   2.552 -0.0648  0.3845  0.5649
 6974SOL     OW32557   3.183   0.212  13.834  0.0210 -0.7912  0.0173
 6974SOL    HW132558   3.239   0.168  13.769 -0.0238  0.4099 -0.8402
 6974SOL    HW232559   3.139   0.277  13.780  0.3079  0.2549  1.0497
 6975SOL     OW32560   0.454   3.743   7.948  0.2410  0.9008 -0.2480
 6975SOL    HW132561   0.531   3.716   7.898  1.0087  2.0075  0.3294
 6975SOL    HW232562   0.508   3.770   8.022 -0.7807  1.2418  0.3775
 6976SOL     OW32563   0.702   4.454   0.846  0.2227  0.3510 -0.1726
 6976SOL    HW132564   0.765   4.521   0.820 -0.1836  0.9328  0.3283
 6976SOL    HW232565   0.718   4.440   0.940 -1.3055  1.6587  0.3004
 6977SOL     OW32566   0.313   0.550   7.704  0.2356  0.1137  0.7122
 6977SOL    HW132567   0.328   0.610   7.631  2.4562 -0.7609  0.4553
 6977SOL    HW232568   0.403   0.526   7.726  0.0703 -0.9867  0.1724
 6978SOL     OW32569   0.215   1.822   7.095 -0.4654 -0.1698  0.2722
 6978SOL    HW132570   0.292   1.778   7.132  0.1579 -0.9315 -1.9203
 6978SOL    HW232571   0.183   1.743   7.051 -0.3111 -0.9291  1.5125
 6979SOL     OW32572   2.428   0.412   7.075  0.1443  1.0359 -0.0321
 6979SOL    HW132573   2.340   0.390   7.046  0.9057  0.5343 -1.9610
 6979SOL    HW232574   2.474   0.328   7.081  0.4700  1.4027  2.4939
 6980SOL     OW32575   2.523   0.422   8.642  0.1483  0.5471 -0.3335
 6980SOL    HW132576   2.454   0.442   8.706  0.0054 -1.6788  0.2089
 6980SOL    HW232577   2.579   0.495   8.668  0.9578 -0.2718  0.1975
 6981SOL     OW32578   2.157   4.670  16.943  0.6842 -0.0033  0.3658
 6981SOL    HW132579   2.246   4.706  16.944  0.8458 -0.4120  1.9143
 6981SOL    HW232580   2.140   4.684  17.036  0.9041  1.3889  0.1922
 6982SOL     OW32581   3.255   4.218  16.519  0.5632  0.2919  0.2632
 6982SOL    HW132582   3.160   4.223  16.534  0.4201 -1.7778 -0.0138
 6982SOL    HW232583   3.261   4.245  16.427 -0.4059 -1.8919 -0.4539
 6983SOL     OW32584   1.479   2.817   2.500 -0.8477  0.0478  0.2482
 6983SOL    HW132585   1.399   2.794   2.452 -0.7175 -1.2887  0.6867
 6983SOL    HW232586   1.518   2.870   2.430  1.0908 -0.7467  0.7467
 6984SOL     OW32587   4.473   3.785   4.765 -0.0138 -0.0046  0.2983
 6984SOL    HW132588   4.456   3.871   4.726 -2.3678  0.3237  2.0620
 6984SOL    HW232589   4.507   3.824   4.846  2.0341  3.9225 -2.4316
 6985SOL     OW32590   4.053   1.997  14.438 -0.8722  0.1605 -0.1218
 6985SOL    HW132591   4.057   1.905  14.411 -0.3414 -0.8155  3.3781
 6985SOL    HW232592   4.007   1.986  14.521 -0.5856 -1.0746 -0.1265
 6986SOL     OW32593   2.330   0.454  12.830  0.5476  0.4085 -0.1850
 6986SOL    HW132594   2.383   0.439  12.908 -0.6712  0.0446  0.5797
 6986SOL    HW232595   2.351   0.380  12.774  2.4441 -0.0910  1.1658
 6987SOL     OW32596   2.253   3.601   4.878 -0.4236  1.5073  0.1062
 6987SOL    HW132597   2.249   3.587   4.784 -0.4179 -1.7249  0.5986
 6987SOL    HW232598   2.166   3.581   4.913 -0.3392  1.3086  0.2008
 6988SOL     OW32599   3.070   3.627   4.931  0.5060 -0.1518  0.4593
 6988SOL    HW132600   2.982   3.661   4.951  0.3415  0.4911 -1.4112
 6988SOL    HW232601   3.053   3.550   4.876  1.7707  1.2531 -1.8924
 6989SOL     OW32602   2.191   0.159   9.071 -0.3412  0.0080  0.3423
 6989SOL    HW132603   2.166   0.240   9.025  0.4605  0.8934  1.4579
 6989SOL    HW232604   2.195   0.103   8.994 -1.3299 -0.2218  0.4558
 6990SOL     OW32605   3.307   3.245   8.632 -0.2031 -0.1973  0.1060
 6990SOL    HW132606   3.366   3.291   8.690  1.9976 -2.6372 -0.1781
 6990SOL    HW232607   3.251   3.312   8.592 -0.2460 -0.3022 -0.0127
 6991SOL     OW32608   2.061   3.348  15.573  0.5347  0.0058 -0.3010
 6991SOL    HW132609   1.987   3.287  15.570 -1.2236  1.9761  2.1093
 6991SOL    HW232610   2.061   3.392  15.489  0.3021 -1.4100 -1.0383
 6992SOL     OW32611   3.706   0.438   7.250  0.2517  0.2764 -0.0408
 6992SOL    HW132612   3.710   0.512   7.188  0.5118 -0.8352 -1.3408
 6992SOL    HW232613   3.618   0.446   7.285 -0.0461 -1.4724 -0.4175
 6993SOL     OW32614   2.995   0.460  17.597 -0.7729 -0.0037  0.3549
 6993SOL    HW132615   2.970   0.422  17.513  1.6868 -1.3234  0.2304
 6993SOL    HW232616   3.079   0.499  17.574 -1.8384  2.6785  1.0570
 6994SOL     OW32617   2.286   0.571   3.771  0.4284  0.0025  0.1808
 6994SOL    HW132618   2.355   0.506   3.773 -1.8611 -2.5326 -2.6661
 6994SOL    HW232619   2.280   0.597   3.863 -0.8340 -0.2159  0.1681
 6995SOL     OW32620   0.582   4.097   0.396  0.2186  0.9709  0.1278
 6995SOL    HW132621   0.516   4.145   0.347 -0.9925  1.1692  1.9550
 6995SOL    HW232622   0.611   4.051   0.317 -0.3360  0.1170  0.4207
 6996SOL     OW32623   2.676   0.162   4.087 -0.5041  0.2414  0.2714
 6996SOL    HW132624   2.764   0.173   4.051 -0.3083 -1.0430  0.3581
 6996SOL    HW232625   2.648   0.084   4.038  0.6623 -0.3720  0.5869
 6997SOL     OW32626   2.416   1.836   6.971 -0.1453  0.1433 -0.0459
 6997SOL    HW132627   2.345   1.779   6.941  1.4027 -2.1391  0.6789
 6997SOL    HW232628   2.492   1.779   6.974 -0.0551  0.4454  3.4117
 6998SOL     OW32629   2.743   1.878  17.463  0.2546 -0.5186 -0.0891
 6998SOL    HW132630   2.710   1.794  17.495  0.6178 -0.4239  0.5518
 6998SOL    HW232631   2.668   1.914  17.416  0.9619  0.7084 -0.2716
 6999SOL     OW32632   3.695   4.334   8.784  0.3616  0.3801  0.0833
 6999SOL    HW132633   3.676   4.395   8.855  2.6445 -0.2487  1.2130
 6999SOL    HW232634   3.650   4.257   8.818  0.0236  0.3673 -0.3898
 7000SOL     OW32635   4.646   1.941   7.788  0.2657 -0.4384  0.0038
 7000SOL    HW132636   4.704   2.002   7.833  1.8143 -0.4040 -2.0568
 7000SOL    HW232637   4.608   1.900   7.866 -1.8226  2.0774  0.2958
 7001SOL     OW32638   1.693   4.635   4.700  0.5442 -0.4616 -0.3294
 7001SOL    HW132639   1.623   4.695   4.724 -1.2248 -2.8339  0.4405
 7001SOL    HW232640   1.661   4.582   4.627  1.9684 -0.1509 -1.1901
 7002SOL     OW32641   2.435   0.717  11.592  0.2745 -0.3200 -0.1772
 7002SOL    HW132642   2.495   0.645  11.613 -0.2977 -0.8310 -0.3037
 7002SOL    HW232643   2.458   0.738  11.502 -1.4652  2.9567  0.1407
 7003SOL     OW32644   2.322   1.448   0.523 -0.3930 -0.0911 -0.1342
 7003SOL    HW132645   2.385   1.382   0.551 -0.1206 -0.4828 -1.6823
 7003SOL    HW232646   2.347   1.519   0.583  0.3660 -1.9539  1.7488
 7004SOL     OW32647   4.283   1.379   6.942  0.1797  0.0319 -0.0500
 7004SOL    HW132648   4.248   1.445   6.883 -1.2857  0.9883  1.8832
 7004SOL    HW232649   4.253   1.294   6.909  0.5362 -0.5684  1.1530
 7005SOL     OW32650   0.687   3.094   2.948 -0.1743  0.0953  0.0754
 7005SOL    HW132651   0.615   3.130   2.999  0.2072  0.5139  0.3219
 7005SOL    HW232652   0.656   3.010   2.916 -1.4843  0.0089  1.5863
 7006SOL     OW32653   0.522   4.419   8.041 -0.4629 -0.2277  0.9147
 7006SOL    HW132654   0.445   4.387   7.995  0.2056 -0.8439  0.2143
 7006SOL    HW232655   0.571   4.338   8.055 -0.1326 -0.1890 -0.0157
 7007SOL     OW32656   2.880   1.397   3.000 -0.1421  0.4019 -0.3011
 7007SOL    HW132657   2.815   1.327   2.999  0.3631 -0.0254 -3.1124
 7007SOL    HW232658   2.943   1.361   3.063 -1.9002  2.0725  2.4552
 7008SOL     OW32659   2.453   1.201  17.408 -0.0572 -0.3145 -0.6952
 7008SOL    HW132660   2.498   1.197  17.324 -0.3893 -0.9775 -0.8435
 7008SOL    HW232661   2.407   1.117  17.399 -1.6502  0.2271  2.5741
 7009SOL     OW32662   1.200   1.391   6.892  0.3927  0.0534 -0.0837
 7009SOL    HW132663   1.166   1.361   6.807 -0.6844 -2.2209  1.1606
 7009SOL    HW232664   1.188   1.310   6.941  1.4807 -0.5960 -0.8582
 7010SOL     OW32665   0.428   0.821   7.991  0.1886 -0.0635 -0.3103
 7010SOL    HW132666   0.363   0.760   7.955 -0.5419  0.7346 -0.3241
 7010SOL    HW232667   0.374   0.857   8.061  0.4366 -3.4338  1.6286
 7011SOL     OW32668   3.481   0.838   6.438 -0.0186  0.5670  0.2437
 7011SOL    HW132669   3.450   0.776   6.372 -0.4750  0.0457  0.9422
 7011SOL    HW232670   3.569   0.841   6.401 -0.7742  1.2633 -1.4780
 7012SOL     OW32671   4.297   1.105   8.843 -0.2801  0.7259  0.1881
 7012SOL    HW132672   4.389   1.087   8.864 -0.4782  0.8750  1.1966
 7012SOL    HW232673   4.247   1.055   8.907  0.9636 -1.0685 -0.2538
 7013SOL     OW32674   1.769   3.638   2.358  0.0944  0.0442  0.2886
 7013SOL    HW132675   1.721   3.569   2.311 -0.4847 -1.5444  3.2025
 7013SOL    HW232676   1.796   3.599   2.441  2.3107  1.2236  0.1112
 7014SOL     OW32677   4.194   3.870   3.788 -0.3245  0.2981 -0.1034
 7014SOL    HW132678   4.249   3.815   3.732  0.9012 -2.7523  4.1090
 7014SOL    HW232679   4.257   3.878   3.859 -2.2539  0.6724  1.5663
 7015SOL     OW32680   1.121   4.276   5.348 -0.1223 -0.0672 -0.3152
 7015SOL    HW132681   1.139   4.232   5.431 -0.8485  0.2910  0.0317
 7015SOL    HW232682   1.185   4.347   5.348 -0.8608  0.5961 -0.8751
 7016SOL     OW32683   3.899   4.364  14.185  0.6906 -0.2032 -0.2634
 7016SOL    HW132684   3.809   4.332  14.181  0.0058  2.0301 -2.6505
 7016SOL    HW232685   3.944   4.291  14.227  2.2912  0.6351 -0.5394
 7017SOL     OW32686   4.471   1.900   9.390  0.4743 -0.1149  0.0383
 7017SOL    HW132687   4.442   1.941   9.472  1.3202 -0.7168  0.6416
 7017SOL    HW232688   4.394   1.872   9.341  0.6284  1.5143 -1.1248
 7018SOL     OW32689   1.694   4.005   4.579  0.1820  0.0283 -0.0749
 7018SOL    HW132690   1.750   3.954   4.638 -0.0058  0.5193  0.5220
 7018SOL    HW232691   1.608   3.992   4.618  0.8768  0.0027  1.4756
 7019SOL     OW32692   4.079   4.372  14.561 -0.7630  0.0128 -0.1764
 7019SOL    HW132693   4.000   4.425  14.550 -1.0218 -0.3437 -0.0177
 7019SOL    HW232694   4.091   4.397  14.652 -0.9487  1.9250 -0.6626
 7020SOL     OW32695   4.053   2.604  15.946  0.2325 -0.2851 -0.4087
 7020SOL    HW132696   4.143   2.629  15.966 -0.5619  1.1310  1.4034
 7020SOL    HW232697   4.009   2.688  15.958  1.6718  0.6148 -1.5130
 7021SOL     OW32698   2.824   0.108   8.336 -0.0132 -0.0765  0.3167
 7021SOL    HW132699   2.905   0.139   8.294 -0.9761  1.6160 -0.2616
 7021SOL    HW232700   2.752   0.151   8.290  0.4737  0.4684  0.0569
 7022SOL     OW32701   3.446   1.535  14.874  0.6667 -0.6140 -0.5649
 7022SOL    HW132702   3.388   1.482  14.819 -0.0942  0.1769 -0.5203
 7022SOL    HW232703   3.521   1.551  14.816 -0.7968  1.9013 -1.7847
 7023SOL     OW32704   4.569   2.375  12.257 -0.1401  0.3059 -0.3856
 7023SOL    HW132705   4.630   2.439  12.222  0.9821  0.1945  1.3956
 7023SOL    HW232706   4.492   2.403  12.208 -1.9832 -1.1799  1.6419
 7024SOL     OW32707   1.062   0.971   4.606  0.0724  0.2338 -0.3548
 7024SOL    HW132708   1.084   1.062   4.585 -3.3386  1.0590 -0.3251
 7024SOL    HW232709   1.059   0.987   4.701 -3.8232  1.2479 -0.6599
 7025SOL     OW32710   4.060   3.758   9.573  0.1446 -1.2137 -0.7507
 7025SOL    HW132711   4.118   3.780   9.500 -0.6739  1.6606 -0.5280
 7025SOL    HW232712   3.981   3.809   9.556  0.0390 -0.1956  2.7286
 7026SOL     OW32713   1.676   4.454   9.909 -0.4765  0.4198  0.8375
 7026SOL    HW132714   1.724   4.376   9.939  0.9368  1.1877  0.5649
 7026SOL    HW232715   1.611   4.463   9.978 -1.7418 -0.0834 -0.2792
 7027SOL     OW32716   1.421   1.261  14.431  0.2997 -0.0391  0.1967
 7027SOL    HW132717   1.417   1.172  14.465 -3.2831 -0.3519 -1.0233
 7027SOL    HW232718   1.494   1.299  14.480 -0.2609  0.4273  0.6660
 7028SOL     OW32719   1.602   1.215   1.964  0.4069  0.6321  0.3683
 7028SOL    HW132720   1.651   1.190   2.043  0.5063  0.6769  0.3204
 7028SOL    HW232721   1.629   1.307   1.963 -2.2796  1.4045 -1.0284
 7029SOL     OW32722   1.120   3.859   4.055 -0.5931  0.3106  0.4741
 7029SOL    HW132723   1.129   3.953   4.038 -0.0025 -0.3962 -3.0960
 7029SOL    HW232724   1.089   3.830   3.969 -1.6519  1.3625  0.5022
 7030SOL     OW32725   4.702   2.778  11.965 -0.0336 -0.0158 -0.1493
 7030SOL    HW132726   4.698   2.696  11.915 -0.2463  0.0247 -0.1995
 7030SOL    HW232727   4.611   2.775  11.995  0.1634  0.4478  0.4835
 7031SOL     OW32728   4.142   0.884  10.041 -0.0715 -0.2357  0.1304
 7031SOL    HW132729   4.232   0.914  10.048 -0.9126  2.5589 -0.8357
 7031SOL    HW232730   4.101   0.969  10.060  1.0398  0.3550 -0.1013
 7032SOL     OW32731   3.947   2.038   7.070  0.3190  0.0294 -0.2797
 7032SOL    HW132732   4.001   2.014   6.995  1.0829  1.2926 -0.1309
 7032SOL    HW232733   3.989   2.118   7.101 -0.6427  0.1651  0.6857
 7033SOL     OW32734   4.604   0.970   4.186 -0.0843  0.6434 -0.5865
 7033SOL    HW132735   4.591   1.023   4.265 -2.4444 -0.1512 -0.4274
 7033SOL    HW232736   4.549   1.011   4.121 -0.3226 -0.2987 -0.9819
 7034SOL     OW32737   4.737   2.698   8.577 -0.5041 -0.3782 -0.4836
 7034SOL    HW132738   0.087   2.725   8.563 -0.4711 -1.5712 -2.5716
 7034SOL    HW232739   0.001   2.604   8.596  1.8322  0.0403  0.9695
 7035SOL     OW32740   2.328   0.008   2.771  0.4316  0.7532  0.3228
 7035SOL    HW132741   2.293   0.072   2.833  0.6267  1.1233  0.0487
 7035SOL    HW232742   2.404   4.716   2.820  1.2363  1.0849 -0.6943
 7036SOL     OW32743   3.694   0.431   2.689  0.0161  0.4392  0.0470
 7036SOL    HW132744   3.664   0.346   2.722 -0.0048  0.6164  0.4819
 7036SOL    HW232745   3.789   0.423   2.688  0.0099  0.3322  2.0254
 7037SOL     OW32746   4.027   1.248   2.470  0.0075  0.0368  0.0404
 7037SOL    HW132747   3.962   1.295   2.418 -2.0348 -1.1224  1.5156
 7037SOL    HW232748   4.108   1.274   2.428 -1.2758  0.0163 -2.4294
 7038SOL     OW32749   0.859   2.717   6.515 -0.3526  0.1007 -0.0685
 7038SOL    HW132750   0.866   2.796   6.462 -0.8793 -0.5035 -1.0421
 7038SOL    HW232751   0.776   2.732   6.561 -0.2202 -1.3213  0.6475
 7039SOL     OW32752   3.296   3.855   8.183 -0.1435  0.0879 -0.3623
 7039SOL    HW132753   3.266   3.771   8.149  1.2083  0.3193 -2.1277
 7039SOL    HW232754   3.316   3.831   8.273 -0.8530 -0.0835 -0.2519
 7040SOL     OW32755   2.149   4.323   2.753  0.5249  0.0920 -0.5076
 7040SOL    HW132756   2.200   4.273   2.689 -0.3818  0.6203 -1.6493
 7040SOL    HW232757   2.064   4.286   2.732  0.1883  0.6420 -0.1115
 7041SOL     OW32758   2.947   4.679   2.364 -0.5814 -0.0352 -0.1606
 7041SOL    HW132759   3.040   4.704   2.367 -0.7354  0.5028  0.1244
 7041SOL    HW232760   2.927   4.647   2.453 -2.9730 -0.7798 -0.9795
 7042SOL     OW32761   4.358   1.286  13.373 -0.1228 -0.0214 -0.0065
 7042SOL    HW132762   4.389   1.220  13.434 -0.7674  0.6115  1.0124
 7042SOL    HW232763   4.263   1.275  13.377 -0.0687 -0.1062  1.0390
 7043SOL     OW32764   1.985   3.547   2.969 -0.4809 -0.0976 -0.3157
 7043SOL    HW132765   2.040   3.483   3.016 -1.8705 -0.2812  1.0646
 7043SOL    HW232766   2.048   3.599   2.919  0.9520 -0.5022  1.0362
 7044SOL     OW32767   4.672   4.249   2.916  0.5417 -0.4357 -0.0495
 7044SOL    HW132768   4.672   4.345   2.927 -0.3449 -0.3307 -0.8924
 7044SOL    HW232769   4.643   4.225   3.004 -0.4150  1.3791  0.1347
 7045SOL     OW32770   3.652   4.705   4.290 -0.3412 -0.1422  0.5636
 7045SOL    HW132771   3.631   4.636   4.228  1.4200  2.6034 -3.0589
 7045SOL    HW232772   3.746   4.700   4.304 -0.4923 -0.5966  1.4120
 7046SOL     OW32773   1.827   1.266   2.433 -0.2095  0.3376  0.0488
 7046SOL    HW132774   1.799   1.289   2.345 -1.1308 -3.9801 -0.7579
 7046SOL    HW232775   1.915   1.304   2.431 -0.8037  1.5562 -2.5557
 7047SOL     OW32776   1.351   1.621   2.882 -0.0269 -0.0035  0.7146
 7047SOL    HW132777   1.442   1.630   2.854  0.1609  0.2548  1.4132
 7047SOL    HW232778   1.299   1.610   2.802  0.3981  1.0216  0.3050
 7048SOL     OW32779   0.226   1.096   4.009  0.0782 -0.1025  0.3909
 7048SOL    HW132780   0.204   1.190   4.005  0.9715  0.0856 -0.1885
 7048SOL    HW232781   0.317   1.105   4.038  0.6325  0.5073 -1.5310
 7049SOL     OW32782   3.182   4.698   4.830 -0.0432  0.3382  0.5121
 7049SOL    HW132783   3.256   4.687   4.770 -0.5758 -1.9892  0.2973
 7049SOL    HW232784   3.186   4.619   4.883 -1.5082 -0.2476 -0.2572
 7050SOL     OW32785   3.293   3.736   7.369 -0.6955  0.2160  0.4669
 7050SOL    HW132786   3.369   3.777   7.411  0.8479 -1.1404 -1.0225
 7050SOL    HW232787   3.319   3.742   7.277 -2.1632 -1.2144 -0.0444
 7051SOL     OW32788   3.067   1.658   7.670  0.2812 -0.0147 -0.0193
 7051SOL    HW132789   2.973   1.673   7.659  0.2749  0.9931  1.3723
 7051SOL    HW232790   3.094   1.572   7.640 -0.2192 -0.8699  2.0300
 7052SOL     OW32791   4.711   2.876  16.625  0.0633 -0.1142  0.4276
 7052SOL    HW132792   4.632   2.842  16.585 -0.0596  0.2045  0.4020
 7052SOL    HW232793   4.712   2.968  16.597 -0.2194  0.3651  1.9790
 7053SOL     OW32794   3.700   2.520   6.097  0.4491  0.0229 -0.3794
 7053SOL    HW132795   3.711   2.592   6.034  0.5439 -0.7018 -1.1933
 7053SOL    HW232796   3.673   2.452   6.035  0.5849  0.1060 -0.5315
 7054SOL     OW32797   2.623   3.845   0.851  0.5768 -0.8958  0.0343
 7054SOL    HW132798   2.591   3.908   0.916 -1.3790 -2.0445  0.2081
 7054SOL    HW232799   2.696   3.820   0.908  0.8904  1.4970  0.6700
 7055SOL     OW32800   2.824   1.516   8.682 -0.7566  0.3514  0.1387
 7055SOL    HW132801   2.850   1.496   8.772  0.6892 -1.0821 -0.6099
 7055SOL    HW232802   2.886   1.466   8.629 -1.0017 -3.3138  3.3413
 7056SOL     OW32803   2.126   0.165   1.492  0.1970 -0.5611 -0.3673
 7056SOL    HW132804   2.110   0.139   1.583  2.3005  1.8979  0.7009
 7056SOL    HW232805   2.221   0.157   1.502  0.2693  0.6792  0.0020
 7057SOL     OW32806   2.779   2.073   2.771 -0.4855  0.0000  0.0318
 7057SOL    HW132807   2.713   2.042   2.709 -1.7878 -1.0044  1.9203
 7057SOL    HW232808   2.761   2.010   2.841 -1.5488 -0.0466 -0.2840
 7058SOL     OW32809   2.440   4.420   6.252  0.2869  0.2672 -0.2394
 7058SOL    HW132810   2.486   4.355   6.305 -2.0541 -0.1717  1.2341
 7058SOL    HW232811   2.500   4.430   6.178 -1.4078 -0.0086 -1.6484
 7059SOL     OW32812   4.298   1.744   2.152 -0.2295 -0.1148  0.1417
 7059SOL    HW132813   4.265   1.758   2.241  2.2448 -1.9822  1.3288
 7059SOL    HW232814   4.236   1.680   2.117  0.4343  0.5803 -2.2953
 7060SOL     OW32815   0.763   0.671   1.556  0.2689 -0.0935 -0.3708
 7060SOL    HW132816   0.792   0.647   1.468  0.5500 -0.4084 -0.1957
 7060SOL    HW232817   0.836   0.730   1.576  1.3381 -1.6075  0.2307
 7061SOL     OW32818   0.820   4.225  12.309 -0.3487  0.0000  0.3947
 7061SOL    HW132819   0.766   4.190  12.379 -3.4927  0.2091 -1.9127
 7061SOL    HW232820   0.819   4.153  12.245  2.2469  0.8654 -0.6256
 7062SOL     OW32821   1.466   4.388   4.230 -0.5471 -0.5784 -0.1680
 7062SOL    HW132822   1.390   4.443   4.210 -1.2664 -1.7203 -0.5405
 7062SOL    HW232823   1.528   4.422   4.165  1.1804  3.0976  3.3583
 7063SOL     OW32824   2.399   1.636   5.961  0.3278 -0.2853 -0.1539
 7063SOL    HW132825   2.413   1.549   5.924 -0.6705 -0.4667 -0.1095
 7063SOL    HW232826   2.314   1.671   5.934  0.0752 -1.1531 -0.4674
 7064SOL     OW32827   0.180   2.585   3.417  0.0365 -0.4427  0.5747
 7064SOL    HW132828   0.219   2.654   3.471 -0.5667  1.1729 -1.0638
 7064SOL    HW232829   0.253   2.530   3.389 -0.6500 -0.3203 -1.4194
 7065SOL     OW32830   3.227   4.518   1.891 -0.4838  0.2772 -0.2653
 7065SOL    HW132831   3.214   4.476   1.976  1.1964  1.1555  0.4206
 7065SOL    HW232832   3.142   4.560   1.883 -1.5252 -1.6137  1.0643
 7066SOL     OW32833   0.973   3.296   1.026  0.3490  0.3148  0.7599
 7066SOL    HW132834   1.054   3.335   0.996  0.1653  0.5686  0.5965
 7066SOL    HW232835   0.912   3.366   1.003  1.4892  1.2149  0.5310
 7067SOL     OW32836   0.628   1.456   4.913  0.2402  0.8365 -0.2042
 7067SOL    HW132837   0.559   1.439   4.849 -0.6243  1.2406  0.6299
 7067SOL    HW232838   0.639   1.550   4.902 -1.1539  1.0045 -0.1261
 7068SOL     OW32839   2.308   3.689  14.982  0.2462  0.4973  0.2765
 7068SOL    HW132840   2.374   3.633  14.942 -0.2643 -0.4926  0.8290
 7068SOL    HW232841   2.327   3.772  14.938 -0.9713  0.5568 -0.1439
 7069SOL     OW32842   1.079   1.306   8.357  0.6104 -0.3956 -0.0393
 7069SOL    HW132843   1.092   1.391   8.314  0.3704 -0.9100 -1.1340
 7069SOL    HW232844   1.030   1.335   8.434  0.7061  2.6246 -1.0976
 7070SOL     OW32845   4.723   0.392   3.201  0.3826 -0.4925  0.1886
 7070SOL    HW132846   4.701   0.337   3.276  0.5210 -1.3763 -0.4090
 7070SOL    HW232847   4.670   0.467   3.227  0.6677  1.2766 -4.2940
 7071SOL     OW32848   3.455   2.899   3.576  0.4599  0.1914  0.3987
 7071SOL    HW132849   3.396   2.887   3.651 -2.9240  1.3823 -2.0458
 7071SOL    HW232850   3.396   2.879   3.503  2.1863  2.4093 -1.6053
 7072SOL     OW32851   3.212   2.927  15.978 -0.1176 -0.2383  0.0714
 7072SOL    HW132852   3.232   2.873  15.902  2.5522  1.0779 -0.1722
 7072SOL    HW232853   3.282   2.993  15.978 -1.7355  1.4509 -3.7086
 7073SOL     OW32854   0.227   4.216   6.522  0.1722  0.3332 -0.1526
 7073SOL    HW132855   0.166   4.281   6.557 -0.1587  0.3542 -0.7665
 7073SOL    HW232856   0.175   4.181   6.449  1.0692 -1.4664  0.0721
 7074SOL     OW32857   4.632   0.393  14.719 -0.1487 -0.1780  0.2554
 7074SOL    HW132858   4.710   0.442  14.743  1.2581 -1.5065 -1.6790
 7074SOL    HW232859   4.646   0.302  14.747  0.9663  0.3184  1.2694
 7075SOL     OW32860   0.517   3.357  10.389 -0.4445 -0.0810  0.4148
 7075SOL    HW132861   0.593   3.305  10.415  0.6405  1.2151 -0.1820
 7075SOL    HW232862   0.454   3.299  10.346  0.5772 -0.6271 -0.3345
 7076SOL     OW32863   0.642   1.582  12.767 -0.1486  0.4138  0.2899
 7076SOL    HW132864   0.724   1.595  12.719 -0.8585  1.8623 -0.5323
 7076SOL    HW232865   0.582   1.635  12.714  1.0937  1.7747  0.2339
 7077SOL     OW32866   1.396   3.861   3.847 -0.0335 -0.1961 -0.1543
 7077SOL    HW132867   1.356   3.774   3.838 -1.7242  0.5318  0.4162
 7077SOL    HW232868   1.325   3.909   3.806  1.0874 -0.0821 -1.9517
 7078SOL     OW32869   2.637   4.576   9.140  0.1412  0.8104 -0.1580
 7078SOL    HW132870   2.577   4.566   9.067 -1.1235  1.6105  0.7658
 7078SOL    HW232871   2.661   4.668   9.129  1.0578  0.5018 -0.6964
 7079SOL     OW32872   1.770   3.402   8.652 -0.0724  0.4069  0.7456
 7079SOL    HW132873   1.861   3.426   8.636  0.2128 -0.2437  1.4148
 7079SOL    HW232874   1.755   3.406   8.746 -0.8207 -1.7913  0.7321
 7080SOL     OW32875   4.602   4.028  13.805  0.6959  0.1920  0.1042
 7080SOL    HW132876   4.657   3.985  13.870 -0.4734 -0.7443  0.4805
 7080SOL    HW232877   4.608   3.974  13.726 -1.3580 -0.5053  0.4235
 7081SOL     OW32878   0.937   4.305   9.457  0.6094  0.0072  0.0943
 7081SOL    HW132879   0.932   4.398   9.438 -2.7876 -0.3906 -0.9796
 7081SOL    HW232880   0.863   4.293   9.517 -0.0806 -3.2226 -1.3788
 7082SOL     OW32881   0.897   3.874  16.845 -0.9141 -0.1047  0.0377
 7082SOL    HW132882   0.975   3.824  16.823 -0.7990  0.1983 -0.2355
 7082SOL    HW232883   0.883   3.839  16.933 -3.6410 -0.8562 -0.6728
 7083SOL     OW32884   3.199   3.373   1.344 -0.3468 -0.0235  0.7016
 7083SOL    HW132885   3.141   3.330   1.407 -1.7706  0.7051 -0.1156
 7083SOL    HW232886   3.264   3.307   1.320 -1.0673 -0.8497  0.9947
 7084SOL     OW32887   2.402   0.658   9.547  0.0449  0.1952 -0.0816
 7084SOL    HW132888   2.393   0.735   9.604 -1.1021  0.0714 -0.0814
 7084SOL    HW232889   2.332   0.672   9.483 -0.3821 -1.5065  0.0061
 7085SOL     OW32890   0.736   1.720   1.792  0.6071  0.4498  0.4301
 7085SOL    HW132891   0.743   1.804   1.747  0.1796  0.0933 -0.3223
 7085SOL    HW232892   0.805   1.672   1.745 -1.8426 -2.2611 -0.4531
 7086SOL     OW32893   1.325   4.354   8.256  0.0715 -0.2617 -0.3026
 7086SOL    HW132894   1.267   4.415   8.301 -0.3964 -2.0265  1.5003
 7086SOL    HW232895   1.387   4.419   8.223 -0.6369  0.4866 -0.1554
 7087SOL     OW32896   2.872   4.026  15.045 -0.2674 -0.2038 -0.2277
 7087SOL    HW132897   2.892   4.016  15.139  0.2176 -2.4609 -0.5710
 7087SOL    HW232898   2.789   3.977  15.037  0.4749 -1.4389 -0.3877
 7088SOL     OW32899   1.988   3.562   8.496  0.1883 -0.3887  0.0475
 7088SOL    HW132900   1.996   3.630   8.430 -0.0967  0.0554  0.4678
 7088SOL    HW232901   1.949   3.610   8.569  0.9410  0.2429  0.0410
 7089SOL     OW32902   2.872   0.457  13.290  0.3021  0.1585  0.1311
 7089SOL    HW132903   2.838   0.400  13.359 -0.0257 -0.7990 -0.8278
 7089SOL    HW232904   2.923   0.515  13.347 -2.3934  0.2433  2.4724
 7090SOL     OW32905   3.173   3.749   9.400  0.1936 -0.0953 -1.0723
 7090SOL    HW132906   3.098   3.769   9.455  1.5485  0.5519  0.5515
 7090SOL    HW232907   3.156   3.807   9.326 -1.0981  0.7406 -0.1336
 7091SOL     OW32908   1.997   0.154   3.864  0.0448 -0.4559 -0.2165
 7091SOL    HW132909   1.979   0.126   3.954 -1.6088  0.4436 -0.2581
 7091SOL    HW232910   2.068   0.097   3.836 -0.0282 -0.3278 -0.6686
 7092SOL     OW32911   0.915   2.547  14.302  0.2692  0.4480  0.3287
 7092SOL    HW132912   0.837   2.602  14.295  1.1237  1.6515  0.1952
 7092SOL    HW232913   0.982   2.615  14.303  1.8367 -1.1309  1.6970
 7093SOL     OW32914   0.614   3.287  14.636 -0.2060  0.1363 -0.3487
 7093SOL    HW132915   0.575   3.206  14.604  0.6131 -0.4714  0.1842
 7093SOL    HW232916   0.536   3.341  14.628  0.9094  2.1653  2.3879
 7094SOL     OW32917   0.642   3.355  17.129 -0.0028 -0.3049 -0.4193
 7094SOL    HW132918   0.669   3.290  17.064 -1.2627 -0.3060 -0.9458
 7094SOL    HW232919   0.670   3.439  17.092 -0.0483  0.0064  0.2534
 7095SOL     OW32920   1.056   4.473  15.521 -0.2507 -0.0280 -0.1901
 7095SOL    HW132921   1.151   4.461  15.514 -0.4501 -2.9089  2.0883
 7095SOL    HW232922   1.010   4.393  15.500 -0.0883 -0.1460 -0.0987
 7096SOL     OW32923   2.591   1.552   8.228  0.5334  0.2825  0.4918
 7096SOL    HW132924   2.560   1.560   8.137  2.6590 -2.5974 -0.4837
 7096SOL    HW232925   2.672   1.505   8.208  0.3639 -0.3308  1.2732
 7097SOL     OW32926   2.365   1.244   9.147 -0.5939 -0.7726  0.2324
 7097SOL    HW132927   2.339   1.334   9.168 -2.0506 -1.1508  0.0401
 7097SOL    HW232928   2.452   1.264   9.111 -1.4577  1.3483 -0.6391
 7098SOL     OW32929   2.950   1.605   3.424 -0.1090  0.0365 -0.1604
 7098SOL    HW132930   2.900   1.552   3.486  0.6466  1.3613  1.5709
 7098SOL    HW232931   3.031   1.555   3.431 -0.2975 -0.0513  1.3498
 7099SOL     OW32932   4.165   0.635   9.961 -0.1930  0.1186  0.1630
 7099SOL    HW132933   4.165   0.722  10.000 -1.4600 -0.1772  0.7950
 7099SOL    HW232934   4.251   0.627   9.920 -1.3901 -2.5550 -1.8041
 7100SOL     OW32935   3.741   0.800   8.457  0.0069  0.1598  0.0560
 7100SOL    HW132936   3.703   0.726   8.505  0.9025 -0.5616 -0.3423
 7100SOL    HW232937   3.834   0.795   8.478  0.0472  3.9293  0.6983
 7101SOL     OW32938   3.346   1.595  13.976  0.1232 -0.3015  0.5097
 7101SOL    HW132939   3.421   1.652  13.957  0.4163 -1.1387 -0.8400
 7101SOL    HW232940   3.278   1.650  14.017  0.1851  0.1899 -0.0487
 7102SOL     OW32941   1.463   0.372   9.426  0.6222 -0.1201 -0.4368
 7102SOL    HW132942   1.430   0.366   9.336  1.1421  1.7758 -0.7516
 7102SOL    HW232943   1.558   0.374   9.415  0.4935  0.1074 -1.5681
 7103SOL     OW32944   2.300   3.252   4.235 -0.1449 -0.8069 -0.2999
 7103SOL    HW132945   2.241   3.182   4.210 -2.3694  0.1063  2.4522
 7103SOL    HW232946   2.329   3.284   4.149  0.9665 -0.9842  0.0060
 7104SOL     OW32947   4.217   4.709   4.643 -0.5831  0.4073  0.4045
 7104SOL    HW132948   4.293   4.736   4.592 -0.3056 -1.8695 -0.3930
 7104SOL    HW232949   4.179   0.055   4.656 -0.0447  0.4702  1.6296
 7105SOL     OW32950   2.328   4.041   2.864 -0.3216 -0.0628  0.2814
 7105SOL    HW132951   2.324   4.033   2.769  0.6840  1.3317  0.1121
 7105SOL    HW232952   2.259   3.979   2.886 -1.0553  0.5940 -0.1832
 7106SOL     OW32953   0.462   2.643   8.751  0.4722  0.3131 -0.3800
 7106SOL    HW132954   0.555   2.623   8.742  0.4433  0.6381 -1.3571
 7106SOL    HW232955   0.468   2.644   8.847 -0.2637 -1.1530 -0.3166
 7107SOL     OW32956   0.479   1.929   2.494 -0.2411 -0.2942 -0.3159
 7107SOL    HW132957   0.431   2.004   2.459 -0.1263  0.9090  2.0587
 7107SOL    HW232958   0.555   1.912   2.439  0.0019 -1.5117  0.4098
 7108SOL     OW32959   0.651   2.825   6.680 -0.6937 -0.4744 -0.1535
 7108SOL    HW132960   0.594   2.829   6.604 -0.4444  2.3686 -0.1863
 7108SOL    HW232961   0.610   2.767   6.745 -0.6692 -1.3615 -0.9366
 7109SOL     OW32962   2.799   2.354   9.264 -0.1539 -0.0060 -0.1535
 7109SOL    HW132963   2.762   2.442   9.265 -0.8250 -0.3312  2.4904
 7109SOL    HW232964   2.858   2.352   9.189 -0.7862  1.8989 -0.7064
 7110SOL     OW32965   1.506   3.174  15.938 -0.2514  0.8626  0.5602
 7110SOL    HW132966   1.506   3.244  16.003  2.2598  2.2580 -0.9844
 7110SOL    HW232967   1.448   3.111  15.981 -0.0417  0.1163 -0.2672
 7111SOL     OW32968   4.171   2.869   7.667 -0.0373  0.3747  0.0471
 7111SOL    HW132969   4.255   2.825   7.660 -0.1949  0.1907 -0.6875
 7111SOL    HW232970   4.178   2.954   7.711  2.3805 -0.5188  1.3337
 7112SOL     OW32971   2.283   4.578  12.523 -0.2981 -0.6498 -0.0130
 7112SOL    HW132972   2.341   4.654  12.518  1.6210 -1.9175  2.8437
 7112SOL    HW232973   2.330   4.514  12.469 -2.6513 -1.0822 -1.5648
 7113SOL     OW32974   2.477   2.194  15.175  0.5377  0.2073  0.0164
 7113SOL    HW132975   2.535   2.165  15.105 -1.1936 -0.4743 -1.1176
 7113SOL    HW232976   2.498   2.287  15.178  0.8357  0.1215  0.8870
 7114SOL     OW32977   3.578   0.950   5.131  0.0724  0.0584 -0.1510
 7114SOL    HW132978   3.621   0.997   5.060 -0.2709  0.1880 -0.2739
 7114SOL    HW232979   3.610   0.860   5.118  1.6257  0.5242  0.4793
 7115SOL     OW32980   4.552   1.260   3.098  0.3919  0.2411  0.3420
 7115SOL    HW132981   4.537   1.291   3.187  0.2511 -0.3076  0.5125
 7115SOL    HW232982   4.476   1.298   3.053  0.6189  1.4440  0.9927
 7116SOL     OW32983   1.314   0.022   6.776  0.0426 -0.0584 -0.2415
 7116SOL    HW132984   1.229   0.012   6.734 -0.8591 -1.9101  2.0239
 7116SOL    HW232985   1.339   0.114   6.764  0.1655  0.0084  0.5013
 7117SOL     OW32986   1.466   0.012  14.509 -0.2901 -0.6564 -0.4010
 7117SOL    HW132987   1.511   0.091  14.538 -0.0167 -1.3423  1.0380
 7117SOL    HW232988   1.529   4.727  14.441 -1.4665  0.7875 -2.0319
 7118SOL     OW32989   1.714   1.053   0.019 -0.2236 -0.4645 -0.2474
 7118SOL    HW132990   1.748   1.059   0.109  2.0539  1.4174 -1.2207
 7118SOL    HW232991   1.782   1.094  17.726  0.1430  2.0815  2.1887
 7119SOL     OW32992   3.571   2.259  10.128 -0.1028  0.7263  0.2846
 7119SOL    HW132993   3.527   2.343  10.139  0.9510  1.4554 -1.0928
 7119SOL    HW232994   3.620   2.276  10.047  1.3878 -0.9959  0.8353
 7120SOL     OW32995   0.296   0.637   8.472 -0.2274  0.0050 -0.3023
 7120SOL    HW132996   0.233   0.580   8.427 -0.8880 -0.0981  0.7670
 7120SOL    HW232997   0.378   0.599   8.440 -2.1627 -4.8675  0.5206
 7121SOL     OW32998   4.112   3.620   9.242  0.0318  0.7560  0.2365
 7121SOL    HW132999   4.060   3.639   9.164 -0.9851 -0.1310  0.7077
 7121SOL    HW233000   4.146   3.707   9.266 -0.1999  1.0403 -0.4801
 7122SOL     OW33001   2.623   3.693   1.113  0.5925 -0.3176  0.0291
 7122SOL    HW133002   2.559   3.659   1.050  0.5485 -0.4942  0.1700
 7122SOL    HW233003   2.628   3.608   1.157  1.5510 -0.5840 -0.5984
 7123SOL     OW33004   1.427   2.453   8.464  0.5251  0.6673  0.2714
 7123SOL    HW133005   1.469   2.539   8.461 -0.7400  1.2595 -0.1706
 7123SOL    HW233006   1.505   2.397   8.464 -0.6738 -0.9943  1.7551
 7124SOL     OW33007   0.860   3.111  11.844  0.2386  0.1056 -0.2171
 7124SOL    HW133008   0.790   3.127  11.781 -0.3827 -0.1892  0.3961
 7124SOL    HW233009   0.929   3.076  11.787 -0.0003 -2.2503  0.9152
 7125SOL     OW33010   2.074   4.269   6.398  0.5389 -0.4127 -0.3025
 7125SOL    HW133011   2.027   4.306   6.323  0.2877  0.1085  0.1096
 7125SOL    HW233012   2.054   4.178   6.376  0.1615 -0.5089  0.4176
 7126SOL     OW33013   1.703   4.662   7.064  0.0442 -0.1931 -0.2980
 7126SOL    HW133014   1.739   4.709   6.989 -1.3738  0.8454 -0.3262
 7126SOL    HW233015   1.627   4.618   7.027 -1.1563  0.4752  1.4080
 7127SOL     OW33016   1.490   4.066   7.652  0.0757  0.4186  0.1722
 7127SOL    HW133017   1.416   4.008   7.630 -0.9719  1.1494  1.7892
 7127SOL    HW233018   1.546   4.002   7.695  2.1973  2.4381  0.4229
 7128SOL     OW33019   1.047   2.512   8.078 -0.0165 -0.1655 -0.2615
 7128SOL    HW133020   1.013   2.438   8.027 -2.2987  1.5275 -1.2588
 7128SOL    HW233021   0.968   2.556   8.111 -0.0928  0.8628 -1.7819
 7129SOL     OW33022   2.719   4.314   8.592 -0.3100 -0.3325 -0.8721
 7129SOL    HW133023   2.761   4.254   8.531  2.5287 -0.8660  1.6098
 7129SOL    HW233024   2.786   4.383   8.600 -1.2623  0.1085  3.1619
 7130SOL     OW33025   1.877   4.141   5.592  0.3879  0.0737  0.4904
 7130SOL    HW133026   1.887   4.229   5.556  0.0517  0.1234  0.5158
 7130SOL    HW233027   1.789   4.152   5.630 -0.2584  0.2790 -1.0474
 7131SOL     OW33028   0.468   0.228   4.672  0.3383  0.2156 -0.2656
 7131SOL    HW133029   0.464   0.313   4.716 -0.6103  0.5811 -1.0405
 7131SOL    HW233030   0.425   0.240   4.587 -1.7664  0.2530  0.8136
 7132SOL     OW33031   0.294   1.752   2.588 -0.2621  0.0948 -0.0335
 7132SOL    HW133032   0.243   1.786   2.514 -0.6261 -0.8949 -0.2456
 7132SOL    HW233033   0.371   1.809   2.584 -0.3173  0.3812  2.8769
 7133SOL     OW33034   0.101   3.010   9.541  0.0965  0.9907  0.0298
 7133SOL    HW133035   0.007   2.990   9.540  0.2397  0.5039 -2.5961
 7133SOL    HW233036   0.099   3.082   9.605  1.8920  1.3701 -0.3552
 7134SOL     OW33037   2.078   4.740   5.986 -0.7969 -0.1708 -0.5162
 7134SOL    HW133038   2.150   4.689   6.024  1.5023  0.8516 -3.4774
 7134SOL    HW233039   2.106   0.001   5.895  0.0758 -2.0754 -0.2857
 7135SOL     OW33040   3.452   2.103  10.339  0.0585  0.1492  0.1709
 7135SOL    HW133041   3.457   2.027  10.281 -0.6685  1.9220 -2.2069
 7135SOL    HW233042   3.469   2.173  10.275  0.1770  0.4720  0.5545
 7136SOL     OW33043   3.952   2.684   1.466  0.4876  0.3437  0.4671
 7136SOL    HW133044   3.896   2.721   1.398  1.2264  0.9758  0.2060
 7136SOL    HW233045   3.997   2.765   1.489 -1.0843  1.4116 -0.2811
 7137SOL     OW33046   4.648   0.613   0.380  0.0730 -0.3815  0.7247
 7137SOL    HW133047   4.622   0.686   0.325  0.7907  0.5539  1.6431
 7137SOL    HW233048   4.722   0.652   0.428 -0.9553 -0.7442  2.5818
 7138SOL     OW33049   2.128   0.316   2.407  0.2220  0.5562  0.2607
 7138SOL    HW133050   2.179   0.241   2.436 -3.4071 -2.3209 -0.8040
 7138SOL    HW233051   2.186   0.331   2.332  0.4802 -2.4403 -0.1321
 7139SOL     OW33052   4.018   1.300   9.148  0.0726  0.5686  0.3889
 7139SOL    HW133053   4.078   1.374   9.142  0.1497  0.4151 -0.7302
 7139SOL    HW233054   3.939   1.355   9.147  0.2809  0.8577 -0.4201
 7140SOL     OW33055   3.101   3.687  11.353 -0.2012  0.1731 -0.3367
 7140SOL    HW133056   3.036   3.617  11.360 -0.0984  0.1105  0.0012
 7140SOL    HW233057   3.162   3.650  11.289  2.7515 -0.3027  2.7732
 7141SOL     OW33058   3.626   4.663   6.446  0.0479 -0.2919 -0.8411
 7141SOL    HW133059   3.709   4.684   6.488  0.1214  0.0259 -1.1427
 7141SOL    HW233060   3.564   4.714   6.497  1.3150  1.5316 -1.1283
 7142SOL     OW33061   3.741   2.174   4.083 -0.6308 -0.2720  0.2881
 7142SOL    HW133062   3.691   2.238   4.133 -2.9445 -1.7348 -0.1808
 7142SOL    HW233063   3.684   2.169   4.006 -0.0379  1.3910 -0.2696
 7143SOL     OW33064   1.890   1.571   3.319 -0.5328  0.4097  0.2210
 7143SOL    HW133065   1.830   1.505   3.354  0.5434 -0.7980 -0.2113
 7143SOL    HW233066   1.907   1.612   3.404  4.4931  1.2644 -1.2148
 7144SOL     OW33067   1.703   2.436   3.593  0.5347 -0.5366 -0.1109
 7144SOL    HW133068   1.729   2.344   3.591 -1.1576 -0.9963 -1.2856
 7144SOL    HW233069   1.668   2.463   3.678 -1.2506 -1.2413 -0.6142
 7145SOL     OW33070   2.764   4.187  15.423  0.2081 -0.1588  0.5378
 7145SOL    HW133071   2.727   4.240  15.494  0.5060 -1.0535  1.3717
 7145SOL    HW233072   2.697   4.183  15.355 -1.7063  0.4965  2.3731
 7146SOL     OW33073   4.267   1.594  16.765 -0.6743  0.0343 -0.1271
 7146SOL    HW133074   4.247   1.671  16.712 -0.4122 -0.7072 -1.2972
 7146SOL    HW233075   4.194   1.545  16.727 -1.4187 -0.4303  1.8942
 7147SOL     OW33076   1.836   1.663   8.846 -0.0719  0.3669  0.5940
 7147SOL    HW133077   1.914   1.644   8.898  1.1705  2.8236 -0.3929
 7147SOL    HW233078   1.833   1.581   8.795  0.1727  0.9263 -0.3239
 7148SOL     OW33079   0.890   2.711  16.714 -0.6850  0.0240  0.0644
 7148SOL    HW133080   0.939   2.779  16.668 -0.5122  0.9004  1.5388
 7148SOL    HW233081   0.923   2.723  16.803  3.1307  2.9434 -1.7312
 7149SOL     OW33082   1.593   4.505   9.659 -0.0088 -0.2803 -0.1485
 7149SOL    HW133083   1.538   4.434   9.627  1.4026 -1.2476 -0.3817
 7149SOL    HW233084   1.637   4.469   9.736 -1.2554  0.2180  0.8138
 7150SOL     OW33085   0.474   4.477   4.619 -0.7578 -0.4834  0.0166
 7150SOL    HW133086   0.437   4.506   4.536  0.5219 -3.6592 -1.6879
 7150SOL    HW233087   0.436   4.544   4.676  1.7561  2.0289 -1.2964
 7151SOL     OW33088   3.235   2.026   5.982 -0.1486  1.2156 -0.6267
 7151SOL    HW133089   3.156   2.054   5.935 -1.0018  2.0117  1.3050
 7151SOL    HW233090   3.206   1.941   6.015  2.1653  0.3468 -0.8503
 7152SOL     OW33091   2.128   3.478   2.484  0.5810  0.2732  0.3093
 7152SOL    HW133092   2.202   3.539   2.479  0.5597  0.3695  1.1889
 7152SOL    HW233093   2.166   3.393   2.507  0.8330  0.1804 -0.4473
 7153SOL     OW33094   3.656   3.596   8.012  0.0137 -0.3297 -0.9748
 7153SOL    HW133095   3.737   3.621   7.969  1.1606 -3.7936 -0.8174
 7153SOL    HW233096   3.667   3.662   8.081 -4.0477  2.0862 -2.6366
 7154SOL     OW33097   3.357   4.110   9.849 -0.4745  0.6584  0.0910
 7154SOL    HW133098   3.371   4.098   9.943  2.1782 -3.8893 -0.8824
 7154SOL    HW233099   3.376   4.204   9.845  2.2587  0.1338  0.3724
 7155SOL     OW33100   1.011   3.714  17.401 -0.0544 -0.0147 -0.1586
 7155SOL    HW133101   0.998   3.795  17.451  1.6903 -0.5373  1.1584
 7155SOL    HW233102   1.024   3.745  17.312 -2.0690 -0.8685 -0.7525
 7156SOL     OW33103   1.409   0.177  10.350 -0.2234 -0.0113  0.2472
 7156SOL    HW133104   1.353   0.151  10.277 -0.0206 -2.3201  0.9247
 7156SOL    HW233105   1.343   0.181  10.420 -0.9182 -1.3503 -0.3375
 7157SOL     OW33106   3.910   3.645   6.422  0.4159 -0.8391 -0.1948
 7157SOL    HW133107   3.995   3.601   6.424  1.3580  1.0568  1.6888
 7157SOL    HW233108   3.895   3.656   6.516 -0.0514  2.8880 -0.7202
 7158SOL     OW33109   2.779   4.127  14.746  0.1033  0.0866  0.0108
 7158SOL    HW133110   2.727   4.113  14.825 -0.1714 -0.5010 -0.2773
 7158SOL    HW233111   2.843   4.185  14.787 -0.1204  0.6730 -0.4715
 7159SOL     OW33112   2.252   2.692  12.935 -0.4201  0.5363 -0.3293
 7159SOL    HW133113   2.257   2.647  13.019  1.1166 -0.9044 -1.1924
 7159SOL    HW233114   2.162   2.722  12.947 -0.9277 -0.9098 -0.4629
 7160SOL     OW33115   2.558   1.246  11.105 -0.5538 -0.4923  0.2669
 7160SOL    HW133116   2.519   1.264  11.191 -1.7450 -0.0324 -0.3646
 7160SOL    HW233117   2.578   1.336  11.079  0.9893 -0.5581  1.2015
 7161SOL     OW33118   3.121   2.445   9.491  0.2636  0.3092  0.2644
 7161SOL    HW133119   3.190   2.429   9.427  0.7855  0.3856  0.8092
 7161SOL    HW233120   3.113   2.540   9.483 -1.7176 -0.1990 -3.9057
 7162SOL     OW33121   3.777   4.025   9.024 -0.9142 -0.4735  0.3269
 7162SOL    HW133122   3.709   4.092   9.021 -2.4795 -2.0949 -0.0963
 7162SOL    HW233123   3.798   4.015   9.117  0.4881  1.1817  0.1917
 7163SOL     OW33124   1.167   4.290   3.621  0.5331 -0.2746  0.0641
 7163SOL    HW133125   1.182   4.215   3.678 -0.5646 -0.7396 -0.2604
 7163SOL    HW233126   1.201   4.357   3.680  1.2186 -0.6436  0.0948
 7164SOL     OW33127   1.520   1.380   4.291 -0.0125  0.7908 -0.3464
 7164SOL    HW133128   1.610   1.358   4.267 -0.7680  1.6764 -4.0914
 7164SOL    HW233129   1.471   1.321   4.233 -0.5150  1.0860 -0.2220
 7165SOL     OW33130   2.763   0.050   3.265 -0.0035 -0.1155 -0.1938
 7165SOL    HW133131   2.723   4.710   3.299 -0.6547  1.7797  3.4879
 7165SOL    HW233132   2.683   0.095   3.236 -0.4538 -0.5593  0.3426
 7166SOL     OW33133   4.198   4.645   2.275  0.3692  0.4573  0.8616
 7166SOL    HW133134   4.167   4.734   2.255 -0.4554 -0.4236 -1.8982
 7166SOL    HW233135   4.134   4.602   2.332 -1.0748  0.7151 -0.5644
 7167SOL     OW33136   2.261   4.557   9.061 -0.0163  1.0522  0.1095
 7167SOL    HW133137   2.166   4.554   9.051 -0.2361  0.2125  2.5855
 7167SOL    HW233138   2.280   4.593   8.974  4.2097  0.5428  0.8486
 7168SOL     OW33139   1.124   1.837   5.936  0.7398  0.2203 -0.0482
 7168SOL    HW133140   1.153   1.765   5.993 -0.0917 -1.2691 -1.5001
 7168SOL    HW233141   1.202   1.850   5.883  0.1844 -0.2991 -0.9839
 7169SOL     OW33142   4.543   2.663  10.626 -0.4835 -0.1139 -0.4307
 7169SOL    HW133143   4.509   2.751  10.644 -1.6432 -0.8682  1.1034
 7169SOL    HW233144   4.465   2.613  10.602 -0.4450 -0.8932  1.0599
 7170SOL     OW33145   0.179   1.302   8.449  0.0128  0.1573 -0.3737
 7170SOL    HW133146   0.109   1.269   8.393 -0.6176 -1.5806  1.4505
 7170SOL    HW233147   0.130   1.341   8.521 -0.8370  0.0294 -0.8769
 7171SOL     OW33148   2.639   0.215   7.023  0.5576 -0.6681 -0.0795
 7171SOL    HW133149   2.676   0.262   6.948 -0.3219  0.2543  0.0785
 7171SOL    HW233150   2.655   0.121   7.013 -1.7927 -1.2561  1.6908
 7172SOL     OW33151   2.337   1.861   5.078  0.6649 -0.3016  0.3839
 7172SOL    HW133152   2.347   1.774   5.116 -1.9293  0.5797  3.0880
 7172SOL    HW233153   2.416   1.901   5.116 -0.4294  1.3013  0.9751
 7173SOL     OW33154   2.119   3.949  12.727 -0.1404  0.2766  0.0956
 7173SOL    HW133155   2.074   3.883  12.778  1.3538  1.0876  2.4481
 7173SOL    HW233156   2.184   3.897  12.680  0.6578  0.2363  1.2633
 7174SOL     OW33157   0.362   4.708   5.224 -0.3627  0.4020 -0.0509
 7174SOL    HW133158   0.390   0.050   5.184 -0.0118  0.1218 -0.3869
 7174SOL    HW233159   0.392   4.654   5.151 -2.8759  0.4907 -1.1790
 7175SOL     OW33160   0.617   0.056  13.018  0.8906 -0.1804 -0.1529
 7175SOL    HW133161   0.615   4.713  12.971  0.7157 -1.0244  1.3454
 7175SOL    HW233162   0.697   0.044  13.069  0.6688  1.9643  0.7122
 7176SOL     OW33163   1.497   3.708  17.478  0.0739  0.2834 -1.0581
 7176SOL    HW133164   1.580   3.702  17.431  0.7892  1.7262  0.0351
 7176SOL    HW233165   1.464   3.619  17.484  1.1172  0.0012  0.4640
 7177SOL     OW33166   4.270   0.620  17.068  0.0914  0.2056  0.0965
 7177SOL    HW133167   4.364   0.607  17.079 -0.4802 -3.0927  1.0461
 7177SOL    HW233168   4.272   0.700  17.015  0.0571 -0.5197 -0.9887
 7178SOL     OW33169   1.045   3.965  12.667  0.8514  0.3799  0.3905
 7178SOL    HW133170   1.138   3.978  12.688  1.3892  1.3596 -2.5190
 7178SOL    HW233171   1.020   4.050  12.631  0.1087 -0.2699 -0.6182
 7179SOL     OW33172   4.336   3.731   1.745  0.5658  0.3742  0.4786
 7179SOL    HW133173   4.305   3.746   1.834 -0.8068 -0.2794  0.1075
 7179SOL    HW233174   4.393   3.806   1.725  2.4986 -1.2021  0.1099
 7180SOL     OW33175   4.047   2.400   6.120 -0.4009  0.6141 -0.6081
 7180SOL    HW133176   4.035   2.456   6.043  0.2753  1.6112  0.0101
 7180SOL    HW233177   3.959   2.386   6.155 -0.3599 -1.4582 -1.3225
 7181SOL     OW33178   0.949   0.934   2.725 -0.3354  0.5111  0.5067
 7181SOL    HW133179   0.973   0.902   2.638 -0.7437 -0.3493  0.7133
 7181SOL    HW233180   0.896   1.011   2.706 -1.4194  0.3211  2.7710
 7182SOL     OW33181   2.098   3.412   5.051 -0.2949 -0.1991  0.0327
 7182SOL    HW133182   2.059   3.342   5.103  0.3142 -1.5167 -1.2814
 7182SOL    HW233183   2.021   3.437   5.001 -0.0098  0.1008 -0.2598
 7183SOL     OW33184   3.142   3.710   7.014  0.2432 -0.1083 -0.1800
 7183SOL    HW133185   3.055   3.746   6.995  0.0596 -0.0457  0.8181
 7183SOL    HW233186   3.187   3.721   6.930 -0.9188  0.1041 -0.7847
 7184SOL     OW33187   1.489   2.127   0.145  0.6158 -0.2559  0.0136
 7184SOL    HW133188   1.479   2.107   0.052 -0.2604 -2.1375  0.4999
 7184SOL    HW233189   1.418   2.188   0.159  0.1474  0.0043 -3.6201
 7185SOL     OW33190   2.450   4.260  13.668  0.0980  0.0740 -0.1842
 7185SOL    HW133191   2.443   4.298  13.581 -0.4798 -0.9399 -0.5741
 7185SOL    HW233192   2.544   4.272  13.681 -0.1308  2.5611 -0.9381
 7186SOL     OW33193   3.760   0.306   5.035  0.1870  0.6096  0.4028
 7186SOL    HW133194   3.751   0.252   5.114  3.0492 -0.5562 -0.0835
 7186SOL    HW233195   3.671   0.340   5.038 -0.5249 -1.2534  0.2269
 7187SOL     OW33196   3.839   1.014   6.835  0.8721  0.0994 -0.2404
 7187SOL    HW133197   3.848   1.024   6.740 -0.4964  1.2838 -0.2301
 7187SOL    HW233198   3.930   1.002   6.862  0.2985 -1.9831  0.7870
 7188SOL     OW33199   4.237   2.854   2.101 -0.1227 -0.1237 -0.0605
 7188SOL    HW133200   4.293   2.845   2.178 -0.1416 -0.5831 -0.0989
 7188SOL    HW233201   4.164   2.797   2.127  0.7664 -1.0067  0.4955
 7189SOL     OW33202   4.558   3.064   1.103  0.6994 -0.6921  0.0956
 7189SOL    HW133203   4.547   2.972   1.080  0.0985 -0.0759 -2.0566
 7189SOL    HW233204   4.653   3.065   1.117  0.7662 -0.5884 -0.3901
 7190SOL     OW33205   4.010   0.411   4.936 -0.5464  0.3410 -0.7105
 7190SOL    HW133206   4.003   0.501   4.904 -1.4883  0.6750  0.4521
 7190SOL    HW233207   3.921   0.388   4.962 -0.3576 -0.4100 -0.7261
 7191SOL     OW33208   2.005   2.773  13.037 -0.3905 -0.3160 -0.3406
 7191SOL    HW133209   1.973   2.685  13.057 -1.3253  0.1338  0.1708
 7191SOL    HW233210   1.925   2.823  13.021 -0.0589  1.6419  4.2411
 7192SOL     OW33211   2.786   1.951   5.546 -0.0818  0.3839 -0.0243
 7192SOL    HW133212   2.832   1.969   5.628 -0.5011  2.0269 -0.1617
 7192SOL    HW233213   2.841   1.878   5.516 -0.2534  0.6866 -1.0895
 7193SOL     OW33214   3.026   3.364   8.586  0.0085  0.1523  0.0062
 7193SOL    HW133215   3.045   3.307   8.511  1.6433 -0.7627  1.1213
 7193SOL    HW233216   2.930   3.360   8.583  0.1115 -2.5772 -0.2781
 7194SOL     OW33217   1.096   0.474  11.052 -0.0850 -0.0636  0.5129
 7194SOL    HW133218   1.155   0.419  11.104 -0.2635 -0.8258 -0.0826
 7194SOL    HW233219   1.020   0.495  11.106 -0.2703  0.0159  0.2194
 7195SOL     OW33220   2.207   4.241   3.489  0.2290 -0.6813  0.2588
 7195SOL    HW133221   2.238   4.244   3.398 -0.3539  2.6338  0.1560
 7195SOL    HW233222   2.254   4.166   3.526 -0.1350 -1.5618 -1.0875
 7196SOL     OW33223   1.802   3.646  16.167  0.5923  0.4501  0.1814
 7196SOL    HW133224   1.737   3.713  16.186 -2.7168 -2.2423 -1.5994
 7196SOL    HW233225   1.867   3.693  16.114  0.4578 -1.0544 -1.3409
 7197SOL     OW33226   2.510   1.787   7.755  0.1205 -0.5127 -0.3248
 7197SOL    HW133227   2.491   1.702   7.715 -0.0858 -1.0939  0.9962
 7197SOL    HW233228   2.453   1.852   7.715  0.1559 -0.4194 -0.2226
 7198SOL     OW33229   3.054   2.749  16.668  0.2108 -0.0270 -0.1006
 7198SOL    HW133230   2.995   2.744  16.744  0.0179  2.5516 -0.0760
 7198SOL    HW233231   2.998   2.799  16.609  0.3413  3.5130  2.7839
 7199SOL     OW33232   2.769   0.503   4.501 -0.2816 -0.1386 -0.6285
 7199SOL    HW133233   2.865   0.507   4.504 -0.3795  1.2280  0.3548
 7199SOL    HW233234   2.742   0.433   4.441  0.6633 -0.0789 -1.1338
 7200SOL     OW33235   3.602   3.879   1.841  0.5269 -0.4913  0.0147
 7200SOL    HW133236   3.683   3.930   1.847  0.2021  0.0829 -0.4890
 7200SOL    HW233237   3.622   3.835   1.758 -0.0617  0.4399 -0.6176
 7201SOL     OW33238   1.171   1.666   3.679  0.1294  0.1984  0.0690
 7201SOL    HW133239   1.165   1.673   3.584 -0.8052  3.4561  0.3407
 7201SOL    HW233240   1.248   1.720   3.699 -0.5912  0.7680  1.3084
 7202SOL     OW33241   0.752   0.585   0.020  0.5378 -0.5239  0.6274
 7202SOL    HW133242   0.753   0.676  17.750 -0.6453 -1.4616 -2.2379
 7202SOL    HW233243   0.813   0.574   0.093  0.9282  1.3300  0.5734
 7203SOL     OW33244   1.337   4.406   4.988 -0.1558  0.0975 -0.6302
 7203SOL    HW133245   1.370   4.316   4.995  1.2302  0.6887  0.3318
 7203SOL    HW233246   1.322   4.409   4.893 -1.2466  0.3186 -0.4429
 7204SOL     OW33247   1.092   0.726   8.471  0.1490 -1.1537 -0.3935
 7204SOL    HW133248   1.171   0.779   8.459  0.1371 -1.1257 -0.3482
 7204SOL    HW233249   1.035   0.802   8.484  2.4423  0.8657 -2.0838
 7205SOL     OW33250   2.802   0.001   2.814 -0.1736  0.0908  0.0080
 7205SOL    HW133251   2.841   0.019   2.900 -1.2171  0.8572  0.3298
 7205SOL    HW233252   2.755   0.079   2.785  2.3291  1.1738 -1.0668
 7206SOL     OW33253   4.270   0.812   5.077 -0.4885 -0.1223 -0.0443
 7206SOL    HW133254   4.353   0.778   5.043  0.0355  1.3343 -0.2267
 7206SOL    HW233255   4.282   0.907   5.074 -3.0271  0.2400  1.7472
 7207SOL     OW33256   2.076   2.011   9.697  0.4065  0.0313 -0.2771
 7207SOL    HW133257   2.079   2.046   9.608  0.1114  1.6406  0.3553
 7207SOL    HW233258   1.990   2.037   9.731  0.5867  1.9035 -1.2701
 7208SOL     OW33259   4.545   2.681   9.544 -0.3101  0.6446  0.4537
 7208SOL    HW133260   4.584   2.690   9.457 -2.4446  1.3134 -0.4334
 7208SOL    HW233261   4.617   2.700   9.604 -0.0705  2.5854 -0.4568
 7209SOL     OW33262   2.959   2.353   4.855  0.0758  0.4528 -0.6040
 7209SOL    HW133263   2.955   2.277   4.913 -1.4260 -0.4384 -1.8625
 7209SOL    HW233264   2.896   2.417   4.888  1.3381  1.0246  0.6857
 7210SOL     OW33265   3.477   3.287   7.064 -0.1090 -0.1992 -0.5487
 7210SOL    HW133266   3.463   3.362   7.007 -2.1517  1.4036  2.0102
 7210SOL    HW233267   3.537   3.230   7.017 -1.1861 -0.0210 -2.1388
 7211SOL     OW33268   3.739   1.653   9.707 -0.4918 -0.5454  0.3306
 7211SOL    HW133269   3.794   1.580   9.736  0.7641 -0.4592 -1.8117
 7211SOL    HW233270   3.752   1.699   9.790  1.9949  0.5441 -0.6597
 7212SOL     OW33271   0.581   3.290   4.824 -0.3475 -0.0242 -0.0163
 7212SOL    HW133272   0.645   3.296   4.895  0.3260 -1.1577 -0.5201
 7212SOL    HW233273   0.621   3.343   4.756 -3.7263  2.0352 -0.4048
 7213SOL     OW33274   0.881   3.348   2.721  0.0169 -0.0105 -0.1867
 7213SOL    HW133275   0.789   3.359   2.696 -0.2925 -0.0328  0.9245
 7213SOL    HW233276   0.888   3.370   2.814  0.4651  0.6338 -0.3744
 7214SOL     OW33277   3.362   2.215   5.186  0.7812  0.4339 -0.1494
 7214SOL    HW133278   3.314   2.158   5.125  1.4562  0.9364 -1.1440
 7214SOL    HW233279   3.453   2.191   5.170  0.9504 -0.7464  2.5349
 7215SOL     OW33280   1.724   2.749   2.035 -0.5960 -0.3079 -0.0184
 7215SOL    HW133281   1.691   2.687   2.100 -0.9570  0.9460  0.9887
 7215SOL    HW233282   1.803   2.780   2.080 -1.0009 -1.5008  1.5106
 7216SOL     OW33283   0.484   1.234   7.647  0.1248 -0.0290  0.2844
 7216SOL    HW133284   0.512   1.280   7.727  0.6915  1.2859 -0.6750
 7216SOL    HW233285   0.399   1.197   7.670 -1.2626  1.8477 -1.8275
 7217SOL     OW33286   2.545   0.303  14.221  0.4698  0.5255 -0.0712
 7217SOL    HW133287   2.472   0.352  14.182 -0.9775 -0.7801  1.0243
 7217SOL    HW233288   2.515   0.296  14.311  2.0763  3.4689  0.7222
 7218SOL     OW33289   4.696   3.575   4.502 -0.2388  0.3949 -0.2415
 7218SOL    HW133290   4.721   3.667   4.513  0.7249 -0.1053  1.8373
 7218SOL    HW233291   4.651   3.555   4.584  1.1818 -2.8533 -0.2447
 7219SOL     OW33292   3.898   4.263   4.249 -0.1273 -0.2501 -0.0958
 7219SOL    HW133293   3.928   4.240   4.337 -1.9722 -1.1768  0.2659
 7219SOL    HW233294   3.882   4.357   4.263  1.1740 -0.0339  0.0282
 7220SOL     OW33295   1.055   3.731   4.797 -0.1729  0.4215  0.0926
 7220SOL    HW133296   1.009   3.815   4.796 -0.2393  0.4097  2.7419
 7220SOL    HW233297   1.004   3.676   4.856 -0.5067  1.1609  0.4890
 7221SOL     OW33298   3.967   0.889   3.791 -0.1940  0.1121 -0.1383
 7221SOL    HW133299   3.888   0.925   3.752 -0.5311 -2.5978 -1.9322
 7221SOL    HW233300   4.031   0.961   3.792  1.1231 -1.1157  3.6661
 7222SOL     OW33301   1.903   2.694   1.554  0.4881  0.4853  0.1645
 7222SOL    HW133302   1.858   2.685   1.470 -2.7781  1.6504  1.7977
 7222SOL    HW233303   1.883   2.611   1.598 -0.2631 -0.2123 -1.4780
 7223SOL     OW33304   2.590   0.439   2.269 -0.5881 -0.4839 -0.6354
 7223SOL    HW133305   2.676   0.474   2.244 -2.2753  1.9386 -3.0271
 7223SOL    HW233306   2.571   0.490   2.347  0.2373  0.9701 -1.3919
 7224SOL     OW33307   4.343   1.006   1.511 -0.3934  0.4114 -0.7402
 7224SOL    HW133308   4.315   1.089   1.473  0.2224  1.0093  0.1217
 7224SOL    HW233309   4.436   1.012   1.488 -0.0947  0.0941  0.3901
 7225SOL     OW33310   1.636   3.002   2.699  0.1933 -0.3302  0.8113
 7225SOL    HW133311   1.549   2.984   2.665 -0.3783  0.4332  1.8703
 7225SOL    HW233312   1.680   3.009   2.614 -1.2207 -0.4799  0.0768
 7226SOL     OW33313   0.961   0.937   5.879  0.3572  0.5049 -0.2426
 7226SOL    HW133314   0.875   0.899   5.859 -0.1865  1.0421  1.0751
 7226SOL    HW233315   0.994   0.886   5.953  2.1354  0.6776 -0.9161
 7227SOL     OW33316   4.394   3.502  17.449  0.2026  0.2920 -0.4618
 7227SOL    HW133317   4.439   3.421  17.474 -2.1974 -1.2077 -1.0618
 7227SOL    HW233318   4.460   3.544  17.393  1.1655  0.4580  0.7922
 7228SOL     OW33319   2.920   3.095   2.894 -1.1117 -0.3874 -0.2057
 7228SOL    HW133320   2.826   3.093   2.879 -1.2343 -0.4163  0.5546
 7228SOL    HW233321   2.951   3.136   2.813  0.0719  0.3511  0.6291
 7229SOL     OW33322   2.614   0.535   9.666 -0.0934  0.0396 -0.4232
 7229SOL    HW133323   2.648   0.607   9.718 -0.0573  1.8108 -2.9485
 7229SOL    HW233324   2.531   0.571   9.636 -0.5925 -0.6372  0.1162
 7230SOL     OW33325   3.963   0.183  17.224 -0.4604 -0.0606  0.8379
 7230SOL    HW133326   4.008   0.262  17.193 -0.5070 -1.4212 -2.6820
 7230SOL    HW233327   3.911   0.173  17.144  0.0150  0.8285  0.4175
 7231SOL     OW33328   4.608   3.070  11.861 -0.4463 -0.4260 -0.9089
 7231SOL    HW133329   4.695   3.105  11.877 -1.0259  0.3205  0.6682
 7231SOL    HW233330   4.627   2.976  11.857  1.8242 -0.0359  0.6869
 7232SOL     OW33331   1.072   0.853   0.100 -0.8424  0.3511 -0.1444
 7232SOL    HW133332   1.033   0.933   0.134  0.1909 -0.0439  1.9465
 7232SOL    HW233333   1.081   0.870   0.006  0.5402  0.0292 -0.0632
 7233SOL     OW33334   4.095   4.202   1.917 -0.0151  0.2040  0.0357
 7233SOL    HW133335   4.097   4.139   1.988  2.2793  0.9677  0.6430
 7233SOL    HW233336   4.112   4.135   1.851  1.7455  1.2728 -0.5875
 7234SOL     OW33337   2.964   3.550   6.590 -0.4312  0.5479 -0.0052
 7234SOL    HW133338   3.039   3.605   6.566 -0.8947  0.9884 -0.4441
 7234SOL    HW233339   2.899   3.611   6.554 -0.3168 -0.9770 -2.7620
 7235SOL     OW33340   4.414   1.474   7.150 -1.1572  0.4992  0.3789
 7235SOL    HW133341   4.426   1.386   7.187  0.3846  0.1870 -0.8973
 7235SOL    HW233342   4.348   1.449   7.086 -1.4348  0.6620  0.5993
 7236SOL     OW33343   2.292   1.826  17.530 -0.6108  0.3852  0.0126
 7236SOL    HW133344   2.351   1.781  17.592 -2.1856 -0.7816  0.6597
 7236SOL    HW233345   2.288   1.758  17.463 -3.0972  1.1154 -0.5742
 7237SOL     OW33346   3.646   0.696   4.876 -0.0442 -1.0112 -0.2290
 7237SOL    HW133347   3.659   0.601   4.871 -0.9546 -1.2238  1.4372
 7237SOL    HW233348   3.574   0.717   4.817  0.3366  0.2745 -0.2354
 7238SOL     OW33349   1.119   0.024   3.173 -0.3152 -0.0169  0.1275
 7238SOL    HW133350   1.095   4.694   3.113  1.3273  1.1862 -1.9561
 7238SOL    HW233351   1.068   0.093   3.131 -0.7730  0.6634  1.8062
 7239SOL     OW33352   3.392   2.320   4.262  0.5928 -0.2712 -0.1932
 7239SOL    HW133353   3.478   2.341   4.227  0.2950  1.2283 -0.0511
 7239SOL    HW233354   3.406   2.279   4.347  1.6093  1.4124  0.4501
 7240SOL     OW33355   2.203   3.891  16.091 -0.4689  0.7667  0.6802
 7240SOL    HW133356   2.258   3.959  16.130 -0.4112  0.7625  0.6060
 7240SOL    HW233357   2.259   3.814  16.093  1.0708  1.8159 -1.8891
 7241SOL     OW33358   3.709   4.326   2.195 -0.2781 -0.1807  1.0691
 7241SOL    HW133359   3.785   4.292   2.241  0.2188  0.7074  0.8927
 7241SOL    HW233360   3.727   4.317   2.101  1.8419 -3.0941  1.7660
 7242SOL     OW33361   0.105   2.010   7.549  0.7922 -0.4935 -0.0998
 7242SOL    HW133362   0.089   1.984   7.459  0.3607 -1.3254  0.2239
 7242SOL    HW233363   0.019   2.036   7.581  0.6463 -1.2091  0.0726
 7243SOL     OW33364   3.524   4.475   4.105 -0.4077  0.5052  0.0271
 7243SOL    HW133365   3.599   4.436   4.060  0.6499  2.9244 -0.3157
 7243SOL    HW233366   3.471   4.405   4.142 -0.2227  0.6954  0.6681
 7244SOL     OW33367   2.286   4.502   5.374 -0.1977  0.5619 -0.4447
 7244SOL    HW133368   2.314   4.586   5.338  0.0879  0.2629 -0.9223
 7244SOL    HW233369   2.194   4.510   5.351 -0.7072  0.2847  1.4793
 7245SOL     OW33370   2.704   1.391   2.246  0.0761  0.2777 -0.0375
 7245SOL    HW133371   2.634   1.446   2.283 -0.7384 -0.0661 -1.0555
 7245SOL    HW233372   2.757   1.386   2.326  0.9509 -0.0972 -0.6534
 7246SOL     OW33373   3.911   2.613   4.149 -0.0547  0.3928 -0.0741
 7246SOL    HW133374   4.004   2.626   4.125 -0.0756 -1.7239 -1.3089
 7246SOL    HW233375   3.878   2.597   4.060  0.7988  1.3351 -0.5712
 7247SOL     OW33376   0.507   0.854  11.463 -0.6633 -0.0031 -0.2849
 7247SOL    HW133377   0.478   0.779  11.412 -1.0832  0.0911 -0.1875
 7247SOL    HW233378   0.473   0.920  11.403 -2.1597  2.9009  3.7012
 7248SOL     OW33379   1.707   4.482   5.133 -0.2395 -0.4722  0.3024
 7248SOL    HW133380   1.777   4.537   5.170  0.1570  0.2869 -1.5966
 7248SOL    HW233381   1.745   4.463   5.047  1.0485  0.3297  0.6819
 7249SOL     OW33382   1.801   3.403   7.865  0.2442 -0.1983  0.4785
 7249SOL    HW133383   1.894   3.423   7.855  0.1734  0.3320  0.9018
 7249SOL    HW233384   1.806   3.342   7.939 -2.8300  0.7994  1.5176
 7250SOL     OW33385   4.435   3.422  14.333 -0.1462  0.3253 -0.3379
 7250SOL    HW133386   4.408   3.443  14.243 -2.1133  1.6257  0.5734
 7250SOL    HW233387   4.363   3.457  14.384  0.2440 -0.3203  0.6459
 7251SOL     OW33388   2.905   2.525   1.505  0.4390 -0.2744  0.3079
 7251SOL    HW133389   2.926   2.490   1.418 -0.0132 -2.1651  0.9598
 7251SOL    HW233390   2.819   2.490   1.529 -0.3081 -0.4798 -2.6386
 7252SOL     OW33391   1.490   0.701   8.998 -0.3566  0.7699  0.0990
 7252SOL    HW133392   1.538   0.760   9.056 -0.8223  0.6788  0.5717
 7252SOL    HW233393   1.400   0.714   9.027  0.4924 -0.9154  3.4549
 7253SOL     OW33394   2.868   1.121  15.429  0.5938 -0.4214 -0.8728
 7253SOL    HW133395   2.790   1.155  15.471  0.6461 -1.4654  0.0655
 7253SOL    HW233396   2.896   1.204  15.390  0.7444 -0.6624 -1.2937
 7254SOL     OW33397   1.338   3.381   7.396 -0.3358  0.0628 -0.3423
 7254SOL    HW133398   1.430   3.387   7.370 -0.3961  1.4493 -0.2698
 7254SOL    HW233399   1.311   3.295   7.365  0.3964 -0.0583 -0.6617
 7255SOL     OW33400   4.593   1.794   2.579  0.0023  0.4267  0.3737
 7255SOL    HW133401   4.645   1.783   2.659 -0.4769 -1.4145  0.4432
 7255SOL    HW233402   4.621   1.879   2.546  0.4475 -1.1323 -3.2525
 7256SOL     OW33403   1.269   4.464   6.298 -0.3340  0.0658 -0.2532
 7256SOL    HW133404   1.188   4.514   6.297 -0.0033  0.6048  0.2575
 7256SOL    HW233405   1.327   4.540   6.290 -2.6567  1.8529 -0.0925
 7257SOL     OW33406   3.804   3.486   7.288  0.2254 -0.0044  0.1344
 7257SOL    HW133407   3.863   3.451   7.355 -0.6579 -0.5372  0.6229
 7257SOL    HW233408   3.858   3.465   7.212  1.6537  1.8595  0.6147
 7258SOL     OW33409   4.630   3.860   2.666 -0.1304 -0.1523  0.0249
 7258SOL    HW133410   4.662   3.813   2.744 -0.7078 -1.0377 -0.2725
 7258SOL    HW233411   4.591   3.787   2.619 -1.7708 -0.6357  2.1098
 7259SOL     OW33412   1.365   2.358   8.728  0.5568  0.3327 -0.6228
 7259SOL    HW133413   1.409   2.430   8.683  1.4317 -0.4049 -0.9670
 7259SOL    HW233414   1.401   2.295   8.665 -0.1293 -0.8569  0.1718
 7260SOL     OW33415   3.880   2.627   6.336 -0.4064 -0.0938  0.1437
 7260SOL    HW133416   3.785   2.615   6.333 -0.5287  0.9324 -0.0310
 7260SOL    HW233417   3.906   2.536   6.355 -0.6499 -0.1231  0.3337
 7261SOL     OW33418   3.231   0.467  11.142 -0.4890 -0.2972 -0.0070
 7261SOL    HW133419   3.207   0.560  11.135 -0.9050 -0.3138  1.1152
 7261SOL    HW233420   3.148   0.436  11.179 -1.3639 -1.5693 -3.0686
 7262SOL     OW33421   2.559   3.550   6.209  0.3069  0.1976 -0.2090
 7262SOL    HW133422   2.595   3.466   6.181  1.8118  0.8716 -0.2866
 7262SOL    HW233423   2.632   3.607   6.233  0.6095  0.0779 -0.8384
 7263SOL     OW33424   1.720   2.634   7.417  0.1348 -0.7601  0.3493
 7263SOL    HW133425   1.677   2.553   7.388 -0.5069 -0.8409  1.5355
 7263SOL    HW233426   1.650   2.700   7.414  0.2493 -0.6427  0.2897
 7264SOL     OW33427   1.676   1.622   3.717 -0.5995  0.9014 -0.7115
 7264SOL    HW133428   1.657   1.654   3.629  1.5960  0.7648 -1.2224
 7264SOL    HW233429   1.730   1.696   3.745 -0.1373  0.2154  0.1820
 7265SOL     OW33430   2.147   2.335  13.270  0.1422 -0.2752  0.2395
 7265SOL    HW133431   2.074   2.274  13.266 -0.3980  0.4977 -1.4912
 7265SOL    HW233432   2.216   2.274  13.299 -1.4029 -1.3199  1.6788
 7266SOL     OW33433   1.702   2.042   7.852  0.1374 -0.1148  0.4130
 7266SOL    HW133434   1.732   2.117   7.904  0.4713  0.0843 -0.0720
 7266SOL    HW233435   1.716   1.976   7.920 -1.0795 -0.7719  0.0222
 7267SOL     OW33436   3.664   3.735  15.837 -0.2517  0.0738 -0.3211
 7267SOL    HW133437   3.627   3.656  15.798  1.5105 -0.5516 -0.7103
 7267SOL    HW233438   3.602   3.804  15.813  1.8588  1.6971 -1.1746
 7268SOL     OW33439   0.365   2.522   2.674  0.2096 -0.2996  0.0146
 7268SOL    HW133440   0.454   2.490   2.659  0.0470 -2.1027  2.9620
 7268SOL    HW233441   0.358   2.513   2.769 -1.1996 -1.5636 -0.2132
 7269SOL     OW33442   4.455   2.894   8.109 -0.4957  0.5244 -0.3333
 7269SOL    HW133443   4.412   2.979   8.116 -0.5727  0.3507  1.1734
 7269SOL    HW233444   4.414   2.842   8.177 -0.0976 -0.6801 -1.0046
 7270SOL     OW33445   4.593   3.286   1.742  0.7184 -0.2608 -0.0313
 7270SOL    HW133446   4.645   3.306   1.821 -0.7419 -0.8768  1.0922
 7270SOL    HW233447   4.516   3.243   1.779  0.5939  0.0235  0.0399
 7271SOL     OW33448   1.407   1.569   4.625  0.5953 -0.5684 -0.0717
 7271SOL    HW133449   1.429   1.636   4.689  2.6787 -0.6118 -0.7519
 7271SOL    HW233450   1.465   1.497   4.650  2.1648 -0.3550 -2.9865
 7272SOL     OW33451   1.349   4.186   9.858 -0.3452  0.1345  0.1704
 7272SOL    HW133452   1.445   4.184   9.870 -0.5385 -2.5252  1.4162
 7272SOL    HW233453   1.319   4.095   9.867  1.6876 -0.5009  0.5739
 7273SOL     OW33454   0.413   3.250  13.038 -0.3234 -0.6252 -0.3906
 7273SOL    HW133455   0.397   3.312  13.109 -1.2017 -0.7557 -0.4759
 7273SOL    HW233456   0.346   3.274  12.974 -1.4046  0.8119  1.2645
 7274SOL     OW33457   1.788   2.982  16.920  1.0070  0.1853  0.9948
 7274SOL    HW133458   1.776   2.892  16.888 -0.5127  0.9518 -0.5764
 7274SOL    HW233459   1.831   3.019  16.843 -1.0691  1.4025  0.4232
 7275SOL     OW33460   4.288   0.124   8.085  0.0411 -0.4619 -0.0306
 7275SOL    HW133461   4.235   0.065   8.031 -1.3157  0.8609 -0.1340
 7275SOL    HW233462   4.220   0.164   8.138  1.8320  1.9464  0.4492
 7276SOL     OW33463   0.979   4.264   7.357  0.5861 -0.0777 -0.3432
 7276SOL    HW133464   1.006   4.291   7.444  0.2890 -0.6328 -0.0839
 7276SOL    HW233465   1.004   4.338   7.301  1.3810  0.0102  0.1304
 7277SOL     OW33466   1.653   3.905   3.063  0.1224 -0.4268 -0.5474
 7277SOL    HW133467   1.652   3.811   3.082 -0.3206 -0.2756  0.1787
 7277SOL    HW233468   1.736   3.904   3.015  0.2186  1.0176 -0.4192
 7278SOL     OW33469   3.827   1.605   5.399  0.8164 -0.1720  0.0250
 7278SOL    HW133470   3.778   1.627   5.478 -2.5553 -1.1943 -1.7531
 7278SOL    HW233471   3.801   1.672   5.336  1.2992 -0.1322 -0.1356
 7279SOL     OW33472   2.928   4.638   8.022  0.3746  0.0529 -0.3740
 7279SOL    HW133473   2.927   4.734   8.018  0.7033  0.0739  0.0380
 7279SOL    HW233474   2.868   4.614   7.951  0.7296 -0.9333 -0.3429
 7280SOL     OW33475   1.334   4.312   3.875  0.2171  0.2699 -0.1814
 7280SOL    HW133476   1.409   4.367   3.897  2.3552 -2.2942 -1.0362
 7280SOL    HW233477   1.368   4.260   3.802  1.6668 -0.0673  0.7393
 7281SOL     OW33478   3.327   0.821   8.425 -0.1137  0.5308 -0.5703
 7281SOL    HW133479   3.358   0.896   8.477  1.5345 -0.0061 -0.7773
 7281SOL    HW233480   3.246   0.800   8.471 -0.0880  0.1175 -0.7142
 7282SOL     OW33481   1.771   4.640  17.249  0.2555  0.4925  0.2061
 7282SOL    HW133482   1.699   4.627  17.312 -0.6728 -1.8804 -1.3202
 7282SOL    HW233483   1.827   4.564  17.263 -0.8673 -0.2163  0.9006
 7283SOL     OW33484   0.779   3.479   9.259  0.1663  1.2002  0.3749
 7283SOL    HW133485   0.846   3.534   9.219  1.7557  1.2388  3.0684
 7283SOL    HW233486   0.825   3.455   9.340  1.7383 -1.2302 -1.2473
 7284SOL     OW33487   4.462   3.045   6.985 -0.0691 -0.2409  0.1012
 7284SOL    HW133488   4.402   2.986   6.939  2.1047 -2.2726 -0.1502
 7284SOL    HW233489   4.510   3.085   6.912 -1.3073 -0.5571 -0.8823
 7285SOL     OW33490   3.598   1.064   5.686 -0.9473  0.3002  0.4948
 7285SOL    HW133491   3.550   0.982   5.702 -1.2661  0.3721 -0.1071
 7285SOL    HW233492   3.598   1.072   5.591 -3.7698  2.4707  0.6474
 7286SOL     OW33493   1.189   4.240  16.969 -0.2268  0.1254  0.3178
 7286SOL    HW133494   1.122   4.222  16.904  0.2542  0.4448 -0.2627
 7286SOL    HW233495   1.231   4.322  16.943 -0.1726 -0.5857 -1.7675
 7287SOL     OW33496   2.112   3.861   0.385 -0.4136  0.1965 -0.2608
 7287SOL    HW133497   2.106   3.933   0.323  3.0953 -2.4590 -3.7224
 7287SOL    HW233498   2.021   3.839   0.406 -0.0703 -0.3301  0.7046
 7288SOL     OW33499   0.696   1.511  16.803  0.0056  0.4529 -0.2648
 7288SOL    HW133500   0.707   1.589  16.857 -0.3368 -0.2355  0.7924
 7288SOL    HW233501   0.707   1.445  16.871  1.6272  1.5058  0.4681
 7289SOL     OW33502   1.483   2.119   2.936 -0.0980 -0.4166 -0.1174
 7289SOL    HW133503   1.525   2.142   3.019 -1.3379 -0.9414  0.6739
 7289SOL    HW233504   1.432   2.040   2.955  1.7167 -1.3470  0.8228
 7290SOL     OW33505   0.899   2.398  12.861 -0.0890  0.0439 -0.3347
 7290SOL    HW133506   0.876   2.305  12.858  2.5695 -0.5989 -0.7667
 7290SOL    HW233507   0.988   2.400  12.895 -0.0562 -1.3087 -0.3485
 7291SOL     OW33508   0.841   3.374   1.875 -1.0469  0.0162 -0.0452
 7291SOL    HW133509   0.801   3.288   1.883  1.0263 -1.0439 -1.0907
 7291SOL    HW233510   0.918   3.370   1.932 -0.3582 -1.3613 -1.0728
 7292SOL     OW33511   0.328   0.457  13.696 -0.7934  0.0016  0.7799
 7292SOL    HW133512   0.415   0.497  13.689 -0.2240 -1.1963  1.1323
 7292SOL    HW233513   0.340   0.384  13.635  0.4309  1.9343 -1.3074
 7293SOL     OW33514   1.702   1.127   4.934  0.0694  0.1525 -0.2175
 7293SOL    HW133515   1.662   1.043   4.956 -0.4336  0.6067  0.5932
 7293SOL    HW233516   1.724   1.113   4.842  0.6253  1.0404 -0.2222
 7294SOL     OW33517   3.731   1.704   7.865 -0.0139 -0.1856  0.2317
 7294SOL    HW133518   3.773   1.784   7.896  0.6543 -0.9879  1.3858
 7294SOL    HW233519   3.641   1.735   7.879 -0.7127 -2.1020 -0.0315
 7295SOL     OW33520   2.490   0.661  10.222  0.3125  0.0999  0.0090
 7295SOL    HW133521   2.468   0.753  10.234  1.1750  0.0925  1.5651
 7295SOL    HW233522   2.423   0.635  10.158 -0.2976  0.9406  0.3159
 7296SOL     OW33523   0.175   1.384   4.059 -0.2676 -0.3677 -0.2993
 7296SOL    HW133524   0.251   1.395   4.117  0.0482  0.5800 -0.8921
 7296SOL    HW233525   0.178   1.467   4.012 -1.2245 -0.3198 -0.2634
 7297SOL     OW33526   2.132   0.149   9.548  0.4240  0.0004 -0.0576
 7297SOL    HW133527   2.146   0.234   9.507  0.4272  0.5649  1.1113
 7297SOL    HW233528   2.176   0.162   9.632  0.5150 -0.1626 -0.0794
 7298SOL     OW33529   4.256   3.297   7.503 -0.1603  0.0540 -0.3820
 7298SOL    HW133530   4.292   3.231   7.563 -0.5162 -0.2281 -0.4784
 7298SOL    HW233531   4.320   3.297   7.432 -1.6697  1.8179 -1.7307
 7299SOL     OW33532   2.950   1.272   5.425 -0.2258 -0.0243 -0.5218
 7299SOL    HW133533   2.990   1.226   5.499  0.7093 -4.2425 -3.6473
 7299SOL    HW233534   2.885   1.319   5.478  0.0970  1.7218 -1.6863
 7300SOL     OW33535   0.109   1.268   4.381  0.4477  0.3345  0.9009
 7300SOL    HW133536   0.055   1.191   4.397  0.2164  0.1125 -0.9410
 7300SOL    HW233537   0.052   1.331   4.335 -0.1095 -0.4892  0.4572
 7301SOL     OW33538   1.062   0.008   3.664  0.3045  0.1983 -0.2118
 7301SOL    HW133539   1.107   4.667   3.684 -1.6858 -0.9801 -0.4813
 7301SOL    HW233540   1.047   0.007   3.569 -1.6823  0.3988  0.0992
 7302SOL     OW33541   1.941   1.005   1.969  0.4794 -0.1117  0.0745
 7302SOL    HW133542   2.025   1.025   1.930  0.4555  1.7043  0.9555
 7302SOL    HW233543   1.883   1.019   1.894  0.1255 -1.9547 -0.0096
 7303SOL     OW33544   3.147   0.379   7.857  0.2337  0.3208 -0.0805
 7303SOL    HW133545   3.106   0.409   7.776 -0.9760  1.6994  1.0573
 7303SOL    HW233546   3.160   0.458   7.908  2.2527  1.2391 -1.9852
 7304SOL     OW33547   0.781   2.551   9.343 -0.2679  0.0812  0.0171
 7304SOL    HW133548   0.796   2.457   9.356 -0.7384  0.1936  1.4339
 7304SOL    HW233549   0.686   2.544   9.354 -0.1187 -0.8940  0.7316
 7305SOL     OW33550   3.414   2.070   6.426  0.7695  0.5923  0.5215
 7305SOL    HW133551   3.338   2.121   6.455 -0.4484 -0.9929  0.1421
 7305SOL    HW233552   3.484   2.135   6.418 -1.1373  2.4121 -1.4188
 7306SOL     OW33553   0.125   1.876   8.151  0.3369 -0.1894 -0.0371
 7306SOL    HW133554   0.067   1.944   8.184 -1.0429 -0.7562 -1.2955
 7306SOL    HW233555   0.195   1.869   8.217  0.5473  0.4161 -0.1960
 7307SOL     OW33556   0.979   0.832   1.610  0.6795  0.1757 -0.2864
 7307SOL    HW133557   1.036   0.864   1.539  0.0795  0.4914 -0.6233
 7307SOL    HW233558   0.976   0.908   1.668 -3.6486  0.2875 -0.6972
 7308SOL     OW33559   4.556   2.777   5.089 -0.3871  0.1645 -0.6062
 7308SOL    HW133560   4.603   2.805   5.167 -0.0188  1.7425 -1.3786
 7308SOL    HW233561   4.587   2.835   5.019 -0.9618 -0.7303 -1.6171
 7309SOL     OW33562   0.317   0.456   5.078  0.5029  0.0839  0.7378
 7309SOL    HW133563   0.297   0.503   4.997  0.7563  0.2136  0.7510
 7309SOL    HW233564   0.338   0.536   5.125  0.1547  1.1997 -1.0045
 7310SOL     OW33565   0.576   3.388   1.276 -0.1045  0.2176  0.2975
 7310SOL    HW133566   0.621   3.446   1.214  1.3537 -1.2058  0.0376
 7310SOL    HW233567   0.657   3.346   1.303  0.9656  0.4406 -2.5821
 7311SOL     OW33568   3.710   1.751   4.793 -0.0569  0.2324 -0.3166
 7311SOL    HW133569   3.788   1.731   4.741  0.1366 -0.9608  0.4455
 7311SOL    HW233570   3.655   1.673   4.797  0.8136 -0.4116 -1.1005
 7312SOL     OW33571   3.314   4.659   3.037  0.0978  0.3346  0.1404
 7312SOL    HW133572   3.266   4.657   3.120 -1.5418 -0.7514 -0.8179
 7312SOL    HW233573   3.265   4.594   2.986 -0.3236 -0.2489  1.2909
 7313SOL     OW33574   3.906   4.707   8.795  0.1291 -0.4199  0.1191
 7313SOL    HW133575   3.959   4.671   8.866 -2.3586 -2.3221  1.0287
 7313SOL    HW233576   3.932   4.645   8.727 -1.3779 -1.5110  0.5392
 7314SOL     OW33577   2.946   2.114   7.721 -0.0264  0.1997 -0.3498
 7314SOL    HW133578   2.862   2.100   7.767  1.6063 -1.5877  2.0877
 7314SOL    HW233579   2.988   2.178   7.778 -2.3790  0.9094  0.6182
 7315SOL     OW33580   1.970   1.327   9.955  0.2541  0.1629 -0.5011
 7315SOL    HW133581   1.916   1.377   9.893  0.5121  2.2560  0.9463
 7315SOL    HW233582   2.030   1.288   9.891 -0.1415 -0.1253 -0.6966
 7316SOL     OW33583   3.420   2.798   1.460  0.3867 -0.1128  0.0518
 7316SOL    HW133584   3.367   2.776   1.384 -1.5713  1.6508  0.9245
 7316SOL    HW233585   3.467   2.715   1.455 -1.8174 -1.1650 -2.6795
 7317SOL     OW33586   3.591   2.676   6.467 -0.4243 -0.0299  0.2485
 7317SOL    HW133587   3.546   2.645   6.388  0.8153 -2.4042  0.4705
 7317SOL    HW233588   3.537   2.744   6.507  2.9345  2.3464  0.7632
 7318SOL     OW33589   4.542   0.445   1.737 -0.0070  0.3926  0.0554
 7318SOL    HW133590   4.599   0.407   1.804  0.2422  1.8116  0.6572
 7318SOL    HW233591   4.606   0.478   1.674 -0.9263  1.0515 -0.5443
 7319SOL     OW33592   3.090   0.082  14.464 -0.5458 -0.1600  0.0713
 7319SOL    HW133593   3.175   0.092  14.421 -0.2664  1.3045  0.9844
 7319SOL    HW233594   3.098   4.729  14.483 -0.1514  0.2476  1.9350
 7320SOL     OW33595   0.327   3.712   9.213 -0.1857  0.3476 -0.7565
 7320SOL    HW133596   0.325   3.622   9.244  2.4384  0.3070 -0.7254
 7320SOL    HW233597   0.421   3.720   9.193 -0.0703  0.6554 -0.0652
 7321SOL     OW33598   2.768   1.979   7.905  0.4287  0.6069 -0.6142
 7321SOL    HW133599   2.672   1.981   7.901  0.4466  0.4610 -1.0360
 7321SOL    HW233600   2.791   1.892   7.873  0.9823  0.1164  1.1300
 7322SOL     OW33601   1.972   0.729  14.474 -0.1959  0.5136 -0.2984
 7322SOL    HW133602   1.919   0.657  14.442  0.7909  1.0164 -3.1118
 7322SOL    HW233603   2.011   0.753  14.390 -0.3307  2.1840  0.1025
 7323SOL     OW33604   2.114   2.311   3.379  0.0692 -0.4515  0.2120
 7323SOL    HW133605   2.154   2.385   3.333  0.1257 -0.5278  0.1402
 7323SOL    HW233606   2.022   2.310   3.352  0.6465  1.3386 -1.8760
 7324SOL     OW33607   2.386   1.253   6.587 -0.4175  0.2362  0.0672
 7324SOL    HW133608   2.306   1.277   6.540  0.8776 -1.5884 -3.0775
 7324SOL    HW233609   2.410   1.344   6.604  1.2438 -0.7335  2.9380
 7325SOL     OW33610   1.758   3.435   2.581  0.1497 -0.3909  0.4689
 7325SOL    HW133611   1.734   3.370   2.516 -0.3877  0.9405 -0.6646
 7325SOL    HW233612   1.715   3.396   2.657  0.3177  1.0165  1.2924
 7326SOL     OW33613   2.112   3.948   5.047 -0.2568 -0.1803  0.4407
 7326SOL    HW133614   2.080   4.021   4.994  2.2731  1.7998  1.6657
 7326SOL    HW233615   2.030   3.903   5.067  0.2499 -1.2979  0.0205
 7327SOL     OW33616   0.297   3.787   6.481  0.1758 -0.2234 -0.7230
 7327SOL    HW133617   0.337   3.801   6.395 -0.1761  3.0102 -0.3426
 7327SOL    HW233618   0.259   3.700   6.469  1.0400 -0.6834 -0.1914
 7328SOL     OW33619   4.604   3.780   2.084 -0.2692 -0.5201 -0.5670
 7328SOL    HW133620   4.615   3.712   2.018  1.8501  0.7547 -1.5385
 7328SOL    HW233621   4.637   3.726   2.156 -0.0251  3.3731  2.2302
 7329SOL     OW33622   1.027   2.304   3.416  0.1815  0.0754  0.1737
 7329SOL    HW133623   1.111   2.297   3.462 -1.1754  0.9697  2.8013
 7329SOL    HW233624   0.971   2.289   3.493  0.0273 -1.1757 -0.1722
 7330SOL     OW33625   0.714   1.904  16.306  0.0782  0.4326  0.1791
 7330SOL    HW133626   0.734   1.902  16.212 -0.5050 -3.1058  0.1215
 7330SOL    HW233627   0.653   1.831  16.317  2.8296 -1.8528  0.2048
 7331SOL     OW33628   2.807   0.479   3.288 -0.0143  0.4716  0.2075
 7331SOL    HW133629   2.832   0.515   3.202 -0.0818 -2.0351 -0.8766
 7331SOL    HW233630   2.806   0.560   3.338 -1.9580  1.2303 -1.0593
 7332SOL     OW33631   4.440   4.498   0.768  0.1301  0.5667  0.0265
 7332SOL    HW133632   4.443   4.582   0.815 -0.6833 -0.8278  2.5286
 7332SOL    HW233633   4.349   4.505   0.737 -0.5833 -1.1697  1.7328
 7333SOL     OW33634   4.015   3.221   3.860  0.3858  0.2377 -0.3312
 7333SOL    HW133635   4.036   3.214   3.954  1.3083 -0.6107 -0.6036
 7333SOL    HW233636   4.070   3.148   3.831  1.1286  1.3037 -1.5971
 7334SOL     OW33637   0.342   2.641   4.515  0.2450  0.1927 -0.4291
 7334SOL    HW133638   0.337   2.563   4.571 -1.6129  1.4751  1.1877
 7334SOL    HW233639   0.282   2.697   4.564 -0.4629 -0.1956 -0.8656
 7335SOL     OW33640   1.145   1.431  10.632  0.0522  0.3112 -0.3186
 7335SOL    HW133641   1.230   1.472  10.645  0.4664 -0.7276  0.2488
 7335SOL    HW233642   1.146   1.411  10.539  0.3320 -0.0622 -0.2357
 7336SOL     OW33643   1.376   3.576   3.806 -0.0232 -0.0952 -0.0212
 7336SOL    HW133644   1.379   3.532   3.721 -0.4554  0.7547 -0.4810
 7336SOL    HW233645   1.320   3.519   3.858 -1.3350  1.3263  0.1311
 7337SOL     OW33646   2.580   4.707   2.481  0.2923  0.2769  0.2639
 7337SOL    HW133647   2.591   0.031   2.551 -2.4456 -0.0947  1.0213
 7337SOL    HW233648   2.659   4.654   2.496  1.2689  1.2267 -1.5138
 7338SOL     OW33649   3.842   0.168   2.582  0.3400  0.4825 -0.0578
 7338SOL    HW133650   3.793   0.166   2.665 -1.4853  1.4319 -1.0910
 7338SOL    HW233651   3.827   0.077   2.557  0.3397  0.2711  0.7174
 7339SOL     OW33652   2.877   0.670   1.723  0.0587  0.7200  0.4028
 7339SOL    HW133653   2.811   0.740   1.728 -0.8109 -0.2532  2.5706
 7339SOL    HW233654   2.823   0.607   1.771  1.6048  0.4406  1.7607
 7340SOL     OW33655   1.698   1.464   4.591 -0.2155 -0.1805  0.4755
 7340SOL    HW133656   1.748   1.446   4.511 -1.5251 -0.7617 -0.2145
 7340SOL    HW233657   1.765   1.462   4.659  0.7535  3.2359 -0.4132
 7341SOL     OW33658   4.536   0.698   3.012 -0.3375 -0.2992  0.1641
 7341SOL    HW133659   4.567   0.768   2.954  1.3056 -2.2931 -1.3722
 7341SOL    HW233660   4.547   0.622   2.955  1.1785 -0.9695  1.3267
 7342SOL     OW33661   4.283   1.241   0.797  0.5901  0.2870 -0.8661
 7342SOL    HW133662   4.231   1.180   0.849  2.7016  1.6357  2.7816
 7342SOL    HW233663   4.225   1.316   0.783 -0.3932 -0.3674 -0.3216
 7343SOL     OW33664   4.088   2.369   9.019  0.2936  0.0205  0.5895
 7343SOL    HW133665   4.061   2.300   9.080  0.2318 -0.1656  0.3508
 7343SOL    HW233666   4.183   2.358   9.027  0.8527  4.4235  0.4983
 7344SOL     OW33667   1.481   3.569   9.489  0.7716 -0.2232 -0.2083
 7344SOL    HW133668   1.422   3.614   9.549  1.3170  0.2155 -0.0061
 7344SOL    HW233669   1.530   3.635   9.439  0.2247  0.0511 -0.3783
 7345SOL     OW33670   1.318   2.223   7.890  0.0036 -0.0998  0.1609
 7345SOL    HW133671   1.225   2.203   7.880 -0.3640  0.9599  1.4359
 7345SOL    HW233672   1.318   2.316   7.911 -2.1764  0.0860 -0.6541
 7346SOL     OW33673   3.282   2.023   9.123  0.0767 -0.1305 -0.2706
 7346SOL    HW133674   3.195   2.016   9.086 -0.1630 -0.0792  0.2871
 7346SOL    HW233675   3.327   1.942   9.096  1.0420  0.2187  0.2725
 7347SOL     OW33676   4.521   4.208  11.109 -0.1685 -0.1864 -0.1283
 7347SOL    HW133677   4.452   4.265  11.141  0.5271  0.5833 -0.0162
 7347SOL    HW233678   4.545   4.249  11.026  0.9910  0.7072  0.6578
 7348SOL     OW33679   1.655   1.452   3.048 -0.7138  0.2679 -0.2224
 7348SOL    HW133680   1.634   1.414   2.962  0.1617 -0.4426 -0.1266
 7348SOL    HW233681   1.750   1.459   3.044 -0.7115  0.2253 -0.2504
 7349SOL     OW33682   3.979   3.171   6.224  0.5821  0.2635  0.1871
 7349SOL    HW133683   3.980   3.077   6.244  1.4861  0.4896  1.1998
 7349SOL    HW233684   3.922   3.165   6.147  2.2963 -1.8296 -0.9053
 7350SOL     OW33685   4.498   2.188   0.321 -0.5045 -0.2660  0.1060
 7350SOL    HW133686   4.438   2.119   0.351 -0.6596 -0.4366 -0.5813
 7350SOL    HW233687   4.582   2.152   0.348 -0.2692  1.1469  1.2288
 7351SOL     OW33688   1.213   2.697   7.839  0.4513 -0.3266  0.3007
 7351SOL    HW133689   1.268   2.669   7.912  0.5245 -0.7938  0.0682
 7351SOL    HW233690   1.278   2.726   7.774  1.5506  1.0008  1.9932
 7352SOL     OW33691   2.110   0.094   2.040 -0.3798  0.2355  0.7062
 7352SOL    HW133692   2.183   0.154   2.024 -1.0338  1.3355  1.8522
 7352SOL    HW233693   2.029   0.145   2.045 -0.2547  0.5496 -0.5711
 7353SOL     OW33694   4.199   3.572   6.411  0.4381  0.1972  0.0537
 7353SOL    HW133695   4.219   3.665   6.424 -2.9263  1.1251 -1.1689
 7353SOL    HW233696   4.272   3.547   6.355  0.2611  1.0691 -0.5722
 7354SOL     OW33697   3.402   2.718   3.015  0.0471  0.2967  0.6409
 7354SOL    HW133698   3.330   2.780   3.025  0.3432  0.5219  1.3524
 7354SOL    HW233699   3.457   2.755   3.083 -0.1936  3.7828 -1.0681
 7355SOL     OW33700   1.220   2.633   9.260 -0.3226  0.1858 -0.4460
 7355SOL    HW133701   1.139   2.644   9.310 -0.0569 -2.9317  0.6898
 7355SOL    HW233702   1.241   2.724   9.240  3.4489 -0.5939  0.0448
 7356SOL     OW33703   2.454   0.239   6.080 -0.0875  0.5460  0.1734
 7356SOL    HW133704   2.431   0.256   5.989  2.0722 -0.8135 -0.6434
 7356SOL    HW233705   2.500   0.156   6.069 -0.7819  0.1543  0.2371
 7357SOL     OW33706   4.072   3.120  15.845 -0.5082 -0.1845  0.2640
 7357SOL    HW133707   4.158   3.082  15.862 -0.4219  0.7063  1.8079
 7357SOL    HW233708   4.072   3.193  15.907 -0.2630  1.7145 -2.0087
 7358SOL     OW33709   1.781   3.769   3.536  0.2254 -0.3400 -0.2806
 7358SOL    HW133710   1.793   3.858   3.502  1.3644 -1.0408 -1.7226
 7358SOL    HW233711   1.690   3.769   3.568  0.1125  0.0865 -0.5943
 7359SOL     OW33712   0.398   2.589  10.984  0.4787  0.0649 -0.0723
 7359SOL    HW133713   0.311   2.604  10.946  0.7525 -1.8684 -1.4319
 7359SOL    HW233714   0.383   2.521  11.050 -1.1582  1.5888  1.1316
 7360SOL     OW33715   3.822   1.050   2.496 -0.0123 -0.0488 -0.5023
 7360SOL    HW133716   3.903   1.098   2.478  1.1967 -2.0448 -0.4069
 7360SOL    HW233717   3.767   1.120   2.530 -1.8448 -0.5211 -2.4992
 7361SOL     OW33718   1.550   0.532   4.384 -0.0521  0.2946 -0.2015
 7361SOL    HW133719   1.481   0.516   4.449 -2.1344  1.2085 -2.1853
 7361SOL    HW233720   1.541   0.459   4.323 -0.1650  0.0860  0.0660
 7362SOL     OW33721   0.375   1.633   6.586  0.8123  0.6951 -0.0452
 7362SOL    HW133722   0.407   1.664   6.671 -0.4119  1.8294 -0.0021
 7362SOL    HW233723   0.451   1.577   6.569  0.4827  0.6735 -1.4239
 7363SOL     OW33724   1.338   0.396   2.676  0.7470  0.0880 -0.2024
 7363SOL    HW133725   1.366   0.418   2.765  0.2258 -1.8466  0.4468
 7363SOL    HW233726   1.336   0.300   2.681  2.6448  0.1086  1.0596
 7364SOL     OW33727   0.636   1.816   8.580  0.0699 -0.0257  0.7694
 7364SOL    HW133728   0.706   1.752   8.593 -0.2166 -0.5916 -0.4725
 7364SOL    HW233729   0.675   1.903   8.573 -0.1075  0.1054  1.3949
 7365SOL     OW33730   0.959   2.910   2.982 -0.2662  0.2083 -0.8750
 7365SOL    HW133731   0.960   3.006   2.984  0.9399  0.1749  0.4467
 7365SOL    HW233732   1.042   2.886   2.942  0.4151  1.2253 -0.0720
 7366SOL     OW33733   1.397   3.321   6.142 -0.3683 -0.2982 -0.2067
 7366SOL    HW133734   1.416   3.381   6.215 -1.0562 -1.3870  0.8681
 7366SOL    HW233735   1.479   3.271   6.142 -1.4884 -2.1271 -1.4137
 7367SOL     OW33736   3.435   1.603   8.836  0.2352  0.2409  0.2300
 7367SOL    HW133737   3.416   1.689   8.798  1.6313 -0.4418 -2.0321
 7367SOL    HW233738   3.521   1.634   8.864  0.2188 -0.0156  0.5611
 7368SOL     OW33739   3.233   0.778   9.682  0.2341 -0.3589 -0.7662
 7368SOL    HW133740   3.140   0.775   9.660  0.2827  0.9106 -1.1522
 7368SOL    HW233741   3.245   0.723   9.760 -0.9947 -0.0630 -0.3702
 7369SOL     OW33742   2.940   2.940  14.510 -0.0316 -0.1117  0.5334
 7369SOL    HW133743   2.958   2.849  14.486 -1.3728 -0.1603 -0.2554
 7369SOL    HW233744   2.922   2.981  14.426  2.4313  1.8027  0.9249
 7370SOL     OW33745   4.404   1.309   5.005 -0.1588 -0.3367  0.1268
 7370SOL    HW133746   4.460   1.368   5.056 -0.9172  0.6105 -0.1439
 7370SOL    HW233747   4.336   1.367   4.971 -0.4980 -1.5375 -1.2208
 7371SOL     OW33748   2.855   0.855   8.686  0.6883 -0.2024  0.2080
 7371SOL    HW133749   2.849   0.949   8.668  0.4061  0.1102  1.9638
 7371SOL    HW233750   2.858   0.855   8.782  2.9471  2.4316  0.1369
 7372SOL     OW33751   1.745   3.459   0.328  0.0833 -0.1693 -0.5836
 7372SOL    HW133752   1.694   3.480   0.406 -1.8380  1.1333 -2.2106
 7372SOL    HW233753   1.779   3.547   0.317 -2.4506  0.7337 -1.1213
 7373SOL     OW33754   0.898   2.934   4.562 -0.0698 -0.2280 -0.7061
 7373SOL    HW133755   0.964   2.875   4.600  0.2143  0.2960 -0.3859
 7373SOL    HW233756   0.946   2.974   4.490  2.4210  1.5287  1.9362
 7374SOL     OW33757   3.506   1.383   5.805  0.1448  0.1872 -0.3237
 7374SOL    HW133758   3.454   1.361   5.882  0.8695  3.1361  0.9821
 7374SOL    HW233759   3.570   1.448   5.832  0.5650 -1.7272  3.3101
 7375SOL     OW33760   0.278   2.423   5.130 -0.1135  0.1892  0.6329
 7375SOL    HW133761   0.214   2.457   5.069  1.4906  0.5920 -0.8158
 7375SOL    HW233762   0.355   2.418   5.074 -1.0484  2.2089 -0.8030
 7376SOL     OW33763   4.555   2.350   1.213 -0.3277  0.9456  0.1444
 7376SOL    HW133764   4.609   2.271   1.212  0.7972  1.7222 -0.4588
 7376SOL    HW233765   4.474   2.306   1.239  0.4812 -0.3860  0.4067
 7377SOL     OW33766   1.356   0.125  11.060  0.2082  0.2144 -0.0491
 7377SOL    HW133767   1.425   0.097  11.120 -0.9470 -2.1109  0.1940
 7377SOL    HW233768   1.406   0.179  10.999  0.3144  1.4659  1.1458
 7378SOL     OW33769   3.331   2.666   5.026  0.2177  0.4879 -0.3305
 7378SOL    HW133770   3.250   2.627   4.995  1.1658 -0.4786 -1.5986
 7378SOL    HW233771   3.392   2.597   5.000  0.5908  0.7990 -0.2913
 7379SOL     OW33772   2.931   1.577  16.034 -0.1939  0.0572 -0.2449
 7379SOL    HW133773   2.973   1.631  16.101 -0.2249 -1.9112  1.3291
 7379SOL    HW233774   2.839   1.568  16.059 -0.3212  1.0027 -0.3663
 7380SOL     OW33775   0.481   0.721  13.414 -0.3014  0.1174  0.1958
 7380SOL    HW133776   0.490   0.764  13.329  0.8269  0.7093  0.6111
 7380SOL    HW233777   0.427   0.646  13.389 -0.5661  0.0843  0.8611
 7381SOL     OW33778   0.258   1.722  14.771 -0.4236 -0.0036  0.4197
 7381SOL    HW133779   0.343   1.766  14.764  0.0497 -1.1639 -1.1142
 7381SOL    HW233780   0.267   1.662  14.846  1.1577  3.0913  2.6834
 7382SOL     OW33781   0.323   1.937   5.806 -0.2871  0.7303 -0.3743
 7382SOL    HW133782   0.346   1.899   5.721 -0.5191 -0.6286  0.1793
 7382SOL    HW233783   0.393   1.893   5.854  1.2470  0.8296 -2.4868
 7383SOL     OW33784   0.383   0.640   2.801 -0.2835  0.3875  0.2558
 7383SOL    HW133785   0.290   0.629   2.782 -0.0432  0.6021 -1.0459
 7383SOL    HW233786   0.395   0.552   2.837  0.3641  0.1136 -0.6314
 7384SOL     OW33787   1.874   1.075   3.572  0.3643  0.3601  0.2843
 7384SOL    HW133788   1.785   1.050   3.545  1.0875 -0.3757 -1.4703
 7384SOL    HW233789   1.860   1.150   3.630  0.9881  0.0318  0.8525
 7385SOL     OW33790   1.904   2.667   7.187  0.1894  0.4522 -0.4932
 7385SOL    HW133791   1.858   2.718   7.121 -2.8309 -0.6796  0.7563
 7385SOL    HW233792   1.837   2.629   7.244  1.6015 -0.2180  0.7160
 7386SOL     OW33793   0.580   1.294   1.673  0.1205 -0.3722 -0.0247
 7386SOL    HW133794   0.573   1.307   1.578  1.0840  1.1100  0.1121
 7386SOL    HW233795   0.652   1.234   1.692 -1.0411 -1.0659  2.1265
 7387SOL     OW33796   1.690   0.135   5.799 -0.0995 -0.0558 -0.6311
 7387SOL    HW133797   1.646   0.164   5.719 -1.6771  0.9678  0.6255
 7387SOL    HW233798   1.708   0.043   5.777 -0.3884  0.0647 -1.3769
 7388SOL     OW33799   1.642   0.135   2.414  0.0326  0.8138  0.0203
 7388SOL    HW133800   1.731   0.142   2.380 -0.4889  1.9172 -1.1286
 7388SOL    HW233801   1.659   0.130   2.508  0.2303 -0.7168 -0.0963
 7389SOL     OW33802   1.387   2.369  14.911 -0.2953  0.4501  0.7015
 7389SOL    HW133803   1.297   2.349  14.886 -0.1398  0.7086 -0.0620
 7389SOL    HW233804   1.388   2.337  15.001 -0.8167  0.4031  0.6918
 7390SOL     OW33805   0.283   0.852   1.979  0.4129  0.3519 -0.5061
 7390SOL    HW133806   0.244   0.939   1.965  0.8613  0.6419  0.0340
 7390SOL    HW233807   0.225   0.809   1.916 -0.0832  0.4993 -0.1528
 7391SOL     OW33808   0.295   2.146   4.022  0.4144  0.2082 -0.0412
 7391SOL    HW133809   0.337   2.190   4.095  2.4052 -2.7693  0.5987
 7391SOL    HW233810   0.270   2.226   3.977  1.2078  0.0338 -0.7833
 7392SOL     OW33811   2.010   2.474   1.934  0.3826 -0.0529 -0.0898
 7392SOL    HW133812   2.066   2.397   1.932  1.4963  0.7919 -2.0861
 7392SOL    HW233813   2.060   2.536   1.987  0.0471  0.7487 -0.7058
 7393SOL     OW33814   2.533   3.562   6.837  0.3537  0.0992 -0.1520
 7393SOL    HW133815   2.555   3.479   6.879 -2.2722 -1.5537 -2.0571
 7393SOL    HW233816   2.615   3.607   6.820  0.3962  0.4274  0.9013
 7394SOL     OW33817   1.861   3.436   7.124  0.0453  0.4356  0.2324
 7394SOL    HW133818   1.835   3.488   7.049  0.5358 -1.0884 -0.9815
 7394SOL    HW233819   1.780   3.448   7.174 -1.0728  0.1577 -1.5144
 7395SOL     OW33820   4.156   4.151  15.267 -0.8053 -0.4010 -0.2339
 7395SOL    HW133821   4.202   4.210  15.208  0.3528 -0.8920  0.1838
 7395SOL    HW233822   4.178   4.209  15.339  0.0285 -0.1287 -0.7135
 7396SOL     OW33823   0.482   3.106  17.560  0.5503 -0.5087  0.5125
 7396SOL    HW133824   0.572   3.082  17.585  0.6190  0.7813  1.4822
 7396SOL    HW233825   0.470   3.173  17.627  1.2936  0.7548 -0.6081
 7397SOL     OW33826   2.255   2.347   8.906  0.2421 -0.6485  0.1598
 7397SOL    HW133827   2.229   2.352   8.814  0.3205  2.6187  0.3427
 7397SOL    HW233828   2.334   2.295   8.896 -0.3861 -1.1724 -2.0662
 7398SOL     OW33829   1.718   0.271  17.364 -0.0159 -0.6359 -0.6209
 7398SOL    HW133830   1.647   0.336  17.359  0.7931  0.3826  1.3191
 7398SOL    HW233831   1.792   0.309  17.315 -1.8010  1.4489 -1.7351
 7399SOL     OW33832   0.347   3.166   8.628 -0.9360 -0.2474  0.9068
 7399SOL    HW133833   0.368   3.242   8.574 -1.0890 -0.0141  1.1730
 7399SOL    HW233834   0.252   3.172   8.622 -1.0061  0.1825  2.4088
 7400SOL     OW33835   3.433   3.419  17.242  0.0912  0.2650 -0.5016
 7400SOL    HW133836   3.501   3.482  17.264  0.2525  0.7681 -2.4265
 7400SOL    HW233837   3.416   3.457  17.156 -0.1830  1.5654  0.1327
 7401SOL     OW33838   0.939   2.046   6.829  0.0788 -0.1602 -0.0790
 7401SOL    HW133839   0.870   1.987   6.862  1.6771 -0.7022  2.2756
 7401SOL    HW233840   0.890   2.117   6.788 -0.6966 -1.2723 -1.1087
 7402SOL     OW33841   4.124   4.067  16.595  0.3257 -0.0710  0.0657
 7402SOL    HW133842   4.136   3.999  16.529  2.4575  1.5277 -1.2065
 7402SOL    HW233843   4.169   4.143  16.558 -2.9634  1.8703  0.0897
 7403SOL     OW33844   3.990   2.586   0.885  0.6427 -0.5460 -0.6699
 7403SOL    HW133845   4.075   2.577   0.841  2.2180  1.8582  1.8747
 7403SOL    HW233846   4.017   2.622   0.969 -0.8598 -0.3516 -0.2810
 7404SOL     OW33847   4.268   2.602   1.786  0.0204 -0.4098  0.6361
 7404SOL    HW133848   4.293   2.576   1.697  0.1175  1.0553  0.2341
 7404SOL    HW233849   4.249   2.520   1.831  0.9015 -1.0550 -0.1594
 7405SOL     OW33850   3.801   3.068   6.734  0.7156  0.1644  0.2095
 7405SOL    HW133851   3.866   3.020   6.786 -0.2163 -1.7460 -0.3648
 7405SOL    HW233852   3.735   3.087   6.801 -0.3782 -1.8423 -0.2904
 7406SOL     OW33853   3.921   2.226   6.809 -0.3686 -0.4084 -0.2583
 7406SOL    HW133854   3.871   2.203   6.730  0.1929  0.2604 -0.8042
 7406SOL    HW233855   3.979   2.151   6.821 -0.2420 -0.5021 -1.3710
 7407SOL     OW33856   3.878   2.817   7.987 -0.3453 -0.7300 -0.3118
 7407SOL    HW133857   3.809   2.869   7.946 -0.8070 -1.7832 -0.8770
 7407SOL    HW233858   3.889   2.860   8.072  1.0937 -1.6775 -0.0100
 7408SOL     OW33859   2.407   2.164  13.363  0.0612  0.3247  0.1743
 7408SOL    HW133860   2.479   2.174  13.301  0.1603  0.0636  0.2496
 7408SOL    HW233861   2.413   2.070  13.377 -0.2084  0.3824  0.6944
 7409SOL     OW33862   1.858   0.218   7.118  0.5489  0.6356  0.1426
 7409SOL    HW133863   1.811   0.286   7.166 -0.2523  0.8581 -0.9645
 7409SOL    HW233864   1.866   0.151   7.186 -1.9759  0.0736 -0.1274
 7410SOL     OW33865   2.804   0.364   0.661 -0.0276 -0.1711 -0.0544
 7410SOL    HW133866   2.792   0.331   0.572 -0.1086  0.5619 -0.3186
 7410SOL    HW233867   2.790   0.283   0.709  1.3109 -0.9132 -0.8913
 7411SOL     OW33868   1.014   3.297   2.054  0.3039 -0.5751 -0.1185
 7411SOL    HW133869   1.029   3.247   2.134 -0.5799  0.2429  0.5648
 7411SOL    HW233870   1.046   3.386   2.069  1.4496 -0.8441 -0.9425
 7412SOL     OW33871   0.632   3.765   2.669 -0.4060 -0.2043 -0.0542
 7412SOL    HW133872   0.652   3.848   2.624 -2.4650 -1.0494 -2.5551
 7412SOL    HW233873   0.665   3.705   2.603  0.9280  1.0232 -0.5136
 7413SOL     OW33874   1.394   1.488   6.357 -0.2510  0.1384  0.8231
 7413SOL    HW133875   1.453   1.430   6.406 -1.3547 -0.8519  0.9924
 7413SOL    HW233876   1.456   1.519   6.291  0.4618  1.1485  1.9757
 7414SOL     OW33877   4.115   2.048   8.892  0.4920  0.6215  0.7489
 7414SOL    HW133878   4.149   2.124   8.845 -0.0475  0.5285  0.2103
 7414SOL    HW233879   4.193   2.017   8.938  1.9793  3.3598  0.0804
 7415SOL     OW33880   0.770   3.549  15.683  0.4415  0.4272 -0.9187
 7415SOL    HW133881   0.685   3.517  15.711  0.4693  0.7832 -0.4452
 7415SOL    HW233882   0.749   3.618  15.620  0.8125  0.2034 -1.2943
 7416SOL     OW33883   3.356   4.199   4.646  0.0915  0.8234  0.4186
 7416SOL    HW133884   3.445   4.178   4.619 -0.0973  0.7050 -0.1121
 7416SOL    HW233885   3.354   4.177   4.739  1.9410 -1.6138 -0.1307
 7417SOL     OW33886   3.357   2.746   5.648 -0.1559  0.2935  0.9303
 7417SOL    HW133887   3.374   2.689   5.573  2.1927  3.0668 -0.6758
 7417SOL    HW233888   3.438   2.740   5.697  1.4357  2.4528 -1.4126
 7418SOL     OW33889   2.726   0.407   3.846 -0.2212  0.8062  1.1006
 7418SOL    HW133890   2.687   0.395   3.932 -1.2729  1.0222  0.6638
 7418SOL    HW233891   2.716   0.502   3.848  0.0281  0.8872 -1.2248
 7419SOL     OW33892   3.056   3.751   2.313 -0.9639  0.2203 -0.3352
 7419SOL    HW133893   3.013   3.716   2.235 -3.1005  1.5344  0.2575
 7419SOL    HW233894   2.975   3.741   2.364 -0.3330  2.8474  1.1471
 7420SOL     OW33895   3.655   3.908  13.209  0.0089 -0.2262  0.4158
 7420SOL    HW133896   3.610   3.925  13.292 -1.7222 -0.7402 -0.3992
 7420SOL    HW233897   3.679   3.994  13.176  0.4085  0.6429  3.0130
 7421SOL     OW33898   3.664   0.320   1.323  0.8710 -0.4015  0.3703
 7421SOL    HW133899   3.714   0.401   1.324  0.0872  0.0546  1.6734
 7421SOL    HW233900   3.726   0.248   1.312  0.3775 -0.7510 -0.1267
 7422SOL     OW33901   3.605   0.445   4.752  0.6386 -0.4231 -0.2842
 7422SOL    HW133902   3.542   0.416   4.687  0.4211  0.4574 -0.4565
 7422SOL    HW233903   3.580   0.382   4.821  0.2704 -0.4437 -0.4388
 7423SOL     OW33904   0.768   0.512   4.953 -0.2498  0.2810 -0.0518
 7423SOL    HW133905   0.724   0.453   5.014 -0.3996  0.0199 -0.4073
 7423SOL    HW233906   0.722   0.595   4.968  3.4037  2.1787  0.4941
 7424SOL     OW33907   1.181   1.638   8.653  0.2486 -0.7567 -0.0683
 7424SOL    HW133908   1.231   1.558   8.670 -0.1444 -1.1292 -0.7077
 7424SOL    HW233909   1.187   1.681   8.739 -2.1950 -2.3158  0.8698
 7425SOL     OW33910   2.850   3.836   8.133  0.7085 -0.8821 -0.2520
 7425SOL    HW133911   2.840   3.778   8.209 -1.4934  0.6659  0.6336
 7425SOL    HW233912   2.912   3.903   8.161 -1.7039  1.9601 -1.8219
 7426SOL     OW33913   0.176   4.196  17.455 -0.0231 -0.3791 -0.1895
 7426SOL    HW133914   0.211   4.222  17.370 -1.1562 -0.9569 -0.8334
 7426SOL    HW233915   0.223   4.114  17.470  1.9576  0.3043 -2.5886
 7427SOL     OW33916   3.257   0.890   7.941  0.0817 -0.0518  0.4489
 7427SOL    HW133917   3.219   0.803   7.949  1.8669 -0.6905  2.0691
 7427SOL    HW233918   3.289   0.896   7.851  0.6058  1.6173  0.7453
 7428SOL     OW33919   3.413   1.492  12.893 -0.2181  0.3496  0.3055
 7428SOL    HW133920   3.458   1.506  12.976  1.1641 -1.8837 -0.0613
 7428SOL    HW233921   3.413   1.396  12.891  2.0623  0.3487  0.4863
 7429SOL     OW33922   1.912   0.816  12.119 -0.6256  0.1616  0.1973
 7429SOL    HW133923   1.864   0.893  12.151 -0.1908  0.3747  0.3305
 7429SOL    HW233924   2.000   0.841  12.146 -1.0515 -0.2407  1.9688
 7430SOL     OW33925   0.561   1.181   3.647 -0.3090  0.0954  0.2863
 7430SOL    HW133926   0.589   1.104   3.598  0.4614  0.2579  0.4646
 7430SOL    HW233927   0.551   1.141   3.733 -1.0459 -0.8926 -0.2605
 7431SOL     OW33928   0.760   4.509   8.718  0.6078  0.2732 -0.0695
 7431SOL    HW133929   0.738   4.543   8.631 -2.4816  0.9367  0.9670
 7431SOL    HW233930   0.674   4.527   8.757 -0.3124 -1.5108 -1.2326
 7432SOL     OW33931   1.414   1.843   3.044  0.7342  0.0207  0.0951
 7432SOL    HW133932   1.471   1.785   3.095  0.5406 -1.7562 -1.7005
 7432SOL    HW233933   1.370   1.776   2.993 -0.3240  2.1138 -1.7230
 7433SOL     OW33934   4.043   1.190  16.748 -0.0617 -0.3926  0.6642
 7433SOL    HW133935   3.974   1.254  16.765 -1.5617 -1.3578 -1.8181
 7433SOL    HW233936   3.997   1.125  16.695 -3.2513  1.6216  1.0217
 7434SOL     OW33937   2.616   1.616   4.478  0.3865  0.2070 -0.3073
 7434SOL    HW133938   2.594   1.650   4.565 -1.9944 -2.9910  0.3194
 7434SOL    HW233939   2.548   1.655   4.423 -0.0789 -2.2802 -1.5057
 7435SOL     OW33940   3.020   2.834   8.006  0.4534  0.1214 -0.1925
 7435SOL    HW133941   3.085   2.839   7.936  2.4224 -0.8487  1.5683
 7435SOL    HW233942   3.067   2.803   8.083 -0.8320 -0.6513  0.2884
 7436SOL     OW33943   2.456   3.540   5.375  0.0419  0.0855  0.0281
 7436SOL    HW133944   2.463   3.458   5.425  3.0226 -0.6319 -1.4969
 7436SOL    HW233945   2.424   3.599   5.443 -0.7103  0.2308 -0.4519
 7437SOL     OW33946   4.629   1.912   6.530  0.5456 -0.4882  0.5111
 7437SOL    HW133947   4.624   1.991   6.475 -0.0124  0.5554  2.0783
 7437SOL    HW233948   4.620   1.954   6.615 -0.5377 -0.7828  0.5381
 7438SOL     OW33949   2.639   2.401   1.818  0.3475 -0.7312  0.2826
 7438SOL    HW133950   2.686   2.378   1.898  0.1465 -0.9771  0.3307
 7438SOL    HW233951   2.572   2.461   1.849 -0.4531 -1.3217 -0.3157
 7439SOL     OW33952   1.874   4.163   2.629  0.2799  0.0425 -0.6986
 7439SOL    HW133953   1.872   4.069   2.610  1.2867 -0.1357  0.0925
 7439SOL    HW233954   1.805   4.188   2.567 -0.8816  0.8189  0.9313
 7440SOL     OW33955   4.193   1.592   8.642  0.0352 -0.2622  0.6949
 7440SOL    HW133956   4.205   1.500   8.667 -0.4728 -0.0110  1.8839
 7440SOL    HW233957   4.098   1.587   8.640 -0.0153  1.5324 -0.8822
 7441SOL     OW33958   0.129   4.093  10.904 -0.1987  0.0428 -0.1748
 7441SOL    HW133959   0.141   4.105  10.809  0.1840 -0.4053 -0.1834
 7441SOL    HW233960   0.199   4.028  10.912 -0.8900 -0.5059  1.3216
 7442SOL     OW33961   1.897   0.492   7.631 -0.2003  0.6981  0.5675
 7442SOL    HW133962   1.985   0.455   7.623  0.1620  1.5424  0.6249
 7442SOL    HW233963   1.842   0.414   7.618  1.7099 -0.7421  1.1499
 7443SOL     OW33964   3.044   3.811   1.391  0.1570 -0.7040  0.6489
 7443SOL    HW133965   3.084   3.738   1.439 -0.5280 -1.4594  0.0836
 7443SOL    HW233966   3.065   3.890   1.440 -3.2943  1.1446 -0.8213
 7444SOL     OW33967   2.989   1.901   3.364 -0.0847 -0.0074  0.2146
 7444SOL    HW133968   2.970   1.808   3.358  1.4907 -0.4400  1.7371
 7444SOL    HW233969   3.022   1.905   3.454  2.0416  2.3670 -0.6475
 7445SOL     OW33970   1.768   3.452   9.516  0.3417  0.5335 -0.8810
 7445SOL    HW133971   1.795   3.412   9.434 -0.6509  1.6578 -1.7681
 7445SOL    HW233972   1.808   3.540   9.516 -1.5196  1.3784 -0.5226
 7446SOL     OW33973   2.351   2.878   5.130 -0.7338 -0.7133  0.1612
 7446SOL    HW133974   2.288   2.870   5.201 -0.8541 -1.4929 -0.0303
 7446SOL    HW233975   2.422   2.927   5.172 -0.2285  0.5419 -2.1646
 7447SOL     OW33976   0.770   3.970   9.003 -0.0348  0.3230 -0.1257
 7447SOL    HW133977   0.824   3.980   9.081  1.4689  0.2848 -1.1572
 7447SOL    HW233978   0.703   4.037   9.010  0.1971  0.9030 -3.4176
 7448SOL     OW33979   3.176   3.602   1.509  0.0602 -0.1254 -0.1743
 7448SOL    HW133980   3.242   3.566   1.568  0.0786  0.6337  0.2824
 7448SOL    HW233981   3.157   3.520   1.464  0.6062 -0.7138  0.6551
 7449SOL     OW33982   0.538   3.770   0.450  0.4430 -0.5475 -0.0433
 7449SOL    HW133983   0.449   3.802   0.436  0.8903  1.1552  0.9851
 7449SOL    HW233984   0.587   3.792   0.371 -0.4611  0.8848 -0.1960
 7450SOL     OW33985   3.217   2.338   1.390  0.8095  0.2518  0.1997
 7450SOL    HW133986   3.259   2.280   1.325 -1.5739  1.0807 -2.0665
 7450SOL    HW233987   3.147   2.364   1.330 -0.5601 -0.5164  1.4694
 7451SOL     OW33988   0.287   0.675   4.543 -0.9068 -0.0035  0.1028
 7451SOL    HW133989   0.370   0.720   4.556 -0.0044 -2.0980  1.6210
 7451SOL    HW233990   0.290   0.635   4.456 -1.0929 -0.4916  0.3185
 7452SOL     OW33991   0.056   1.181   5.703 -0.1407  0.7117  0.0465
 7452SOL    HW133992   0.083   1.162   5.794 -0.6936  0.1366  0.0908
 7452SOL    HW233993   0.143   1.190   5.663 -0.0007 -0.3147  0.1012
 7453SOL     OW33994   1.530   0.627   1.982 -0.1075 -0.0180  0.1430
 7453SOL    HW133995   1.440   0.601   1.962 -1.0561  3.7196 -0.5725
 7453SOL    HW233996   1.517   0.719   2.005  1.2901 -0.3142  2.1000
 7454SOL     OW33997   0.999   4.570   4.930 -0.1872 -0.1887 -0.2423
 7454SOL    HW133998   1.072   4.525   4.974  0.4483 -0.7142 -1.8572
 7454SOL    HW233999   1.034   4.655   4.904  1.0506 -0.2493  1.2254
 7455SOL     OW34000   3.499   3.560   5.645  0.0539 -0.8531  0.2524
 7455SOL    HW134001   3.404   3.554   5.635 -0.0764  1.8429  0.0137
 7455SOL    HW234002   3.509   3.655   5.653 -2.2001 -0.6611  0.6754
 7456SOL     OW34003   0.719   1.534   8.375  0.0417  0.2524 -0.0417
 7456SOL    HW134004   0.666   1.499   8.304 -1.5791  0.2132  1.1916
 7456SOL    HW234005   0.680   1.621   8.390  1.7900  0.7868  1.3849
 7457SOL     OW34006   4.502   4.644   5.073 -0.2411 -0.5724 -0.1826
 7457SOL    HW134007   4.426   4.643   5.132  0.3607 -2.0044  0.5675
 7457SOL    HW234008   4.564   4.587   5.117 -1.7359 -1.7304  0.4449
 7458SOL     OW34009   3.286   4.222   6.170 -0.1445  0.2370  0.1099
 7458SOL    HW134010   3.223   4.199   6.102 -1.0451 -0.6486  1.2484
 7458SOL    HW234011   3.340   4.286   6.124 -1.4609  0.5936 -0.9190
 7459SOL     OW34012   2.191   1.328   6.409 -0.6510 -0.0004  0.2013
 7459SOL    HW134013   2.267   1.379   6.384 -1.4370  1.4052  0.7081
 7459SOL    HW234014   2.124   1.361   6.349 -3.4386 -2.3375  2.0348
 7460SOL     OW34015   4.448   0.499   1.203 -0.8435 -0.4423 -0.4783
 7460SOL    HW134016   4.440   0.499   1.298  1.9106  0.0133 -0.2567
 7460SOL    HW234017   4.402   0.581   1.183 -0.5296 -0.7190 -2.3456
 7461SOL     OW34018   1.215   1.184   9.322 -0.3754 -0.3348  0.6478
 7461SOL    HW134019   1.264   1.261   9.294  0.1857 -1.8146 -2.4114
 7461SOL    HW234020   1.279   1.123   9.287  0.0243 -0.1231  0.9978
 7462SOL     OW34021   1.197   0.940   0.891  0.4747  0.3825 -0.3749
 7462SOL    HW134022   1.104   0.952   0.872  0.5579 -0.4078 -1.2507
 7462SOL    HW234023   1.192   0.863   0.948 -0.2658  1.2830  0.7922
 7463SOL     OW34024   4.582   0.340   8.378 -0.9860  0.6021 -0.5553
 7463SOL    HW134025   4.636   0.327   8.456 -1.5689  0.5713 -0.1568
 7463SOL    HW234026   4.609   0.272   8.316 -2.6965 -0.9898  0.4423
 7464SOL     OW34027   3.519   0.979   0.461  0.0596  0.6159  0.7121
 7464SOL    HW134028   3.535   0.887   0.484 -0.0377  0.3928 -0.0951
 7464SOL    HW234029   3.576   0.991   0.384 -1.2973 -0.2395 -0.4349
 7465SOL     OW34030   3.447   1.338  11.000  0.4645  0.1055 -0.1539
 7465SOL    HW134031   3.394   1.336  10.920 -1.1112  3.4679  0.8093
 7465SOL    HW234032   3.383   1.296  11.058 -3.0594  1.6730 -2.9124
 7466SOL     OW34033   2.204   1.432   7.513  0.2488 -0.1474  0.7207
 7466SOL    HW134034   2.151   1.511   7.523  0.2317 -0.0314 -0.2027
 7466SOL    HW234035   2.270   1.458   7.449  0.7322  0.6293  1.5386
 7467SOL     OW34036   0.316   4.376   7.194  0.0422  0.0407 -0.5857
 7467SOL    HW134037   0.365   4.456   7.173  0.2840 -0.2407 -1.0975
 7467SOL    HW234038   0.242   4.377   7.133 -0.0260 -0.1802 -0.5070
 7468SOL     OW34039   0.003   4.000   1.394  0.6347  0.1046  0.2512
 7468SOL    HW134040   0.069   4.048   1.444  0.3655  3.6559 -2.8400
 7468SOL    HW234041   4.668   4.056   1.410  2.9090  2.8695  1.2755
 7469SOL     OW34042   4.078   2.476   3.056  0.0968  0.1976 -0.0768
 7469SOL    HW134043   3.995   2.522   3.044  1.2403  2.1768 -0.3245
 7469SOL    HW234044   4.056   2.404   3.115 -1.5305  0.2082 -0.6880
 7470SOL     OW34045   3.417   2.777  16.312  0.1153  0.5823  0.2238
 7470SOL    HW134046   3.468   2.850  16.345  0.9854  1.2649 -2.6236
 7470SOL    HW234047   3.373   2.747  16.392  0.9887 -0.5413  0.2856
 7471SOL     OW34048   0.980   3.830  17.140  0.2493 -0.2580 -0.6577
 7471SOL    HW134049   0.969   3.924  17.156  1.8296 -0.1446 -0.2284
 7471SOL    HW234050   1.068   3.836  17.102  0.8051  0.7768  0.7945
 7472SOL     OW34051   2.960   0.102   9.472 -0.7070  0.3345 -0.5407
 7472SOL    HW134052   3.019   0.083   9.545  1.9321 -0.5610 -2.9411
 7472SOL    HW234053   2.879   0.071   9.512 -0.1418 -1.4893 -0.7973
 7473SOL     OW34054   0.434   0.240   8.268  0.4307  0.1199 -0.7710
 7473SOL    HW134055   0.492   0.253   8.343 -2.1181  1.8152  0.9103
 7473SOL    HW234056   0.434   0.323   8.219  0.5256  0.1651 -0.6950
 7474SOL     OW34057   2.646   3.422   7.244  0.1123 -0.0521  0.1341
 7474SOL    HW134058   2.683   3.510   7.234  0.9847 -0.3758  0.4709
 7474SOL    HW234059   2.558   3.432   7.210 -1.0647 -1.7273  2.6185
 7475SOL     OW34060   0.273   0.757   2.513 -0.0291 -0.4646 -0.2480
 7475SOL    HW134061   0.231   0.784   2.431 -0.5796  3.2981  1.2714
 7475SOL    HW234062   0.216   0.797   2.578 -0.1629  0.8725 -1.1893
 7476SOL     OW34063   1.501   4.297   7.494 -0.2128 -0.1948 -0.1349
 7476SOL    HW134064   1.407   4.277   7.497 -0.5590  1.6131  1.4318
 7476SOL    HW234065   1.531   4.217   7.537 -1.3881 -0.7633 -0.3596
 7477SOL     OW34066   2.365   4.474   4.669  0.0195  0.4121  0.0313
 7477SOL    HW134067   2.296   4.538   4.684 -1.1429  0.0604 -3.8797
 7477SOL    HW234068   2.441   4.518   4.707  0.1217  1.3459 -1.2387
 7478SOL     OW34069   4.510   3.975   4.978  0.2188 -0.8995 -0.4003
 7478SOL    HW134070   4.497   4.058   4.932  2.2845 -0.1294  0.4182
 7478SOL    HW234071   4.535   4.016   5.061  0.4990  0.5307 -1.1917
 7479SOL     OW34072   3.385   3.806   1.967 -0.4038  0.0915  0.2020
 7479SOL    HW134073   3.462   3.829   1.915 -0.3741 -3.0136 -1.1043
 7479SOL    HW234074   3.399   3.856   2.048 -0.7047 -0.8785  0.8532
 7480SOL     OW34075   2.447   3.729   9.351 -0.6524 -0.4059  0.3497
 7480SOL    HW134076   2.365   3.765   9.384 -0.2494 -0.8481  1.8514
 7480SOL    HW234077   2.463   3.668   9.423  0.7797  0.1972  0.5451
 7481SOL     OW34078   3.987   0.362   7.975 -0.0540  0.1113 -0.3706
 7481SOL    HW134079   4.016   0.324   8.058  1.2258 -0.2054 -0.9480
 7481SOL    HW234080   4.056   0.427   7.957  0.3522 -0.4611 -0.8956
 7482SOL     OW34081   0.818   4.646   6.400 -0.0763 -0.1425  0.0446
 7482SOL    HW134082   0.912   4.627   6.405  0.4947  2.7323  0.0802
 7482SOL    HW234083   0.780   4.584   6.462 -0.9913 -0.3678 -0.7421
 7483SOL     OW34084   2.924   2.776  15.693 -0.1133  0.3316  0.1827
 7483SOL    HW134085   2.908   2.806  15.603  1.1614 -1.6705 -0.7183
 7483SOL    HW234086   2.866   2.700  15.698 -0.6594  0.8527  1.5618
 7484SOL     OW34087   1.613   1.667   0.485  0.0875 -0.1426  0.2660
 7484SOL    HW134088   1.633   1.642   0.575  1.5971 -1.4681 -0.4453
 7484SOL    HW234089   1.680   1.615   0.440 -0.9679 -0.8982 -0.4312
 7485SOL     OW34090   1.407   0.491  10.296 -0.7868  0.6214  0.5523
 7485SOL    HW134091   1.407   0.586  10.300 -0.1728  0.5924  1.3792
 7485SOL    HW234092   1.357   0.474  10.376  0.0254  1.9554  1.3458
 7486SOL     OW34093   3.285   2.703   9.999 -0.3411 -0.0287 -0.1640
 7486SOL    HW134094   3.321   2.656   9.924 -0.0954  0.3947 -0.3087
 7486SOL    HW234095   3.283   2.791   9.962  1.0767 -0.5077 -1.3662
 7487SOL     OW34096   0.968   0.624   7.750  0.1791 -0.2172 -0.4252
 7487SOL    HW134097   0.988   0.637   7.843  0.9089 -2.1398 -0.3069
 7487SOL    HW234098   0.912   0.546   7.755 -0.1439 -0.1475 -3.2906
 7488SOL     OW34099   1.448   2.604   4.802  0.0043 -0.1563  0.1353
 7488SOL    HW134100   1.476   2.537   4.740 -1.1512  0.5970 -1.2039
 7488SOL    HW234101   1.522   2.664   4.802  0.6470 -0.9570 -4.1008
 7489SOL     OW34102   1.037   2.501   7.385 -0.2471  0.9544  0.6126
 7489SOL    HW134103   0.973   2.560   7.345 -0.7741  0.2606  0.4261
 7489SOL    HW234104   1.030   2.547   7.468 -2.4042  1.8807 -0.0877
 7490SOL     OW34105   0.394   3.136   6.470  0.3262 -0.2871  0.0946
 7490SOL    HW134106   0.346   3.067   6.424 -1.5227  0.2868  1.1758
 7490SOL    HW234107   0.410   3.089   6.552 -0.0268  2.1511  1.5651
 7491SOL     OW34108   0.793   1.877   2.044 -0.1613  0.2667 -0.5440
 7491SOL    HW134109   0.880   1.841   2.028 -0.2554 -0.3063  0.2645
 7491SOL    HW234110   0.748   1.832   1.973 -3.2613 -1.8549  2.7610
 7492SOL     OW34111   4.325   1.545   6.089 -0.0704  0.3693  0.0248
 7492SOL    HW134112   4.288   1.465   6.125 -0.1629  0.3625 -0.0843
 7492SOL    HW234113   4.346   1.523   5.998 -1.9762 -0.5592 -0.2060
 7493SOL     OW34114   0.746   3.903   8.200 -0.3156 -0.0574  0.1489
 7493SOL    HW134115   0.681   3.833   8.210 -1.9640  1.4274 -0.1492
 7493SOL    HW234116   0.831   3.859   8.191 -0.5584 -0.7913  1.4686
 7494SOL     OW34117   1.559   0.170   4.995  0.0380  0.4252 -0.0253
 7494SOL    HW134118   1.652   0.174   4.973  0.0685  1.2813  0.2531
 7494SOL    HW234119   1.518   0.211   4.918 -1.0790 -2.0313 -0.7420
 7495SOL     OW34120   4.054   2.440   5.074 -0.4035  0.4090  0.4568
 7495SOL    HW134121   4.124   2.449   5.009  0.9216  1.2396  1.9803
 7495SOL    HW234122   4.043   2.346   5.061  1.1151  0.2687  0.0925
 7496SOL     OW34123   4.629   2.381   2.393 -0.5308 -0.5803 -0.0509
 7496SOL    HW134124   4.585   2.394   2.477  0.2678 -0.4317  0.3518
 7496SOL    HW234125   4.659   2.468   2.369  0.1476 -0.8188 -0.0939
 7497SOL     OW34126   0.607   0.207   4.187 -0.1378 -0.1708  0.3466
 7497SOL    HW134127   0.591   0.125   4.233 -0.8527 -0.8802 -1.1737
 7497SOL    HW234128   0.589   0.172   4.099  0.0924  0.4813  0.0398
 7498SOL     OW34129   2.699   2.906   1.632 -0.0938  0.1487 -0.3114
 7498SOL    HW134130   2.775   2.918   1.688 -0.2173  0.7385 -0.2706
 7498SOL    HW234131   2.687   2.815   1.660  2.1707 -0.3761 -1.0443
 7499SOL     OW34132   3.777   3.951   8.644  0.2274 -0.0533  0.3715
 7499SOL    HW134133   3.822   4.034   8.662 -0.5484  0.4863 -0.1612
 7499SOL    HW234134   3.827   3.899   8.707 -0.9866 -2.8632 -1.0072
 7500SOL     OW34135   1.044   3.026  15.389  0.6727 -0.2696 -0.3285
 7500SOL    HW134136   1.036   3.108  15.340  0.0709 -1.1748 -1.7496
 7500SOL    HW234137   0.955   2.994  15.403  0.1242  1.5987  0.4856
 7501SOL     OW34138   3.167   1.617   4.939 -0.2438  0.3320 -0.9058
 7501SOL    HW134139   3.238   1.662   4.985  1.0995  0.8922 -3.5422
 7501SOL    HW234140   3.085   1.666   4.942 -0.0772  0.4609  1.3526
 7502SOL     OW34141   3.597   1.977   9.226  0.0811 -0.3778 -0.2530
 7502SOL    HW134142   3.597   2.047   9.161 -1.1423 -1.0096 -0.9269
 7502SOL    HW234143   3.506   1.980   9.256 -0.2485 -0.6491 -1.2446
 7503SOL     OW34144   0.844   1.398   3.931 -0.2696 -0.0461  0.4406
 7503SOL    HW134145   0.886   1.369   3.850 -3.1077  0.9559 -1.3701
 7503SOL    HW234146   0.845   1.492   3.909  2.6849 -0.3646 -0.7500
 7504SOL     OW34147   2.974   1.805  17.602 -0.1858 -0.0114 -0.4881
 7504SOL    HW134148   2.894   1.843  17.565 -0.8930 -0.9971  0.0095
 7504SOL    HW234149   2.944   1.792  17.692 -1.4064  1.3132 -0.7026
 7505SOL     OW34150   2.757   2.788   7.959  0.0506 -0.6009  0.2803
 7505SOL    HW134151   2.849   2.808   7.974  0.2327 -0.5577 -0.8674
 7505SOL    HW234152   2.718   2.838   8.031  1.9502  1.9389 -0.4817
 7506SOL     OW34153   2.518   0.203   3.215 -0.5981 -0.5654 -0.1983
 7506SOL    HW134154   2.488   0.273   3.272  0.7983 -0.0865 -0.0379
 7506SOL    HW234155   2.544   0.251   3.136  1.0136 -0.0971  0.6029
 7507SOL     OW34156   4.000   0.239   0.561 -0.0597 -0.0809  0.0154
 7507SOL    HW134157   4.038   0.253   0.474  0.4545 -3.5991 -0.2963
 7507SOL    HW234158   4.082   0.212   0.603  0.0307 -1.4850 -1.0978
 7508SOL     OW34159   1.750   2.251   5.668 -0.1531  0.4713  0.0550
 7508SOL    HW134160   1.791   2.174   5.707 -0.7843 -0.3801 -0.9450
 7508SOL    HW234161   1.675   2.265   5.726 -0.4909 -0.5980 -0.1176
 7509SOL     OW34162   2.329   2.863   8.530 -0.0309  0.7332  0.3940
 7509SOL    HW134163   2.407   2.807   8.531  1.1081  2.2457 -1.5198
 7509SOL    HW234164   2.327   2.889   8.437  0.0736 -1.5551 -0.2457
 7510SOL     OW34165   2.075   4.236   5.895 -0.0815  0.3550 -0.5716
 7510SOL    HW134166   2.076   4.190   5.979  1.0537 -0.1743 -0.8870
 7510SOL    HW234167   2.120   4.174   5.838 -0.8512  0.9967 -1.8735
 7511SOL     OW34168   3.828   0.969   5.815 -0.2189  0.4067  0.3480
 7511SOL    HW134169   3.799   0.887   5.855  0.1613  0.9272  1.6740
 7511SOL    HW234170   3.740   1.004   5.798 -0.0931  0.3156 -0.4617
 7512SOL     OW34171   1.675   0.465   9.103 -0.0293 -0.1498  0.3041
 7512SOL    HW134172   1.649   0.537   9.046 -1.6936 -0.4693  0.6415
 7512SOL    HW234173   1.765   0.458   9.073 -1.0631  0.2708 -2.9289
 7513SOL     OW34174   0.220   3.107   3.745 -0.0512  0.2707  0.3634
 7513SOL    HW134175   0.240   3.188   3.792  0.9429 -0.0798  0.5459
 7513SOL    HW234176   0.130   3.125   3.717 -0.1577 -0.6258  0.1238
 7514SOL     OW34177   0.138   2.010   5.517 -0.2270 -0.3247 -0.5566
 7514SOL    HW134178   0.061   1.976   5.470  0.5335 -2.7292 -0.0906
 7514SOL    HW234179   0.095   2.070   5.578  1.0394 -1.0819  1.0881
 7515SOL     OW34180   3.726   1.757   6.559 -0.1463 -0.2541  0.0705
 7515SOL    HW134181   3.752   1.849   6.555 -0.8080 -0.1121 -0.8676
 7515SOL    HW234182   3.812   1.715   6.570  0.3752  0.8613  0.2431
 7516SOL     OW34183   3.086   0.694  11.107 -0.1471 -0.0673  0.1138
 7516SOL    HW134184   3.112   0.763  11.047 -0.2409  1.5765  1.9733
 7516SOL    HW234185   2.991   0.691  11.099 -0.3018  0.8018  1.7489
 7517SOL     OW34186   1.515   2.616   6.227 -0.4403 -0.0767 -0.2189
 7517SOL    HW134187   1.599   2.598   6.268  0.1337  2.6330 -0.1780
 7517SOL    HW234188   1.489   2.526   6.210  1.8809 -0.9122  0.7180
 7518SOL     OW34189   1.029   2.727   5.383 -0.5782  0.1017  0.0204
 7518SOL    HW134190   1.064   2.733   5.295 -0.5943 -1.6918 -0.1051
 7518SOL    HW234191   1.026   2.632   5.385  0.6438  0.0125 -2.1854
 7519SOL     OW34192   3.583   0.936   0.779 -0.0608 -0.2718  0.5555
 7519SOL    HW134193   3.569   0.880   0.702 -0.7711  1.3269 -0.4716
 7519SOL    HW234194   3.491   0.953   0.798 -0.3278 -0.0680 -0.8995
 7520SOL     OW34195   2.025   3.180   5.355 -0.3520 -0.5589 -0.2182
 7520SOL    HW134196   2.001   3.158   5.266  0.9985 -0.4186 -0.6246
 7520SOL    HW234197   2.120   3.189   5.368 -0.9051  2.6525  1.6724
 7521SOL     OW34198   0.812   1.449  12.171  0.1426 -0.1280  0.7374
 7521SOL    HW134199   0.797   1.385  12.101  3.9648  0.5016 -0.6577
 7521SOL    HW234200   0.725   1.486  12.188 -1.1003 -3.9632  2.6874
 7522SOL     OW34201   3.895   0.555   3.539  0.4390 -0.2678 -0.1434
 7522SOL    HW134202   3.812   0.602   3.540  1.1360  0.8982  3.3483
 7522SOL    HW234203   3.926   0.587   3.624  1.3546 -2.7060  0.4559
 7523SOL     OW34204   0.102   3.730  12.865  0.4508  0.1382 -0.9443
 7523SOL    HW134205   0.112   3.739  12.959 -0.5266  1.1450 -0.9447
 7523SOL    HW234206   0.097   3.635  12.859  1.8893 -0.0198  0.3546
 7524SOL     OW34207   3.554   1.571   1.536 -0.3676  0.2555 -0.0833
 7524SOL    HW134208   3.531   1.660   1.507  0.4616 -0.0178 -1.6001
 7524SOL    HW234209   3.539   1.522   1.455 -0.6067 -0.2319  0.2561
 7525SOL     OW34210   3.787   1.478   8.387  0.0277 -0.4770  0.2641
 7525SOL    HW134211   3.714   1.533   8.359  0.3957  0.7717  1.7406
 7525SOL    HW234212   3.844   1.477   8.311 -1.9079  2.8057 -1.2490
 7526SOL     OW34213   4.659   0.700   2.632 -0.8153 -0.2951  0.3278
 7526SOL    HW134214   4.679   0.785   2.593  0.5010 -1.3361 -1.2427
 7526SOL    HW234215   4.564   0.696   2.618 -1.1378  1.8701  1.7893
 7527SOL     OW34216   2.996   3.523   5.486  0.2124 -0.5196  0.1162
 7527SOL    HW134217   2.954   3.606   5.508 -0.4533 -1.0438  0.8336
 7527SOL    HW234218   2.972   3.519   5.394  2.0790 -1.5952 -0.3294
 7528SOL     OW34219   2.210   4.674   4.731  1.1327  0.0826 -0.1248
 7528SOL    HW134220   2.252   0.018   4.747 -0.7577  0.7621  1.2358
 7528SOL    HW234221   2.126   4.700   4.694  0.1953  0.3417  2.1429
 7529SOL     OW34222   2.604   2.823   3.783  0.2008  0.5042  0.2259
 7529SOL    HW134223   2.582   2.915   3.774  1.5607  1.0231  2.2311
 7529SOL    HW234224   2.538   2.799   3.718  0.7370 -1.1250  0.2867
 7530SOL     OW34225   0.548   2.863   5.595 -0.0580 -0.2723  0.3477
 7530SOL    HW134226   0.520   2.869   5.504  1.6433 -0.8418 -0.1969
 7530SOL    HW234227   0.596   2.781   5.589  2.2259  1.1101 -0.4909
 7531SOL     OW34228   3.362   3.599   9.513  0.2558  0.2137  0.0025
 7531SOL    HW134229   3.292   3.626   9.454 -0.6155  1.4401  1.5989
 7531SOL    HW234230   3.345   3.661   9.584 -1.3070 -0.9752  0.6678
 7532SOL     OW34231   0.732   4.491   7.222  0.4527  0.0857 -0.2278
 7532SOL    HW134232   0.697   4.402   7.212 -0.7817  0.5384 -0.0094
 7532SOL    HW234233   0.736   4.519   7.131 -1.4002  2.1123  0.3207
 7533SOL     OW34234   0.035   3.253   9.656 -0.2241  0.1938 -0.5023
 7533SOL    HW134235   0.036   3.290   9.568 -1.3926  0.5123 -0.3866
 7533SOL    HW234236   4.681   3.267   9.665 -0.1752 -0.4894  1.1258
 7534SOL     OW34237   1.447   2.813   8.823  0.0843  0.4834 -0.4015
 7534SOL    HW134238   1.487   2.856   8.747  0.7812  0.5572  0.0038
 7534SOL    HW234239   1.480   2.724   8.808  0.4622  0.0127  3.2113
 7535SOL     OW34240   2.687   2.074   4.928  0.0754 -0.0425  0.5869
 7535SOL    HW134241   2.773   2.073   4.969  0.1357  1.6420  0.4968
 7535SOL    HW234242   2.635   2.085   5.008  0.2728 -0.6816  0.8084
 7536SOL     OW34243   2.616   1.175   4.790 -0.2136 -0.2520 -0.3603
 7536SOL    HW134244   2.605   1.133   4.704  0.4464 -0.2259 -0.4525
 7536SOL    HW234245   2.699   1.142   4.823 -0.2857 -0.0402  0.0242
 7537SOL     OW34246   2.779   1.867   2.569  0.1368  0.9780 -0.0019
 7537SOL    HW134247   2.827   1.894   2.491  0.7969  3.1725  1.1821
 7537SOL    HW234248   2.707   1.812   2.538 -0.2291  0.6383  1.4751
 7538SOL     OW34249   1.587   1.871  15.939  0.1777 -0.0318 -0.1525
 7538SOL    HW134250   1.635   1.813  15.880  1.3812  1.3686 -0.5515
 7538SOL    HW234251   1.538   1.809  15.993  0.7187  0.5502  1.0058
 7539SOL     OW34252   4.713   4.395   1.584 -0.1862  0.0456  0.3737
 7539SOL    HW134253   4.666   4.315   1.559 -0.1570 -0.4505  1.9218
 7539SOL    HW234254   0.014   4.427   1.504 -0.0613 -1.7246 -0.2702
 7540SOL     OW34255   3.133   1.443   4.501 -0.7565 -0.3105 -0.3537
 7540SOL    HW134256   3.047   1.418   4.535 -0.9754  0.9701  0.0409
 7540SOL    HW234257   3.124   1.538   4.502 -0.0655 -0.2537  1.0833
 7541SOL     OW34258   0.170   0.386   1.527  0.1117 -0.2114  0.0507
 7541SOL    HW134259   0.237   0.452   1.542 -1.5214  1.3799  0.3970
 7541SOL    HW234260   0.092   0.442   1.526 -0.1300 -0.4937  2.1191
 7542SOL     OW34261   2.268   0.616  10.037  0.2579  0.6569  0.2526
 7542SOL    HW134262   2.188   0.586   9.991  0.3505  0.4211  0.2437
 7542SOL    HW234263   2.251   0.710  10.046  2.0234  0.8437  1.3970
 7543SOL     OW34264   3.312   3.163   5.871 -0.0295  0.2199 -0.0998
 7543SOL    HW134265   3.271   3.098   5.929  2.2746 -2.0266 -0.9476
 7543SOL    HW234266   3.270   3.244   5.897  1.2794  0.2601  1.8860
 7544SOL     OW34267   1.887   0.508   2.116  0.1288 -0.0573 -0.7157
 7544SOL    HW134268   1.841   0.545   2.192  1.0489  2.0361 -1.1573
 7544SOL    HW234269   1.937   0.584   2.085  0.8792 -0.4517 -0.4441
 7545SOL     OW34270   3.275   3.549   8.775 -0.2143 -0.0907 -0.0770
 7545SOL    HW134271   3.334   3.579   8.844 -1.8470  2.4170  0.2527
 7545SOL    HW234272   3.322   3.586   8.701 -1.3935  0.9918 -0.2868
 7546SOL     OW34273   1.083   4.082   2.272 -0.1562 -0.0661 -0.3011
 7546SOL    HW134274   1.089   4.046   2.183  0.0755  0.1732 -0.3833
 7546SOL    HW234275   1.156   4.143   2.275  0.5253 -0.8984  0.1042
 7547SOL     OW34276   4.305   0.403   0.893  0.0349 -0.0342  0.0420
 7547SOL    HW134277   4.384   0.440   0.855  0.8986 -2.2957 -0.3609
 7547SOL    HW234278   4.234   0.467   0.888 -1.3377 -1.3635  2.7510
 7548SOL     OW34279   2.514   1.632   9.956  0.0201  0.2763  0.4862
 7548SOL    HW134280   2.584   1.696   9.940  0.8313 -0.9118 -0.7907
 7548SOL    HW234281   2.485   1.650  10.045 -1.0412  0.3626  0.1178
 7549SOL     OW34282   0.785   0.542   6.727  0.3038 -0.0637  0.0344
 7549SOL    HW134283   0.755   0.633   6.731  2.1679  0.5826 -0.7006
 7549SOL    HW234284   0.812   0.548   6.635  0.5064  1.8839  0.2247
 7550SOL     OW34285   0.871   3.251   1.559 -0.2493 -0.3019 -0.7055
 7550SOL    HW134286   0.833   3.280   1.476 -1.6810  2.0358  0.7723
 7550SOL    HW234287   0.797   3.237   1.619 -0.5005  0.8994 -0.7502
 7551SOL     OW34288   1.401   1.545   8.286 -0.3833 -0.4036  0.1150
 7551SOL    HW134289   1.386   1.617   8.348 -0.0429 -2.0389  2.1024
 7551SOL    HW234290   1.310   1.520   8.273  0.1496 -1.8328 -0.7874
 7552SOL     OW34291   0.734   4.282   6.326  0.0081  0.3489 -0.2062
 7552SOL    HW134292   0.733   4.332   6.407  0.7445  1.3914 -0.8422
 7552SOL    HW234293   0.644   4.250   6.323  0.9941 -2.4460  0.1126
 7553SOL     OW34294   4.360   4.044   8.381  0.2512 -0.0695 -0.6870
 7553SOL    HW134295   4.378   4.087   8.298  1.4520 -0.4014 -0.6026
 7553SOL    HW234296   4.445   4.036   8.425  0.6318 -3.2065 -2.0157
 7554SOL     OW34297   4.337   2.948   4.889  0.0440  0.0052 -0.4860
 7554SOL    HW134298   4.298   2.860   4.890  2.5191 -1.0881 -2.9186
 7554SOL    HW234299   4.432   2.938   4.889  0.0995  0.5823 -1.3649
 7555SOL     OW34300   3.961   2.738   7.169 -0.1313 -0.8529 -0.0518
 7555SOL    HW134301   3.985   2.818   7.121  0.9850  0.0592  1.9860
 7555SOL    HW234302   4.048   2.697   7.161 -0.4065 -1.3737 -0.3578
 7556SOL     OW34303   3.501   1.750   9.513  0.2711 -0.1828 -0.6468
 7556SOL    HW134304   3.596   1.761   9.514  0.4622 -1.6762 -2.0371
 7556SOL    HW234305   3.493   1.715   9.601 -0.2425  1.8768  0.1275
 7557SOL     OW34306   3.493   0.105   7.158 -0.6842 -0.3568 -0.1658
 7557SOL    HW134307   3.541   0.060   7.227  0.1579 -0.9398 -1.1330
 7557SOL    HW234308   3.571   0.139   7.113 -0.6755  0.7750  0.6915
 7558SOL     OW34309   0.142   2.771   3.745  0.1950 -0.3942  0.0166
 7558SOL    HW134310   0.089   2.847   3.719 -1.1724 -0.6728  1.9986
 7558SOL    HW234311   0.091   2.698   3.709  1.5661 -1.0197 -0.6710
 7559SOL     OW34312   3.046   4.473   1.410 -0.2625  0.0056 -0.5889
 7559SOL    HW134313   3.090   4.440   1.488 -0.3141 -1.0826 -1.0225
 7559SOL    HW234314   3.057   4.398   1.352 -0.4425  2.0983 -3.3334
 7560SOL     OW34315   1.041   2.964   6.657 -0.6406 -0.1534  0.6360
 7560SOL    HW134316   0.947   2.945   6.648 -0.2711 -1.3723 -0.4937
 7560SOL    HW234317   1.064   2.969   6.564 -1.0878 -0.1195  0.5235
 7561SOL     OW34318   0.961   3.307  15.268 -0.2081 -0.4019 -0.0633
 7561SOL    HW134319   0.911   3.316  15.187 -2.7781 -0.2684  1.5425
 7561SOL    HW234320   1.005   3.392  15.268 -1.7469  0.4047  2.4624
 7562SOL     OW34321   0.704   1.968  17.286 -0.1445  0.2831  0.1509
 7562SOL    HW134322   0.646   1.908  17.241  0.4721  1.3234 -2.0110
 7562SOL    HW234323   0.662   2.050  17.259  1.6395  0.7535 -1.1948
 7563SOL     OW34324   4.660   0.168   6.922  0.2294 -0.6791 -0.4514
 7563SOL    HW134325   4.598   0.188   6.852  0.7802  3.4182  0.1908
 7563SOL    HW234326   4.698   0.256   6.914 -0.6768 -0.5089 -2.8733
 7564SOL     OW34327   2.553   1.793   0.106  0.2403 -0.0009  0.0680
 7564SOL    HW134328   2.483   1.729   0.090 -0.4190  0.5414  0.8059
 7564SOL    HW234329   2.503   1.873   0.120  2.0241  1.4827 -1.9965
 7565SOL     OW34330   3.957   1.972  12.052  0.3264  0.1381 -0.0911
 7565SOL    HW134331   4.011   2.043  12.017  0.4510 -0.1881 -0.5485
 7565SOL    HW234332   3.876   2.012  12.084 -1.0651 -2.0789 -0.8232
 7566SOL     OW34333   0.401   0.406   3.493  0.3941  0.2999  0.3205
 7566SOL    HW134334   0.354   0.358   3.425 -2.5737  1.1907  1.7417
 7566SOL    HW234335   0.351   0.487   3.481 -1.2600 -0.7460  0.0822
 7567SOL     OW34336   0.915   2.441   4.271  0.5023  0.0603  0.2146
 7567SOL    HW134337   0.942   2.383   4.342 -2.6787 -1.3336  0.2509
 7567SOL    HW234338   0.936   2.524   4.313  0.7046  0.1603 -0.0804
 7568SOL     OW34339   3.724   2.585   0.864 -0.0391  0.0599  0.0033
 7568SOL    HW134340   3.818   2.572   0.858  0.1544  1.6077 -0.3691
 7568SOL    HW234341   3.735   2.656   0.927 -0.4219 -1.7049  2.0374
 7569SOL     OW34342   0.310   0.652  15.236  0.4590 -0.2472  0.2504
 7569SOL    HW134343   0.368   0.627  15.164  1.9681  0.9348  1.0581
 7569SOL    HW234344   0.254   0.574  15.232 -0.2430  0.1543  2.4015
 7570SOL     OW34345   1.892   2.458  11.845 -0.1205 -0.4708  0.1401
 7570SOL    HW134346   1.912   2.502  11.763  2.6331  0.6715  1.4286
 7570SOL    HW234347   1.963   2.399  11.868  0.4196 -0.2035 -0.8850
 7571SOL     OW34348   3.578   3.973   2.698  0.2037  0.0449 -0.4705
 7571SOL    HW134349   3.486   3.965   2.725  0.5112  0.8333  0.8130
 7571SOL    HW234350   3.589   4.068   2.703  1.2322 -0.1733  1.3127
 7572SOL     OW34351   0.195   4.134   5.768  0.0757  0.3450 -0.5436
 7572SOL    HW134352   0.260   4.070   5.798 -0.1133 -0.5037 -1.9259
 7572SOL    HW234353   0.245   4.166   5.693  0.4370 -0.7958 -0.7932
 7573SOL     OW34354   3.492   0.582   2.502 -0.1958 -0.0854  0.7785
 7573SOL    HW134355   3.557   0.600   2.569 -0.4394  0.1394  0.9523
 7573SOL    HW234356   3.432   0.531   2.556  0.7585 -0.2604  1.6743
 7574SOL     OW34357   0.853   2.013   6.105  0.1990 -0.0520  0.3268
 7574SOL    HW134358   0.885   2.076   6.041 -1.6498  0.8356  0.2586
 7574SOL    HW234359   0.936   1.965   6.107  0.9088  1.1590 -0.3512
 7575SOL     OW34360   0.013   1.308   2.248 -0.4262  0.5754  0.1122
 7575SOL    HW134361   0.077   1.356   2.299 -0.3982  2.2837 -1.5367
 7575SOL    HW234362   0.003   1.357   2.166  1.2418  1.7999  0.6568
 7576SOL     OW34363   0.137   4.380   3.986 -1.0540  0.0519 -0.3164
 7576SOL    HW134364   0.116   4.473   3.988 -1.9535 -0.1301 -1.3048
 7576SOL    HW234365   0.231   4.394   3.975 -0.7843 -0.1977  1.6590
 7577SOL     OW34366   3.380   4.029   6.387 -0.4346  0.0947  0.3010
 7577SOL    HW134367   3.429   4.096   6.435  1.5628 -1.5178  0.4957
 7577SOL    HW234368   3.343   4.087   6.320 -3.0628 -1.2319  0.6127
 7578SOL     OW34369   3.721   2.028   5.541  0.1665  0.1538  0.1018
 7578SOL    HW134370   3.663   2.085   5.591  0.4017  0.6140 -0.1512
 7578SOL    HW234371   3.765   1.984   5.614 -1.9086 -0.5022  0.9680
 7579SOL     OW34372   2.787   3.156   4.608  0.4449  0.1344  0.6491
 7579SOL    HW134373   2.783   3.113   4.694 -1.1279 -2.1180 -0.5311
 7579SOL    HW234374   2.806   3.082   4.550 -0.1301 -0.7094  1.5293
 7580SOL     OW34375   1.822   1.694  15.867  0.2013  0.1562  0.4144
 7580SOL    HW134376   1.820   1.612  15.817 -1.9754 -0.2756  1.1883
 7580SOL    HW234377   1.876   1.661  15.938  2.0977  0.2201 -0.9938
 7581SOL     OW34378   3.163   1.032   2.991 -0.4563  0.7269 -0.4871
 7581SOL    HW134379   3.253   1.006   3.012 -0.1073  0.8433 -1.8903
 7581SOL    HW234380   3.132   0.947   2.960  1.3791 -1.2175  2.9585
 7582SOL     OW34381   4.328   4.022  13.733  0.2343  0.0527 -0.2617
 7582SOL    HW134382   4.334   4.007  13.639  1.3068 -0.9549 -0.0371
 7582SOL    HW234383   4.420   4.025  13.760 -0.4212  0.4849  1.9292
 7583SOL     OW34384   4.427   4.331  10.877 -0.2454 -0.3370  0.2794
 7583SOL    HW134385   4.339   4.328  10.913 -0.1308  2.5159  0.7889
 7583SOL    HW234386   4.413   4.393  10.805  1.9693  1.1228  1.1141
 7584SOL     OW34387   4.429   3.418   0.471 -0.0267 -0.0678 -0.2259
 7584SOL    HW134388   4.392   3.494   0.515  0.1088 -0.3539  0.3773
 7584SOL    HW234389   4.446   3.447   0.381 -1.0139 -0.5604 -0.5699
 7585SOL     OW34390   0.097   2.246   7.023 -0.2742  0.5136  0.2184
 7585SOL    HW134391   0.092   2.207   6.935 -0.2325  1.5038 -0.2193
 7585SOL    HW234392   0.071   2.336   7.002 -0.1524  0.6890  0.8496
 7586SOL     OW34393   1.076   1.456   5.344  0.0468 -0.2518  0.3441
 7586SOL    HW134394   1.152   1.502   5.309  0.3193 -1.4292 -0.5916
 7586SOL    HW234395   1.047   1.511   5.417 -0.3689 -0.6440  0.4749
 7587SOL     OW34396   1.677   4.737  16.094 -0.0147  0.0391  0.4873
 7587SOL    HW134397   1.586   4.723  16.066  0.6387 -1.9939 -0.5801
 7587SOL    HW234398   1.715   0.038  16.016  2.7703 -0.4553  1.5876
 7588SOL     OW34399   3.184   0.654   1.373 -0.3965  0.4534 -0.2149
 7588SOL    HW134400   3.136   0.688   1.449  2.6872 -1.0495  2.3704
 7588SOL    HW234401   3.249   0.724   1.372 -1.1745  1.2339  2.3859
 7589SOL     OW34402   2.853   3.329   2.400  1.2172  0.0048 -0.1896
 7589SOL    HW134403   2.921   3.365   2.343  0.7523  0.3696 -0.5186
 7589SOL    HW234404   2.853   3.235   2.383 -0.5169  0.3402 -2.0385
 7590SOL     OW34405   3.270   0.167   7.971 -0.2772  0.2858 -0.0657
 7590SOL    HW134406   3.209   0.211   7.911 -0.0245 -0.5366 -0.9187
 7590SOL    HW234407   3.293   0.239   8.030 -0.6737  0.3436  0.0184
 7591SOL     OW34408   3.952   0.133  13.247  0.2241  0.4207  0.0426
 7591SOL    HW134409   4.001   0.194  13.192  0.2361  1.1691  0.8947
 7591SOL    HW234410   3.980   0.044  13.225  0.9921  0.5860  0.3635
 7592SOL     OW34411   3.004   2.268   9.654 -0.3212  0.0016  0.2702
 7592SOL    HW134412   3.052   2.326   9.596 -0.0251  0.8849  1.4137
 7592SOL    HW234413   3.005   2.318   9.735 -0.2721 -1.4509  1.1728
 7593SOL     OW34414   2.917   3.819   7.883 -0.3482  0.2231 -0.0435
 7593SOL    HW134415   2.883   3.819   7.973  1.3922  0.6476  0.6275
 7593SOL    HW234416   2.845   3.767   7.849 -0.0841  0.6806 -1.2893
 7594SOL     OW34417   4.410   4.141   6.357  0.3509 -0.1483 -0.5472
 7594SOL    HW134418   4.381   4.081   6.426 -0.1670  0.6310 -0.0941
 7594SOL    HW234419   4.394   4.089   6.278 -2.4637 -0.1594  0.0218
 7595SOL     OW34420   4.637   4.255  17.452 -0.0787  0.2936 -0.7843
 7595SOL    HW134421   4.621   4.163  17.431 -0.7444  0.5841 -1.5515
 7595SOL    HW234422   4.732   4.260  17.443 -0.1526  1.3976 -0.9620
 7596SOL     OW34423   4.027   4.233   6.357 -0.4136  0.6337  0.5728
 7596SOL    HW134424   4.072   4.170   6.300 -3.0719 -0.5204 -0.2290
 7596SOL    HW234425   4.065   4.221   6.444 -0.7416 -1.6600  0.3868
 7597SOL     OW34426   3.303   0.496   2.250  0.7693 -0.3147 -0.1729
 7597SOL    HW134427   3.260   0.415   2.224  0.6661  0.4200 -2.3001
 7597SOL    HW234428   3.378   0.494   2.190  1.9026 -1.9928  1.3005
 7598SOL     OW34429   1.282   0.115   2.654 -0.0607  0.2830 -0.2790
 7598SOL    HW134430   1.226   0.047   2.692  0.4066  0.7952  1.3248
 7598SOL    HW234431   1.312   0.071   2.574  0.0411  0.3404 -0.2723
 7599SOL     OW34432   3.067   0.849  14.562 -0.3791  0.3306  0.1596
 7599SOL    HW134433   3.108   0.762  14.563  0.4976  0.7403  0.2413
 7599SOL    HW234434   3.084   0.889  14.477 -2.5058  2.7070  0.8515
 7600SOL     OW34435   0.812   2.187  10.600 -0.3694 -0.0078  0.4167
 7600SOL    HW134436   0.853   2.255  10.653 -0.7250  0.6142 -0.0980
 7600SOL    HW234437   0.765   2.136  10.666 -2.3647  1.3702  0.0877
 7601SOL     OW34438   0.657   2.599  11.395 -0.3111  0.0697 -0.2083
 7601SOL    HW134439   0.625   2.623  11.308  1.2986 -1.7892 -1.3277
 7601SOL    HW234440   0.740   2.647  11.393 -0.2032 -0.0915  0.5254
 7602SOL     OW34441   0.382   4.028   4.404  0.3032  0.1303 -0.2560
 7602SOL    HW134442   0.398   3.935   4.415 -0.7936  0.1636  1.5087
 7602SOL    HW234443   0.449   4.075   4.454  0.9654  0.3770 -1.3740
 7603SOL     OW34444   3.464   0.134   3.631  0.1746 -0.1452 -0.5674
 7603SOL    HW134445   3.438   0.074   3.701  1.8772 -1.8998 -1.4515
 7603SOL    HW234446   3.418   0.093   3.557 -0.5320  1.3921 -0.9719
 7604SOL     OW34447   3.604   1.177   3.334 -0.7979  0.2204 -0.7045
 7604SOL    HW134448   3.673   1.221   3.285 -0.5168  0.5597 -0.0109
 7604SOL    HW234449   3.648   1.114   3.391  0.2862  1.7715  0.1794
 7605SOL     OW34450   4.201   3.434   3.490 -0.2235  0.5345 -0.3491
 7605SOL    HW134451   4.150   3.384   3.426  3.0248 -0.2497 -2.3232
 7605SOL    HW234452   4.238   3.356   3.532 -2.2035 -0.1264  0.1835
 7606SOL     OW34453   3.285   0.669   7.282 -0.2008 -0.3233  0.1740
 7606SOL    HW134454   3.330   0.622   7.213  0.3594  0.4230  0.0256
 7606SOL    HW234455   3.220   0.605   7.310 -1.3321 -1.0062 -4.0941
 7607SOL     OW34456   0.855   4.577   9.396  0.4048 -0.0123 -0.4246
 7607SOL    HW134457   0.895   4.631   9.329 -3.8781  3.1706 -0.3747
 7607SOL    HW234458   0.827   4.637   9.465  0.8295 -0.5242  0.1960
 7608SOL     OW34459   0.698   3.729  17.164 -0.5508  0.2691 -0.1510
 7608SOL    HW134460   0.711   3.686  17.079  0.8325 -1.0453  0.7239
 7608SOL    HW234461   0.776   3.781  17.186  0.2200  0.8462 -4.3087
 7609SOL     OW34462   3.907   2.104   0.998  0.0490 -0.2871 -0.3601
 7609SOL    HW134463   3.980   2.049   1.026  1.8138  1.4553 -1.5444
 7609SOL    HW234464   3.869   2.138   1.079  0.8353 -0.3641  0.0407
 7610SOL     OW34465   1.029   0.925   1.943 -0.0717  0.1233 -0.1164
 7610SOL    HW134466   1.026   0.975   1.861 -0.6781 -0.2085 -0.2978
 7610SOL    HW234467   0.940   0.889   1.936 -0.9518  2.2145  0.3457
 7611SOL     OW34468   1.735   0.418   3.705  0.1123 -0.3517 -0.2889
 7611SOL    HW134469   1.705   0.329   3.723  1.4915 -0.8064 -0.2726
 7611SOL    HW234470   1.731   0.412   3.609 -0.3371 -2.5095 -0.1312
 7612SOL     OW34471   1.979   3.418   1.588  0.4039 -0.1434 -0.0389
 7612SOL    HW134472   2.074   3.427   1.588  0.8548 -4.8065 -0.6518
 7612SOL    HW234473   1.976   3.324   1.568 -0.0746 -0.0373 -0.4747
 7613SOL     OW34474   0.003   4.233   4.875 -0.1528 -0.3135  0.1242
 7613SOL    HW134475   0.092   4.266   4.884 -0.5193  1.0296 -1.2949
 7613SOL    HW234476   4.716   4.259   4.787  0.5350  0.0292  0.0151
 7614SOL     OW34477   2.986   0.936   9.939  0.2323  0.0676 -0.0789
 7614SOL    HW134478   2.973   0.867   9.874  1.5129 -1.7166  1.5864
 7614SOL    HW234479   3.065   0.901   9.979  0.1155 -0.7651 -0.5873
 7615SOL     OW34480   4.063   1.748  14.365 -0.7248  0.1875  0.0190
 7615SOL    HW134481   4.017   1.713  14.289 -1.2579  1.4494 -0.2477
 7615SOL    HW234482   4.143   1.696  14.361 -0.1821  1.1373 -1.9750
 7616SOL     OW34483   1.290   0.550   5.678  0.4586 -0.2821  0.1222
 7616SOL    HW134484   1.264   0.514   5.593 -3.0921  1.8585  0.2680
 7616SOL    HW234485   1.281   0.645   5.671 -2.5631 -0.5457  0.3948
 7617SOL     OW34486   4.222   2.153   6.310  0.4046  0.5233  0.4510
 7617SOL    HW134487   4.313   2.129   6.289  0.6693  1.8773  0.0845
 7617SOL    HW234488   4.223   2.190   6.398 -3.6899 -0.9825  1.0983
 7618SOL     OW34489   3.852   1.248   7.804 -0.0535  0.4114 -0.7884
 7618SOL    HW134490   3.777   1.307   7.813  0.9734  1.6487 -0.1940
 7618SOL    HW234491   3.816   1.178   7.859  0.5131 -1.3928 -2.7561
 7619SOL     OW34492   3.445   4.017   8.011 -0.3670  0.1049  0.2705
 7619SOL    HW134493   3.375   3.978   8.063  0.0078 -0.8747  0.0352
 7619SOL    HW234494   3.422   4.110   8.006  0.9648  0.5573  2.9805
 7620SOL     OW34495   2.167   4.346   7.774  0.4291  0.1625 -0.5968
 7620SOL    HW134496   2.090   4.300   7.743 -0.8102  2.6261 -1.1966
 7620SOL    HW234497   2.231   4.275   7.766  0.4836  0.4108 -2.3949
 7621SOL     OW34498   2.565   2.177   9.626  0.3419  0.2799  0.0281
 7621SOL    HW134499   2.596   2.199   9.714  1.8401 -3.0554  0.3129
 7621SOL    HW234500   2.652   2.186   9.587  0.1538  3.5976  0.3636
 7622SOL     OW34501   1.283   3.118   7.305  0.3111 -0.3555  0.0097
 7622SOL    HW134502   1.349   3.086   7.243 -0.0373 -0.5439 -0.2622
 7622SOL    HW234503   1.200   3.079   7.278 -0.8699  0.3210  2.7351
 7623SOL     OW34504   2.913   0.848   8.323 -0.4111  0.2961  0.0859
 7623SOL    HW134505   2.938   0.855   8.415  0.8845 -1.7669 -0.1211
 7623SOL    HW234506   2.990   0.882   8.277  0.6034 -0.2066  1.3750
 7624SOL     OW34507   3.783   3.851   2.847 -0.8015 -0.5141 -0.2050
 7624SOL    HW134508   3.709   3.894   2.805 -1.9563 -0.5824  1.7662
 7624SOL    HW234509   3.812   3.929   2.895  2.7344 -2.1488  0.3252
 7625SOL     OW34510   4.098   3.484   2.353 -0.1473  0.2291 -0.7184
 7625SOL    HW134511   4.013   3.526   2.367  0.1121  0.6489 -0.4143
 7625SOL    HW234512   4.073   3.412   2.295  2.2479  0.9613 -2.6754
 7626SOL     OW34513   2.359   2.040   0.795 -0.6697 -0.3772  0.1205
 7626SOL    HW134514   2.435   2.093   0.769  0.1494 -2.0223 -0.8562
 7626SOL    HW234515   2.332   2.016   0.706 -2.0655 -1.1527  0.7629
 7627SOL     OW34516   2.459   2.487   2.010 -0.2601  0.0900 -0.3248
 7627SOL    HW134517   2.420   2.484   2.097  2.5057 -0.4760  0.8847
 7627SOL    HW234518   2.430   2.567   1.965 -2.3828 -1.1937 -1.2437
 7628SOL     OW34519   0.207   3.677  11.560 -0.0526  0.1005  0.2243
 7628SOL    HW134520   0.270   3.722  11.615 -3.4269 -0.1940  4.3785
 7628SOL    HW234521   0.265   3.646  11.491 -1.6378 -0.8967 -0.6608
 7629SOL     OW34522   0.064   0.191  13.425  0.1609  0.0876  0.0421
 7629SOL    HW134523   0.056   0.153  13.513  1.3741 -1.8021 -0.6561
 7629SOL    HW234524   0.159   0.200  13.419  0.1776  0.2249  0.5156
 7630SOL     OW34525   4.692   1.704  11.261 -0.1322 -0.2273 -0.4464
 7630SOL    HW134526   0.028   1.749  11.296  1.3094 -0.0309 -3.8457
 7630SOL    HW234527   4.725   1.615  11.248 -0.8207 -0.2964 -1.7413
 7631SOL     OW34528   1.079   1.429   6.628  0.0703  0.1303 -0.6481
 7631SOL    HW134529   0.991   1.404   6.655  1.5256 -3.1196  1.1108
 7631SOL    HW234530   1.061   1.523   6.618  2.2086  0.3961 -2.0691
 7632SOL     OW34531   0.020   0.807   1.877 -0.2652  0.1710 -0.1762
 7632SOL    HW134532   4.670   0.800   1.908 -0.5571  2.0355 -0.6291
 7632SOL    HW234533   0.010   0.792   1.783 -0.7433 -0.2851 -0.0553
 7633SOL     OW34534   0.975   0.460   9.574 -0.1671 -0.2946 -0.6374
 7633SOL    HW134535   1.042   0.397   9.546  1.7444  1.2378  0.5391
 7633SOL    HW234536   1.029   0.515   9.630  1.2727 -1.9323 -0.4261
 7634SOL     OW34537   3.970   1.864   9.761 -0.2531 -0.1443  0.0456
 7634SOL    HW134538   3.905   1.818   9.707 -1.6707  0.9979  0.7833
 7634SOL    HW234539   3.938   1.954   9.754  0.9938  0.1887 -1.5576
 7635SOL     OW34540   3.555   0.866  13.694  0.1114 -0.1817 -0.1302
 7635SOL    HW134541   3.631   0.867  13.637  0.1000 -2.0117 -0.1815
 7635SOL    HW234542   3.530   0.959  13.697 -0.1807 -0.2810  0.5850
 7636SOL     OW34543   0.521   0.871  13.786  0.0489  0.0588 -0.0454
 7636SOL    HW134544   0.540   0.929  13.713 -0.0766 -0.8329 -0.7808
 7636SOL    HW234545   0.596   0.904  13.837 -0.4821 -1.6032  1.8376
 7637SOL     OW34546   2.836   4.735   5.283 -0.0195 -0.4091  0.2899
 7637SOL    HW134547   2.849   4.689   5.365  0.3315 -2.1236 -0.7306
 7637SOL    HW234548   2.742   4.727   5.266 -0.1970 -1.4116  1.7547
 7638SOL     OW34549   3.345   2.456  14.325  0.2366  0.2636  0.6359
 7638SOL    HW134550   3.374   2.510  14.250  0.6880 -0.0445  0.5896
 7638SOL    HW234551   3.404   2.380  14.325 -0.3939 -0.2234  0.1608
 7639SOL     OW34552   2.719   1.612  11.449  0.2749  0.8962  0.3155
 7639SOL    HW134553   2.657   1.648  11.386 -1.1734 -1.0406  0.6368
 7639SOL    HW234554   2.692   1.521  11.441  1.8621  0.3419  1.4028
 7640SOL     OW34555   0.751   3.381   4.649 -0.0495  0.5915  0.0215
 7640SOL    HW134556   0.753   3.316   4.579 -0.8555 -0.0335  0.5835
 7640SOL    HW234557   0.829   3.433   4.628 -0.9134  2.1805  0.7183
 7641SOL     OW34558   0.962   2.553   5.990 -0.1518  0.0097 -0.1612
 7641SOL    HW134559   1.049   2.581   6.019 -0.7931 -1.1310  2.9424
 7641SOL    HW234560   0.927   2.632   5.949  1.0467  1.9417  2.5427
 7642SOL     OW34561   2.895   1.455   6.240  0.2237 -0.2625  0.1314
 7642SOL    HW134562   2.971   1.512   6.249 -0.2123  0.3421 -0.0215
 7642SOL    HW234563   2.896   1.441   6.145 -0.7522  0.8334 -0.0407
 7643SOL     OW34564   0.693   2.888   1.067  0.2322 -0.4779 -0.2545
 7643SOL    HW134565   0.749   2.862   0.993  0.5040  0.3066 -0.3324
 7643SOL    HW234566   0.728   2.969   1.105  0.6472 -0.9167  0.2889
 7644SOL     OW34567   1.072   2.472   3.808  0.2571  0.1685 -0.5354
 7644SOL    HW134568   1.132   2.482   3.734  2.0469 -1.8943  0.6220
 7644SOL    HW234569   1.031   2.386   3.794 -0.8322  0.6849 -0.4962
 7645SOL     OW34570   2.394   2.545   4.146  0.1693  0.4612 -0.4285
 7645SOL    HW134571   2.304   2.530   4.117 -0.3823  2.0148  0.5262
 7645SOL    HW234572   2.418   2.634   4.122 -0.2824  0.5148 -0.6840
 7646SOL     OW34573   1.560   1.355   2.794  0.0794 -0.0154 -0.2166
 7646SOL    HW134574   1.568   1.281   2.734  1.0234 -0.3176  0.2649
 7646SOL    HW234575   1.466   1.352   2.813 -0.4128  0.5693 -2.5880
 7647SOL     OW34576   2.435   2.984   9.811 -0.3477  0.2215  0.0963
 7647SOL    HW134577   2.420   2.938   9.894  1.7645  0.3194  0.5351
 7647SOL    HW234578   2.443   3.072   9.847 -0.3734  0.1936  0.1716
 7648SOL     OW34579   0.528   1.213   1.972  0.1234  0.5529  0.5303
 7648SOL    HW134580   0.525   1.253   1.885  2.5687  2.3973  1.2960
 7648SOL    HW234581   0.449   1.254   2.008 -2.0008 -2.2468 -0.9619
 7649SOL     OW34582   0.020   3.488   2.821  0.0548  0.3922  0.4821
 7649SOL    HW134583   0.003   3.477   2.914 -0.8758  1.2059  0.4127
 7649SOL    HW234584   4.709   3.561   2.787  0.9189  0.0492 -1.5643
 7650SOL     OW34585   3.687   2.548   2.533  0.4997 -0.4074 -0.0667
 7650SOL    HW134586   3.664   2.611   2.464  0.2536 -0.8341 -0.3791
 7650SOL    HW234587   3.609   2.563   2.586  0.3818  1.3641 -0.7176
 7651SOL     OW34588   0.185   1.504   3.118 -0.3709  0.1070  0.4142
 7651SOL    HW134589   0.198   1.410   3.111 -0.4019  0.1461 -0.1294
 7651SOL    HW234590   0.161   1.522   3.209  1.5004  1.2170  0.6922
 7652SOL     OW34591   4.643   0.119   6.550  0.5967  0.0223  0.0617
 7652SOL    HW134592   4.569   0.090   6.497 -0.6776 -0.0203  1.8628
 7652SOL    HW234593   4.604   0.197   6.590 -1.6612  0.9443 -3.9544
 7653SOL     OW34594   2.428   0.305   2.625  0.3699 -0.6415  0.5703
 7653SOL    HW134595   2.343   0.265   2.606 -0.0015  0.3368  0.2033
 7653SOL    HW234596   2.419   0.384   2.572 -0.4822 -1.6300 -0.7794
 7654SOL     OW34597   0.588   2.303  10.481  0.0346  0.1609  0.2587
 7654SOL    HW134598   0.562   2.363  10.551 -2.0577 -2.5161  1.7613
 7654SOL    HW234599   0.663   2.254  10.515 -1.0324 -0.0457  2.3009
 7655SOL     OW34600   1.672   3.855   7.755 -0.5677  0.3343 -0.4871
 7655SOL    HW134601   1.637   3.766   7.761  1.0384 -0.1201  2.3423
 7655SOL    HW234602   1.763   3.833   7.734 -1.1934  0.3575 -3.1754
 7656SOL     OW34603   4.604   0.064   4.845  0.0632  0.2118 -0.3027
 7656SOL    HW134604   4.556   0.029   4.920  0.6668 -2.8135 -1.3334
 7656SOL    HW234605   4.692   0.059   4.882 -1.1444  0.0077  2.5204
 7657SOL     OW34606   4.209   3.974  15.692  0.6076 -0.1196 -0.1671
 7657SOL    HW134607   4.168   4.053  15.727 -0.8407 -0.1287 -1.8423
 7657SOL    HW234608   4.153   3.907  15.730 -1.0885 -0.2370 -2.8412
 7658SOL     OW34609   1.958   3.636  16.892  0.1389 -0.0310 -0.3048
 7658SOL    HW134610   2.047   3.649  16.860  0.2294 -0.6268 -0.3072
 7658SOL    HW234611   1.913   3.642  16.808 -0.9969  0.6246  0.3562
 7659SOL     OW34612   3.101   1.007  15.541  0.1054  0.3480 -0.0565
 7659SOL    HW134613   3.027   1.050  15.498  1.5888  0.0262 -2.9239
 7659SOL    HW234614   3.144   0.970  15.464 -1.2482 -0.9961 -0.1937
 7660SOL     OW34615   3.662   2.410   4.219  0.3868 -0.1142  0.1747
 7660SOL    HW134616   3.669   2.460   4.300  1.3601  0.2592 -0.1359
 7660SOL    HW234617   3.695   2.470   4.152 -1.0402  1.4157  0.8388
 7661SOL     OW34618   1.803   1.899  16.137  0.0524  0.0967  0.1304
 7661SOL    HW134619   1.792   1.806  16.153  0.3851 -0.2601 -1.7275
 7661SOL    HW234620   1.727   1.918  16.082  2.4877  2.1128 -2.5198
 7662SOL     OW34621   2.741   1.957   3.244  0.3720  0.2690  0.1632
 7662SOL    HW134622   2.826   1.958   3.289 -0.6258  0.1198  2.0366
 7662SOL    HW234623   2.702   1.873   3.264  2.6256 -0.5474  1.1530
 7663SOL     OW34624   3.202   3.416  10.008 -0.0533 -0.2685 -0.7299
 7663SOL    HW134625   3.186   3.505   9.975 -0.4559  0.2668  0.9123
 7663SOL    HW234626   3.143   3.401  10.082  0.8225  0.7376  0.1524
 7664SOL     OW34627   4.623   2.019   4.228 -0.2027  0.1726 -0.5679
 7664SOL    HW134628   4.715   2.027   4.254  0.0209  0.0051 -1.3076
 7664SOL    HW234629   4.627   1.972   4.145 -0.3271 -0.6598 -0.1139
 7665SOL     OW34630   1.638   4.220   6.283  0.2048  0.1394 -0.6829
 7665SOL    HW134631   1.620   4.312   6.302  2.5004  0.1920  1.1717
 7665SOL    HW234632   1.696   4.196   6.355 -0.6550  0.7977  0.2282
 7666SOL     OW34633   3.604   4.620   1.528 -0.0230 -0.8626  0.2538
 7666SOL    HW134634   3.652   4.699   1.553  1.8686 -2.0509  0.3840
 7666SOL    HW234635   3.657   4.555   1.574 -0.5090  0.2434  2.3696
 7667SOL     OW34636   2.942   0.453   5.247  0.0048 -0.4611 -0.1383
 7667SOL    HW134637   2.978   0.483   5.331 -0.1389 -1.1048  0.1535
 7667SOL    HW234638   3.019   0.476   5.194  0.7334 -1.8717  0.2971
 7668SOL     OW34639   3.124   2.720   9.506 -0.4465 -0.6513 -0.2227
 7668SOL    HW134640   3.218   2.735   9.512 -0.4089 -1.6591  1.5986
 7668SOL    HW234641   3.094   2.796   9.456 -2.9411 -0.0654  2.1856
 7669SOL     OW34642   4.081   4.544   8.601 -0.1279  0.0225  0.2659
 7669SOL    HW134643   4.077   4.638   8.585 -0.3646  0.1884  1.3136
 7669SOL    HW234644   4.170   4.530   8.569 -1.1461 -0.3036 -2.4135
 7670SOL     OW34645   3.962   2.436  15.760  0.2841  0.2527 -0.4160
 7670SOL    HW134646   4.042   2.423  15.709  0.4269 -1.7226  0.3178
 7670SOL    HW234647   3.988   2.506  15.820 -1.5630 -0.7363  1.5522
 7671SOL     OW34648   1.249   1.956   3.446  0.2771  0.4896 -0.3294
 7671SOL    HW134649   1.229   1.864   3.432  1.1929  0.2159  0.1458
 7671SOL    HW234650   1.274   1.977   3.356 -1.3517  1.4560 -0.5684
 7672SOL     OW34651   0.762   3.808   7.924 -0.3147 -0.4298  0.6153
 7672SOL    HW134652   0.706   3.886   7.930  0.5118  0.2508 -0.4851
 7672SOL    HW234653   0.836   3.851   7.881 -0.1917  0.0555  1.3070
 7673SOL     OW34654   4.081   3.371   8.934 -0.1780 -0.1448  0.9457
 7673SOL    HW134655   4.123   3.289   8.961  0.1953 -0.3529 -0.2782
 7673SOL    HW234656   4.153   3.421   8.897 -0.3765 -0.9171 -0.4854
 7674SOL     OW34657   0.249   2.505  12.027  0.5257  0.6384 -0.4369
 7674SOL    HW134658   0.271   2.416  12.000  0.3893  0.0338  1.4273
 7674SOL    HW234659   0.283   2.553  11.951 -2.3971 -1.2410 -2.9105
 7675SOL     OW34660   2.113   1.978   5.972  0.2570  0.1420  0.6291
 7675SOL    HW134661   2.120   1.984   6.067  1.4503 -0.8405  0.6042
 7675SOL    HW234662   2.178   2.043   5.946  2.3987 -1.2308  2.5471
 7676SOL     OW34663   2.889   4.291   9.334  0.3195 -0.2503 -1.2620
 7676SOL    HW134664   2.907   4.367   9.279  2.2622 -0.2993 -0.6829
 7676SOL    HW234665   2.895   4.223   9.267  2.2815 -1.9574  0.6510
 7677SOL     OW34666   3.001   2.459   8.383  0.7223  0.4908  0.2073
 7677SOL    HW134667   2.999   2.363   8.379  1.1953  0.5274 -1.0169
 7677SOL    HW234668   2.945   2.495   8.314  1.5673 -0.1863 -0.8456
 7678SOL     OW34669   3.083   2.406   7.498 -0.2685 -0.0265  0.3519
 7678SOL    HW134670   3.137   2.327   7.497 -0.9020 -0.4647  0.5102
 7678SOL    HW234671   3.078   2.435   7.589  0.7985  0.7922  0.1453
 7679SOL     OW34672   1.779   4.288   8.930 -0.0211 -0.0591  0.0339
 7679SOL    HW134673   1.836   4.238   8.871 -1.1015 -1.1218 -0.1183
 7679SOL    HW234674   1.757   4.372   8.889  0.0977  0.0957  0.2924
 7680SOL     OW34675   1.907   1.795   4.033 -0.0716  0.5968  0.4973
 7680SOL    HW134676   1.988   1.804   4.084 -1.0239 -0.0864  2.1443
 7680SOL    HW234677   1.915   1.716   3.979 -1.9747 -1.1782  2.8071
 7681SOL     OW34678   4.590   0.847  15.438  0.0369  0.0686  0.1304
 7681SOL    HW134679   4.508   0.896  15.435  0.9305  1.4065 -2.1874
 7681SOL    HW234680   4.557   0.764  15.402 -3.3161  1.3497  0.2330
 7682SOL     OW34681   0.019   0.501   1.895  0.4194 -0.2428 -0.0770
 7682SOL    HW134682   0.016   0.597   1.889 -2.6339 -0.5077 -2.3340
 7682SOL    HW234683   0.114   0.495   1.902  0.5704  0.8877 -1.0570
 7683SOL     OW34684   1.239   3.210   3.444 -0.2473  0.4213  0.5613
 7683SOL    HW134685   1.144   3.213   3.452 -0.2769  0.8837  0.0447
 7683SOL    HW234686   1.247   3.145   3.374  3.0526  0.4288  0.9142
 7684SOL     OW34687   4.566   0.202   5.404 -0.4102 -0.4013 -0.6175
 7684SOL    HW134688   4.612   0.139   5.350  1.4487 -1.4539  2.2060
 7684SOL    HW234689   4.597   0.281   5.361  0.1850  0.6333  1.7062
 7685SOL     OW34690   0.050   3.218   4.991 -0.1699  0.5444  0.1802
 7685SOL    HW134691   0.105   3.239   4.916  1.4807  0.2851  1.3245
 7685SOL    HW234692   0.007   3.301   5.012 -0.1635  0.3416  0.9858
 7686SOL     OW34693   0.643   0.991   3.170  0.0804 -0.3898  0.1794
 7686SOL    HW134694   0.567   0.934   3.159 -0.8195  0.7155  0.6943
 7686SOL    HW234695   0.715   0.936   3.139 -1.6398 -2.2271 -0.5558
 7687SOL     OW34696   0.738   1.090  15.751  0.4193  0.2542 -0.1294
 7687SOL    HW134697   0.793   1.082  15.673 -2.4586 -3.0020 -1.7991
 7687SOL    HW234698   0.805   1.112  15.816 -0.2529 -1.9986  1.2987
 7688SOL     OW34699   1.540   1.195  17.350  0.7293 -0.2398  0.2509
 7688SOL    HW134700   1.471   1.221  17.289  0.5943 -1.8392 -0.2916
 7688SOL    HW234701   1.587   1.133  17.294 -0.0259 -1.5929  1.1247
 7689SOL     OW34702   1.018   2.586  15.831  0.0243 -0.3689 -0.2037
 7689SOL    HW134703   0.963   2.638  15.772 -3.9226 -1.1124  2.8284
 7689SOL    HW234704   1.100   2.635  15.831 -1.0696  1.4704 -1.2828
 7690SOL     OW34705   3.774   3.516  12.676  0.6699  0.5944  0.5599
 7690SOL    HW134706   3.768   3.609  12.697  1.2625  0.1446  2.7100
 7690SOL    HW234707   3.747   3.480  12.760 -1.4095  0.7021 -0.0716
 7691SOL     OW34708   1.520   2.976   8.621  0.2800 -0.5126  0.7299
 7691SOL    HW134709   1.492   2.976   8.529 -0.8850 -0.9281  1.0874
 7691SOL    HW234710   1.542   3.068   8.639  1.6226 -0.6422 -0.2392
 7692SOL     OW34711   3.508   0.118   7.455 -0.2539  0.3061 -0.2328
 7692SOL    HW134712   3.596   0.089   7.481  0.8791  1.7565 -2.4298
 7692SOL    HW234713   3.462   0.123   7.538 -0.2162 -0.9931 -0.1323
 7693SOL     OW34714   0.025   3.818   1.061  0.4642 -0.0603 -0.5265
 7693SOL    HW134715   0.083   3.858   1.125 -1.5662 -0.1173  1.3742
 7693SOL    HW234716   0.023   3.728   1.092 -1.6501 -0.7857 -2.7108
 7694SOL     OW34717   3.322   1.411   0.997  0.1147 -0.3045 -0.7029
 7694SOL    HW134718   3.245   1.456   0.961  0.5532  0.6767 -0.4182
 7694SOL    HW234719   3.323   1.435   1.090  0.6276 -1.0679 -0.5158
 7695SOL     OW34720   2.698   4.549   6.166 -0.3175  0.3274 -0.4441
 7695SOL    HW134721   2.793   4.548   6.164 -0.3170 -0.3350 -0.1124
 7695SOL    HW234722   2.684   4.470   6.219 -2.0268  0.7127 -0.3037
 7696SOL     OW34723   3.744   2.054   8.381 -0.1641 -0.0256  0.2118
 7696SOL    HW134724   3.662   2.094   8.354  0.2204  0.0054 -0.9295
 7696SOL    HW234725   3.798   2.118   8.335  0.9044 -1.4100 -0.4854
 7697SOL     OW34726   4.467   0.132   9.612 -0.3461  0.1347  0.0424
 7697SOL    HW134727   4.459   0.038   9.630 -0.7469  0.4562  1.4861
 7697SOL    HW234728   4.390   0.132   9.554 -0.2667 -1.1490 -0.0667
 7698SOL     OW34729   0.809   0.195   7.038 -0.3680  0.1804  0.8655
 7698SOL    HW134730   0.899   0.224   7.051 -0.3702  0.1773  0.8872
 7698SOL    HW234731   0.767   0.260   6.982 -0.3999  0.0219  0.7084
 7699SOL     OW34732   1.450   2.945   4.156  0.0430  0.8817 -0.5685
 7699SOL    HW134733   1.401   2.868   4.126  1.5396 -0.9840  1.7835
 7699SOL    HW234734   1.384   3.013   4.146  0.5028  1.7081  1.9074
 7700SOL     OW34735   2.284   2.100  17.508 -0.5798 -0.4172  0.0272
 7700SOL    HW134736   2.273   2.006  17.521  0.5122 -0.8946 -2.4921
 7700SOL    HW234737   2.326   2.123  17.590 -1.7028  0.0228  0.4827
 7701SOL     OW34738   0.712   3.234  11.420  0.4931 -0.2036 -0.5674
 7701SOL    HW134739   0.640   3.298  11.420  0.0711 -0.6752 -0.1330
 7701SOL    HW234740   0.727   3.223  11.326  0.5112 -3.7000 -0.1322
 7702SOL     OW34741   1.921   3.106  11.917  0.2480 -0.0962  0.1542
 7702SOL    HW134742   1.986   3.038  11.936 -1.1588 -1.4010  0.2131
 7702SOL    HW234743   1.917   3.147  12.004 -0.6929  0.9812 -0.3928
 7703SOL     OW34744   2.514   2.038  13.824 -0.1060  0.0703  0.1461
 7703SOL    HW134745   2.429   2.015  13.786 -0.2755 -1.1986  1.2865
 7703SOL    HW234746   2.514   2.134  13.827  1.1432 -0.0119  2.3619
 7704SOL     OW34747   3.032   4.299   2.398 -0.2595 -0.3077 -1.2226
 7704SOL    HW134748   3.097   4.367   2.417  1.1818 -2.5192  1.7203
 7704SOL    HW234749   2.972   4.344   2.338 -1.3116 -1.5024 -1.0545
 7705SOL     OW34750   2.850   2.745  12.840 -0.6637  1.0273  0.5247
 7705SOL    HW134751   2.936   2.764  12.803 -0.1361 -3.7856 -0.7066
 7705SOL    HW234752   2.827   2.836  12.860  3.6016  2.1368  0.2838
 7706SOL     OW34753   0.241   4.071   5.317  0.2120 -0.0734 -0.6661
 7706SOL    HW134754   0.206   4.033   5.236 -0.7582 -1.1057  0.2410
 7706SOL    HW234755   0.334   4.073   5.294  0.2440  1.6590 -0.3623
 7707SOL     OW34756   0.853   1.291   3.406  0.9384 -0.1770  0.5428
 7707SOL    HW134757   0.875   1.274   3.314 -0.0012 -0.5609  0.3908
 7707SOL    HW234758   0.932   1.244   3.433 -0.4021 -0.9127  3.1548
 7708SOL     OW34759   2.831   3.784   3.189 -0.2065 -0.2222  0.2223
 7708SOL    HW134760   2.771   3.847   3.229 -1.8360 -1.6926  0.1231
 7708SOL    HW234761   2.848   3.726   3.263  1.3233 -0.1097 -0.0429
 7709SOL     OW34762   1.367   1.192   9.978 -0.1480 -0.2768  0.7752
 7709SOL    HW134763   1.454   1.207   9.943 -1.8368  0.2377 -3.2373
 7709SOL    HW234764   1.337   1.282   9.992 -3.2445 -1.1833 -0.0248
 7710SOL     OW34765   2.033   0.502  12.752  0.2757  0.6140  0.2183
 7710SOL    HW134766   2.093   0.438  12.714  0.8315  1.9596 -1.2034
 7710SOL    HW234767   2.004   0.461  12.833  0.0667 -1.2426 -0.7894
 7711SOL     OW34768   0.272   3.133  12.753 -0.8948  0.3937  0.6984
 7711SOL    HW134769   0.257   3.221  12.786  1.1691  1.0334 -0.0561
 7711SOL    HW234770   0.317   3.085  12.822 -0.9779  0.1760  0.6049
 7712SOL     OW34771   1.506   0.996   7.402  0.5462 -0.2801  0.6791
 7712SOL    HW134772   1.493   0.953   7.318 -1.5491  1.1535  0.2689
 7712SOL    HW234773   1.543   0.928   7.459  0.1008  0.5257  1.9316
 7713SOL     OW34774   2.091   3.131   5.686 -0.5108 -0.2312  0.1375
 7713SOL    HW134775   2.118   3.116   5.595 -0.2423  1.7879 -0.1079
 7713SOL    HW234776   2.004   3.093   5.679 -0.0553 -0.7789 -2.7459
 7714SOL     OW34777   2.440   0.954   0.474  0.1317 -0.0052 -0.1274
 7714SOL    HW134778   2.477   0.912   0.551 -2.2647 -1.0611  0.4355
 7714SOL    HW234779   2.420   0.887   0.409  0.2531 -1.6106  1.4974
 7715SOL     OW34780   0.580   3.400   8.242  0.5617 -0.2990  0.2720
 7715SOL    HW134781   0.553   3.327   8.298  0.5315 -0.0688  0.5586
 7715SOL    HW234782   0.623   3.357   8.168  0.7108 -0.9997  0.7605
 7716SOL     OW34783   2.980   0.301   7.033  0.1911  0.1563 -0.0399
 7716SOL    HW134784   2.983   0.361   7.108 -2.4974  1.8802 -1.3301
 7716SOL    HW234785   2.899   0.335   6.994 -0.5353  0.9539  2.1404
 7717SOL     OW34786   1.435   4.070   5.755 -0.2579 -0.1181  0.0898
 7717SOL    HW134787   1.468   3.994   5.802 -0.5848 -0.6512 -0.5394
 7717SOL    HW234788   1.487   4.064   5.676  1.0332 -0.9672  1.0042
 7718SOL     OW34789   1.565   1.908   4.374  0.0546  0.1309  0.1038
 7718SOL    HW134790   1.645   1.871   4.339 -0.4750 -1.4679  0.5723
 7718SOL    HW234791   1.520   1.827   4.399  2.3470 -1.2648 -0.3440
 7719SOL     OW34792   2.942   0.880   0.798  0.0594  0.4861 -0.1101
 7719SOL    HW134793   2.998   0.825   0.744  0.0640  0.8313 -0.4573
 7719SOL    HW234794   2.944   0.823   0.875 -1.6027  0.9188  0.2574
 7720SOL     OW34795   4.335   1.769   4.669 -0.0437  1.2229  0.0331
 7720SOL    HW134796   4.424   1.797   4.647  0.7978 -0.8438  0.8225
 7720SOL    HW234797   4.292   1.854   4.681 -1.1867  0.6188  0.1919
 7721SOL     OW34798   1.434   2.392  11.446  0.4569  0.1809 -0.2037
 7721SOL    HW134799   1.460   2.303  11.472 -2.8748 -0.4957  0.9116
 7721SOL    HW234800   1.473   2.444  11.516  1.6860 -1.7712  0.5474
 7722SOL     OW34801   3.728   2.144  13.991  0.2276  0.6703  0.2340
 7722SOL    HW134802   3.762   2.133  14.080  0.3591 -1.0208 -0.0230
 7722SOL    HW234803   3.642   2.184  14.004  0.5818  0.3477  3.5797
 7723SOL     OW34804   2.898   1.352   5.179  0.3496 -0.2475  0.1397
 7723SOL    HW134805   2.876   1.270   5.134  1.4505 -0.5603  0.1801
 7723SOL    HW234806   2.919   1.335   5.271 -0.4395  1.5952  0.6589
 7724SOL     OW34807   1.624   3.583   7.745  0.2921  0.3249  0.1419
 7724SOL    HW134808   1.660   3.535   7.819  1.4646 -1.8723 -1.8306
 7724SOL    HW234809   1.532   3.558   7.754 -0.0004  1.0566 -0.8211
 7725SOL     OW34810   1.214   0.334   5.362  0.0045  0.3419  0.1586
 7725SOL    HW134811   1.154   0.389   5.412 -2.6537  0.0774 -2.8315
 7725SOL    HW234812   1.222   0.373   5.275 -0.9823  1.0580  0.4005
 7726SOL     OW34813   2.832   0.832   2.666  0.0844  0.2686 -0.3293
 7726SOL    HW134814   2.836   0.896   2.594  0.2696  1.8615  1.0878
 7726SOL    HW234815   2.740   0.846   2.687  0.0793  1.1501 -0.9124
 7727SOL     OW34816   1.902   3.674   7.809  0.0962  0.1846 -0.6129
 7727SOL    HW134817   1.960   3.651   7.881 -1.5037 -0.9337  0.2995
 7727SOL    HW234818   1.819   3.682   7.856  0.2242 -0.3887 -0.2974
 7728SOL     OW34819   2.518   4.104   6.344 -0.5488  0.1115 -0.1216
 7728SOL    HW134820   2.601   4.108   6.297 -0.5173 -0.5626 -0.1238
 7728SOL    HW234821   2.453   4.085   6.277  0.1745  0.3228 -0.8796
 7729SOL     OW34822   3.389   4.238   2.559  0.9184 -0.7160 -0.4464
 7729SOL    HW134823   3.304   4.194   2.555 -0.3491  1.7491 -0.6306
 7729SOL    HW234824   3.434   4.178   2.500  0.8747 -0.6591 -0.5385
 7730SOL     OW34825   3.493   3.427  16.101 -0.2021  0.2434 -0.0944
 7730SOL    HW134826   3.478   3.392  16.013  4.4778 -1.2794 -0.2739
 7730SOL    HW234827   3.584   3.452  16.085  0.1012 -0.7104  0.1998
 7731SOL     OW34828   2.010   1.279   6.855 -0.0751  0.7756  0.2888
 7731SOL    HW134829   1.925   1.323   6.859 -0.1479  0.7903 -1.3199
 7731SOL    HW234830   2.008   1.242   6.944  0.8951  0.3648  0.1348
 7732SOL     OW34831   1.400   3.091   5.261  0.1466 -0.4821 -0.5129
 7732SOL    HW134832   1.443   3.154   5.202  0.8417 -1.1223 -0.6928
 7732SOL    HW234833   1.477   3.045   5.295  0.0904 -0.2368 -0.0632
 7733SOL     OW34834   3.847   3.681   9.107  0.0518 -0.0947 -0.0304
 7733SOL    HW134835   3.851   3.718   9.018 -0.7122 -3.2619 -1.3968
 7733SOL    HW234836   3.792   3.743   9.153 -1.4510 -1.6478  0.2810
 7734SOL     OW34837   3.009   3.634   7.625  0.1013  0.3607 -0.3432
 7734SOL    HW134838   3.088   3.623   7.679 -1.4821 -1.8052  1.5048
 7734SOL    HW234839   2.961   3.551   7.627 -0.1389  0.5270  1.5858
 7735SOL     OW34840   2.629   2.457   5.496  0.1401 -0.3946 -0.0321
 7735SOL    HW134841   2.585   2.542   5.495 -0.9444 -0.9548 -0.3331
 7735SOL    HW234842   2.647   2.440   5.403 -1.3472  1.8486 -0.7259
 7736SOL     OW34843   0.024   2.096  16.850 -0.2862  0.8519 -0.2228
 7736SOL    HW134844   4.671   2.111  16.865 -0.5338  1.0142 -1.9492
 7736SOL    HW234845   0.043   2.175  16.798  1.9397  1.4048  1.4428
 7737SOL     OW34846   3.308   1.905   9.442  0.4502 -0.2024  0.3147
 7737SOL    HW134847   3.232   1.846   9.437  1.0704 -1.0270  0.5008
 7737SOL    HW234848   3.379   1.844   9.462  1.3603  1.5695  2.4775
 7738SOL     OW34849   3.183   0.169   3.199 -0.3842 -0.1691 -0.6184
 7738SOL    HW134850   3.153   0.251   3.159 -2.0469  0.6766  2.4182
 7738SOL    HW234851   3.242   0.132   3.132 -0.5383  1.6807 -1.7881
 7739SOL     OW34852   1.445   2.673   7.567 -0.2580  0.2159 -0.5409
 7739SOL    HW134853   1.472   2.602   7.509 -1.3057 -0.5377 -0.1014
 7739SOL    HW234854   1.365   2.708   7.528  0.6538  0.8715 -1.8444
 7740SOL     OW34855   3.661   2.913   4.391  0.2756  0.1673  0.2726
 7740SOL    HW134856   3.661   2.928   4.486  0.2924  1.2205  0.1043
 7740SOL    HW234857   3.601   2.981   4.360  1.5559 -0.0274 -2.6347
 7741SOL     OW34858   3.942   4.433  10.823  0.6263 -0.4500  0.2340
 7741SOL    HW134859   4.005   4.475  10.881  1.7002 -0.6868 -0.7638
 7741SOL    HW234860   3.957   4.340  10.841 -1.1539 -1.1518 -1.8715
 7742SOL     OW34861   2.219   2.837   8.811  0.0513  0.2277 -0.6290
 7742SOL    HW134862   2.184   2.922   8.785  1.1620  0.6087 -0.8806
 7742SOL    HW234863   2.312   2.851   8.827 -0.4300  1.7578  0.8771
 7743SOL     OW34864   4.193   3.707   7.164 -0.6694 -0.7176 -0.2056
 7743SOL    HW134865   4.233   3.620   7.161 -0.9160 -0.7616 -2.2425
 7743SOL    HW234866   4.161   3.721   7.075 -0.2797  1.7109  0.0384
 7744SOL     OW34867   4.712   4.630   6.716 -0.0610 -0.0013 -0.0554
 7744SOL    HW134868   4.654   4.629   6.793 -0.4239  2.1784 -0.3017
 7744SOL    HW234869   4.673   4.707   6.674 -0.7180  0.2647  1.0392
 7745SOL     OW34870   2.850   3.841   1.708  0.3732 -0.0354  0.7942
 7745SOL    HW134871   2.931   3.792   1.726 -1.3269 -2.6686  1.3485
 7745SOL    HW234872   2.895   3.902   1.651  0.6774 -0.0923  0.9681
 7746SOL     OW34873   1.353   1.606   9.248  0.1180  0.0506  0.0307
 7746SOL    HW134874   1.341   1.546   9.321 -0.3053 -0.6222 -0.6000
 7746SOL    HW234875   1.298   1.572   9.178 -1.2291 -0.1752  1.2037
 7747SOL     OW34876   2.899   2.398   5.463  0.5788 -0.4874  0.8261
 7747SOL    HW134877   2.814   2.397   5.419  1.0944  0.5191 -0.1886
 7747SOL    HW234878   2.877   2.364   5.550 -2.3194 -0.1655  0.2284
 7748SOL     OW34879   0.521   3.200   3.178  0.2609 -0.2846 -0.5584
 7748SOL    HW134880   0.453   3.267   3.185  1.9708  1.2751  1.1029
 7748SOL    HW234881   0.464   3.124   3.164 -0.8074  0.6548 -1.3086
 7749SOL     OW34882   2.305   0.205   4.829 -0.2565  0.2558 -0.1521
 7749SOL    HW134883   2.368   0.214   4.900  2.2219  0.8447 -2.4586
 7749SOL    HW234884   2.323   0.287   4.784  1.5546  0.2144  0.5005
 7750SOL     OW34885   0.642   4.301   3.911 -0.4802 -0.2295 -0.1046
 7750SOL    HW134886   0.640   4.283   3.817  0.4847 -0.8064 -0.0178
 7750SOL    HW234887   0.714   4.249   3.947  0.2956 -0.5731 -2.1820
 7751SOL     OW34888   4.634   0.638   3.283  0.2891  0.2195 -0.0180
 7751SOL    HW134889   4.585   0.643   3.201 -0.2593  1.9713  0.4273
 7751SOL    HW234890   4.580   0.684   3.347  1.0674  1.1986 -0.0734
 7752SOL     OW34891   3.590   3.252   7.308 -0.0734 -0.3969 -0.4732
 7752SOL    HW134892   3.570   3.257   7.215 -0.1912  4.1121 -0.1948
 7752SOL    HW234893   3.508   3.229   7.352  0.5289 -0.9799  0.3548
 7753SOL     OW34894   1.888   0.232   2.089  0.1874 -0.1817 -0.6261
 7753SOL    HW134895   1.906   0.325   2.094 -0.2718 -0.1973  1.5953
 7753SOL    HW234896   1.802   0.231   2.046 -0.2188 -0.9585  0.1892
 7754SOL     OW34897   1.235   1.676   5.267  0.2991 -0.3405  0.3363
 7754SOL    HW134898   1.313   1.656   5.215 -0.0995 -1.6260  0.2170
 7754SOL    HW234899   1.172   1.714   5.206  0.4209  0.2709  0.5899
 7755SOL     OW34900   4.502   3.509   0.230  0.9027  0.3779  0.2613
 7755SOL    HW134901   4.578   3.480   0.179 -0.0504 -1.1039 -0.2864
 7755SOL    HW234902   4.459   3.551   0.156 -2.9792 -2.8622  0.7187
 7756SOL     OW34903   4.262   2.507   2.876  0.3942  0.5928  0.1814
 7756SOL    HW134904   4.301   2.591   2.899  0.5128  0.1220  1.7421
 7756SOL    HW234905   4.200   2.500   2.950 -0.3013 -0.8175 -0.5298
 7757SOL     OW34906   3.714   2.098   6.641  0.5835  0.6894 -0.1371
 7757SOL    HW134907   3.786   2.125   6.585  1.2709 -0.8663 -0.0042
 7757SOL    HW234908   3.643   2.079   6.579  1.4407  0.2099 -0.9698
 7758SOL     OW34909   1.089   2.120   8.764 -0.3391  0.4870 -0.3799
 7758SOL    HW134910   1.014   2.162   8.808 -0.5470 -0.4911  0.1938
 7758SOL    HW234911   1.072   2.133   8.671  0.9345  0.6548 -0.5849
 7759SOL     OW34912   4.409   4.644   1.431  0.1991 -0.1411  0.3856
 7759SOL    HW134913   4.400   4.671   1.522 -0.6985 -1.5060  0.7002
 7759SOL    HW234914   4.332   4.695   1.404  1.3142  0.9782 -0.7002
 7760SOL     OW34915   0.874   1.634  11.341 -0.4115 -0.3219 -0.0047
 7760SOL    HW134916   0.924   1.647  11.421  1.5557 -2.1119 -0.9755
 7760SOL    HW234917   0.859   1.540  11.339 -1.0043 -0.2179 -0.5569
 7761SOL     OW34918   1.388   2.722   9.723  0.9951 -1.1141 -0.0745
 7761SOL    HW134919   1.294   2.737   9.726  1.2265  0.6356 -1.7578
 7761SOL    HW234920   1.407   2.697   9.632  0.9562  3.2304 -1.2836
 7762SOL     OW34921   3.357   1.953   1.577  0.4592  0.2958 -0.1809
 7762SOL    HW134922   3.376   2.027   1.634 -0.9487 -0.2324  0.9685
 7762SOL    HW234923   3.445   1.935   1.544  1.1217 -0.2541  1.9299
 7763SOL     OW34924   0.298   2.158   3.701  0.2375 -1.0556  0.1423
 7763SOL    HW134925   0.388   2.127   3.716  0.3195 -1.0331 -0.3028
 7763SOL    HW234926   0.313   2.246   3.666  0.2765 -2.4123 -3.2137
 7764SOL     OW34927   3.510   0.659   5.100 -0.9037  0.2275  0.0191
 7764SOL    HW134928   3.575   0.679   5.033 -1.1867  0.5843 -0.1481
 7764SOL    HW234929   3.546   0.574   5.126 -2.3445 -1.0297 -2.1655
 7765SOL     OW34930   2.198   3.980   4.425 -1.0419 -0.2028  0.1784
 7765SOL    HW134931   2.231   4.048   4.365  0.1742 -0.2163  0.8482
 7765SOL    HW234932   2.188   3.905   4.367 -0.9288  0.4413 -0.6787
 7766SOL     OW34933   3.770   1.060   3.507 -0.5395 -0.1389 -0.6671
 7766SOL    HW134934   3.760   1.031   3.597  1.7244 -0.7437 -0.6104
 7766SOL    HW234935   3.842   1.002   3.480  2.5151  3.0913  0.4928
 7767SOL     OW34936   3.019   3.308   3.513 -0.2224  0.0298  0.2483
 7767SOL    HW134937   2.935   3.343   3.543  0.9164  2.7472  0.2388
 7767SOL    HW234938   3.072   3.388   3.509 -1.9140  1.1593  0.1488
 7768SOL     OW34939   2.075   2.769   2.542 -0.2636  0.0083 -0.4028
 7768SOL    HW134940   2.071   2.778   2.637  4.0253  2.4174 -0.4658
 7768SOL    HW234941   2.165   2.746   2.522 -0.7700 -3.9452  1.6851
 7769SOL     OW34942   2.913   1.610   5.759 -0.2582 -1.1648  0.1644
 7769SOL    HW134943   2.843   1.646   5.813  0.8284  2.9113 -1.1358
 7769SOL    HW234944   2.870   1.563   5.688  0.9275  0.0328 -1.3510
 7770SOL     OW34945   3.171   1.541   5.806  0.0190 -0.3965  0.2208
 7770SOL    HW134946   3.077   1.556   5.798 -0.2209 -1.9827 -0.0013
 7770SOL    HW234947   3.218   1.584   5.734 -0.0431  0.4019  0.6698
 7771SOL     OW34948   1.317   0.934   6.993 -0.1153  0.1438  0.0474
 7771SOL    HW134949   1.302   1.019   7.033  2.3599 -0.3877  2.1229
 7771SOL    HW234950   1.297   0.874   7.065 -0.8720  1.4675  0.9348
 7772SOL     OW34951   3.789   2.540   5.111 -0.4054 -0.0455 -0.3300
 7772SOL    HW134952   3.879   2.525   5.080 -0.1111 -0.1672  0.5860
 7772SOL    HW234953   3.789   2.489   5.192  0.4269  0.6180  0.0961
 7773SOL     OW34954   3.264   1.719   3.708  0.2054  0.1854 -0.3652
 7773SOL    HW134955   3.330   1.661   3.670 -1.0984 -2.4860  1.3887
 7773SOL    HW234956   3.192   1.657   3.716 -0.6517  0.9096 -2.4217
 7774SOL     OW34957   0.382   4.021   6.601  0.8377  0.1813 -0.0294
 7774SOL    HW134958   0.307   3.962   6.595  0.3369  0.8762 -0.6360
 7774SOL    HW234959   0.330   4.102   6.606  1.3619  0.3184  3.3360
 7775SOL     OW34960   1.017   1.484  16.801 -0.3936  0.3320 -0.0235
 7775SOL    HW134961   0.945   1.519  16.852 -0.5004  1.7320 -1.1615
 7775SOL    HW234962   0.984   1.486  16.712 -1.0074 -0.6106  0.1778
 7776SOL     OW34963   2.140   2.378   6.141  0.2057 -0.2579  0.4054
 7776SOL    HW134964   2.208   2.418   6.087 -1.3534  1.1318 -0.5489
 7776SOL    HW234965   2.121   2.452   6.199  0.0735  0.8358 -1.0184
 7777SOL     OW34966   1.991   3.993   8.007 -0.4125  0.5642  0.4912
 7777SOL    HW134967   1.901   4.000   7.974 -0.4220 -1.2464  0.0792
 7777SOL    HW234968   1.992   4.048   8.085 -1.5753  0.1859  0.7706
 7778SOL     OW34969   3.346   2.984   5.425 -0.0969 -0.5225  0.2189
 7778SOL    HW134970   3.428   2.934   5.421  1.2101  1.6032  0.5197
 7778SOL    HW234971   3.289   2.936   5.364 -0.8277  0.9352 -0.2319
 7779SOL     OW34972   1.790   1.308   4.339 -0.1482 -0.5811  0.7719
 7779SOL    HW134973   1.770   1.219   4.310  2.0711 -1.5897  2.2738
 7779SOL    HW234974   1.875   1.321   4.296 -0.8478  0.2628 -0.3398
 7780SOL     OW34975   3.480   1.271  12.437  0.3741 -0.6387 -0.2065
 7780SOL    HW134976   3.438   1.234  12.360  1.0150 -1.3583 -0.2238
 7780SOL    HW234977   3.402   1.317  12.468  1.9495  1.1851  1.0469
 7781SOL     OW34978   2.663   3.505   9.395  1.0294 -0.7149  0.4746
 7781SOL    HW134979   2.729   3.535   9.457  0.0995 -0.8652  1.5316
 7781SOL    HW234980   2.583   3.499   9.447 -0.2528  1.8328 -1.2118
 7782SOL     OW34981   3.142   0.190   3.650  0.2449 -0.1776  0.2863
 7782SOL    HW134982   3.080   0.251   3.610  0.1523  0.7295  1.8399
 7782SOL    HW234983   3.162   0.140   3.570 -1.0188 -0.4862  0.1609
 7783SOL     OW34984   2.326   3.954  15.598 -0.2577  0.2151 -0.2462
 7783SOL    HW134985   2.419   3.941  15.616 -0.4691  2.6364  2.6605
 7783SOL    HW234986   2.315   3.897  15.522 -1.3878  1.1126 -0.7507
 7784SOL     OW34987   0.611   2.065   5.919  0.0749 -0.1880 -0.5378
 7784SOL    HW134988   0.685   2.044   5.862  4.1372  3.9611  3.2294
 7784SOL    HW234989   0.568   1.981   5.930 -0.1270  0.1080  0.9976
 7785SOL     OW34990   2.148   1.641  15.635 -0.2820 -0.4416  0.3813
 7785SOL    HW134991   2.083   1.668  15.700 -0.6182  1.0436 -0.5594
 7785SOL    HW234992   2.085   1.620  15.566  0.7034 -0.1532 -0.6106
 7786SOL     OW34993   2.090   0.744  14.251  0.0497  0.1880 -0.2207
 7786SOL    HW134994   2.129   0.692  14.181  0.4884 -0.6328  0.6291
 7786SOL    HW234995   2.171   0.776  14.292 -2.1717  2.6134  2.2371
 7787SOL     OW34996   0.386   1.505   4.758 -0.2684 -0.1822  0.1591
 7787SOL    HW134997   0.359   1.597   4.752  0.6280 -0.0310 -1.5764
 7787SOL    HW234998   0.434   1.486   4.677  0.1377 -2.0705  0.8304
 7788SOL     OW34999   4.180   1.767   8.875 -0.4545  0.2184 -0.2186
 7788SOL    HW135000   4.143   1.851   8.846 -0.2016  0.8191  1.2147
 7788SOL    HW235001   4.179   1.721   8.791  0.7182  1.0455 -0.6882
 7789SOL     OW35002   0.402   2.247   7.906  0.2853 -0.4276  0.2103
 7789SOL    HW135003   0.362   2.324   7.867 -0.9983 -1.0519  0.2762
 7789SOL    HW235004   0.391   2.185   7.833 -1.5204  1.6784 -1.3037
 7790SOL     OW35005   3.140   3.113   1.957 -0.2204 -1.2066  0.2197
 7790SOL    HW135006   3.212   3.093   1.898  0.7955  0.3030  0.9335
 7790SOL    HW235007   3.106   3.026   1.976 -2.1712 -0.6331 -0.6488
 7791SOL     OW35008   0.929   2.811   5.905 -0.0799  0.0090 -0.4644
 7791SOL    HW135009   0.938   2.833   5.812 -1.0610 -2.7936 -1.2238
 7791SOL    HW235010   0.834   2.819   5.910 -0.0931  0.1451 -0.8969
 7792SOL     OW35011   1.193   0.334   8.900  0.1195 -0.4314 -1.1807
 7792SOL    HW135012   1.247   0.255   8.900  1.2440  0.3257  0.9300
 7792SOL    HW235013   1.258   0.394   8.864  1.7517 -1.7762 -0.5051
 7793SOL     OW35014   4.140   4.567   5.905  0.2299 -0.3937 -0.2709
 7793SOL    HW135015   4.085   4.493   5.932 -0.2058  0.2963  0.7391
 7793SOL    HW235016   4.183   4.593   5.986  1.2170 -1.0968 -0.5766
 7794SOL     OW35017   3.095   2.845  12.782 -0.6090 -0.2290  0.2123
 7794SOL    HW135018   3.127   2.934  12.765 -1.0337 -0.1445 -0.1456
 7794SOL    HW235019   3.162   2.803  12.729 -2.9698 -3.1101 -0.4677
 7795SOL     OW35020   3.198   1.599   1.909  0.2276 -0.5856 -0.2636
 7795SOL    HW135021   3.284   1.573   1.944 -0.7268 -3.5238 -0.1179
 7795SOL    HW235022   3.152   1.522   1.941 -2.9917  0.9537 -1.1693
 7796SOL     OW35023   2.615   4.155   4.317 -0.1128 -0.1606 -0.4485
 7796SOL    HW135024   2.631   4.071   4.274  1.3414 -0.9658  1.6691
 7796SOL    HW235025   2.670   4.163   4.395  0.0320 -0.8420 -0.4748
 7797SOL     OW35026   0.367   4.246  15.888  0.0483  0.6745 -0.4262
 7797SOL    HW135027   0.277   4.222  15.909  0.0936 -0.5548 -1.6373
 7797SOL    HW235028   0.383   4.284  15.974  1.1969  2.4628 -1.4111
 7798SOL     OW35029   4.637   4.162   6.763  0.2947 -0.1340  0.7700
 7798SOL    HW135030   4.683   4.233   6.718 -1.1614  1.3891  1.6724
 7798SOL    HW235031   4.591   4.213   6.830  0.1352  1.2739 -0.3979
 7799SOL     OW35032   2.806   4.485   5.468 -0.0728  0.3666 -0.0174
 7799SOL    HW135033   2.739   4.509   5.532  1.0002  3.2674  0.0248
 7799SOL    HW235034   2.876   4.462   5.530 -0.2249  0.3128  0.1351
 7800SOL     OW35035   4.621   1.717   2.048  0.1257  0.0727  0.1105
 7800SOL    HW135036   4.631   1.692   2.140  1.2174  0.6336  0.1338
 7800SOL    HW235037   4.525   1.725   2.048  0.0578 -0.6872  0.6931
 7801SOL     OW35038   3.654   1.428   2.764 -0.3051 -0.0184  0.4955
 7801SOL    HW135039   3.702   1.505   2.796 -0.4773 -0.7561  2.5101
 7801SOL    HW235040   3.563   1.455   2.776 -0.3470  0.1568 -0.2197
 7802SOL     OW35041   0.461   1.869   7.551 -0.0056  0.6534  0.6493
 7802SOL    HW135042   0.447   1.796   7.491  2.5252 -1.0013  2.0585
 7802SOL    HW235043   0.538   1.906   7.508 -1.2969  0.6227 -1.6644
 7803SOL     OW35044   0.743   2.336   7.781  0.5490 -0.5771 -0.1147
 7803SOL    HW135045   0.730   2.419   7.735 -0.5637 -0.8329 -0.2642
 7803SOL    HW235046   0.657   2.295   7.774  2.0978 -3.3764 -2.4956
 7804SOL     OW35047   3.518   1.876  10.202 -0.4884  0.4289 -0.6172
 7804SOL    HW135048   3.527   1.784  10.177 -1.0810 -0.0135  0.8321
 7804SOL    HW235049   3.544   1.926  10.124  2.9263  2.0197  1.5815
 7805SOL     OW35050   4.518   2.436   3.666 -0.2143 -0.4385 -0.5816
 7805SOL    HW135051   4.450   2.486   3.623  3.0365  3.7581 -0.8444
 7805SOL    HW235052   4.476   2.350   3.674  0.1839 -0.6687 -0.9568
 7806SOL     OW35053   0.996   0.927  15.063 -0.8340 -0.2015 -0.4341
 7806SOL    HW135054   0.951   1.005  15.095  0.1038 -1.3208  3.5224
 7806SOL    HW235055   0.926   0.882  15.015 -1.1887  0.4948 -0.5675
 7807SOL     OW35056   2.450   3.263   3.513 -0.5652  0.3698  0.1005
 7807SOL    HW135057   2.525   3.243   3.457  1.5533  2.7701  2.0581
 7807SOL    HW235058   2.495   3.292   3.593  0.7372 -0.6887 -0.2435
 7808SOL     OW35059   0.075   1.109   6.256  0.0114  0.0467  0.7440
 7808SOL    HW135060   0.162   1.096   6.294 -0.4356 -1.4661  1.2460
 7808SOL    HW235061   0.028   1.033   6.290  1.4067 -0.0302  2.5111
 7809SOL     OW35062   2.822   3.275  12.312 -0.1557  0.1178 -0.0010
 7809SOL    HW135063   2.730   3.265  12.286  0.8000 -0.2360 -3.2514
 7809SOL    HW235064   2.808   3.305  12.401  0.0697 -1.5432  0.5957
 7810SOL     OW35065   1.647   1.328   5.885  0.6322  0.5387  0.2790
 7810SOL    HW135066   1.575   1.267   5.870 -0.3244  1.5674  0.7052
 7810SOL    HW235067   1.704   1.274   5.939 -2.6485 -1.1513  2.0179
 7811SOL     OW35068   1.864   3.986  13.062 -0.0909  0.0058  0.3186
 7811SOL    HW135069   1.828   4.067  13.028  1.8411  0.1543 -1.3795
 7811SOL    HW235070   1.933   4.023  13.117 -0.6778 -0.1625  1.1677
 7812SOL     OW35071   0.662   0.493   3.478  0.0097 -0.1937 -0.3829
 7812SOL    HW135072   0.570   0.472   3.496 -0.4438  0.4608 -1.9691
 7812SOL    HW235073   0.684   0.433   3.407 -1.4679 -2.1139  0.8067
 7813SOL     OW35074   0.855   2.564   8.437 -0.5039 -0.0946  0.0380
 7813SOL    HW135075   0.933   2.537   8.486 -1.4123  0.8409  2.0279
 7813SOL    HW235076   0.854   2.494   8.373 -0.3726  1.1645 -1.3395
 7814SOL     OW35077   1.686   3.498   3.836  0.0913  0.1907  0.3552
 7814SOL    HW135078   1.696   3.458   3.750 -1.6093 -1.5839  0.9838
 7814SOL    HW235079   1.742   3.439   3.886  0.1434  0.5583  0.7294
 7815SOL     OW35080   3.037   4.202   7.531  0.4004  0.2680 -0.1046
 7815SOL    HW135081   2.958   4.241   7.495 -1.1525 -2.3635  0.5071
 7815SOL    HW235082   3.028   4.232   7.621  3.1020  1.0976 -0.1103
 7816SOL     OW35083   2.471   0.916   3.139  0.4377  0.6172  0.5462
 7816SOL    HW135084   2.446   0.825   3.155  1.1498  0.1368 -1.1192
 7816SOL    HW235085   2.451   0.916   3.046 -0.0051 -2.5839  0.6472
 7817SOL     OW35086   2.994   3.908  14.678 -0.5105 -0.4472  0.0409
 7817SOL    HW135087   2.922   3.969  14.691  0.6141  1.3965 -2.4043
 7817SOL    HW235088   3.063   3.952  14.729 -0.7910  1.6185 -1.3558
 7818SOL     OW35089   1.893   3.945  17.500  0.4071 -0.7614  0.3322
 7818SOL    HW135090   1.935   3.940  17.414  1.9507  2.0398  0.9372
 7818SOL    HW235091   1.922   3.862  17.540 -0.8838 -1.0844  0.5967
 7819SOL     OW35092   2.152   2.892   3.566 -0.1559 -0.2150 -0.0863
 7819SOL    HW135093   2.122   2.968   3.516  1.2577  1.1633  1.1817
 7819SOL    HW235094   2.074   2.879   3.620  0.5039  1.5047  1.2691
 7820SOL     OW35095   0.357   1.874   9.286  0.0841 -0.3185 -0.0811
 7820SOL    HW135096   0.421   1.853   9.218 -0.7446  0.1521 -1.0039
 7820SOL    HW235097   0.411   1.862   9.364 -0.1911 -1.7982 -0.1091
 7821SOL     OW35098   2.333   3.063   8.050 -0.5949 -0.2564  0.2065
 7821SOL    HW135099   2.247   3.099   8.027 -0.6664  0.5030  1.6724
 7821SOL    HW235100   2.385   3.143   8.043 -0.1602 -0.5050  0.6683
 7822SOL     OW35101   4.173   3.159  16.176 -0.3237 -0.0226 -0.0245
 7822SOL    HW135102   4.194   3.123  16.262  1.1086  0.9624  0.0244
 7822SOL    HW235103   4.234   3.101  16.129 -1.4075  0.6125 -2.2309
 7823SOL     OW35104   3.824   0.907  15.087  0.5923  0.4807 -0.1258
 7823SOL    HW135105   3.776   0.894  15.006 -2.6147 -0.4131  1.9491
 7823SOL    HW235106   3.900   0.952  15.050  0.9960 -1.0267 -1.1198
 7824SOL     OW35107   1.329   3.572   5.077 -0.1370 -0.0542 -0.3759
 7824SOL    HW135108   1.369   3.507   5.135  1.9719  1.8775  0.3363
 7824SOL    HW235109   1.245   3.570   5.123  0.4238  1.4089  0.6818
 7825SOL     OW35110   0.649   4.252   7.511 -0.1260  0.2331  0.1456
 7825SOL    HW135111   0.700   4.332   7.519 -0.4959  0.3618  1.3173
 7825SOL    HW235112   0.636   4.248   7.416  1.2433 -0.7636  0.0070
 7826SOL     OW35113   2.435   1.834   9.447 -0.3579  0.3341  0.2385
 7826SOL    HW135114   2.382   1.758   9.424 -2.3835  1.6813  0.4826
 7826SOL    HW235115   2.523   1.796   9.448 -0.5299 -0.0830 -0.2961
 7827SOL     OW35116   2.161   2.640   9.094 -0.4795  0.0433  0.0348
 7827SOL    HW135117   2.151   2.680   9.180 -1.3319 -0.0167 -0.0290
 7827SOL    HW235118   2.115   2.699   9.035 -2.1527 -2.9568 -1.7152
 7828SOL     OW35119   2.074   3.198  11.720 -0.6702  0.6733  0.0717
 7828SOL    HW135120   2.114   3.115  11.695  0.0852  0.2401  2.7244
 7828SOL    HW235121   2.012   3.176  11.790  0.5449  0.3803  1.0543
 7829SOL     OW35122   0.539   3.283   3.625 -0.5152  0.4518 -0.4619
 7829SOL    HW135123   0.448   3.300   3.598 -0.9573 -1.7081 -0.3207
 7829SOL    HW235124   0.591   3.359   3.599  0.8093 -1.0446 -2.1617
 7830SOL     OW35125   0.826   0.328   7.931  0.2344 -0.1103 -0.2245
 7830SOL    HW135126   0.794   0.355   7.845 -3.6250  0.8547  1.5052
 7830SOL    HW235127   0.910   0.284   7.924  0.0037 -0.6249  0.2053
 7831SOL     OW35128   3.235   2.312   7.823 -0.6011 -0.0418  0.4863
 7831SOL    HW135129   3.273   2.381   7.876  0.0873 -0.1065  0.0764
 7831SOL    HW235130   3.144   2.342   7.824 -0.5791  0.0041  1.6034
 7832SOL     OW35131   1.431   3.658   5.675  0.1251  0.1995 -0.0934
 7832SOL    HW135132   1.461   3.599   5.745 -1.3599  0.4964  0.7859
 7832SOL    HW235133   1.510   3.663   5.621 -0.5551 -1.3250 -1.2024
 7833SOL     OW35134   4.187   4.038   3.082  0.1318  0.6887 -0.5881
 7833SOL    HW135135   4.251   4.106   3.063  0.2421  0.8363  0.2874
 7833SOL    HW235136   4.209   4.020   3.173 -3.0864 -1.5961 -0.2681
 7834SOL     OW35137   3.554   3.794  10.462 -0.1326 -0.3770  0.1283
 7834SOL    HW135138   3.474   3.834  10.495 -0.4912 -0.8743 -0.1418
 7834SOL    HW235139   3.513   3.708  10.451 -0.6052 -0.2481  0.9137
 7835SOL     OW35140   0.752   1.085   7.361  0.2744 -0.0063  0.5347
 7835SOL    HW135141   0.730   1.012   7.303  1.9645  0.9103 -1.2442
 7835SOL    HW235142   0.721   1.162   7.315 -1.5963 -0.4900  0.9980
 7836SOL     OW35143   2.370   1.006   4.106  1.3182  0.1837 -0.6651
 7836SOL    HW135144   2.404   1.037   4.190 -0.9988  0.1753  0.2572
 7836SOL    HW235145   2.385   1.090   4.061  0.0297 -0.2875 -1.9424
 7837SOL     OW35146   3.900   0.690   4.984  0.0650  0.5721 -0.7054
 7837SOL    HW135147   3.961   0.736   4.926  2.4036  0.3593  1.6193
 7837SOL    HW235148   3.823   0.699   4.928  0.6484 -0.6297 -1.6907
 7838SOL     OW35149   1.253   3.835  15.174  0.6356 -0.1011  0.0075
 7838SOL    HW135150   1.270   3.770  15.242  1.5985  1.8266  1.5837
 7838SOL    HW235151   1.199   3.780  15.117  0.5725  0.0977 -0.1266
 7839SOL     OW35152   1.460   4.367   7.851  0.4029 -0.2168 -0.7046
 7839SOL    HW135153   1.402   4.298   7.820 -0.9828  0.4940  0.3623
 7839SOL    HW235154   1.407   4.446   7.841  0.4924  0.1703  1.9445
 7840SOL     OW35155   0.650   3.332  17.548  0.7018  0.0334  0.3260
 7840SOL    HW135156   0.704   3.280  17.489  0.9622 -0.9888  1.4714
 7840SOL    HW235157   0.672   3.420  17.516 -1.4827  0.3803 -0.2510
 7841SOL     OW35158   0.780   0.928   1.373 -0.0783  0.1555 -0.4682
 7841SOL    HW135159   0.828   0.846   1.356  2.2216  1.4572 -0.2304
 7841SOL    HW235160   0.695   0.905   1.335 -0.0289 -1.5113  0.4085
 7842SOL     OW35161   1.989   1.926  17.507 -0.3744  0.4174  0.2668
 7842SOL    HW135162   1.940   1.848  17.534 -0.2921 -0.0836 -1.0546
 7842SOL    HW235163   2.076   1.887  17.510 -1.1296 -1.0678  2.8569
 7843SOL     OW35164   2.759   3.404   3.480  0.3123  0.4060  0.1220
 7843SOL    HW135165   2.738   3.313   3.459 -0.4923  0.9588 -1.4429
 7843SOL    HW235166   2.717   3.441   3.403  2.0712  3.4350  0.6349
 7844SOL     OW35167   0.549   4.311   1.968 -0.2116  0.4831  0.2923
 7844SOL    HW135168   0.645   4.311   1.970 -0.2647 -0.0177  2.3180
 7844SOL    HW235169   0.535   4.303   1.873 -2.4480  2.5917  0.4621
 7845SOL     OW35170   4.106   0.923   4.479  0.4215 -0.2591 -0.3134
 7845SOL    HW135171   4.199   0.942   4.473  0.8322 -2.1473 -0.0062
 7845SOL    HW235172   4.108   0.831   4.506 -0.9120 -0.3486 -0.5116
 7846SOL     OW35173   2.191   3.504   9.359 -0.2171  0.6925 -0.4139
 7846SOL    HW135174   2.195   3.583   9.414  0.3885  0.7119 -0.4824
 7846SOL    HW235175   2.189   3.437   9.427  0.4316 -0.3503 -1.4123
 7847SOL     OW35176   3.040   4.162   8.691  0.5589 -0.0439 -0.3424
 7847SOL    HW135177   2.997   4.182   8.607  1.0724 -0.2144 -0.6460
 7847SOL    HW235178   3.025   4.248   8.730 -2.5785 -0.1579 -1.2738
 7848SOL     OW35179   2.668   1.330   4.464  0.5957  0.1336  0.1818
 7848SOL    HW135180   2.644   1.422   4.473  1.2232  0.4233 -0.9854
 7848SOL    HW235181   2.684   1.338   4.370 -0.6376 -4.7078 -0.4025
 7849SOL     OW35182   0.846   0.006   7.892  0.1146 -0.0288  0.2371
 7849SOL    HW135183   0.754   4.731   7.911  0.3144 -2.0229 -0.4157
 7849SOL    HW235184   0.835   0.033   7.801  0.4691 -2.9140 -0.6662
 7850SOL     OW35185   4.455   3.656  13.828 -0.5001 -0.0351  0.5202
 7850SOL    HW135186   4.505   3.683  13.751 -1.8653  1.0769  0.0169
 7850SOL    HW235187   4.531   3.658  13.885 -1.9184  2.7987  2.3140
 7851SOL     OW35188   0.195   3.939   3.458  0.5220 -0.2327 -0.1945
 7851SOL    HW135189   0.162   4.002   3.393  1.3132 -0.3766 -0.7286
 7851SOL    HW235190   0.178   3.986   3.539  3.4799 -0.1246  0.3579
 7852SOL     OW35191   3.163   2.856   3.055  0.0216  0.2396  0.3849
 7852SOL    HW135192   3.140   2.948   3.063 -0.8474  0.1837 -1.4884
 7852SOL    HW235193   3.079   2.812   3.068  1.0460 -1.6247  0.8922
 7853SOL     OW35194   2.323   0.665   0.658  0.1926 -0.5200  0.5305
 7853SOL    HW135195   2.257   0.724   0.694  0.0461  0.2574 -0.9866
 7853SOL    HW235196   2.261   0.617   0.603 -0.1229  0.9752 -0.4059
 7854SOL     OW35197   0.776   2.013   2.634  0.1888  0.5104 -0.0934
 7854SOL    HW135198   0.712   2.034   2.701 -1.7402 -1.3729 -1.3593
 7854SOL    HW235199   0.753   1.923   2.610  1.3495  0.1377  0.1514
 7855SOL     OW35200   4.424   4.093   0.389  0.0025  0.0335  0.2638
 7855SOL    HW135201   4.387   4.127   0.471  0.3715  0.6865  0.1580
 7855SOL    HW235202   4.340   4.078   0.344 -1.3267 -0.3896  2.8930
 7856SOL     OW35203   1.983   1.001   9.129  0.6643  0.7056  0.3374
 7856SOL    HW135204   2.074   0.977   9.112  0.5157  0.6590 -0.3954
 7856SOL    HW235205   1.980   1.030   9.220 -0.4917 -1.5990  1.0499
 7857SOL     OW35206   0.562   2.103  12.106  0.4837  0.1946 -0.4059
 7857SOL    HW135207   0.651   2.069  12.096  2.0899  4.5471 -1.0225
 7857SOL    HW235208   0.568   2.140  12.195  2.2830  0.5000 -0.6481
 7858SOL     OW35209   4.414   0.440   4.852  0.7182 -0.6047 -0.2810
 7858SOL    HW135210   4.378   0.460   4.765  1.2091 -0.1580 -0.3820
 7858SOL    HW235211   4.498   0.486   4.847  0.1998  0.5372  1.9710
 7859SOL     OW35212   0.931   3.967   4.366  0.0521  0.1705 -0.5115
 7859SOL    HW135213   0.882   3.929   4.293 -0.1841 -1.3478  0.4516
 7859SOL    HW235214   0.862   3.985   4.430  0.2399  2.0969 -0.8489
 7860SOL     OW35215   4.204   3.200   6.736  0.1758  0.3822  0.1987
 7860SOL    HW135216   4.188   3.109   6.760 -1.5176  0.4496 -0.6588
 7860SOL    HW235217   4.228   3.191   6.644  1.2465 -0.6826  0.5784
 7861SOL     OW35218   3.635   2.213   5.151 -0.3525 -0.1078  0.3760
 7861SOL    HW135219   3.652   2.120   5.134 -1.9739  0.1034 -2.3320
 7861SOL    HW235220   3.712   2.223   5.207 -0.3398  1.7121  0.0252
 7862SOL     OW35221   4.366   3.468   1.730 -0.2432  0.2493  0.1748
 7862SOL    HW135222   4.455   3.435   1.746 -0.6132 -0.8970 -0.0794
 7862SOL    HW235223   4.379   3.560   1.752  3.0216  0.6612 -3.3413
 7863SOL     OW35224   0.225   3.713   5.470  0.0116  0.0663 -0.4971
 7863SOL    HW135225   0.305   3.766   5.469 -1.7281  2.7053  1.3514
 7863SOL    HW235226   0.170   3.754   5.404 -1.4108  0.4629  0.9265
 7864SOL     OW35227   4.524   0.763   1.708 -0.6794 -0.0610  0.1112
 7864SOL    HW135228   4.489   0.837   1.757 -2.2655 -0.9340  0.2988
 7864SOL    HW235229   4.450   0.702   1.708 -0.7219 -0.0075 -0.8188
 7865SOL     OW35230   4.177   4.117   2.271  0.4265 -0.1838 -0.0123
 7865SOL    HW135231   4.227   4.185   2.225  1.1990 -1.2151 -0.6876
 7865SOL    HW235232   4.229   4.045   2.235 -0.6610 -0.6815 -0.6188
 7866SOL     OW35233   1.111   0.994  16.118 -0.1502 -0.0951  0.0513
 7866SOL    HW135234   1.042   0.977  16.182  1.0654  1.1828  1.6994
 7866SOL    HW235235   1.175   0.923  16.132  1.3815  1.0401 -1.2361
 7867SOL     OW35236   2.602   4.332   8.823  0.3301  0.3750  0.6550
 7867SOL    HW135237   2.627   4.296   8.738 -3.6084  1.4698 -0.9740
 7867SOL    HW235238   2.618   4.425   8.809  1.7988 -0.0457 -0.4606
 7868SOL     OW35239   0.386   2.436   7.668  0.2983 -0.1514 -0.0969
 7868SOL    HW135240   0.319   2.486   7.621  0.5661  2.3227  2.1290
 7868SOL    HW235241   0.386   2.353   7.621  0.2727  0.4047 -1.0927
 7869SOL     OW35242   2.422   4.574  12.816 -0.7896  0.3927  0.0533
 7869SOL    HW135243   2.406   4.664  12.844  2.6394  0.8622  0.5381
 7869SOL    HW235244   2.467   4.606  12.737  0.7937  1.8254  1.5114
 7870SOL     OW35245   1.944   3.312  17.212 -0.2431 -0.0224  0.3437
 7870SOL    HW135246   1.950   3.219  17.189 -0.3255 -0.1358  0.7800
 7870SOL    HW235247   1.917   3.352  17.129 -0.9943 -1.6662 -0.2255
 7871SOL     OW35248   1.149   1.203   4.508 -0.2172  0.5264 -0.1918
 7871SOL    HW135249   1.213   1.221   4.439  1.0886 -0.3840  0.7862
 7871SOL    HW235250   1.148   1.284   4.560 -0.7015 -0.4960  1.3889
 7872SOL     OW35251   1.453   4.562   3.758  0.4085 -0.2126 -0.3341
 7872SOL    HW135252   1.490   4.558   3.670  1.4391 -2.8263  0.2090
 7872SOL    HW235253   1.515   4.622   3.800  2.7083 -1.6345 -1.6348
 7873SOL     OW35254   0.156   3.413  15.187  0.1566 -0.0624  0.0884
 7873SOL    HW135255   0.221   3.449  15.246 -0.5053 -2.8334  2.5468
 7873SOL    HW235256   0.079   3.421  15.245  1.0595  1.5811  1.0310
 7874SOL     OW35257   3.020   2.866   2.427 -0.1740  0.0020  0.7251
 7874SOL    HW135258   2.961   2.792   2.428 -0.8643  0.5533  0.7341
 7874SOL    HW235259   3.101   2.837   2.470  1.9191  0.5003 -2.8831
 7875SOL     OW35260   3.865   2.244   0.764 -0.1141  0.3935  0.3233
 7875SOL    HW135261   3.874   2.189   0.687  2.0097  1.3160 -0.0942
 7875SOL    HW235262   3.878   2.181   0.835  1.1598  0.0434 -0.2217
 7876SOL     OW35263   1.218   4.390  14.952 -0.0778 -0.3230 -0.7658
 7876SOL    HW135264   1.190   4.403  15.042 -0.8183 -0.9305 -0.9090
 7876SOL    HW235265   1.262   4.306  14.958  1.9051  0.9423  2.0923
 7877SOL     OW35266   1.411   3.919   5.373 -0.2212  0.2053  0.3286
 7877SOL    HW135267   1.439   3.999   5.417 -1.8527  0.5548  0.7107
 7877SOL    HW235268   1.341   3.877   5.423  1.1673 -2.2766  0.1930
 7878SOL     OW35269   3.565   1.508   4.831 -0.0763  0.3540  0.9571
 7878SOL    HW135270   3.566   1.474   4.920  0.2124  0.0621  0.8425
 7878SOL    HW235271   3.477   1.484   4.801  0.2543 -0.8000  0.9139
 7879SOL     OW35272   1.593   4.539  12.219 -0.6118 -0.7141  0.0820
 7879SOL    HW135273   1.672   4.516  12.269  0.1074  1.0789 -0.2563
 7879SOL    HW235274   1.548   4.454  12.211 -1.2027 -0.0790 -3.3660
 7880SOL     OW35275   3.122   1.201  10.053 -0.0521  0.3834  0.0365
 7880SOL    HW135276   3.123   1.285  10.008 -0.0603  0.0334 -0.6094
 7880SOL    HW235277   3.093   1.230  10.140  0.3058 -4.2044  1.6881
 7881SOL     OW35278   2.491   1.246   0.588  0.1307 -0.5903 -0.6263
 7881SOL    HW135279   2.585   1.231   0.597 -0.2079 -1.9027  0.8109
 7881SOL    HW235280   2.461   1.168   0.542  0.9084 -0.8271 -0.7226
 7882SOL     OW35281   3.330   2.665   7.217  0.4651  0.1499 -0.1105
 7882SOL    HW135282   3.237   2.653   7.198  0.9774 -2.5162 -0.9364
 7882SOL    HW235283   3.328   2.759   7.234 -1.2294 -0.1078  1.1088
 7883SOL     OW35284   2.222   0.211   5.174  0.5623  0.4976  0.4296
 7883SOL    HW135285   2.207   0.301   5.145 -0.1229  0.5109  0.8217
 7883SOL    HW235286   2.178   0.167   5.102  2.0175  2.0573 -1.4084
 7884SOL     OW35287   1.062   1.160   5.729 -0.1832 -0.9133 -0.3195
 7884SOL    HW135288   1.005   1.223   5.772  0.1812 -0.4633 -0.4945
 7884SOL    HW235289   1.035   1.075   5.765 -0.0332 -1.3658 -1.2720
 7885SOL     OW35290   3.374   1.564  12.625 -0.0564  0.4905  0.4773
 7885SOL    HW135291   3.368   1.570  12.721  1.9648  3.0161  0.4576
 7885SOL    HW235292   3.312   1.491  12.619 -0.4058  0.6738  1.7371
 7886SOL     OW35293   0.421   0.506   7.213 -0.0687  0.1553  0.3888
 7886SOL    HW135294   0.472   0.429   7.188 -0.1895 -0.2513  1.4116
 7886SOL    HW235295   0.333   0.471   7.232 -0.1715  2.1615  3.5044
 7887SOL     OW35296   0.910   0.482   0.223  0.4185 -0.3103  0.2057
 7887SOL    HW135297   1.000   0.454   0.237  0.3938 -0.0524  0.8520
 7887SOL    HW235298   0.884   0.404   0.174  1.7927 -0.7500  0.1776
 7888SOL     OW35299   2.521   0.377   5.204  0.6518 -0.4704  0.2273
 7888SOL    HW135300   2.453   0.418   5.257  0.2617  2.1729 -2.2674
 7888SOL    HW235301   2.500   0.427   5.125  2.0962 -0.4189 -0.1306
 7889SOL     OW35302   2.158   2.310  14.904 -0.2157 -0.1217 -0.2019
 7889SOL    HW135303   2.144   2.277  14.815  0.8830 -0.0557 -0.4003
 7889SOL    HW235304   2.083   2.366  14.924  0.5864  0.3878  1.3682
 7890SOL     OW35305   3.461   2.651  14.467  0.3570  0.1846 -0.2288
 7890SOL    HW135306   3.419   2.734  14.445 -1.0257  0.3364  2.9269
 7890SOL    HW235307   3.415   2.587  14.413  1.9957 -0.1731 -1.1941
 7891SOL     OW35308   4.537   1.401   5.486 -0.2361  0.0428  0.2735
 7891SOL    HW135309   4.467   1.466   5.479 -1.3033 -1.1872 -0.3087
 7891SOL    HW235310   4.606   1.454   5.526 -0.5146 -1.0166  2.1293
 7892SOL     OW35311   1.999   4.592   2.725  0.5123  0.2434 -0.4992
 7892SOL    HW135312   1.957   4.521   2.677 -1.8200  0.6235  1.0180
 7892SOL    HW235313   2.090   4.562   2.721  0.6047  0.2874  1.3872
 7893SOL     OW35314   3.729   4.194   5.598  0.1144 -0.0016 -0.5764
 7893SOL    HW135315   3.659   4.145   5.642 -1.0237  3.0282  1.0045
 7893SOL    HW235316   3.733   4.149   5.514 -1.1298 -0.0717 -0.6017
 7894SOL     OW35317   3.369   2.491   7.013 -0.2151 -0.1606 -0.3323
 7894SOL    HW135318   3.339   2.400   7.018  0.3856 -0.3555 -0.3639
 7894SOL    HW235319   3.362   2.537   7.097  1.8496  0.1890 -0.3551
 7895SOL     OW35320   4.264   0.316   4.536 -0.2428  0.0098  0.0564
 7895SOL    HW135321   4.271   0.336   4.443 -1.9215  0.8115  0.1009
 7895SOL    HW235322   4.307   0.390   4.580  0.1233  0.0875 -0.4360
 7896SOL     OW35323   1.117   3.653   1.827 -0.0143 -0.0237  0.4415
 7896SOL    HW135324   1.051   3.615   1.770  0.7191  0.4734 -0.7382
 7896SOL    HW235325   1.199   3.618   1.793 -0.5188 -0.2885 -0.5082
 7897SOL     OW35326   4.070   0.319   0.297 -0.6581  0.2178  0.2504
 7897SOL    HW135327   4.092   0.404   0.261 -0.8690 -0.1821 -0.8346
 7897SOL    HW235328   4.154   0.276   0.282 -1.4897 -0.7405 -1.6275
 7898SOL     OW35329   2.658   2.273  16.022 -0.1879  0.0256  0.4572
 7898SOL    HW135330   2.564   2.292  16.012  0.1490  1.1201 -0.6434
 7898SOL    HW235331   2.697   2.303  15.940  0.9763 -0.3442  0.8761
 7899SOL     OW35332   2.916   0.325   7.554  0.3958  0.6768  0.4699
 7899SOL    HW135333   2.993   0.277   7.526  0.8887  1.9211 -0.3074
 7899SOL    HW235334   2.866   0.252   7.591  1.1976  0.5112  1.2297
 7900SOL     OW35335   3.743   3.273  12.016  0.1722 -0.0066  0.0656
 7900SOL    HW135336   3.677   3.250  11.950 -0.7163  0.2231  0.8814
 7900SOL    HW235337   3.803   3.327  11.963  1.1536  1.3863  2.5662
 7901SOL     OW35338   3.498   0.219   8.820  0.3847  0.1673  0.1012
 7901SOL    HW135339   3.517   0.133   8.859  1.8434  1.0336  1.3295
 7901SOL    HW235340   3.519   0.282   8.889  2.1235  0.1229 -0.3670
 7902SOL     OW35341   1.064   2.403   6.854 -0.0676 -0.0249  0.0934
 7902SOL    HW135342   0.993   2.462   6.828 -0.6755 -0.1583  1.4766
 7902SOL    HW235343   1.018   2.371   6.931 -1.1974 -2.1188 -1.4450
 7903SOL     OW35344   4.282   2.682   9.562  0.3657  0.2057  0.6992
 7903SOL    HW135345   4.305   2.608   9.506 -0.3083 -0.1109  0.8331
 7903SOL    HW235346   4.366   2.715   9.593  0.6452 -2.3073  2.6725
 7904SOL     OW35347   1.227   4.653   9.508 -0.1205 -0.4055  0.4013
 7904SOL    HW135348   1.318   4.681   9.524 -0.1375 -1.6222  2.5853
 7904SOL    HW235349   1.223   4.568   9.551 -2.2786 -0.0032  0.9876
 7905SOL     OW35350   3.926   4.173   0.595  0.4476  0.6779  0.6450
 7905SOL    HW135351   3.907   4.146   0.685 -1.2958 -0.1431  0.0418
 7905SOL    HW235352   3.880   4.105   0.546  0.4537  0.0744  1.4913
 7906SOL     OW35353   1.362   0.205   2.940 -0.1000  0.1545 -0.1438
 7906SOL    HW135354   1.350   0.134   2.877  0.9825 -1.5401  1.5642
 7906SOL    HW235355   1.273   0.241   2.943 -0.5591 -1.0940  1.2956
 7907SOL     OW35356   3.082   1.301   3.141 -0.0965  0.0432  0.2589
 7907SOL    HW135357   3.169   1.339   3.157 -0.4806  2.5267 -3.5421
 7907SOL    HW235358   3.078   1.218   3.189 -0.0350 -0.8420 -1.2698
 7908SOL     OW35359   3.445   3.617   8.968  0.7360 -0.2427  0.2293
 7908SOL    HW135360   3.510   3.577   9.026 -0.7112 -0.7802  1.4731
 7908SOL    HW235361   3.508   3.667   8.917  1.1090 -0.6953  0.2510
 7909SOL     OW35362   3.216   1.742   5.999 -0.2915  0.4036 -0.2268
 7909SOL    HW135363   3.213   1.684   5.923  2.9400  2.1115 -1.6460
 7909SOL    HW235364   3.296   1.712   6.042 -0.8310 -2.3209 -1.0913
 7910SOL     OW35365   3.886   3.286   8.508  0.3129 -0.0960  0.0069
 7910SOL    HW135366   3.933   3.236   8.574  1.2483 -1.0789 -1.4430
 7910SOL    HW235367   3.882   3.368   8.558 -2.0491 -2.0920  3.0980
 7911SOL     OW35368   0.639   4.006   6.758 -0.3193 -0.1779  0.3717
 7911SOL    HW135369   0.570   4.018   6.693 -1.5461  0.9681  1.9064
 7911SOL    HW235370   0.720   4.019   6.709 -1.1800 -2.2094 -1.6006
 7912SOL     OW35371   1.862   3.331   3.310 -0.3893 -0.4430 -0.4717
 7912SOL    HW135372   1.810   3.411   3.321 -0.6913 -0.4440 -1.9518
 7912SOL    HW235373   1.788   3.270   3.300 -1.3001  0.5904 -0.1021
 7913SOL     OW35374   2.271   0.992  10.565 -0.3864  0.1134  0.2214
 7913SOL    HW135375   2.281   1.044  10.486  1.2894  0.4816  0.6573
 7913SOL    HW235376   2.234   0.911  10.529  0.5302  0.4010 -1.3821
 7914SOL     OW35377   3.689   4.482   3.224  0.7969  0.8283  0.2463
 7914SOL    HW135378   3.738   4.402   3.204  0.9954  1.1650 -0.6089
 7914SOL    HW235379   3.665   4.456   3.313 -1.1097  2.7940  0.3134
 7915SOL     OW35380   3.220   2.301   1.906  0.3315  0.4354 -0.3386
 7915SOL    HW135381   3.250   2.272   1.820 -0.7310 -0.1019 -0.5316
 7915SOL    HW235382   3.187   2.224   1.952  0.2595 -0.0790 -1.2388
 7916SOL     OW35383   4.706   4.384   8.432 -0.0208  0.0600  0.4104
 7916SOL    HW135384   4.650   4.422   8.500 -2.6071 -2.2427 -0.4191
 7916SOL    HW235385   0.045   4.433   8.452  0.3346 -0.4920  0.3565
 7917SOL     OW35386   0.416   4.147   1.274  0.4637  0.5853  0.0282
 7917SOL    HW135387   0.389   4.176   1.187  1.2653 -0.3347 -0.5292
 7917SOL    HW235388   0.492   4.092   1.255  0.1263  0.2562 -0.3761
 7918SOL     OW35389   1.736   1.182   7.424 -0.1106 -0.2868  0.3425
 7918SOL    HW135390   1.722   1.170   7.517  1.4673  0.9051  0.7392
 7918SOL    HW235391   1.666   1.136   7.377 -0.8004  0.0468  1.0572
 7919SOL     OW35392   3.315   0.354   3.438 -0.4034 -0.5392 -0.0597
 7919SOL    HW135393   3.236   0.409   3.438 -0.9761 -1.3771  1.3108
 7919SOL    HW235394   3.295   0.296   3.511 -1.5678  0.6189  0.5372
 7920SOL     OW35395   2.692   2.203   6.918 -0.2397  0.0847 -0.4344
 7920SOL    HW135396   2.745   2.124   6.904 -0.9084 -0.4122 -0.1745
 7920SOL    HW235397   2.605   2.163   6.915 -0.2622  0.0559  0.6636
 7921SOL     OW35398   4.008   0.045   1.131  0.1655 -0.3259  0.3198
 7921SOL    HW135399   3.926   0.017   1.170 -1.0477  2.2205 -0.3669
 7921SOL    HW235400   3.988   0.130   1.091 -0.4522  0.5016  2.3693
 7922SOL     OW35401   2.190   1.681   6.885  0.1611  0.4464  0.0785
 7922SOL    HW135402   2.170   1.627   6.961 -0.0124  1.4794  0.7740
 7922SOL    HW235403   2.161   1.626   6.813  2.1185 -0.2990 -0.1427
 7923SOL     OW35404   3.204   2.966   6.050 -0.3222  0.1933 -0.9085
 7923SOL    HW135405   3.172   2.876   6.050 -1.3217  0.5496 -0.1879
 7923SOL    HW235406   3.161   3.005   6.126 -0.5685  0.0596 -0.9781
 7924SOL     OW35407   0.421   4.268  11.403  0.2101 -0.1848 -0.9891
 7924SOL    HW135408   0.485   4.197  11.413 -1.1350 -0.9913  2.0305
 7924SOL    HW235409   0.471   4.349  11.417 -0.5052  0.2529 -0.9893
 7925SOL     OW35410   2.332   2.462   2.854 -0.0867  0.0317 -0.5598
 7925SOL    HW135411   2.317   2.379   2.808 -1.4512 -1.9904  3.5344
 7925SOL    HW235412   2.421   2.483   2.826 -0.4827  2.4361  0.0249
 7926SOL     OW35413   0.902   0.401   7.353  0.2119 -0.0385 -0.3390
 7926SOL    HW135414   0.848   0.412   7.432  1.2938  1.3332  0.2146
 7926SOL    HW235415   0.922   0.490   7.326  1.4730 -0.3264 -0.3828
 7927SOL     OW35416   4.005   3.942  16.020  0.4479 -0.1580 -0.1017
 7927SOL    HW135417   3.950   3.876  16.062  0.0435 -0.0317 -0.4348
 7927SOL    HW235418   3.963   3.936  15.935 -0.1004 -0.0204  0.1608
 7928SOL     OW35419   3.366   2.907   6.902  0.5638 -0.5444 -0.4084
 7928SOL    HW135420   3.303   2.836   6.911  0.2985  0.0681  2.4757
 7928SOL    HW235421   3.309   2.978   6.931 -0.2636 -1.3436 -0.1009
 7929SOL     OW35422   0.451   4.143  12.842  0.2707 -0.4771 -0.2043
 7929SOL    HW135423   0.394   4.067  12.830  0.8436 -1.3065  2.2133
 7929SOL    HW235424   0.463   4.171  12.751  1.4921 -1.6495 -0.3986
 7930SOL     OW35425   0.531   0.526   8.405 -0.0696 -0.4307  0.3126
 7930SOL    HW135426   0.581   0.564   8.477 -2.2978  0.9857  1.0849
 7930SOL    HW235427   0.578   0.442   8.413  0.3427 -0.2457 -0.1581
 7931SOL     OW35428   2.934   1.402  10.977 -0.2695 -0.3203  0.0521
 7931SOL    HW135429   2.860   1.402  11.039  0.3790  1.3682  0.8206
 7931SOL    HW235430   2.948   1.308  10.970  0.5034 -0.2389  0.5641
 7932SOL     OW35431   2.804   4.029   3.368  0.3583  0.4468  0.0435
 7932SOL    HW135432   2.863   4.046   3.441  0.5137 -1.6303  0.4213
 7932SOL    HW235433   2.867   4.051   3.299  1.0448 -2.6587 -0.3509
 7933SOL     OW35434   2.425   2.549   9.002 -0.4948  0.1479 -0.4311
 7933SOL    HW135435   2.351   2.573   9.058  1.5936  0.7965  2.0494
 7933SOL    HW235436   2.377   2.475   8.965  0.7607 -0.3422 -1.0935
 7934SOL     OW35437   0.293   2.200   2.828 -0.2352 -0.1157  0.2065
 7934SOL    HW135438   0.258   2.231   2.745 -0.9521 -1.1006  0.1383
 7934SOL    HW235439   0.314   2.282   2.873 -0.7168  0.2635 -0.2656
 7935SOL     OW35440   1.966   3.550   6.015 -0.2916  0.0295  0.3608
 7935SOL    HW135441   2.041   3.546   6.075 -0.6405  0.8717  0.8509
 7935SOL    HW235442   1.974   3.465   5.972 -2.1425 -1.7994  3.6619
 7936SOL     OW35443   3.310   4.221   8.740 -0.1041 -0.1913  0.4077
 7936SOL    HW135444   3.355   4.209   8.656 -1.7965 -1.9344 -0.2578
 7936SOL    HW235445   3.231   4.179   8.704 -1.9041  3.2238  0.3161
 7937SOL     OW35446   3.079   1.818   2.265 -0.1740  0.0215 -0.5388
 7937SOL    HW135447   3.126   1.750   2.215  0.8244 -0.5550  1.1897
 7937SOL    HW235448   3.109   1.792   2.352 -1.6772  0.2090  0.0220
 7938SOL     OW35449   3.862   0.065  11.755 -0.1980  0.1886 -0.3683
 7938SOL    HW135450   3.908   0.000  11.808  0.1467  0.6016 -0.1620
 7938SOL    HW235451   3.894   0.150  11.785 -0.7235  0.4460 -0.5406
 7939SOL     OW35452   4.683   2.929   6.604 -0.6858  0.2594 -0.0168
 7939SOL    HW135453   0.029   2.904   6.572 -1.1142 -1.9980  0.6127
 7939SOL    HW235454   4.624   2.918   6.530 -0.2632  2.5601 -0.7124
 7940SOL     OW35455   2.938   4.171  13.840  0.1237  0.3642  0.0679
 7940SOL    HW135456   3.018   4.177  13.788 -0.8104 -2.3170 -1.6512
 7940SOL    HW235457   2.934   4.078  13.862  2.2288  0.4409  0.8242
 7941SOL     OW35458   1.060   1.100  14.538 -0.2827  0.5273  0.6403
 7941SOL    HW135459   1.079   1.087  14.631  1.8365  0.3191  0.1778
 7941SOL    HW235460   1.014   1.018  14.521 -2.3997  1.8322  0.0468
 7942SOL     OW35461   2.755   1.153   8.234  0.1577  0.3238 -0.7204
 7942SOL    HW135462   2.845   1.125   8.248 -0.4854  0.1219  3.1040
 7942SOL    HW235463   2.704   1.075   8.258  0.9166 -0.4165 -1.5103
 7943SOL     OW35464   3.239   3.725  17.210  0.1621 -0.0457 -0.0546
 7943SOL    HW135465   3.163   3.780  17.191  0.7071 -0.2025 -2.6748
 7943SOL    HW235466   3.286   3.766  17.283 -1.1371 -1.4883  1.5782
 7944SOL     OW35467   4.701   3.674  13.922  0.0066  0.2923  0.3231
 7944SOL    HW135468   0.029   3.739  13.935 -1.1386  1.9822 -1.9359
 7944SOL    HW235469   4.740   3.621  13.853  1.9405  1.1500  0.7740
 7945SOL     OW35470   3.058   4.686  11.666  0.3101  0.7242  0.1585
 7945SOL    HW135471   3.019   0.005  11.731 -0.2296 -0.5864  1.0320
 7945SOL    HW235472   3.144   4.678  11.707 -0.2948  0.8908  1.4570
 7946SOL     OW35473   2.420   3.725   0.714 -0.2331 -0.0737  0.4616
 7946SOL    HW135474   2.480   3.774   0.769  0.0628 -1.3721  1.3036
 7946SOL    HW235475   2.352   3.700   0.777 -0.9252 -0.1262 -0.3000
 7947SOL     OW35476   3.368   0.384   1.651 -0.2799  0.1405 -0.1887
 7947SOL    HW135477   3.315   0.364   1.574  2.6779 -1.7172 -1.7639
 7947SOL    HW235478   3.326   0.325   1.713 -0.3775 -0.0184 -0.4076
 7948SOL     OW35479   1.526   3.393   3.161  0.2522 -0.5546  0.0081
 7948SOL    HW135480   1.467   3.441   3.219  1.5556 -2.9038  3.3275
 7948SOL    HW235481   1.584   3.462   3.128 -3.0794  2.1792 -0.1681
 7949SOL     OW35482   0.210   3.772  14.060  0.8353 -0.4464  0.0778
 7949SOL    HW135483   0.208   3.714  14.136 -0.8526  1.4491  1.4408
 7949SOL    HW235484   0.210   3.859  14.099 -1.5587  0.6998 -2.4336
 7950SOL     OW35485   4.185   2.664   3.298 -0.2363 -0.6367  0.5701
 7950SOL    HW135486   4.152   2.750   3.273  2.0011  0.2568  0.6252
 7950SOL    HW235487   4.162   2.605   3.226 -0.8524 -1.6046  1.5575
 7951SOL     OW35488   3.908   3.480   3.596 -0.2652  0.3362  0.5690
 7951SOL    HW135489   3.945   3.415   3.536 -1.3419  0.1054  0.1399
 7951SOL    HW235490   3.985   3.490   3.652 -1.2106  0.8710  1.7814
 7952SOL     OW35491   3.120   0.007   1.410 -0.5992 -0.2324  0.6467
 7952SOL    HW135492   3.205   4.719   1.377 -1.0330 -1.3472  0.4892
 7952SOL    HW235493   3.071   4.665   1.413 -1.2140  0.1297  0.6739
 7953SOL     OW35494   1.914   1.979   6.708  0.4349  0.0856 -0.0894
 7953SOL    HW135495   1.999   1.976   6.665 -1.1587 -0.3088 -3.2155
 7953SOL    HW235496   1.942   1.989   6.799  0.5397  2.3049 -0.3672
 7954SOL     OW35497   1.851   4.608   5.597 -0.3204  0.1189  0.3011
 7954SOL    HW135498   1.848   4.610   5.693 -0.1183  0.9883  0.2825
 7954SOL    HW235499   1.924   4.667   5.579  1.6709 -2.7907 -1.2917
 7955SOL     OW35500   2.166   1.198   2.485  0.5160 -0.3555 -0.5495
 7955SOL    HW135501   2.163   1.293   2.496 -0.9486 -0.8334  3.0373
 7955SOL    HW235502   2.201   1.174   2.571 -0.1450  2.2716  0.4613
 7956SOL     OW35503   4.468   3.947   5.821  0.5031 -0.6817  0.2287
 7956SOL    HW135504   4.505   4.023   5.776 -1.2659  0.4077  0.6120
 7956SOL    HW235505   4.463   3.899   5.739  0.4991 -0.9368  0.3784
 7957SOL     OW35506   2.992   2.685   5.191  0.1885 -0.0870  0.0776
 7957SOL    HW135507   2.944   2.603   5.199 -1.5461  0.8438 -0.9487
 7957SOL    HW235508   3.005   2.686   5.096  1.7516  0.1946  0.2918
 7958SOL     OW35509   4.696   4.669   8.258  0.0292  0.4400  0.2766
 7958SOL    HW135510   4.682   4.671   8.352 -2.2285 -0.1209 -0.0544
 7958SOL    HW235511   4.645   0.007   8.238 -1.6136 -1.0244 -1.3677
 7959SOL     OW35512   0.978   3.522   2.488  0.0143  0.8562  1.0283
 7959SOL    HW135513   1.052   3.498   2.432  0.3107  0.2214  1.6925
 7959SOL    HW235514   0.943   3.439   2.520 -0.8710  0.1851 -1.6396
 7960SOL     OW35515   2.281   0.997   8.316  0.2223  0.1670  0.2499
 7960SOL    HW135516   2.333   0.939   8.371 -1.3853  0.0760  1.6465
 7960SOL    HW235517   2.199   0.949   8.325 -0.6022  1.8560  1.8225
 7961SOL     OW35518   2.646   0.185   2.689 -0.1438 -0.1295  0.5120
 7961SOL    HW135519   2.702   0.258   2.664 -2.2397  0.8484 -1.2803
 7961SOL    HW235520   2.563   0.211   2.651  0.2104  0.8763  0.4419
 7962SOL     OW35521   4.037   2.703   6.057  0.5293  0.4741  0.2141
 7962SOL    HW135522   3.971   2.660   6.111 -0.2000 -0.0409 -1.0823
 7962SOL    HW235523   4.030   2.647   5.979  0.5928 -0.9444  1.2346
 7963SOL     OW35524   4.087   3.895   8.598 -0.1358 -0.3540 -0.3072
 7963SOL    HW135525   4.054   3.811   8.566 -0.5240  0.1201 -1.1457
 7963SOL    HW235526   4.065   3.951   8.524 -1.1921 -0.1641  0.1415
 7964SOL     OW35527   4.538   1.115   8.370 -0.1623 -0.3208 -0.1683
 7964SOL    HW135528   4.483   1.049   8.327  0.1107  1.3128 -2.9974
 7964SOL    HW235529   4.475   1.187   8.366  1.2713  0.9133 -0.3963
 7965SOL     OW35530   4.390   4.378   1.394  0.0837  0.1299 -0.2299
 7965SOL    HW135531   4.415   4.469   1.409  0.5193  0.1591 -1.1034
 7965SOL    HW235532   4.297   4.392   1.375  0.1127 -0.6366 -0.9549
 7966SOL     OW35533   4.647   1.787   5.288  0.1460 -0.5645 -0.4252
 7966SOL    HW135534   4.626   1.822   5.374  0.9449  1.0970 -0.9124
 7966SOL    HW235535   4.571   1.730   5.274  0.5147 -0.9869 -0.7081
 7967SOL     OW35536   1.533   3.399   8.128  0.2732  0.0366  0.5373
 7967SOL    HW135537   1.581   3.389   8.210  1.1409  1.1871  0.1830
 7967SOL    HW235538   1.517   3.306   8.116  1.3396  0.0391 -1.0221
 7968SOL     OW35539   3.441   0.839  13.393 -0.3322  0.3982 -0.1893
 7968SOL    HW135540   3.406   0.849  13.304  0.1636 -0.3853 -0.4653
 7968SOL    HW235541   3.389   0.780  13.447  0.0511  0.8291  0.6566
 7969SOL     OW35542   1.997   2.206   6.437 -0.3794  0.0314 -0.0743
 7969SOL    HW135543   1.921   2.164   6.476  0.6558 -1.4251  0.3903
 7969SOL    HW235544   1.957   2.282   6.396 -1.3905  0.5842  1.9279
 7970SOL     OW35545   1.194   0.723   6.416  0.5040 -0.1380  0.0878
 7970SOL    HW135546   1.236   0.682   6.341  0.7610  1.4332 -0.6465
 7970SOL    HW235547   1.220   0.816   6.411 -0.6170  0.3849  4.0471
 7971SOL     OW35548   2.513   1.754   4.730  0.0124  0.6790  0.6680
 7971SOL    HW135549   2.488   1.684   4.790  0.1347 -0.2984 -0.4294
 7971SOL    HW235550   2.428   1.795   4.713 -0.3861  0.1236  1.3153
 7972SOL     OW35551   2.715   2.471   2.322 -0.1394  0.0133  0.1967
 7972SOL    HW135552   2.711   2.441   2.231 -0.1390  1.0396 -0.1490
 7972SOL    HW235553   2.768   2.404   2.364 -0.5626 -0.6163 -0.2710
 7973SOL     OW35554   2.380   2.750   3.562  0.3352 -0.2088 -0.1991
 7973SOL    HW135555   2.299   2.798   3.546 -0.2990 -1.4412 -0.6392
 7973SOL    HW235556   2.433   2.773   3.485  0.6009  0.5039  0.1959
 7974SOL     OW35557   0.792   3.639   6.578 -0.1900  0.2963 -0.4515
 7974SOL    HW135558   0.747   3.717   6.544 -1.7937 -0.8880 -1.0359
 7974SOL    HW235559   0.884   3.666   6.576 -0.4951  1.3710 -0.3659
 7975SOL     OW35560   0.792   3.244   3.272  0.0199  0.9398 -0.3486
 7975SOL    HW135561   0.829   3.256   3.184 -0.2917 -0.4149 -0.6779
 7975SOL    HW235562   0.700   3.222   3.256 -0.5906  1.5967  2.2922
 7976SOL     OW35563   4.129   0.318   5.408  0.1765 -0.4440  0.2598
 7976SOL    HW135564   4.073   0.280   5.340  0.2592  2.3274 -1.3276
 7976SOL    HW235565   4.164   0.391   5.358  2.0411 -0.7230  1.1266
 7977SOL     OW35566   0.604   1.416   8.614 -0.3541  0.0221 -0.1154
 7977SOL    HW135567   0.632   1.442   8.526  0.9800 -0.8938  0.0240
 7977SOL    HW235568   0.512   1.437   8.605 -0.7711 -2.4713 -1.7647
 7978SOL     OW35569   3.247   1.850   9.787  0.2169  0.5755 -0.1482
 7978SOL    HW135570   3.317   1.912   9.769 -0.2600  1.2743  0.4412
 7978SOL    HW235571   3.297   1.768   9.788  0.1495  0.5074 -1.5661
 7979SOL     OW35572   3.229   1.340  14.046  0.2447 -0.0374  0.2885
 7979SOL    HW135573   3.324   1.353  14.042  0.4227 -1.4468  0.1403
 7979SOL    HW235574   3.201   1.431  14.055  2.3954  0.6568 -0.1010
 7980SOL     OW35575   3.327   4.289   4.158  0.3119  0.1151 -0.1883
 7980SOL    HW135576   3.374   4.276   4.240  0.1610  1.2763  0.0696
 7980SOL    HW235577   3.247   4.240   4.177  0.2296  0.6958  0.9529
 7981SOL     OW35578   0.374   3.145  13.530 -0.1689  0.5960  0.1549
 7981SOL    HW135579   0.411   3.218  13.480  1.3305 -0.9689 -1.0386
 7981SOL    HW235580   0.450   3.122  13.583 -1.1050  2.0647  2.0972
 7982SOL     OW35581   2.244   1.482   4.999  0.2039  0.1187 -0.1506
 7982SOL    HW135582   2.199   1.544   4.942  1.0362 -0.1483 -1.1149
 7982SOL    HW235583   2.204   1.483   5.085  2.0827 -1.1227  0.7337
 7983SOL     OW35584   0.339   4.357   3.270 -0.1005  0.4712 -0.0250
 7983SOL    HW135585   0.359   4.430   3.212 -1.1247  1.3339  0.7008
 7983SOL    HW235586   0.420   4.308   3.256  0.8559  1.6067  1.5543
 7984SOL     OW35587   0.760   2.338   8.599  0.4457 -0.0065 -0.1729
 7984SOL    HW135588   0.756   2.384   8.683  1.0283  0.9128 -0.6391
 7984SOL    HW235589   0.720   2.401   8.540 -0.3285  2.1947  2.6831
 7985SOL     OW35590   4.033   2.860   3.126 -0.1627  0.7981 -0.1210
 7985SOL    HW135591   4.072   2.889   3.044  0.1324 -0.2637 -0.3636
 7985SOL    HW235592   3.974   2.788   3.104  0.0269  1.4501 -2.7412
 7986SOL     OW35593   4.545   2.843   8.757 -0.2148  0.1874 -0.2857
 7986SOL    HW135594   4.603   2.769   8.743 -0.1817  0.0405  0.6199
 7986SOL    HW235595   4.614   2.896   8.795  1.5775 -1.6243 -1.0104
 7987SOL     OW35596   2.181   4.190  15.294 -0.0118  0.0818 -0.0185
 7987SOL    HW135597   2.228   4.270  15.270  1.0307 -0.0249  1.6773
 7987SOL    HW235598   2.104   4.233  15.332 -0.4990 -1.0404  0.2588
 7988SOL     OW35599   2.326   3.519   4.357 -0.0869 -0.3800 -0.1973
 7988SOL    HW135600   2.422   3.522   4.353  0.0147 -0.8111  1.8187
 7988SOL    HW235601   2.302   3.434   4.321 -0.8228 -0.8558  1.3990
 7989SOL     OW35602   1.546   3.743   3.307 -0.5850 -0.2744 -0.3657
 7989SOL    HW135603   1.493   3.822   3.293  0.7654  0.7570  0.4030
 7989SOL    HW235604   1.525   3.718   3.398 -0.1771  0.9654  0.0602
 7990SOL     OW35605   3.251   3.502   5.551 -0.4009  0.7156  0.1503
 7990SOL    HW135606   3.161   3.528   5.532  0.0028  2.5662  0.8030
 7990SOL    HW235607   3.248   3.411   5.582 -1.5287  1.7868  3.1679
 7991SOL     OW35608   4.668   2.590  14.385  0.1150 -0.2549  0.3358
 7991SOL    HW135609   0.013   2.601  14.345 -0.8788  0.6568 -1.5013
 7991SOL    HW235610   4.682   2.652  14.456  0.4683 -1.6109  1.4557
 7992SOL     OW35611   3.638   3.467  12.922  0.4850  0.1641 -0.4991
 7992SOL    HW135612   3.728   3.492  12.945  0.5970 -0.5655 -0.1348
 7992SOL    HW235613   3.587   3.529  12.975  2.6390  1.6434 -0.1729
 7993SOL     OW35614   4.516   0.982  12.634 -0.4536  0.2236  0.5190
 7993SOL    HW135615   4.598   0.934  12.642 -0.8180 -0.6259 -0.9111
 7993SOL    HW235616   4.543   1.073  12.624 -1.4658  0.3738 -0.8968
 7994SOL     OW35617   0.845   1.528  17.047  0.6023  0.0200  0.6049
 7994SOL    HW135618   0.828   1.441  17.084 -2.9259  0.3770 -0.2215
 7994SOL    HW235619   0.791   1.574  17.111 -3.7135  0.6612 -3.5688
 7995SOL     OW35620   1.261   2.257   0.168 -0.6800  0.2673 -0.2590
 7995SOL    HW135621   1.176   2.275   0.127  0.2964 -1.2290 -2.8801
 7995SOL    HW235622   1.298   2.345   0.166  0.9753 -0.4061  0.8018
 7996SOL     OW35623   0.916   1.966  11.698 -0.0356 -0.4221 -0.1646
 7996SOL    HW135624   0.847   2.012  11.650  0.4789  0.1179 -0.3879
 7996SOL    HW235625   0.928   1.877  11.667 -1.0203  0.0029 -1.7615
 7997SOL     OW35626   0.444   1.575  13.808 -0.1749 -0.1742  0.2298
 7997SOL    HW135627   0.416   1.528  13.729  0.3934  0.9325 -0.6256
 7997SOL    HW235628   0.537   1.599  13.802 -0.0627 -0.7022 -0.1496
 7998SOL     OW35629   3.499   3.678  13.045  0.3877  0.2552  0.4068
 7998SOL    HW135630   3.447   3.715  12.974 -0.9990 -0.1096  1.2420
 7998SOL    HW235631   3.533   3.761  13.079 -1.5414  1.1368  0.1725
 7999SOL     OW35632   2.594   2.666   8.810 -0.3917 -0.1492 -0.3366
 7999SOL    HW135633   2.543   2.747   8.804  1.2580  0.9428  0.3535
 7999SOL    HW235634   2.531   2.616   8.862 -1.2122 -0.1924 -1.3757
 8000SOL     OW35635   1.133   3.914   1.772 -0.3178 -0.2147  0.6397
 8000SOL    HW135636   1.136   3.822   1.796  1.6675 -0.3969 -0.3134
 8000SOL    HW235637   1.226   3.932   1.771 -0.9188  2.8827  0.2704
 8001SOL     OW35638   0.188   1.450   7.161 -0.0569  0.0010  0.2416
 8001SOL    HW135639   0.150   1.502   7.090 -3.1141 -1.8112  0.5367
 8001SOL    HW235640   0.256   1.404   7.112  0.0328  0.2519  0.1306
 8002SOL     OW35641   3.917   2.522   9.209 -0.1654  0.5636 -0.0196
 8002SOL    HW135642   4.000   2.506   9.164  0.1824  1.3219  0.3388
 8002SOL    HW235643   3.848   2.503   9.147  1.0213  0.7006 -1.3800
 8003SOL     OW35644   1.038   4.449   6.032 -0.3438 -0.1043  0.6904
 8003SOL    HW135645   0.944   4.432   6.031  0.1680 -2.8219 -1.8478
 8003SOL    HW235646   1.079   4.362   6.027  0.1203  0.1901 -0.8003
 8004SOL     OW35647   3.895   4.573  12.014  0.2544 -0.1964 -0.1299
 8004SOL    HW135648   3.964   4.633  11.984  0.6372  0.3994  1.9254
 8004SOL    HW235649   3.912   4.582  12.108 -1.8912 -1.3520  0.3640
 8005SOL     OW35650   2.508   0.404   1.423 -0.5245 -0.8783 -0.3480
 8005SOL    HW135651   2.595   0.437   1.401 -0.3149 -0.1305  1.5466
 8005SOL    HW235652   2.453   0.408   1.345 -0.5273 -1.3550 -0.3727
 8006SOL     OW35653   4.310   0.954   2.860  0.0382 -0.6065  0.0100
 8006SOL    HW135654   4.399   0.980   2.838 -0.1925  1.4593  1.5514
 8006SOL    HW235655   4.297   0.998   2.944  1.5626 -2.4734  1.2292
 8007SOL     OW35656   4.599   3.460   3.625  1.1188  0.7109  0.5125
 8007SOL    HW135657   4.516   3.476   3.671  1.4485  0.0621  1.3436
 8007SOL    HW235658   4.647   3.456   3.708  0.9789 -2.4892  0.4241
 8008SOL     OW35659   1.855   0.367  10.497 -0.1559 -0.4687  0.2435
 8008SOL    HW135660   1.804   0.340  10.421  0.2114  0.6384 -0.3928
 8008SOL    HW235661   1.945   0.378  10.467  0.1478  1.3401  1.8178
 8009SOL     OW35662   3.273   4.363   9.591 -0.6250  0.2115 -0.0598
 8009SOL    HW135663   3.193   4.310   9.597  0.2266 -1.2949 -1.8004
 8009SOL    HW235664   3.252   4.425   9.521 -1.9942 -0.0372  0.1184
 8010SOL     OW35665   1.527   0.584   7.252 -0.0910  0.4993 -0.3027
 8010SOL    HW135666   1.445   0.605   7.207  1.1257  0.6977 -2.4675
 8010SOL    HW235667   1.583   0.659   7.229 -0.4187  0.4821 -1.1879
 8011SOL     OW35668   3.948   0.542   0.517  0.5330  0.4474 -0.0974
 8011SOL    HW135669   4.013   0.566   0.583  0.7404  0.8485 -0.4423
 8011SOL    HW235670   3.911   0.465   0.560  2.0638  0.1188  0.6373
 8012SOL     OW35671   3.007   0.031   7.020  0.2322  0.3785 -0.2422
 8012SOL    HW135672   3.095   0.018   7.055 -0.5511  1.3971  2.1713
 8012SOL    HW235673   2.990   0.122   7.045  2.1003  0.3155  1.2325
 8013SOL     OW35674   4.605   1.594   3.099 -0.3094  0.3742  0.0483
 8013SOL    HW135675   4.524   1.555   3.132 -1.7503  2.7693 -0.6580
 8013SOL    HW235676   4.648   1.514   3.068 -1.7106 -0.2042 -0.4460
 8014SOL     OW35677   3.214   0.281   6.154 -0.0041  0.2476  0.1914
 8014SOL    HW135678   3.177   0.368   6.169 -0.6177  0.1767 -0.9235
 8014SOL    HW235679   3.198   0.246   6.242  3.8604 -3.0918 -0.4291
 8015SOL     OW35680   0.582   1.596  16.583  0.1488  0.5786 -0.5457
 8015SOL    HW135681   0.494   1.627  16.602  0.2030  0.2755  0.2035
 8015SOL    HW235682   0.613   1.564  16.668 -0.7573  0.4527 -0.2619
 8016SOL     OW35683   4.017   1.906   2.890  0.4136 -0.2619  0.3021
 8016SOL    HW135684   4.027   1.862   2.975  2.3911  0.4672  0.4279
 8016SOL    HW235685   4.108   1.916   2.863  0.7103 -4.0280 -0.1216
 8017SOL     OW35686   1.706   0.279   8.026  0.1125 -0.4743 -0.3428
 8017SOL    HW135687   1.636   0.215   8.009 -0.8624  0.3418  0.5651
 8017SOL    HW235688   1.678   0.342   7.959 -3.8634 -0.5995  1.1578
 8018SOL     OW35689   4.510   2.555   4.749 -0.3524  0.5501 -0.0680
 8018SOL    HW135690   4.450   2.515   4.686  0.0995 -1.4035  0.7307
 8018SOL    HW235691   4.477   2.511   4.827 -0.7514  1.4225  0.2559
 8019SOL     OW35692   1.144   2.881   2.081 -0.0841  0.3831 -0.2699
 8019SOL    HW135693   1.142   2.812   2.015  0.5775  1.1721 -1.1220
 8019SOL    HW235694   1.183   2.957   2.037  3.5534  0.4065  2.9792
 8020SOL     OW35695   3.898   0.330   4.415  0.2238 -0.1194 -0.6741
 8020SOL    HW135696   3.831   0.265   4.435  1.0139 -1.0858 -1.1709
 8020SOL    HW235697   3.959   0.278   4.363  0.0592 -0.9435 -0.0303
 8021SOL     OW35698   0.480   3.309   8.972 -0.3999  0.2145  0.1368
 8021SOL    HW135699   0.495   3.291   8.879  0.7751 -0.9386  0.5565
 8021SOL    HW235700   0.541   3.245   9.009 -0.3003 -0.2350 -0.8007
 8022SOL     OW35701   4.547   3.935   1.622 -0.0162  0.1124  0.6703
 8022SOL    HW135702   4.569   4.024   1.650 -1.2584  0.8577 -0.7856
 8022SOL    HW235703   4.509   3.950   1.536 -1.2992  0.6821  1.3342
 8023SOL     OW35704   4.406   0.988   3.195 -0.3516  0.7286  0.0988
 8023SOL    HW135705   4.412   0.900   3.158 -0.3586  0.1331  1.5093
 8023SOL    HW235706   4.493   1.019   3.171  0.2770 -1.6525 -0.7676
 8024SOL     OW35707   1.431   1.970   0.660 -0.6289  0.4807 -0.2899
 8024SOL    HW135708   1.382   2.052   0.659 -1.0266  0.2918  2.0951
 8024SOL    HW235709   1.494   1.988   0.590  0.7614  1.4411  1.2243
 8025SOL     OW35710   0.907   1.227  16.519  0.5290  0.2776 -0.4902
 8025SOL    HW135711   0.838   1.167  16.489 -0.2783  0.5617  0.8129
 8025SOL    HW235712   0.954   1.243  16.437 -0.2857  0.5357 -0.9077
 8026SOL     OW35713   2.893   1.058   9.535  0.0340 -0.1214  0.4381
 8026SOL    HW135714   2.894   1.087   9.627 -1.3153 -0.8469  0.6930
 8026SOL    HW235715   2.799   1.055   9.515  0.2832 -1.4668 -0.4811
 8027SOL     OW35716   3.158   3.874  17.709 -0.1480 -0.2799  0.2041
 8027SOL    HW135717   3.196   3.819   0.019 -0.5007 -0.9441 -0.1252
 8027SOL    HW235718   3.087   3.930  17.741 -0.9787 -1.1312 -0.1525
 8028SOL     OW35719   4.412   1.915   6.838  0.2966  0.1419  0.0486
 8028SOL    HW135720   4.361   1.834   6.846  1.5641 -0.7268 -0.5566
 8028SOL    HW235721   4.417   1.945   6.928 -0.8294 -1.4134  0.6387
 8029SOL     OW35722   1.008   4.310  17.340  0.1920 -0.5388 -0.2807
 8029SOL    HW135723   0.939   4.351  17.287 -0.9014  0.3457  1.8182
 8029SOL    HW235724   1.081   4.372  17.337 -1.2417  1.1126 -1.5733
 8030SOL     OW35725   1.246   1.926   3.870 -0.3772  0.4157  0.3814
 8030SOL    HW135726   1.192   1.847   3.881  2.7429 -1.6993  0.5120
 8030SOL    HW235727   1.324   1.906   3.921 -1.1807  1.1664  1.9137
 8031SOL     OW35728   2.973   4.696  17.282 -0.0848  0.2296 -0.1643
 8031SOL    HW135729   2.929   4.614  17.304  0.0520 -0.3310 -1.9952
 8031SOL    HW235730   3.048   4.678  17.338 -0.0668 -0.6826 -0.4879
 8032SOL     OW35731   1.399   1.402  14.100  0.1502 -0.1773 -0.1010
 8032SOL    HW135732   1.399   1.406  14.005  0.2174  0.4795 -0.0701
 8032SOL    HW235733   1.305   1.416  14.114 -0.0843  0.5379 -2.4202
 8033SOL     OW35734   2.024   0.895   8.287  0.4937 -0.5179 -0.1853
 8033SOL    HW135735   2.032   0.901   8.192 -2.1859  1.1750 -0.3057
 8033SOL    HW235736   1.971   0.815   8.289  1.3098 -1.1482 -3.6527
 8034SOL     OW35737   3.665   4.452   6.883  0.0466  0.1934 -0.0796
 8034SOL    HW135738   3.748   4.485   6.917  0.7604 -1.6437 -0.0592
 8034SOL    HW235739   3.608   4.444   6.960 -1.5710 -0.5078 -1.3607
 8035SOL     OW35740   0.712   3.527   1.038 -0.3372  0.0849  0.3325
 8035SOL    HW135741   0.785   3.560   0.987 -1.5200  2.7216  0.3300
 8035SOL    HW235742   0.719   3.433   1.020 -0.1249 -0.0078  0.8965
 8036SOL     OW35743   3.062   1.395   4.177  0.2497  0.4582  0.2366
 8036SOL    HW135744   3.146   1.402   4.221  0.2676  0.7589  0.1534
 8036SOL    HW235745   3.094   1.418   4.090  0.8271  1.4215  0.7026
 8037SOL     OW35746   0.115   3.927   8.887 -0.1905 -0.2087  0.1256
 8037SOL    HW135747   0.197   3.880   8.872  0.7722  1.0804  1.3234
 8037SOL    HW235748   0.124   4.010   8.840 -1.2411 -1.8953 -3.0746
 8038SOL     OW35749   4.165   3.752   5.574 -1.2144  0.1013 -0.6377
 8038SOL    HW135750   4.148   3.838   5.612  0.8187 -0.8604  2.4151
 8038SOL    HW235751   4.202   3.776   5.489 -0.2874  0.6184 -0.0882
 8039SOL     OW35752   2.607   1.336   6.871 -1.1688  0.3829  0.5031
 8039SOL    HW135753   2.701   1.334   6.891 -0.4865  0.1717 -2.7250
 8039SOL    HW235754   2.592   1.244   6.894 -1.9071  0.3242 -0.2088
 8040SOL     OW35755   2.561   2.574   9.830  0.1596 -0.3551  0.1793
 8040SOL    HW135756   2.608   2.629   9.768  0.8029 -1.9434 -0.7313
 8040SOL    HW235757   2.474   2.584   9.792  0.1363  0.2795  0.4072
 8041SOL     OW35758   2.390   4.016   5.663 -0.6247  0.5117  0.1954
 8041SOL    HW135759   2.443   3.994   5.586 -0.8697  2.1705 -0.4521
 8041SOL    HW235760   2.426   4.104   5.673 -0.7534  0.6665 -0.7571
 8042SOL     OW35761   0.752   3.720   2.955 -0.6235  0.5347  0.0104
 8042SOL    HW135762   0.729   3.656   3.022 -0.6540 -0.5428 -1.0392
 8042SOL    HW235763   0.731   3.685   2.868 -0.4038  0.8549 -0.1738
 8043SOL     OW35764   0.914   3.464   3.762  0.4440 -0.2528 -0.1285
 8043SOL    HW135765   0.893   3.494   3.674  2.7767  2.9774  0.4407
 8043SOL    HW235766   0.831   3.470   3.809  1.1985  0.7945  1.0545
 8044SOL     OW35767   2.964   3.481   5.200  0.0164 -0.1534  0.1235
 8044SOL    HW135768   2.941   3.564   5.159  0.5937 -0.0155  0.0802
 8044SOL    HW235769   2.900   3.415   5.174  2.0681 -0.9203 -2.8505
 8045SOL     OW35770   2.934   0.578   5.740  0.4936  0.2393  0.1162
 8045SOL    HW135771   2.885   0.499   5.761  1.6206 -0.0958  1.5278
 8045SOL    HW235772   2.864   0.640   5.717 -0.4769 -0.6386  0.7167
 8046SOL     OW35773   1.500   2.317   8.140 -0.1268 -0.2163 -0.4566
 8046SOL    HW135774   1.429   2.380   8.125  0.2689  0.2001 -0.5834
 8046SOL    HW235775   1.485   2.254   8.070  1.7180 -0.3771 -0.7039
 8047SOL     OW35776   2.623   2.712   8.541 -0.2118 -0.2097  0.2156
 8047SOL    HW135777   2.694   2.776   8.538 -1.0078  0.5916 -1.3628
 8047SOL    HW235778   2.621   2.703   8.636  1.3152 -0.1287  0.2590
 8048SOL     OW35779   1.962   1.892  15.736  0.0715  0.2923  0.2909
 8048SOL    HW135780   1.921   1.818  15.780  0.1246 -1.7097 -3.0621
 8048SOL    HW235781   1.904   1.926  15.667  0.7288  0.9791  0.0656
 8049SOL     OW35782   1.277   3.243   3.798 -0.3326  0.0923 -0.5332
 8049SOL    HW135783   1.347   3.249   3.863 -0.2499  4.0149 -0.9504
 8049SOL    HW235784   1.209   3.301   3.832 -0.4095  0.6165 -1.5746
 8050SOL     OW35785   3.998   3.270   3.374  0.1978 -0.3217  0.2570
 8050SOL    HW135786   4.016   3.302   3.286 -1.7915 -1.5396 -0.5856
 8050SOL    HW235787   3.998   3.174   3.367  0.9753 -0.4011  1.2527
 8051SOL     OW35788   2.624   0.744   6.820  0.0489 -0.5847 -0.2674
 8051SOL    HW135789   2.667   0.721   6.738 -0.4246 -0.9462 -0.4141
 8051SOL    HW235790   2.613   0.663   6.869  0.4758 -0.9806 -0.8243
 8052SOL     OW35791   0.132   2.158  11.447  0.4061  0.2512 -0.2742
 8052SOL    HW135792   0.070   2.096  11.485  0.1731  0.9356  0.4783
 8052SOL    HW235793   0.146   2.136  11.355  1.7110  2.9813 -0.7332
 8053SOL     OW35794   4.677   3.272   5.307 -0.2676  0.1786  0.1210
 8053SOL    HW135795   4.600   3.326   5.289 -0.2822  0.5342  1.2876
 8053SOL    HW235796   4.632   3.222   5.374 -0.5927 -1.1986 -1.1170
 8054SOL     OW35797   1.998   3.662   6.669  0.1690  0.3882  0.0322
 8054SOL    HW135798   1.996   3.671   6.765  1.2095 -0.2230  0.1107
 8054SOL    HW235799   1.932   3.727   6.645  0.2376  0.1390 -0.8291
 8055SOL     OW35800   2.846   3.119   0.785 -0.1551  0.5388 -0.3203
 8055SOL    HW135801   2.831   3.194   0.844 -0.1653 -0.0967  0.4877
 8055SOL    HW235802   2.799   3.151   0.708 -0.8680  0.4549  0.0851
 8056SOL     OW35803   0.455   1.620  15.964 -0.5677 -0.1751 -0.4533
 8056SOL    HW135804   0.544   1.612  15.998 -0.5461 -0.2674 -0.5348
 8056SOL    HW235805   0.425   1.696  16.014  0.0774  0.2083 -0.6536
 8057SOL     OW35806   0.771   0.096   5.708  0.2284 -0.3318 -0.2432
 8057SOL    HW135807   0.824   0.070   5.633  1.1882  1.7173 -0.2621
 8057SOL    HW235808   0.700   0.145   5.666  0.4027 -0.4611 -0.6849
 8058SOL     OW35809   0.816   2.629   0.617  0.2476  0.0129  0.1216
 8058SOL    HW135810   0.777   2.641   0.703  0.6074 -0.1482  0.3107
 8058SOL    HW235811   0.852   2.540   0.615  1.4538  0.5298 -1.1626
 8059SOL     OW35812   1.622   0.434   7.813  0.1224  0.1854 -0.0465
 8059SOL    HW135813   1.568   0.382   7.754  1.9563  0.0275 -1.6004
 8059SOL    HW235814   1.635   0.515   7.764 -0.5222  0.6154  0.4937
 8060SOL     OW35815   0.522   0.427   4.064 -0.3934  0.2572  0.0428
 8060SOL    HW135816   0.572   0.350   4.091  3.0885  2.6434  0.3192
 8060SOL    HW235817   0.519   0.414   3.969  2.5007  0.0434  0.0014
 8061SOL     OW35818   3.176   1.494   5.199  0.2224  0.5780  0.0028
 8061SOL    HW135819   3.140   1.405   5.192  0.1921  0.6532 -0.7800
 8061SOL    HW235820   3.175   1.517   5.106  1.3305  0.2415 -0.0875
 8062SOL     OW35821   0.457   4.283   9.137 -0.6076 -0.3503  0.0680
 8062SOL    HW135822   0.416   4.198   9.151 -2.9022  0.8188  0.4936
 8062SOL    HW235823   0.430   4.337   9.212 -2.0979 -1.3393  0.2577
 8063SOL     OW35824   2.182   3.507   5.447  0.5017 -0.3566 -0.1424
 8063SOL    HW135825   2.091   3.480   5.444  0.1203  0.8482  0.4826
 8063SOL    HW235826   2.196   3.563   5.371 -2.6955  0.6542  0.0285
 8064SOL     OW35827   3.988   4.709   1.839  0.6997  0.0344  0.4150
 8064SOL    HW135828   4.060   0.006   1.890  0.0435  1.7847  0.0686
 8064SOL    HW235829   3.996   4.615   1.856  2.7455  0.6783  2.9248
 8065SOL     OW35830   0.885   3.012   7.330 -0.6058 -0.1483 -0.0878
 8065SOL    HW135831   0.869   3.105   7.320  2.1499  0.3695  0.3721
 8065SOL    HW235832   0.840   2.989   7.411  0.2499  0.0062  0.4245
 8066SOL     OW35833   2.993   0.043   9.201  0.0407  0.7624 -0.0257
 8066SOL    HW135834   2.961   0.130   9.178 -0.7602  0.5429  0.2318
 8066SOL    HW235835   2.978   0.047   9.296 -1.6950 -1.3827 -0.2118
 8067SOL     OW35836   2.234   2.169   2.253  0.5166 -0.5057  0.3599
 8067SOL    HW135837   2.307   2.162   2.191 -0.4075  1.4695 -0.9532
 8067SOL    HW235838   2.162   2.124   2.209 -1.0646  0.5975  1.8583
 8068SOL     OW35839   1.059   1.810   1.985 -0.1220 -0.0170  0.0790
 8068SOL    HW135840   1.095   1.756   1.915  1.5826  0.1068  0.8528
 8068SOL    HW235841   1.140   1.833   2.032 -0.1316  0.0882  0.0443
 8069SOL     OW35842   3.442   2.932   7.325 -0.0904 -0.5325  0.1720
 8069SOL    HW135843   3.443   2.909   7.418 -0.3369 -2.1907 -0.2354
 8069SOL    HW235844   3.533   2.961   7.316 -0.2673 -0.4331 -1.2283
 8070SOL     OW35845   3.392   0.943  14.363 -0.0892 -0.2026  0.3082
 8070SOL    HW135846   3.320   0.999  14.334  1.8447  2.2402  0.1460
 8070SOL    HW235847   3.370   0.862  14.317  0.2040 -0.1901  0.1453
 8071SOL     OW35848   3.740   1.042   0.973 -0.2831 -0.2268 -0.0937
 8071SOL    HW135849   3.738   0.985   0.896  0.2186 -0.4863  0.0849
 8071SOL    HW235850   3.668   1.103   0.957 -0.7963 -0.6716  0.5440
 8072SOL     OW35851   0.733   1.001   1.658  0.2814  0.8276 -0.8335
 8072SOL    HW135852   0.823   1.030   1.673  0.5324 -0.8710  1.0646
 8072SOL    HW235853   0.737   0.974   1.566  1.9438 -4.0070  0.6342
 8073SOL     OW35854   4.016   0.546   0.783  0.2528  0.0812 -0.2807
 8073SOL    HW135855   3.944   0.541   0.846  0.8744 -0.5248  0.3770
 8073SOL    HW235856   4.005   0.635   0.748  0.2757 -0.0149 -0.5301
 8074SOL     OW35857   0.520   3.040   5.783  0.2355  0.3795  0.9375
 8074SOL    HW135858   0.508   2.983   5.708 -0.7186  0.7157  0.8400
 8074SOL    HW235859   0.610   3.071   5.769  0.0156  0.4921 -0.2134
 8075SOL     OW35860   2.152   0.881   4.756 -0.8237  0.3785  0.1604
 8075SOL    HW135861   2.120   0.947   4.818 -1.1277 -0.5110  0.9413
 8075SOL    HW235862   2.072   0.846   4.716  0.8524 -0.5094 -2.4603
 8076SOL     OW35863   0.355   2.765   9.247 -0.3823 -0.1536 -0.1215
 8076SOL    HW135864   0.260   2.773   9.240  0.0728  1.5685 -4.5341
 8076SOL    HW235865   0.367   2.805   9.333  0.9426  3.7702 -2.0937
 8077SOL     OW35866   2.631   3.331  13.670 -0.0559 -0.0583  0.5122
 8077SOL    HW135867   2.667   3.406  13.624 -2.5567  1.6549  1.3443
 8077SOL    HW235868   2.579   3.363  13.743  1.3148  1.8045  0.6672
 8078SOL     OW35869   3.513   1.787   4.042 -0.2645 -0.5359 -0.0002
 8078SOL    HW135870   3.474   1.856   3.989  1.1860 -0.3242 -0.7878
 8078SOL    HW235871   3.572   1.746   3.978 -3.1928 -2.6428 -1.3757
 8079SOL     OW35872   3.402   0.789   8.769  0.5357 -0.7807  0.3565
 8079SOL    HW135873   3.327   0.730   8.761 -0.1364 -0.0156  1.1465
 8079SOL    HW235874   3.468   0.734   8.725 -1.4041 -1.4682 -1.7185
 8080SOL     OW35875   0.346   2.949   5.972  0.0855 -0.6655 -0.0553
 8080SOL    HW135876   0.399   2.885   6.019  1.2433 -0.0715 -0.5452
 8080SOL    HW235877   0.404   2.990   5.908  0.2038  1.9527  1.6911
 8081SOL     OW35878   1.243   3.894   7.179 -0.0227 -0.3417  0.3295
 8081SOL    HW135879   1.192   3.821   7.215 -0.4597 -0.0944  0.2110
 8081SOL    HW235880   1.287   3.927   7.257 -2.6474  1.6959  0.9751
 8082SOL     OW35881   0.631   4.581   2.146 -0.6846  0.4717  0.1888
 8082SOL    HW135882   0.662   4.529   2.220  2.5638  1.9980 -0.0960
 8082SOL    HW235883   0.671   4.547   2.066 -0.2824 -2.2341  1.5533
 8083SOL     OW35884   3.231   0.233  10.959  0.4823  0.3355 -0.4076
 8083SOL    HW135885   3.296   0.163  10.955  0.5806  0.3280  1.3759
 8083SOL    HW235886   3.289   0.298  10.999 -1.9098  0.1312  3.3305
 8084SOL     OW35887   4.738   2.503  10.033  0.4082 -0.2845  0.9610
 8084SOL    HW135888   0.065   2.570  10.034 -1.4110  1.5806  0.1818
 8084SOL    HW235889   4.731   2.483   9.939  0.3505 -1.2739  1.1699
 8085SOL     OW35890   0.752   4.601   2.949  0.4757 -0.3702 -0.2019
 8085SOL    HW135891   0.662   4.581   2.920  0.2847  1.3983 -0.8746
 8085SOL    HW235892   0.768   4.540   3.021 -1.2673 -0.7218 -0.1128
 8086SOL     OW35893   1.865   0.810   3.684  0.3820 -0.3733 -0.1334
 8086SOL    HW135894   1.887   0.744   3.619 -1.3715 -0.3958 -0.7129
 8086SOL    HW235895   1.877   0.896   3.644  0.6769 -0.3178  0.0759
 8087SOL     OW35896   2.456   4.720   5.694  0.3155  1.0010 -0.0296
 8087SOL    HW135897   2.475   0.007   5.784 -2.7793  1.5299  0.4701
 8087SOL    HW235898   2.543   4.722   5.655  0.1531  0.2172 -0.4302
 8088SOL     OW35899   3.742   1.930   7.621  0.0832 -0.4199 -0.8809
 8088SOL    HW135900   3.694   1.848   7.629 -1.7559  0.6977 -0.3424
 8088SOL    HW235901   3.792   1.922   7.539  0.9786  2.8782 -0.6774
 8089SOL     OW35902   4.645   4.179   3.187  0.6209  0.0377 -0.1345
 8089SOL    HW135903   4.709   4.225   3.241 -0.5367  1.6630 -0.1458
 8089SOL    HW235904   4.579   4.172   3.257  0.0707  1.0737 -0.5507
 8090SOL     OW35905   2.692   1.901   1.896 -0.1375 -0.2323  0.7700
 8090SOL    HW135906   2.677   1.885   1.802 -0.5368  1.1171  0.6003
 8090SOL    HW235907   2.654   1.823   1.937 -0.1756 -1.2196 -1.1118
 8091SOL     OW35908   3.103   1.436   9.886  0.3014 -0.1630 -0.5296
 8091SOL    HW135909   3.027   1.421   9.830  0.6049  0.2568 -1.0518
 8091SOL    HW235910   3.082   1.526   9.910  5.2852  1.0434 -0.7401
 8092SOL     OW35911   1.659   1.176   7.696  0.1691  0.0660 -0.1351
 8092SOL    HW135912   1.616   1.109   7.750 -2.3450 -0.5181 -2.8370
 8092SOL    HW235913   1.615   1.257   7.722  1.1592  0.8656 -0.9356
 8093SOL     OW35914   0.054   3.297   2.322 -0.5331  0.4859 -0.8578
 8093SOL    HW135915   0.096   3.239   2.258  0.1404 -0.8424  0.8057
 8093SOL    HW235916   0.112   3.373   2.335  1.8240 -1.3746 -0.4470
 8094SOL     OW35917   2.777   1.936   9.624  0.4312 -0.0504 -0.2889
 8094SOL    HW135918   2.741   2.020   9.594  0.0760 -0.5303 -1.2308
 8094SOL    HW235919   2.872   1.950   9.624  0.1166  2.0691 -1.7918
 8095SOL     OW35920   4.433   0.458   0.441  0.1702 -0.2592 -0.5911
 8095SOL    HW135921   4.362   0.517   0.416  0.5144 -0.1635 -1.3431
 8095SOL    HW235922   4.508   0.514   0.419  1.0141 -2.0892 -2.3260
 8096SOL     OW35923   1.795   3.732  17.131  0.1132 -0.2706  0.2193
 8096SOL    HW135924   1.859   3.700  17.068  0.6248 -1.5786  1.4076
 8096SOL    HW235925   1.717   3.738  17.075 -0.1806  1.4541  0.8306
 8097SOL     OW35926   1.976   1.743  12.906  0.0388  0.2552  0.9099
 8097SOL    HW135927   1.919   1.727  12.831  0.9480  0.1015  0.2466
 8097SOL    HW235928   1.998   1.836  12.901  1.2522 -0.1366 -1.3390
 8098SOL     OW35929   4.009   3.915   3.514 -0.0513 -0.2178  0.2466
 8098SOL    HW135930   4.054   3.841   3.473 -2.5853 -1.8304  0.4072
 8098SOL    HW235931   3.922   3.876   3.519 -0.0367 -0.3525 -0.6373
 8099SOL     OW35932   3.986   3.764   6.129 -0.0721 -0.6196 -0.1279
 8099SOL    HW135933   4.032   3.823   6.189 -1.4823 -0.6506  0.9974
 8099SOL    HW235934   4.059   3.708   6.105 -0.8991 -1.4033 -0.8034
 8100SOL     OW35935   1.698   2.885  14.940 -0.2004 -0.1808  0.2234
 8100SOL    HW135936   1.699   2.978  14.920  1.7804 -0.4455 -0.8869
 8100SOL    HW235937   1.637   2.855  14.873  1.7357 -0.6420 -1.3203
 8101SOL     OW35938   4.400   1.390   1.063 -0.4158  0.0765 -0.5179
 8101SOL    HW135939   4.314   1.414   1.098  0.2755  1.2969  0.3678
 8101SOL    HW235940   4.454   1.451   1.113  0.9231 -0.3835 -1.4001
 8102SOL     OW35941   1.904   0.419   1.333 -0.4674  0.1542  0.1063
 8102SOL    HW135942   1.820   0.398   1.374  0.3794  0.5358  1.9853
 8102SOL    HW235943   1.885   0.505   1.293 -2.6487  0.4567  1.7941
 8103SOL     OW35944   3.433   1.889  14.922  0.2107 -0.2441 -1.1458
 8103SOL    HW135945   3.360   1.950  14.935  0.5444 -0.4207  1.6718
 8103SOL    HW235946   3.485   1.894  15.002  1.0229  0.3191 -1.7109
 8104SOL     OW35947   3.703   0.873  17.590  0.2299  0.1436 -0.4689
 8104SOL    HW135948   3.726   0.902  17.678 -1.0334  1.6636 -0.6354
 8104SOL    HW235949   3.635   0.811  17.616  0.6903  0.1821  0.8441
 8105SOL     OW35950   2.728   4.465   1.384 -0.2366 -0.0151 -0.1561
 8105SOL    HW135951   2.740   4.560   1.378  1.3525 -0.1271  1.5750
 8105SOL    HW235952   2.771   4.429   1.462  2.2635  2.8377 -0.2266
 8106SOL     OW35953   2.799   1.042   2.436  0.0658  0.5549 -0.3438
 8106SOL    HW135954   2.746   1.006   2.365  0.0580 -0.8823  0.4023
 8106SOL    HW235955   2.770   1.133   2.444 -2.4446  0.0137 -3.2628
 8107SOL     OW35956   0.062   3.150   9.075  0.4940 -0.2423  0.2977
 8107SOL    HW135957   0.033   3.228   9.122  1.3241  1.2415 -1.6459
 8107SOL    HW235958   0.156   3.145   9.097  0.5285 -1.2121 -0.0572
 8108SOL     OW35959   0.933   0.633  16.025 -0.5523 -0.0692 -0.2038
 8108SOL    HW135960   0.963   0.617  15.936  2.0715  3.0916  0.1105
 8108SOL    HW235961   0.850   0.680  16.016 -0.6541  0.3631  2.7940
 8109SOL     OW35962   4.230   3.180  12.762  0.1518  0.6606  0.8815
 8109SOL    HW135963   4.202   3.138  12.844  0.9152 -0.5428  0.5229
 8109SOL    HW235964   4.148   3.228  12.752 -0.0629  0.0769 -0.1064
 8110SOL     OW35965   1.572   2.011   3.500 -0.0942  0.5561 -0.4829
 8110SOL    HW135966   1.560   1.921   3.533  1.2382  0.9465  1.0927
 8110SOL    HW235967   1.481   2.040   3.493 -0.6755 -1.3750 -0.9765
 8111SOL     OW35968   2.349   0.392   9.267 -0.6771  0.4435 -0.7262
 8111SOL    HW135969   2.441   0.409   9.248 -0.2148  0.9307  1.9766
 8111SOL    HW235970   2.351   0.296   9.257  0.1393  0.2988  0.7825
 8112SOL     OW35971   2.180   0.552   5.874 -0.0899 -0.0613  0.2475
 8112SOL    HW135972   2.241   0.558   5.800 -1.0135  0.4046 -0.4763
 8112SOL    HW235973   2.180   0.641   5.909 -1.0078  0.6449 -1.5515
 8113SOL     OW35974   2.179   1.222   6.124  0.0593  0.1107  0.0838
 8113SOL    HW135975   2.230   1.300   6.146  0.6890 -0.1081 -0.6176
 8113SOL    HW235976   2.233   1.149   6.154  0.7119  0.7050  0.3552
 8114SOL     OW35977   2.815   2.312  13.084 -0.1533 -0.1200 -0.2061
 8114SOL    HW135978   2.866   2.334  13.007  0.1428 -0.5686 -0.1421
 8114SOL    HW235979   2.736   2.358  13.056 -0.5554 -0.8118 -0.2263
 8115SOL     OW35980   3.134   3.484   8.987  0.1180 -0.2279 -0.6333
 8115SOL    HW135981   3.199   3.493   8.917 -0.9299  3.4083 -1.1392
 8115SOL    HW235982   3.195   3.466   9.059 -0.9606 -1.9129 -0.1328
 8116SOL     OW35983   1.289   1.505   7.912 -0.3437 -0.2001 -0.8431
 8116SOL    HW135984   1.372   1.517   7.866  1.1231 -2.1931  1.3028
 8116SOL    HW235985   1.310   1.428   7.965  0.4753 -0.2723 -1.2657
 8117SOL     OW35986   4.219   1.080   9.165  0.1084  0.2136 -0.4867
 8117SOL    HW135987   4.157   1.147   9.136 -0.4861  0.3788  1.1541
 8117SOL    HW235988   4.290   1.125   9.211  0.6411  0.8790 -1.9816
 8118SOL     OW35989   0.478   1.212   2.278  0.2735  0.3135 -0.5837
 8118SOL    HW135990   0.447   1.264   2.204 -3.1302 -0.8292  0.0246
 8118SOL    HW235991   0.544   1.273   2.309 -0.9400  1.0908  0.4812
 8119SOL     OW35992   1.621   2.456   0.329  0.1337 -0.4938 -0.0431
 8119SOL    HW135993   1.617   2.521   0.259 -0.1419 -0.7121 -0.2346
 8119SOL    HW235994   1.600   2.501   0.411  0.9011  0.2707 -0.2701
 8120SOL     OW35995   2.556   4.358   6.689 -0.3459  0.1226 -0.4050
 8120SOL    HW135996   2.566   4.388   6.779 -0.8581 -0.8860 -0.0071
 8120SOL    HW235997   2.532   4.431   6.632 -2.1156  0.3195  0.5915
 8121SOL     OW35998   4.174   2.205  17.585 -0.1558  0.2952  0.4101
 8121SOL    HW135999   4.190   2.294  17.618  0.3622 -0.2191  1.5666
 8121SOL    HW236000   4.088   2.234  17.555 -0.1823 -0.7643 -0.5095
 8122SOL     OW36001   3.937   1.679   5.018  0.0328  0.4581 -0.4533
 8122SOL    HW136002   3.927   1.672   4.924  0.6595 -1.6639 -0.3445
 8122SOL    HW236003   3.916   1.592   5.051  0.4053 -0.9619 -4.0372
 8123SOL     OW36004   4.311   0.389   3.355 -0.0170  0.5260 -0.0432
 8123SOL    HW136005   4.371   0.388   3.430 -0.3326 -0.4470  0.1960
 8123SOL    HW236006   4.225   0.368   3.391  1.0530 -2.4033  0.7813
 8124SOL     OW36007   2.250   4.090   7.017  0.2367  0.3640  0.1907
 8124SOL    HW136008   2.299   4.161   6.975  1.3592 -0.8941 -0.6325
 8124SOL    HW236009   2.170   4.140   7.035 -1.2955 -1.6711 -0.9406
 8125SOL     OW36010   1.781   1.114   6.490 -0.0326 -0.5638  0.4927
 8125SOL    HW136011   1.776   1.051   6.418  2.7549 -0.8447  0.5382
 8125SOL    HW236012   1.874   1.116   6.515  0.1097 -1.0838  0.0183
 8126SOL     OW36013   0.633   0.079   3.943  0.2202  0.2479 -0.6907
 8126SOL    HW136014   0.572   0.011   3.914 -2.3149  1.9348  0.6532
 8126SOL    HW236015   0.671   0.116   3.863  1.6574  0.3587  0.0511
 8127SOL     OW36016   2.558   0.328  13.475 -0.4615  0.1387 -0.6559
 8127SOL    HW136017   2.651   0.310  13.488  0.0712  2.3148 -1.5328
 8127SOL    HW236018   2.547   0.280  13.393  0.0110  0.8941 -1.1565
 8128SOL     OW36019   4.015   1.754   3.116  0.0018  0.3998  0.3450
 8128SOL    HW136020   4.098   1.715   3.142  0.5143  1.3211  0.1080
 8128SOL    HW236021   3.976   1.757   3.204 -3.2082  0.2557 -1.0455
 8129SOL     OW36022   1.343   3.372   1.981  0.2094  0.0123  0.2895
 8129SOL    HW136023   1.327   3.408   1.894  1.4170  1.3431  0.6061
 8129SOL    HW236024   1.433   3.348   1.957 -0.7040 -0.7175 -2.3998
 8130SOL     OW36025   0.632   1.294   7.235  0.1521  0.4940  0.4328
 8130SOL    HW136026   0.611   1.388   7.236  2.5729  1.0219  1.7741
 8130SOL    HW236027   0.552   1.246   7.259 -0.6445  1.3679 -0.4986
 8131SOL     OW36028   3.710   1.584   3.497  0.1426  0.0954  0.0361
 8131SOL    HW136029   3.673   1.519   3.556  1.4579 -0.1345  0.5988
 8131SOL    HW236030   3.639   1.583   3.432 -1.3801 -1.7179  1.7041
 8132SOL     OW36031   0.937   0.906  16.299 -1.0753  0.5043  0.2978
 8132SOL    HW136032   0.961   0.826  16.345 -0.3819 -0.1648 -1.2331
 8132SOL    HW236033   0.858   0.938  16.343 -1.0368  1.0814 -0.0543
 8133SOL     OW36034   1.891   4.560   0.900 -0.1121 -0.0489 -0.4964
 8133SOL    HW136035   1.886   4.653   0.924 -0.2230  0.1047 -1.1247
 8133SOL    HW236036   1.870   4.561   0.807 -1.2792 -1.6397 -0.2551
 8134SOL     OW36037   2.087   0.862   1.609  0.6338  0.1153 -0.2626
 8134SOL    HW136038   2.033   0.821   1.676  1.8149 -0.4791  0.3217
 8134SOL    HW236039   2.167   0.811   1.599  0.5194  0.3334 -2.4212
 8135SOL     OW36040   2.576   1.664  11.205 -0.2520 -0.0628 -0.8817
 8135SOL    HW136041   2.554   1.732  11.142  1.7499  1.9374  0.6210
 8135SOL    HW236042   2.563   1.585  11.152  0.7289 -0.3683 -0.6672
 8136SOL     OW36043   4.440   4.631   0.197  0.0835 -0.2574 -0.2411
 8136SOL    HW136044   4.533   4.640   0.217  0.4811 -2.8366 -0.9547
 8136SOL    HW236045   4.428   4.723   0.172  1.3376 -0.5891 -2.0447
 8137SOL     OW36046   4.373   1.437   8.891 -0.1973 -0.0524  0.1823
 8137SOL    HW136047   4.436   1.482   8.834  1.1410 -2.5422 -0.2789
 8137SOL    HW236048   4.340   1.365   8.839 -0.5873  0.5753 -0.4295
 8138SOL     OW36049   0.045   1.765   3.228 -0.2358  0.5340  0.1670
 8138SOL    HW136050   4.718   1.701   3.206 -0.1604 -0.4723  2.8851
 8138SOL    HW236051   0.097   1.769   3.148 -0.7439 -2.1502 -0.2787
 8139SOL     OW36052   3.935   0.860   6.440  0.0782 -0.4093  0.3324
 8139SOL    HW136053   3.989   0.928   6.399  2.1077 -1.3406  1.4552
 8139SOL    HW236054   3.997   0.788   6.446  0.8454  0.3652  1.7276
 8140SOL     OW36055   4.035   0.743  11.452 -0.6039 -0.0504 -0.2616
 8140SOL    HW136056   3.997   0.759  11.366 -1.4239 -0.1610  0.0775
 8140SOL    HW236057   3.948   0.716  11.483 -0.8982  2.3543  1.0631
 8141SOL     OW36058   3.424   3.975   4.243 -0.2051 -0.4797 -0.0455
 8141SOL    HW136059   3.412   3.956   4.149 -0.1943  1.4713 -0.4337
 8141SOL    HW236060   3.512   4.010   4.233  0.2417 -0.8011  3.0729
 8142SOL     OW36061   2.505   0.161   1.221 -0.1523  0.5202 -0.5497
 8142SOL    HW136062   2.505   0.234   1.160 -0.2064 -1.8777 -3.3986
 8142SOL    HW236063   2.416   0.173   1.254  0.4334  1.0361  0.8492
 8143SOL     OW36064   0.167   1.837   2.979 -0.0420 -0.4620 -0.2252
 8143SOL    HW136065   0.216   1.907   3.023  1.0533 -0.1450 -1.9440
 8143SOL    HW236066   0.233   1.786   2.932 -1.5141 -2.7069  0.1881
 8144SOL     OW36067   2.850   1.226   3.360 -0.1351 -0.0572  0.2649
 8144SOL    HW136068   2.833   1.133   3.371  1.8634 -0.4697 -0.2795
 8144SOL    HW236069   2.945   1.230   3.368 -0.0705  0.2860 -0.5576
 8145SOL     OW36070   1.169   1.055   4.862 -0.0882 -0.5377  0.2048
 8145SOL    HW136071   1.092   1.086   4.911  0.7550 -0.0048  1.1839
 8145SOL    HW236072   1.221   1.041   4.941 -2.4544  0.0701  1.8650
 8146SOL     OW36073   4.547   3.617  17.269  0.1341  0.0340  0.0790
 8146SOL    HW136074   4.600   3.696  17.257 -0.4861  0.6693  1.5643
 8146SOL    HW236075   4.528   3.586  17.180  3.9655  2.0634 -1.4512
 8147SOL     OW36076   0.452   2.452  10.716  0.7338  0.5805  0.1898
 8147SOL    HW136077   0.438   2.363  10.749  2.5670  0.1832 -0.1130
 8147SOL    HW236078   0.450   2.502  10.798 -0.7906 -0.5219  0.8268
 8148SOL     OW36079   2.992   1.469   7.970  0.1415 -0.4425  0.1694
 8148SOL    HW136080   3.068   1.412   7.960  3.0382  3.6357 -0.9776
 8148SOL    HW236081   3.040   1.552   7.967  0.5374 -0.7383 -1.8191
 8149SOL     OW36082   1.212   4.261  15.201  0.8025 -0.1465  0.3606
 8149SOL    HW136083   1.129   4.232  15.162  0.1313  0.0687  1.6070
 8149SOL    HW236084   1.188   4.288  15.290  1.0170 -1.2450  0.7492
 8150SOL     OW36085   0.766   4.338   6.983 -0.2863 -0.3775 -0.7341
 8150SOL    HW136086   0.855   4.323   7.015 -1.1674 -0.5140  1.7286
 8150SOL    HW236087   0.785   4.357   6.892 -0.7579  0.0679 -0.7351
 8151SOL     OW36088   2.904   2.584   5.909 -0.2422 -0.8188 -0.5836
 8151SOL    HW136089   2.830   2.583   5.971  1.9848  0.4760  2.0768
 8151SOL    HW236090   2.868   2.630   5.834 -1.3094 -1.6401 -0.5811
 8152SOL     OW36091   0.166   3.882   6.094  0.3185 -0.4626 -0.1412
 8152SOL    HW136092   0.076   3.914   6.083  0.4718  0.3774  1.0681
 8152SOL    HW236093   0.182   3.836   6.012  0.8714 -1.6909  0.6696
 8153SOL     OW36094   1.431   1.859   2.410  0.0486 -0.2662 -0.1475
 8153SOL    HW136095   1.356   1.906   2.446 -1.1168 -1.2754 -1.2457
 8153SOL    HW236096   1.445   1.909   2.329 -0.3241  1.3961  0.8203
 8154SOL     OW36097   4.127   2.669   3.960  0.5198 -0.2149  0.2443
 8154SOL    HW136098   4.174   2.694   3.881 -0.7019 -1.6469 -0.9458
 8154SOL    HW236099   4.049   2.635   3.915  1.0452 -1.8981  0.6044
 8155SOL     OW36100   1.367   2.175  17.611 -0.0143  0.1234 -0.7559
 8155SOL    HW136101   1.370   2.183  17.516  1.3495  2.2093 -0.5512
 8155SOL    HW236102   1.285   2.127  17.620  0.3924 -0.3973  0.1964
 8156SOL     OW36103   3.930   0.832   1.873 -0.5419 -0.3956 -0.7760
 8156SOL    HW136104   3.958   0.807   1.961  1.2633 -0.9260 -1.5088
 8156SOL    HW236105   3.972   0.761   1.823 -0.2010 -0.0820 -0.9299
 8157SOL     OW36106   0.226   4.216  14.388  0.5389 -0.0491  0.5157
 8157SOL    HW136107   0.278   4.282  14.434 -0.7723  0.9461  0.5879
 8157SOL    HW236108   0.142   4.220  14.433  0.5200 -1.1982  0.5728
 8158SOL     OW36109   3.029   1.778   6.178 -0.2322 -0.1328 -0.3921
 8158SOL    HW136110   3.104   1.762   6.121  0.0945 -2.0512  0.5646
 8158SOL    HW236111   3.047   1.728   6.258 -2.2452  0.7285  0.6085
 8159SOL     OW36112   2.931   1.494   8.938  0.2758  0.4215 -0.1753
 8159SOL    HW136113   2.942   1.570   8.996  0.1853 -0.1335  0.5767
 8159SOL    HW236114   2.918   1.425   9.003  2.6579  0.5535  0.4317
 8160SOL     OW36115   2.610   0.992   9.497 -0.5302 -0.0745 -0.1556
 8160SOL    HW136116   2.540   0.957   9.442 -1.3790 -0.0389  0.9019
 8160SOL    HW236117   2.581   1.083   9.508  3.5120  1.0528  1.0946
 8161SOL     OW36118   3.746   3.430   4.872 -0.0209  0.0582 -0.0181
 8161SOL    HW136119   3.753   3.337   4.855  1.3046 -0.0388  1.0236
 8161SOL    HW236120   3.676   3.429   4.938 -0.9374  1.3332 -0.9697
 8162SOL     OW36121   2.173   2.846  13.817 -0.1520 -0.3286  0.4844
 8162SOL    HW136122   2.094   2.887  13.852  1.0501  1.0167  1.6153
 8162SOL    HW236123   2.207   2.907  13.752 -2.0591 -0.1070 -0.3084
 8163SOL     OW36124   3.559   4.445   2.952 -0.4862  0.2535  0.3919
 8163SOL    HW136125   3.591   4.512   3.013 -0.9329  0.6011  0.2504
 8163SOL    HW236126   3.545   4.495   2.871  0.7037  0.8027  0.5286
 8164SOL     OW36127   4.124   2.684  12.963  0.2868  0.3029 -0.2820
 8164SOL    HW136128   4.077   2.642  13.036  1.7655  1.7631  1.5049
 8164SOL    HW236129   4.048   2.701  12.907  1.2074  1.8625 -1.0431
 8165SOL     OW36130   3.885   0.740   8.986 -0.0201  0.3949  0.3107
 8165SOL    HW136131   3.921   0.753   9.074  1.7683  0.9686 -0.4952
 8165SOL    HW236132   3.844   0.826   8.978  0.2379  0.4358 -0.5657
 8166SOL     OW36133   2.283   0.558  12.561  0.4193  0.6247 -0.0402
 8166SOL    HW136134   2.202   0.579  12.607  0.5101  0.2356  0.2994
 8166SOL    HW236135   2.258   0.475  12.523 -1.1491  0.9571  0.2830
 8167SOL     OW36136   2.933   3.781   5.635 -0.2021  0.1398  0.7562
 8167SOL    HW136137   2.839   3.795   5.633 -0.0278  1.1212 -0.4299
 8167SOL    HW236138   2.966   3.759   5.722  1.3521 -0.7103 -0.0447
 8168SOL     OW36139   1.929   0.476   4.131 -0.5326  0.1916 -0.4107
 8168SOL    HW136140   1.997   0.427   4.178 -0.1222 -1.8508 -3.1799
 8168SOL    HW236141   1.945   0.462   4.038  1.5490  1.0869 -0.1812
 8169SOL     OW36142   0.383   4.487   1.012  0.1094 -0.2373  0.1783
 8169SOL    HW136143   0.378   4.392   1.015 -1.4441 -0.2073 -1.3813
 8169SOL    HW236144   0.353   4.505   0.923  1.6901  0.5939 -0.1882
 8170SOL     OW36145   4.339   3.907  15.052 -0.6217  0.4399 -0.0406
 8170SOL    HW136146   4.369   3.998  15.060  0.3567  0.0179  1.0493
 8170SOL    HW236147   4.303   3.890  15.139  1.3556 -0.1551  0.6557
 8171SOL     OW36148   3.848   2.083  14.245 -0.7151  0.2960 -0.0303
 8171SOL    HW136149   3.912   2.075  14.315  0.0700  1.7682 -0.5722
 8171SOL    HW236150   3.825   2.175  14.257 -0.6638  0.3168 -0.0943
 8172SOL     OW36151   2.080   0.516   1.774  0.6892 -0.2546  0.1597
 8172SOL    HW136152   2.103   0.508   1.681 -4.1726  3.1032 -1.3062
 8172SOL    HW236153   2.038   0.601   1.775  1.3521  0.0916 -1.0193
 8173SOL     OW36154   4.465   3.760   7.077  0.3572  0.6526 -0.1955
 8173SOL    HW136155   4.514   3.805   7.145  1.5029 -0.8982  0.0056
 8173SOL    HW236156   4.446   3.827   7.011  2.1298 -1.9394 -3.3463
 8174SOL     OW36157   3.563   3.915   8.462 -0.5928  0.1765  0.2588
 8174SOL    HW136158   3.520   3.998   8.480  0.2993  0.4826  1.0135
 8174SOL    HW236159   3.635   3.923   8.525 -0.4531 -0.5185  0.1948
 8175SOL     OW36160   2.404   2.090  11.242  0.1223  0.1231 -0.6096
 8175SOL    HW136161   2.328   2.059  11.194 -0.8109  1.4520 -0.0102
 8175SOL    HW236162   2.366   2.156  11.301  1.5136 -0.4616  0.9306
 8176SOL     OW36163   3.102   3.073   6.726 -0.0392 -0.0629 -0.1741
 8176SOL    HW136164   3.092   2.979   6.713 -2.7102  0.3340 -1.0381
 8176SOL    HW236165   3.012   3.107   6.726 -0.0309 -0.0419 -0.7736
 8177SOL     OW36166   0.309   3.496   1.848  0.3767 -0.3837 -0.0974
 8177SOL    HW136167   0.396   3.533   1.834  0.2546 -0.3390 -0.7549
 8177SOL    HW236168   0.270   3.551   1.915 -1.9947  0.6135 -2.2798
 8178SOL     OW36169   0.722   2.640  13.842 -0.2624  0.2578  0.5597
 8178SOL    HW136170   0.636   2.680  13.832  0.5672  1.5831 -1.3406
 8178SOL    HW236171   0.707   2.573  13.776 -3.0974  1.7075 -0.2805
 8179SOL     OW36172   1.938   4.668  12.862  0.0787 -0.5613 -0.2011
 8179SOL    HW136173   1.889   4.703  12.788 -0.5618 -1.0076  0.0173
 8179SOL    HW236174   2.021   4.651  12.816  0.0930  1.7126 -0.9846
 8180SOL     OW36175   0.147   2.818  15.866 -0.1978 -0.1636 -0.5641
 8180SOL    HW136176   0.061   2.860  15.864 -1.6921 -3.1392  1.2294
 8180SOL    HW236177   0.200   2.872  15.806  1.1382 -2.3887 -1.4237
 8181SOL     OW36178   0.137   3.781   8.495 -0.0340  0.1512  0.4064
 8181SOL    HW136179   0.179   3.727   8.427 -1.0716 -1.5675  1.1252
 8181SOL    HW236180   0.098   3.715   8.552 -0.3871  1.3643  1.5658
 8182SOL     OW36181   3.284   1.621   0.614  0.1113 -0.7049 -0.1887
 8182SOL    HW136182   3.240   1.539   0.630 -1.2324  0.5091  2.2564
 8182SOL    HW236183   3.285   1.626   0.518 -0.7563  0.3944 -0.1392
 8183SOL     OW36184   2.688   0.479   4.123 -0.4520 -0.7441  0.2640
 8183SOL    HW136185   2.729   0.551   4.171  0.7124 -0.8279 -0.5917
 8183SOL    HW236186   2.721   0.399   4.165  0.0077 -0.2743  0.7888
 8184SOL     OW36187   4.718   2.777   8.980 -0.5869  0.3901  0.2578
 8184SOL    HW136188   4.672   2.695   8.962  0.6889 -1.0463  3.5042
 8184SOL    HW236189   0.066   2.745   8.960 -0.4495  2.4562 -2.3963
 8185SOL     OW36190   1.280   2.785   7.271  0.2073  0.2737 -0.2417
 8185SOL    HW136191   1.206   2.837   7.243  1.1078  1.9389  0.4783
 8185SOL    HW236192   1.267   2.813   7.361 -0.0112 -0.9705  0.1152
 8186SOL     OW36193   2.914   1.039   7.683 -0.0353  0.7537 -0.7676
 8186SOL    HW136194   2.909   1.129   7.717 -0.2145  0.0921  0.9341
 8186SOL    HW236195   3.008   1.034   7.670 -0.0954  0.3465 -1.0260
 8187SOL     OW36196   0.601   4.359  13.511  0.0443  0.3939 -0.9933
 8187SOL    HW136197   0.563   4.439  13.474 -2.0855 -0.6855 -1.1310
 8187SOL    HW236198   0.564   4.280  13.472  0.9070 -1.0815  1.1722
 8188SOL     OW36199   2.151   2.015   6.267  0.0458  0.2136 -0.2026
 8188SOL    HW136200   2.094   2.078   6.312 -1.5194 -1.3677  0.0128
 8188SOL    HW236201   2.234   2.016   6.315 -0.8878  0.4294  1.3786
 8189SOL     OW36202   2.997   0.860   9.382  0.0495  0.8130  0.0417
 8189SOL    HW136203   2.964   0.928   9.442 -0.9460 -0.8135  1.3471
 8189SOL    HW236204   2.958   0.777   9.410  2.2551 -0.7767 -1.6560
 8190SOL     OW36205   4.311   2.940   8.824  0.5975  0.1642 -0.0857
 8190SOL    HW136206   4.401   2.912   8.808  0.8158  1.0220 -0.3208
 8190SOL    HW236207   4.253   2.883   8.772 -1.1160  1.9092 -0.0747
 8191SOL     OW36208   0.947   4.545   9.077 -0.1389 -0.0238  0.1287
 8191SOL    HW136209   0.931   4.464   9.029  2.1031  0.1211 -0.9124
 8191SOL    HW236210   0.960   4.609   9.007  0.3429  1.0941  1.2430
 8192SOL     OW36211   0.375   4.000   7.384  0.2491 -0.0293  0.1580
 8192SOL    HW136212   0.312   3.960   7.444  0.3273  0.2170  0.4031
 8192SOL    HW236213   0.320   4.049   7.322  2.1608  1.2135 -0.5421
 8193SOL     OW36214   3.755   1.176   5.406 -0.2204 -0.1261 -0.2359
 8193SOL    HW136215   3.700   1.229   5.348 -3.1166 -0.8212  1.9162
 8193SOL    HW236216   3.698   1.099   5.416  1.0090 -1.0400 -0.2694
 8194SOL     OW36217   2.558   1.497   9.232  0.3675  0.3535  0.1379
 8194SOL    HW136218   2.578   1.444   9.154  1.9987 -1.2726  1.6704
 8194SOL    HW236219   2.630   1.477   9.291  0.7887  0.0916 -0.4641
 8195SOL     OW36220   2.376   1.029   1.593 -0.1307  0.0212  0.2365
 8195SOL    HW136221   2.323   1.038   1.514  2.6312 -1.3457 -1.7845
 8195SOL    HW236222   2.446   0.967   1.572  0.6361  0.9316  0.0600
 8196SOL     OW36223   3.080   0.896   9.046 -0.2863 -1.1468  0.2015
 8196SOL    HW136224   3.013   0.835   9.015  0.4908 -0.3716 -3.0506
 8196SOL    HW236225   3.128   0.923   8.967 -0.9670 -1.9304 -0.4778
 8197SOL     OW36226   4.332   2.718  11.705  0.9154 -0.2343  0.3627
 8197SOL    HW136227   4.374   2.639  11.738  1.2600 -0.4102 -0.5087
 8197SOL    HW236228   4.281   2.737  11.784  1.5432 -2.5531  1.3043
 8198SOL     OW36229   4.407   3.017   8.568  0.2984  0.4034 -0.2346
 8198SOL    HW136230   4.335   3.071   8.600 -0.7422 -0.5267 -1.0311
 8198SOL    HW236231   4.440   2.963   8.640 -0.0625  2.0108  1.1388
 8199SOL     OW36232   2.526   2.647   8.297 -0.0784  0.4909  0.1114
 8199SOL    HW136233   2.557   2.667   8.385 -0.1147 -0.5992  0.3743
 8199SOL    HW236234   2.452   2.708   8.290  1.1364  1.8624 -0.6971
 8200SOL     OW36235   2.076   3.128   3.444 -0.0562 -0.0297  0.3062
 8200SOL    HW136236   2.020   3.203   3.460 -4.2305 -2.9800 -0.5189
 8200SOL    HW236237   2.125   3.148   3.364  4.1314  0.7219  3.0242
 8201SOL     OW36238   3.582   0.632   8.653  0.1866 -0.4177 -0.2649
 8201SOL    HW136239   3.548   0.542   8.653 -0.0066 -0.3405  0.3556
 8201SOL    HW236240   3.659   0.622   8.709  0.3961 -0.2523 -0.5247
 8202SOL     OW36241   1.438   1.947   7.855 -0.7124 -0.1388  0.0888
 8202SOL    HW136242   1.385   2.026   7.855  0.2297  0.4833 -0.0705
 8202SOL    HW236243   1.526   1.984   7.853 -1.3040  1.2968  0.6733
 8203SOL     OW36244   4.211   4.201   7.599 -0.2412 -0.5080  0.0157
 8203SOL    HW136245   4.125   4.225   7.635  0.6174  4.9776 -1.5931
 8203SOL    HW236246   4.206   4.106   7.598 -3.1223 -0.3688 -1.0496
 8204SOL     OW36247   0.709   3.575   2.459 -0.1824  0.0444  0.0388
 8204SOL    HW136248   0.756   3.609   2.383  1.4022 -0.8349  0.6295
 8204SOL    HW236249   0.782   3.541   2.509 -1.2982 -2.1500  0.2123
 8205SOL     OW36250   1.710   3.402   6.734 -0.0602 -0.0549  0.1012
 8205SOL    HW136251   1.767   3.326   6.722  1.1043  0.5751  1.5881
 8205SOL    HW236252   1.700   3.441   6.647 -0.2263  1.8938  1.0128
 8206SOL     OW36253   0.785   1.160   8.460  0.4909 -0.0891 -0.2555
 8206SOL    HW136254   0.859   1.103   8.478 -0.6062 -1.3519  0.2797
 8206SOL    HW236255   0.769   1.198   8.547 -0.1583  0.5012 -0.6295
 8207SOL     OW36256   1.061   0.722  16.459 -0.0325  0.2230  0.5939
 8207SOL    HW136257   1.134   0.722  16.521  1.1860  2.5359 -0.8347
 8207SOL    HW236258   1.009   0.648  16.491 -2.1507  0.3872 -2.5165
 8208SOL     OW36259   0.771   4.243  13.165  0.5714 -0.1300 -0.4710
 8208SOL    HW136260   0.792   4.154  13.138  0.3598  0.1384 -1.5195
 8208SOL    HW236261   0.676   4.234  13.167  0.5415  0.9947  3.7198
 8209SOL     OW36262   3.040   4.005   6.512  0.2073  1.0414 -0.4595
 8209SOL    HW136263   3.060   4.069   6.444  2.3429 -0.4554 -1.2199
 8209SOL    HW236264   2.968   4.051   6.556 -0.6441  1.8178 -2.6719
 8210SOL     OW36265   1.083   3.399   5.143  0.7799  0.4072 -0.8561
 8210SOL    HW136266   1.120   3.322   5.187  0.0064  0.0139 -0.8864
 8210SOL    HW236267   1.060   3.457   5.215  1.4540 -1.5401  0.9597
 8211SOL     OW36268   0.885   0.000  17.011 -0.4218 -0.6502  0.0773
 8211SOL    HW136269   0.935   4.686  16.951 -1.4834 -3.1093  1.4536
 8211SOL    HW236270   0.805   0.007  16.958  0.8935 -0.6592 -1.8972
 8212SOL     OW36271   1.546   2.574   8.683  0.6556 -0.1942  0.3080
 8212SOL    HW136272   1.567   2.616   8.599  2.5470 -0.8240  0.4641
 8212SOL    HW236273   1.622   2.586   8.740 -0.0334 -2.4510  1.7259
 8213SOL     OW36274   1.104   1.061  14.795  0.0550 -0.6165 -0.1055
 8213SOL    HW136275   1.121   1.134  14.855 -0.7882  0.0270 -0.6660
 8213SOL    HW236276   1.163   0.992  14.826  0.9925 -0.6948 -2.0773
 8214SOL     OW36277   0.290   2.179   2.386  0.2830 -0.4910  0.1243
 8214SOL    HW136278   0.257   2.235   2.457 -0.3989  0.5413 -1.0193
 8214SOL    HW236279   0.239   2.215   2.314  1.4786 -1.6021 -1.2620
 8215SOL     OW36280   3.620   3.285   4.060  0.3796  0.7635  0.3551
 8215SOL    HW136281   3.684   3.333   4.113  1.8564 -0.0822 -0.6436
 8215SOL    HW236282   3.664   3.297   3.976 -0.5802  1.2724 -0.0602
 8216SOL     OW36283   3.858   1.594  14.511  0.2881  0.1041  0.2910
 8216SOL    HW136284   3.911   1.666  14.478  1.3948  0.4554  2.9091
 8216SOL    HW236285   3.925   1.526  14.512 -1.1762 -1.4076 -2.4933
 8217SOL     OW36286   4.030   0.721   6.169 -0.5347 -0.2632 -0.2230
 8217SOL    HW136287   4.068   0.805   6.143 -0.0710  0.0746  1.5148
 8217SOL    HW236288   3.938   0.728   6.145 -0.1004  1.2218 -1.4454
 8218SOL     OW36289   2.513   1.989   2.661 -0.3740  0.4078  0.0938
 8218SOL    HW136290   2.543   2.017   2.575  0.3026 -1.1489 -0.1880
 8218SOL    HW236291   2.504   1.894   2.653  0.3965  0.3865 -0.4677
 8219SOL     OW36292   2.340   3.648   2.184 -0.6488 -0.0550 -1.0412
 8219SOL    HW136293   2.258   3.599   2.180 -0.1852 -0.9332  0.1295
 8219SOL    HW236294   2.387   3.605   2.113 -1.4105 -1.3439 -0.7717
 8220SOL     OW36295   0.583   0.877   9.212 -0.2491  0.1717  0.1631
 8220SOL    HW136296   0.590   0.792   9.170 -0.4062  0.1151  0.2512
 8220SOL    HW236297   0.673   0.889   9.241  0.4135 -0.3295 -1.6727
 8221SOL     OW36298   3.655   1.935   5.115 -0.6576 -0.1119 -0.6074
 8221SOL    HW136299   3.742   1.918   5.152 -0.7805  1.6872  0.4980
 8221SOL    HW236300   3.614   1.855   5.149 -0.6963  0.2641  0.2085
 8222SOL     OW36301   0.331   0.661   5.292  0.2741 -0.0289 -0.5869
 8222SOL    HW136302   0.359   0.752   5.280  4.8313 -0.9692  2.7563
 8222SOL    HW236303   0.407   0.605   5.308 -0.7242 -0.5605  2.2955
 8223SOL     OW36304   3.138   2.127   5.653 -0.1659 -0.3865 -0.1762
 8223SOL    HW136305   3.155   2.112   5.560 -0.7662 -2.4617  0.0471
 8223SOL    HW236306   3.117   2.039   5.685 -1.1570  1.2152  3.5752
 8224SOL     OW36307   2.216   4.555  14.965 -0.1331 -0.4989 -0.2594
 8224SOL    HW136308   2.219   4.613  14.890  1.9955  0.5814  0.6697
 8224SOL    HW236309   2.149   4.489  14.944  0.2146  0.0512 -3.0375
 8225SOL     OW36310   2.107   2.500   5.292  0.5951  0.6585  0.4328
 8225SOL    HW136311   2.065   2.432   5.346 -0.5716  0.5844 -0.5493
 8225SOL    HW236312   2.066   2.486   5.207 -1.6276  0.3180  1.5423
 8226SOL     OW36313   0.169   0.230   1.761 -0.0937  0.7555  0.2302
 8226SOL    HW136314   0.141   0.266   1.677 -0.8840  0.2143  0.2600
 8226SOL    HW236315   0.254   0.195   1.735 -0.7164  0.4049 -1.3526
 8227SOL     OW36316   3.725   1.869  14.618  0.5492 -0.0528 -0.0809
 8227SOL    HW136317   3.713   1.898  14.709  0.6886 -0.6488  0.1263
 8227SOL    HW236318   3.635   1.856  14.590  0.4632  0.4533 -0.0453
 8228SOL     OW36319   2.356   1.809   0.357 -0.0978 -0.3781 -0.1272
 8228SOL    HW136320   2.332   1.845   0.272  1.8408 -1.1212 -1.0121
 8228SOL    HW236321   2.440   1.764   0.348  0.5637  1.1342 -1.5234
 8229SOL     OW36322   1.426   3.538  11.261  0.6294 -0.0523 -0.4139
 8229SOL    HW136323   1.336   3.504  11.260  0.7300 -0.2623 -1.7934
 8229SOL    HW236324   1.470   3.469  11.212  4.2838  0.4371  2.1582
 8230SOL     OW36325   2.493   2.628   6.303 -0.3687  0.1205  0.3310
 8230SOL    HW136326   2.479   2.713   6.344 -0.4711 -0.0577  0.6710
 8230SOL    HW236327   2.411   2.580   6.321 -0.9478 -0.1814 -3.1167
 8231SOL     OW36328   1.134   3.302  11.737 -0.7762  0.0159  0.1651
 8231SOL    HW136329   1.055   3.280  11.688  0.8665 -3.7494 -0.7904
 8231SOL    HW236330   1.203   3.296  11.672  0.9482  1.2163  1.8723
 8232SOL     OW36331   2.256   0.645   9.290 -0.0008  0.2476  0.2555
 8232SOL    HW136332   2.163   0.633   9.273 -0.8247  3.8524  2.1683
 8232SOL    HW236333   2.295   0.563   9.262  0.5106 -0.2075  2.2691
 8233SOL     OW36334   2.549   2.095   4.210 -0.1800  0.3112  0.1022
 8233SOL    HW136335   2.558   2.038   4.133 -0.4935  2.4918 -1.5540
 8233SOL    HW236336   2.638   2.109   4.244 -0.0654  0.8906 -0.4388
 8234SOL     OW36337   0.826   2.417   8.854 -0.4588 -0.3022  0.0293
 8234SOL    HW136338   0.899   2.441   8.911 -0.6021 -0.6626  0.3635
 8234SOL    HW236339   0.831   2.490   8.792 -1.3966 -0.3954 -0.1508
 8235SOL     OW36340   2.447   3.809   6.750 -0.2119  0.1989  0.0502
 8235SOL    HW136341   2.483   3.728   6.785  2.4360  1.3259 -0.0865
 8235SOL    HW236342   2.416   3.855   6.828 -1.2151 -0.0282 -0.2207
 8236SOL     OW36343   4.520   4.196   8.650 -0.3914  0.7183 -0.0629
 8236SOL    HW136344   4.549   4.276   8.606  1.1249  0.4350  0.4229
 8236SOL    HW236345   4.546   4.128   8.588  0.2723  2.1752 -1.3727
 8237SOL     OW36346   0.654   3.863  12.995  0.2175  0.1406  0.2882
 8237SOL    HW136347   0.589   3.795  13.013 -0.4611 -0.3749 -3.9954
 8237SOL    HW236348   0.739   3.818  12.996  0.1262  0.0033  1.4060
 8238SOL     OW36349   2.375   2.602   6.857 -0.0318 -0.1710  0.0849
 8238SOL    HW136350   2.395   2.519   6.815 -1.0017  0.4531 -1.6015
 8238SOL    HW236351   2.327   2.646   6.788 -0.9188  0.1488  0.9050
 8239SOL     OW36352   2.292   3.003   5.802 -0.2541  0.1457 -0.1945
 8239SOL    HW136353   2.268   2.911   5.809  1.4767 -0.3651 -0.9186
 8239SOL    HW236354   2.214   3.056   5.786 -0.3183 -0.3143 -1.3891
 8240SOL     OW36355   4.123   2.787   9.061  0.7984 -0.4814  0.0915
 8240SOL    HW136356   4.135   2.771   8.968 -2.9606 -1.9412 -0.1259
 8240SOL    HW236357   4.205   2.750   9.092  0.3265 -1.2463  0.4252
 8241SOL     OW36358   1.338   3.365   7.735 -0.3687 -0.5725 -0.4355
 8241SOL    HW136359   1.331   3.458   7.717  1.7248 -0.8237 -2.5601
 8241SOL    HW236360   1.411   3.348   7.675 -0.1284  0.6207 -0.4765
 8242SOL     OW36361   4.336   0.245   2.653  0.5180 -0.8964 -0.5865
 8242SOL    HW136362   4.325   0.337   2.678  0.5684 -0.4492 -2.2036
 8242SOL    HW236363   4.356   0.213   2.741  0.1335 -0.8473 -0.4799
 8243SOL     OW36364   3.143   1.405   7.656  0.2843 -0.3224  0.1953
 8243SOL    HW136365   3.116   1.341   7.590 -2.6872  0.0219  1.0536
 8243SOL    HW236366   3.183   1.361   7.731 -1.7394 -2.6161 -0.0780
 8244SOL     OW36367   2.724   0.642   0.644  0.3247  0.0055  0.1968
 8244SOL    HW136368   2.809   0.679   0.622  0.6427 -1.4821 -1.0677
 8244SOL    HW236369   2.750   0.550   0.653 -1.5113 -0.7257 -2.0457
 8245SOL     OW36370   1.430   3.867   1.010 -0.3903 -0.0817 -0.5061
 8245SOL    HW136371   1.438   3.841   1.101  1.0902  0.5460 -0.4516
 8245SOL    HW236372   1.520   3.886   0.983  0.2058 -1.0267  0.8364
 8246SOL     OW36373   2.703   2.681   0.162 -0.4190  0.4975 -0.3410
 8246SOL    HW136374   2.797   2.688   0.174 -0.5071 -0.1977  0.6936
 8246SOL    HW236375   2.678   2.769   0.191 -1.9908  0.2911 -1.0320
 8247SOL     OW36376   4.435   0.080   4.522  1.0025  0.6166  0.5474
 8247SOL    HW136377   4.502   0.102   4.458 -0.9867  0.3126 -1.6383
 8247SOL    HW236378   4.439   0.152   4.585 -0.5724  0.7243  0.5262
 8248SOL     OW36379   1.621   0.770   0.031  0.5966  0.4883  0.0719
 8248SOL    HW136380   1.628   0.865   0.037  0.5703  0.5126 -0.3321
 8248SOL    HW236381   1.556   0.744  17.726 -1.3857 -0.3576  2.3671
 8249SOL     OW36382   1.332   3.196   4.884 -0.1312  0.4994  0.6195
 8249SOL    HW136383   1.297   3.254   4.816  0.5140  0.3728  0.1768
 8249SOL    HW236384   1.275   3.120   4.894 -0.0453 -0.0440 -2.8102
 8250SOL     OW36385   2.205   4.533  14.684  0.4252 -0.3508  0.4036
 8250SOL    HW136386   2.244   4.620  14.673  0.2884 -0.4084 -0.5821
 8250SOL    HW236387   2.258   4.489  14.618  0.3038 -0.2719  0.2543
 8251SOL     OW36388   3.692   4.074  13.948 -0.1679  0.0851 -0.2355
 8251SOL    HW136389   3.686   4.169  13.945  0.9171  0.1329 -0.7438
 8251SOL    HW236390   3.778   4.060  13.987 -1.2737 -1.3048  1.6904
 8252SOL     OW36391   1.611   2.471   2.832  0.2323  0.0541  0.7201
 8252SOL    HW136392   1.599   2.543   2.893 -0.3356  0.8393 -0.3124
 8252SOL    HW236393   1.667   2.512   2.766  1.5937 -1.3283  1.0268
 8253SOL     OW36394   0.259   3.752   0.462  0.1102  0.1689  0.2979
 8253SOL    HW136395   0.172   3.731   0.430  0.6934  0.5592 -1.5195
 8253SOL    HW236396   0.234   3.803   0.540  0.5295  0.4564  0.2465
 8254SOL     OW36397   1.868   3.149  15.573 -0.1221 -0.7548 -0.2679
 8254SOL    HW136398   1.801   3.159  15.505  0.8400  0.0602 -1.0959
 8254SOL    HW236399   1.915   3.073  15.540  1.9255 -0.2497  1.5066
 8255SOL     OW36400   4.403   1.614   9.692  0.2291 -0.0318  0.7904
 8255SOL    HW136401   4.490   1.599   9.654  0.4933  1.4489  0.8119
 8255SOL    HW236402   4.406   1.700   9.734 -0.8166  0.1091  0.5688
 8256SOL     OW36403   0.198   1.502  15.063  0.6458 -1.1391  0.2357
 8256SOL    HW136404   0.196   1.415  15.104 -0.4693 -1.0979  0.2682
 8256SOL    HW236405   0.274   1.497  15.006  1.5204 -0.5615  1.3420
 8257SOL     OW36406   1.794   0.092   2.617  0.6487  0.2103 -0.2935
 8257SOL    HW136407   1.865   0.127   2.564  0.6147 -0.6839 -0.9412
 8257SOL    HW236408   1.838   0.091   2.702 -1.0060  1.0309  0.5714
 8258SOL     OW36409   3.971   3.632   5.792  0.1385  0.2122  0.2841
 8258SOL    HW136410   4.015   3.711   5.823 -0.6954  0.7202  0.1693
 8258SOL    HW236411   3.878   3.646   5.809 -0.0522 -1.5201  0.7037
 8259SOL     OW36412   3.701   2.689   1.150  0.3137  0.3660  0.0622
 8259SOL    HW136413   3.745   2.758   1.101 -1.4400  1.2129 -0.3206
 8259SOL    HW236414   3.697   2.740   1.230  1.4675  1.6122 -0.6632
 8260SOL     OW36415   2.241   1.986   3.550  0.1123 -0.1531  0.5280
 8260SOL    HW136416   2.283   2.071   3.557  0.6721 -0.0410 -3.8058
 8260SOL    HW236417   2.281   1.933   3.481  0.1755 -1.9229  1.9288
 8261SOL     OW36418   4.149   0.430   8.749  0.2415  0.1940 -0.1821
 8261SOL    HW136419   4.160   0.519   8.783 -1.0091 -1.0103  3.3073
 8261SOL    HW236420   4.236   0.409   8.714  0.5386  0.3117  0.4993
 8262SOL     OW36421   4.018   0.644   1.708 -0.2539 -0.0439  0.0947
 8262SOL    HW136422   4.041   0.552   1.721  2.7116  0.7277  0.2304
 8262SOL    HW236423   4.092   0.674   1.656  0.3879  0.9656  1.5833
 8263SOL     OW36424   3.877   2.983   3.324 -0.3990  0.5290 -0.0753
 8263SOL    HW136425   3.799   3.018   3.282 -0.1801  0.0056 -0.9175
 8263SOL    HW236426   3.930   2.950   3.252  0.6558  1.7781  0.1242
 8264SOL     OW36427   0.267   0.834  14.098  0.4222 -0.5417  0.5505
 8264SOL    HW136428   0.280   0.802  14.009  1.2510  0.5765  0.2624
 8264SOL    HW236429   0.174   0.810  14.092 -0.0756  1.7932 -1.6234
 8265SOL     OW36430   3.675   3.172   9.456 -0.1979 -0.2474 -0.2564
 8265SOL    HW136431   3.665   3.267   9.455 -4.1063 -0.6790 -1.7421
 8265SOL    HW236432   3.767   3.166   9.484 -0.3387 -1.6524 -0.0580
 8266SOL     OW36433   1.567   2.154   3.207 -0.5184 -0.1833 -0.5250
 8266SOL    HW136434   1.622   2.108   3.270 -1.9246 -1.6290 -0.3596
 8266SOL    HW236435   1.483   2.172   3.250  1.1273 -0.2776  2.7859
 8267SOL     OW36436   3.051   3.702   6.160 -0.1334 -0.2570 -0.2459
 8267SOL    HW136437   3.128   3.730   6.209  0.7571  0.3300 -1.9864
 8267SOL    HW236438   3.054   3.611   6.188  3.2368 -0.0372  0.1468
 8268SOL     OW36439   2.376   2.487   3.747 -0.0141  0.2400 -0.1310
 8268SOL    HW136440   2.371   2.577   3.715 -0.8309 -0.1570 -1.0886
 8268SOL    HW236441   2.285   2.464   3.766  0.0435  0.2305  0.1356
 8269SOL     OW36442   3.887   3.836   8.861 -0.0079  0.2140 -0.4777
 8269SOL    HW136443   3.982   3.839   8.863  0.0260  0.4755 -2.1650
 8269SOL    HW236444   3.865   3.914   8.912  0.3807  0.7451 -1.1217
 8270SOL     OW36445   0.825   1.410  15.760  0.4589 -0.9361  0.5996
 8270SOL    HW136446   0.773   1.480  15.722 -0.3602 -1.9022 -0.0382
 8270SOL    HW236447   0.843   1.341  15.696 -0.0370  1.0673 -1.6571
 8271SOL     OW36448   2.225   2.999   7.131  0.0924  0.1745 -0.2169
 8271SOL    HW136449   2.134   3.026   7.132 -0.7415 -2.6898  2.0965
 8271SOL    HW236450   2.217   2.929   7.066  0.1514 -1.1260  1.1400
 8272SOL     OW36451   2.874   4.476  16.265  0.0324  0.1092  0.0691
 8272SOL    HW136452   2.943   4.536  16.294 -0.5628 -0.6197  2.9373
 8272SOL    HW236453   2.823   4.540  16.215 -0.7355  0.8765  1.8529
 8273SOL     OW36454   3.415   4.322   7.995 -0.0105  0.1298 -0.1453
 8273SOL    HW136455   3.441   4.378   8.068  1.6523 -2.3851  1.2153
 8273SOL    HW236456   3.333   4.367   7.976  0.7700  0.9426 -1.5621
 8274SOL     OW36457   2.011   4.711   9.362  0.3970 -0.3079 -0.5256
 8274SOL    HW136458   2.029   0.036   9.429  1.0106 -2.2122  1.1604
 8274SOL    HW236459   2.087   4.655   9.375  0.9223  0.2853 -1.0237
 8275SOL     OW36460   3.596   1.991   9.951 -0.0512 -0.1784  0.0387
 8275SOL    HW136461   3.631   2.080   9.944 -0.6294 -0.0537 -1.2343
 8275SOL    HW236462   3.517   2.015   9.902 -0.9535 -2.6982  0.2507
 8276SOL     OW36463   0.158   0.040  14.918 -0.2499 -0.3258 -0.3100
 8276SOL    HW136464   0.109   4.737  14.988  0.7850  0.3931  0.8770
 8276SOL    HW236465   0.090   0.105  14.901 -0.7766 -0.4609  1.2643
 8277SOL     OW36466   1.114   2.890   8.684 -0.3542  0.5372  0.5987
 8277SOL    HW136467   1.019   2.901   8.677 -0.2311  1.0701 -0.2617
 8277SOL    HW236468   1.125   2.894   8.779 -1.4495  0.0350  0.7503
 8278SOL     OW36469   0.541   4.195   4.567 -0.2897  0.2476  0.0098
 8278SOL    HW136470   0.548   4.289   4.582 -2.5365  0.2208  1.3511
 8278SOL    HW236471   0.523   4.185   4.661 -1.6905  0.9443 -0.1778
 8279SOL     OW36472   4.675   0.685   6.079 -0.1791 -0.7124  0.3813
 8279SOL    HW136473   4.705   0.738   6.153 -1.3882  0.4411  0.0646
 8279SOL    HW236474   4.735   0.716   6.011 -0.1006  0.8180  1.1441
 8280SOL     OW36475   0.287   1.271   1.759 -0.1229 -0.5646  0.2465
 8280SOL    HW136476   0.347   1.219   1.705 -2.2407 -2.7613  0.0280
 8280SOL    HW236477   0.253   1.333   1.694 -0.3695 -1.6311 -0.6354
 8281SOL     OW36478   2.274   1.910   7.400  0.2152 -0.1996  0.2879
 8281SOL    HW136479   2.293   1.896   7.493  0.2863  3.2929  0.7961
 8281SOL    HW236480   2.342   1.974   7.378 -1.2114  1.6572  1.3205
 8282SOL     OW36481   4.381   4.703   5.986  0.6093  0.6597  0.3900
 8282SOL    HW136482   4.404   4.616   6.019  2.2921 -0.3368 -3.4161
 8282SOL    HW236483   4.384   4.687   5.892  0.0723 -0.1279  0.5086
 8283SOL     OW36484   4.686   4.482   8.959  0.0221 -0.1714 -0.2706
 8283SOL    HW136485   4.692   4.570   8.995  1.4148 -1.1861  1.9554
 8283SOL    HW236486   4.627   4.433   9.017 -0.9244  2.8157  1.2712
 8284SOL     OW36487   1.575   0.822  17.252  0.3089  0.8309 -0.2329
 8284SOL    HW136488   1.665   0.790  17.264 -0.1737 -0.8315 -1.0200
 8284SOL    HW236489   1.592   0.902  17.203 -1.2282  0.2776 -1.6618
 8285SOL     OW36490   0.261   1.587  11.399  0.1110 -0.0364 -0.0594
 8285SOL    HW136491   0.262   1.497  11.430 -2.2394  0.1558  0.5794
 8285SOL    HW236492   0.199   1.622  11.463 -0.1040  0.0935 -0.3360
 8286SOL     OW36493   2.628   2.113   5.213  0.2255  0.1309  0.5486
 8286SOL    HW136494   2.715   2.140   5.241  1.0556 -0.7918 -1.1120
 8286SOL    HW236495   2.638   2.019   5.194 -1.9701 -0.5681  2.7916
 8287SOL     OW36496   0.013   3.673   8.248  0.3911  0.3824 -0.0390
 8287SOL    HW136497   4.682   3.736   8.259  1.3428  1.6398 -0.9445
 8287SOL    HW236498   4.737   3.600   8.308 -2.3987 -0.0518 -1.3652
 8288SOL     OW36499   1.565   0.399   9.726 -0.5034  0.4373  0.2950
 8288SOL    HW136500   1.572   0.449   9.808 -2.5610  0.6302  0.3705
 8288SOL    HW236501   1.475   0.412   9.694 -0.0018  0.5569 -1.0506
 8289SOL     OW36502   1.626   0.756   7.476 -0.0682  0.4459  0.4947
 8289SOL    HW136503   1.579   0.685   7.431  0.7324  1.6139 -2.2116
 8289SOL    HW236504   1.715   0.722   7.471 -0.4996 -0.5015 -0.8319
 8290SOL     OW36505   4.582   2.988   3.194 -0.1402 -0.4327  0.3825
 8290SOL    HW136506   4.492   2.994   3.162  0.3491 -0.0873 -0.9363
 8290SOL    HW236507   4.588   2.894   3.209  0.2307  0.1516  3.9093
 8291SOL     OW36508   2.275   0.672   7.336  0.4219  0.0097  0.1317
 8291SOL    HW136509   2.199   0.669   7.394 -2.3210  1.6526 -3.3440
 8291SOL    HW236510   2.301   0.580   7.327 -0.0808 -0.2649  1.4562
 8292SOL     OW36511   3.311   3.433   2.664  0.3027  0.2168 -0.1453
 8292SOL    HW136512   3.308   3.430   2.568  2.2778  0.5267 -0.2304
 8292SOL    HW236513   3.221   3.429   2.696  0.0300 -0.7414 -1.0393
 8293SOL     OW36514   4.424   3.232   6.258 -0.3718  0.5475 -0.3573
 8293SOL    HW136515   4.514   3.209   6.235  0.2637  1.4171  1.2850
 8293SOL    HW236516   4.381   3.194   6.181 -2.1145  0.3327  0.7243
 8294SOL     OW36517   1.994   1.963  11.675 -0.2106  0.3669 -0.1826
 8294SOL    HW136518   2.089   1.953  11.686 -0.8167 -1.7679  3.2508
 8294SOL    HW236519   1.975   1.885  11.623 -1.6756  0.5504  0.0689
 8295SOL     OW36520   0.983   3.661   9.122 -0.1462  0.5787  0.4221
 8295SOL    HW136521   1.078   3.659   9.106 -0.3853  1.0603 -1.1315
 8295SOL    HW236522   0.981   3.748   9.161  0.9840  0.8599 -0.1464
 8296SOL     OW36523   0.248   0.516   4.803  0.1196  0.4434  0.3277
 8296SOL    HW136524   0.340   0.503   4.781 -0.0529  1.1055 -0.7906
 8296SOL    HW236525   0.219   0.575   4.733  0.9238 -0.2763 -0.6019
 8297SOL     OW36526   4.604   2.309   3.042  1.0413  0.2497 -0.1358
 8297SOL    HW136527   4.603   2.250   3.117 -0.8106  0.0454 -0.3192
 8297SOL    HW236528   4.614   2.392   3.089  1.2975 -1.0935  2.1523
 8298SOL     OW36529   2.913   1.272   8.590 -0.6752 -0.1830 -0.3019
 8298SOL    HW136530   2.941   1.225   8.668  1.2206 -1.6453 -1.8673
 8298SOL    HW236531   2.994   1.269   8.539 -0.8782  1.1466 -0.7185
 8299SOL     OW36532   3.533   1.077   0.027  0.0226 -0.4605  0.2753
 8299SOL    HW136533   3.482   1.140   0.077  0.3869  2.6760 -3.3468
 8299SOL    HW236534   3.584   1.040   0.099 -0.4662 -1.4604  0.1121
 8300SOL     OW36535   0.845   2.363   5.307 -0.1181 -0.4341  0.2095
 8300SOL    HW136536   0.780   2.315   5.358  0.6771 -1.3574  0.3512
 8300SOL    HW236537   0.789   2.440   5.298  2.3215  1.3910  0.4965
 8301SOL     OW36538   3.896   4.637   5.772  0.2852  0.1818  0.0840
 8301SOL    HW136539   3.848   4.572   5.720 -1.7542  2.3203 -0.7313
 8301SOL    HW236540   3.950   4.581   5.827  0.7510  0.0087 -0.5544
 8302SOL     OW36541   0.608   3.616  10.599 -0.1146  0.5809 -0.4984
 8302SOL    HW136542   0.515   3.622  10.577 -0.6571 -0.6224  1.4696
 8302SOL    HW236543   0.607   3.520  10.600  0.9012  0.5765 -0.0877
 8303SOL     OW36544   0.642   1.708   4.791 -0.2112 -0.6400 -0.3409
 8303SOL    HW136545   0.550   1.718   4.767 -0.2580  1.1683  0.5941
 8303SOL    HW236546   0.686   1.771   4.735 -1.1530  0.4802  0.1837
 8304SOL     OW36547   2.872   4.384   5.220 -0.0224  0.0346 -0.3418
 8304SOL    HW136548   2.836   4.409   5.305 -0.8066 -0.1117 -0.6292
 8304SOL    HW236549   2.797   4.343   5.177  0.8913 -0.4497 -1.4883
 8305SOL     OW36550   1.704   3.286   4.845 -0.1297  0.3769 -0.0489
 8305SOL    HW136551   1.712   3.192   4.865  1.8203  0.4684 -0.3914
 8305SOL    HW236552   1.750   3.289   4.761  1.5713 -1.3392  0.8087
 8306SOL     OW36553   2.189   2.805   4.941  0.0182  0.4783 -0.0606
 8306SOL    HW136554   2.229   2.726   4.907  2.1567  1.7432 -0.4589
 8306SOL    HW236555   2.255   2.840   5.001 -1.7144  0.1667  2.0589
 8307SOL     OW36556   1.488   1.425   2.145  0.1225 -0.1365 -0.2829
 8307SOL    HW136557   1.433   1.377   2.084 -0.8955  1.0137 -0.2802
 8307SOL    HW236558   1.465   1.518   2.137  3.3074  0.8900  2.3193
 8308SOL     OW36559   2.647   4.330  12.649  0.0738  0.1248  0.2246
 8308SOL    HW136560   2.577   4.281  12.692  0.4498 -0.8224 -0.2589
 8308SOL    HW236561   2.721   4.271  12.659  0.4762  0.2747 -1.7204
 8309SOL     OW36562   1.726   1.399   0.099 -0.3640 -0.3490 -0.2023
 8309SOL    HW136563   1.746   1.324   0.155  1.3613 -0.2492 -0.7034
 8309SOL    HW236564   1.776   1.386   0.019 -0.6060 -0.6147 -0.3108
 8310SOL     OW36565   2.451   3.505   1.031 -0.4278  0.2536 -1.0385
 8310SOL    HW136566   2.460   3.439   0.963 -0.0209 -0.5165 -0.2373
 8310SOL    HW236567   2.379   3.467   1.080  0.7552 -0.7229 -0.0678
 8311SOL     OW36568   3.717   0.994   1.566  0.3397 -0.0134 -0.3599
 8311SOL    HW136569   3.708   0.921   1.504 -1.1855  0.2299 -0.4086
 8311SOL    HW236570   3.756   0.949   1.641 -0.1103  2.6248  1.4400
 8312SOL     OW36571   3.964   1.426   3.522  0.1063 -0.6268  0.0998
 8312SOL    HW136572   3.902   1.496   3.503  1.2286  0.0558 -1.0223
 8312SOL    HW236573   4.043   1.476   3.541 -0.7826 -0.0553  2.2283
 8313SOL     OW36574   4.555   3.950   9.493  0.0880 -0.3278 -0.0413
 8313SOL    HW136575   4.564   3.900   9.412 -3.2410 -2.0603  0.6736
 8313SOL    HW236576   4.511   4.032   9.469  1.7082  0.0770 -1.6226
 8314SOL     OW36577   4.302   1.554   4.872  0.6484  0.5786  0.1322
 8314SOL    HW136578   4.289   1.623   4.937 -0.9607  0.5242 -0.1111
 8314SOL    HW236579   4.344   1.606   4.803  0.0203  1.4060  0.3751
 8315SOL     OW36580   2.071   1.274   7.689 -0.0980 -0.0950 -0.4282
 8315SOL    HW136581   2.143   1.313   7.640 -0.8777  0.5978 -1.0139
 8315SOL    HW236582   2.040   1.355   7.730 -1.8112 -1.4274  0.8809
 8316SOL     OW36583   4.329   2.544   8.820  0.0599 -0.2986 -0.1886
 8316SOL    HW136584   4.324   2.540   8.725 -1.5874  0.9156 -0.1535
 8316SOL    HW236585   4.246   2.586   8.844  0.9324  1.3085  0.0131
 8317SOL     OW36586   0.525   0.670   9.706  0.4747 -0.1584  0.1307
 8317SOL    HW136587   0.493   0.695   9.619  0.5735  0.2753  0.2180
 8317SOL    HW236588   0.597   0.733   9.711  1.5367 -1.3767  0.1820
 8318SOL     OW36589   0.347   3.016   6.690  0.0168  0.2550 -0.3601
 8318SOL    HW136590   0.252   3.025   6.704  0.0311 -1.5804  0.8997
 8318SOL    HW236591   0.370   3.058   6.773 -2.4153 -2.0242  1.5013
 8319SOL     OW36592   4.482   2.915   6.389 -0.1452  0.0337 -0.1738
 8319SOL    HW136593   4.392   2.887   6.373 -0.3742  0.6558  0.0265
 8319SOL    HW236594   4.530   2.877   6.315 -0.6320 -3.3123  1.2645
 8320SOL     OW36595   3.996   1.222   7.551 -0.2471  0.3175 -0.8715
 8320SOL    HW136596   3.939   1.164   7.500  0.3135  0.1451 -1.3013
 8320SOL    HW236597   3.951   1.217   7.635 -1.8988  0.9321 -1.7231
 8321SOL     OW36598   3.028   0.667   0.089 -0.1093  0.1999 -0.0661
 8321SOL    HW136599   3.118   0.669   0.058 -0.6713 -1.1439 -1.7689
 8321SOL    HW236600   2.974   0.710   0.022  3.7334  1.7373 -2.1861
 8322SOL     OW36601   2.209   2.683   6.651 -0.1686 -0.1509  0.0122
 8322SOL    HW136602   2.222   2.772   6.618  1.0588 -0.2044  0.3536
 8322SOL    HW236603   2.238   2.637   6.572  1.1651  1.2862 -0.3363
 8323SOL     OW36604   2.585   1.774   2.377 -0.3758  0.3751  0.3541
 8323SOL    HW136605   2.598   1.834   2.303  2.3569 -1.4074 -0.6118
 8323SOL    HW236606   2.557   1.698   2.325 -0.0653  1.9696 -2.1216
 8324SOL     OW36607   2.484   3.484  10.853  0.1376 -0.1038 -0.0788
 8324SOL    HW136608   2.489   3.474  10.758 -2.0588 -0.1006 -0.1889
 8324SOL    HW236609   2.545   3.414  10.878 -1.3539 -1.9035 -1.5429
 8325SOL     OW36610   2.863   3.589   7.285 -0.2485 -0.4236  0.1040
 8325SOL    HW136611   2.883   3.681   7.302 -1.5319 -0.0924 -0.2024
 8325SOL    HW236612   2.948   3.545   7.293 -0.4904 -0.4221  2.5225
 8326SOL     OW36613   1.563   0.529   5.414 -0.5653  0.0417  0.2876
 8326SOL    HW136614   1.468   0.542   5.415 -0.5588 -0.1214  2.1236
 8326SOL    HW236615   1.587   0.616   5.448 -0.8046 -1.0224  3.1756
 8327SOL     OW36616   2.334   3.038  11.386 -0.4419  0.0302  0.3777
 8327SOL    HW136617   2.310   3.010  11.298 -1.2458  1.2454  0.2209
 8327SOL    HW236618   2.421   3.000  11.401 -0.1281 -0.6318 -3.1621
 8328SOL     OW36619   4.012   2.953   1.470  0.3774 -0.6958  0.1244
 8328SOL    HW136620   4.084   2.971   1.409  0.7727 -0.9914  0.4950
 8328SOL    HW236621   3.960   3.033   1.462 -0.2161 -1.1132 -0.1733
 8329SOL     OW36622   3.941   1.483  16.387  0.5597 -0.3118  0.2544
 8329SOL    HW136623   3.941   1.465  16.292 -1.4319  1.4998 -0.0881
 8329SOL    HW236624   3.872   1.549  16.386  0.7857 -0.0992 -1.7087
 8330SOL     OW36625   3.676   3.783   3.811  0.1747 -0.2638  0.8424
 8330SOL    HW136626   3.729   3.818   3.739  0.1853 -0.7992  0.5832
 8330SOL    HW236627   3.725   3.803   3.890  0.8813  1.4438 -0.0322
 8331SOL     OW36628   4.035   2.010   2.533  0.3199 -0.4281  0.3625
 8331SOL    HW136629   4.074   1.992   2.619  0.6958  1.1547  0.5203
 8331SOL    HW236630   3.967   2.072   2.560  1.5410  1.0452  0.0792
 8332SOL     OW36631   1.532   3.718   9.934 -0.1849  0.8091 -0.0297
 8332SOL    HW136632   1.603   3.736   9.996 -0.1057 -2.6005  0.8867
 8332SOL    HW236633   1.557   3.634   9.894  0.8214  1.8215 -1.5095
 8333SOL     OW36634   1.532   2.276   5.371  0.1780  0.8172  0.4790
 8333SOL    HW136635   1.592   2.216   5.326 -0.2862  1.2557 -0.6943
 8333SOL    HW236636   1.586   2.348   5.404 -0.9077  0.6142  2.6870
 8334SOL     OW36637   3.005   3.709   3.006  0.1510  0.6786 -0.4259
 8334SOL    HW136638   2.926   3.736   3.053  0.1994 -0.9792  0.6163
 8334SOL    HW236639   3.063   3.672   3.073 -0.0332  3.5673  1.3099
 8335SOL     OW36640   4.084   1.064   6.266  0.4375  0.1201 -0.2525
 8335SOL    HW136641   4.121   1.140   6.310  1.3165 -1.8109  2.3073
 8335SOL    HW236642   4.065   1.095   6.178  2.0474 -0.2250 -0.7385
 8336SOL     OW36643   2.644   1.982   2.193 -0.6619  0.2692  0.1012
 8336SOL    HW136644   2.564   2.032   2.177 -1.1691 -0.3914  0.5251
 8336SOL    HW236645   2.638   1.939   2.108  2.6603  1.1254 -0.5564
 8337SOL     OW36646   3.199   2.511  15.750  0.0688 -0.6831 -0.7272
 8337SOL    HW136647   3.230   2.601  15.759 -2.7070  0.0770  1.0067
 8337SOL    HW236648   3.207   2.484  15.842 -2.3793  1.6151  0.1560
 8338SOL     OW36649   3.015   1.253   7.167 -0.1502  0.0721 -0.0596
 8338SOL    HW136650   3.072   1.288   7.235 -1.4427 -0.6062  1.3940
 8338SOL    HW236651   2.932   1.270   7.211 -0.3230 -0.3248 -0.2324
 8339SOL     OW36652   2.402   4.542   5.040  0.1250  0.2906  0.2572
 8339SOL    HW136653   2.457   4.519   4.965 -0.1060  2.1187 -0.4637
 8339SOL    HW236654   2.391   4.456   5.082  1.2050  1.1355  2.2567
 8340SOL     OW36655   3.012   4.074   1.933  0.0736 -0.3583 -0.2480
 8340SOL    HW136656   2.975   4.038   2.013  0.1996  0.2193  0.0748
 8340SOL    HW236657   3.094   4.110   1.969 -0.3677  1.1410 -0.7144
 8341SOL     OW36658   3.119   0.952  10.445  0.0625  0.3989  0.3456
 8341SOL    HW136659   3.148   0.868  10.409 -0.4270  0.3791 -0.0067
 8341SOL    HW236660   3.027   0.932  10.429  0.3647 -1.6172  1.1288
 8342SOL     OW36661   4.111   1.122   2.102  0.7445 -0.0848 -0.1803
 8342SOL    HW136662   4.160   1.146   2.024 -0.9280  2.2904 -0.4906
 8342SOL    HW236663   4.179   1.106   2.167  2.1778 -2.5995 -2.3198
 8343SOL     OW36664   0.117   0.578   2.783  0.4690 -0.1206 -0.2489
 8343SOL    HW136665   0.108   0.487   2.753 -2.2897 -0.6692  2.1479
 8343SOL    HW236666   0.036   0.619   2.753 -0.5525 -0.5131  1.9910
 8344SOL     OW36667   2.989   1.164   6.701 -0.1671  0.2584  0.1845
 8344SOL    HW136668   2.914   1.148   6.644 -0.7297  0.9497  0.7451
 8344SOL    HW236669   2.998   1.259   6.690  0.1820  0.5092  2.6958
 8345SOL     OW36670   2.285   1.567   3.869  0.4852 -0.4014  0.3474
 8345SOL    HW136671   2.362   1.525   3.831 -0.0981  0.1396 -1.4167
 8345SOL    HW236672   2.297   1.652   3.825 -0.8745 -0.9828 -1.1451
 8346SOL     OW36673   0.911   1.028   9.106  0.2669  0.0073 -0.2166
 8346SOL    HW136674   0.916   0.938   9.073  0.7460  0.5670 -1.6706
 8346SOL    HW236675   0.999   1.054   9.131  0.2815  0.1415 -0.4052
 8347SOL     OW36676   1.635   4.335   1.756 -0.0804 -0.0535 -0.5200
 8347SOL    HW136677   1.717   4.321   1.709 -0.2845  0.9587 -1.1716
 8347SOL    HW236678   1.671   4.352   1.844 -1.0047  1.4007 -0.4216
 8348SOL     OW36679   2.922   2.103  13.363 -1.1642 -0.0901 -0.7200
 8348SOL    HW136680   2.981   2.178  13.370 -0.2620 -0.8023 -0.8297
 8348SOL    HW236681   2.914   2.095  13.268  1.3805 -0.8754 -0.8696
 8349SOL     OW36682   3.284   0.310   9.467  1.1238  0.2012 -0.0688
 8349SOL    HW136683   3.294   0.251   9.392  0.1676  0.3329 -0.2913
 8349SOL    HW236684   3.357   0.370   9.453  1.3462  0.3399  1.6652
 8350SOL     OW36685   3.399   2.354  12.036  1.0986 -0.1641  0.3691
 8350SOL    HW136686   3.493   2.369  12.046  1.1876 -0.0622 -0.6362
 8350SOL    HW236687   3.379   2.316  12.122 -1.6137  0.0247 -0.1616
 8351SOL     OW36688   1.987   1.067   6.243 -0.3891  0.1348 -0.3524
 8351SOL    HW136689   2.013   0.975   6.236  0.7807  0.3805  0.9152
 8351SOL    HW236690   2.063   1.104   6.199 -0.0706  0.4784  0.4970
 8352SOL     OW36691   1.787   3.099   5.692 -0.0535 -0.3744  0.7768
 8352SOL    HW136692   1.771   3.005   5.687 -0.0749 -0.3018 -0.4808
 8352SOL    HW236693   1.737   3.109   5.773 -0.8476  0.5723  0.1692
 8353SOL     OW36694   4.682   3.761   2.909  0.3291  0.4518  0.0890
 8353SOL    HW136695   4.678   3.693   2.977 -1.9617  0.3774 -0.1360
 8353SOL    HW236696   4.737   3.826   2.952 -0.3321  0.7251  0.5191
 8354SOL     OW36697   1.354   2.929  14.755  0.0672  0.0147 -0.0036
 8354SOL    HW136698   1.319   2.990  14.690 -0.7606  1.2097  1.5682
 8354SOL    HW236699   1.367   2.990  14.827 -1.8299  1.2026 -0.6913
 8355SOL     OW36700   0.437   4.443  16.066  0.1397  0.2435 -0.6338
 8355SOL    HW136701   0.521   4.485  16.082  1.0778 -1.2680 -1.5962
 8355SOL    HW236702   0.383   4.522  16.064  1.3153  1.0363 -0.8556
 8356SOL     OW36703   4.232   0.033   4.228  0.2927 -0.2578  0.5245
 8356SOL    HW136704   4.304   0.088   4.259  0.8373 -0.2014 -0.8250
 8356SOL    HW236705   4.157   0.091   4.217  0.4051 -0.3610 -0.8558
 8357SOL     OW36706   2.530   2.782   4.472 -0.3639 -0.2858  0.0343
 8357SOL    HW136707   2.519   2.810   4.563  0.3897 -3.6275  1.1417
 8357SOL    HW236708   2.541   2.865   4.426 -0.3830 -0.6312 -0.5878
 8358SOL     OW36709   0.343   1.361   2.084 -0.0052 -0.3047 -0.5473
 8358SOL    HW136710   0.324   1.434   2.025  0.1569 -0.7610 -1.1671
 8358SOL    HW236711   0.290   1.384   2.161 -1.2375  0.6666 -1.6917
 8359SOL     OW36712   2.066   1.182   5.879  0.4506  0.5538 -0.1980
 8359SOL    HW136713   2.120   1.187   5.957  0.1779  0.3122  0.0053
 8359SOL    HW236714   1.981   1.150   5.910  0.2714  0.0612 -1.1902
 8360SOL     OW36715   2.861   1.021   5.322 -0.2500  0.2024  0.6039
 8360SOL    HW136716   2.805   1.039   5.246  0.2937 -1.1225 -0.1147
 8360SOL    HW236717   2.849   1.106   5.364 -2.9500 -0.1828  0.6150
 8361SOL     OW36718   1.322   3.932   3.539 -0.7179 -0.8018 -0.7441
 8361SOL    HW136719   1.229   3.951   3.527 -0.4880  1.0125  0.5132
 8361SOL    HW236720   1.360   3.947   3.452 -1.4182  0.3131 -0.8600
 8362SOL     OW36721   3.503   0.004   7.948  1.0206 -0.5814 -0.0070
 8362SOL    HW136722   3.575   0.052   7.990  1.0466 -0.7067  0.0912
 8362SOL    HW236723   3.427   0.051   7.983  2.5546  0.1342  2.3758
 8363SOL     OW36724   1.652   1.083   8.840 -0.1244  0.0159 -0.1573
 8363SOL    HW136725   1.714   1.121   8.778 -0.9094  0.5656 -0.5992
 8363SOL    HW236726   1.657   1.150   8.908  1.5905 -0.2669 -0.0061
 8364SOL     OW36727   1.907   2.529  13.041  0.2146 -0.1070 -0.2391
 8364SOL    HW136728   1.830   2.495  12.994  0.8543  1.1705 -2.2243
 8364SOL    HW236729   1.943   2.449  13.079 -0.5917  0.7427  2.2876
 8365SOL     OW36730   3.942   1.564  11.109  0.6473  0.2463  0.6297
 8365SOL    HW136731   3.878   1.584  11.041  1.9244  0.6962 -0.4583
 8365SOL    HW236732   3.951   1.469  11.101 -2.3662 -0.0226  0.6814
 8366SOL     OW36733   1.606   2.479   3.245  0.5839 -0.0194 -0.3545
 8366SOL    HW136734   1.599   2.496   3.151  0.0999  1.4027 -0.0662
 8366SOL    HW236735   1.649   2.560   3.273  2.3529 -2.1825  3.1609
 8367SOL     OW36736   3.173   1.086   7.639 -0.3282  0.1717 -0.5740
 8367SOL    HW136737   3.215   1.153   7.693 -1.0543  0.9754 -1.0271
 8367SOL    HW236738   3.221   1.006   7.662 -1.1843 -0.0432  0.4867
 8368SOL     OW36739   1.419   0.677   6.845 -0.2878  0.2626 -0.2576
 8368SOL    HW136740   1.372   0.757   6.867  0.5571  0.3287  1.2833
 8368SOL    HW236741   1.382   0.621   6.913  1.9187 -0.0100  0.7148
 8369SOL     OW36742   2.950   1.128   5.906  1.0292  0.5870 -0.2685
 8369SOL    HW136743   3.040   1.096   5.900 -0.0024 -2.3348 -0.4353
 8369SOL    HW236744   2.906   1.080   5.836 -0.5214  0.4057  0.8359
 8370SOL     OW36745   3.505   4.200   8.934  0.6322  0.0796 -0.4949
 8370SOL    HW136746   3.440   4.211   8.865 -0.1685 -2.6544 -0.1772
 8370SOL    HW236747   3.485   4.281   8.982 -0.7758 -0.9609  0.6610
 8371SOL     OW36748   0.962   0.373   4.796 -0.3574 -0.5317  0.5142
 8371SOL    HW136749   0.886   0.413   4.837  0.4242  1.1066  0.3691
 8371SOL    HW236750   0.926   0.299   4.747 -0.3777 -1.5938  2.1386
 8372SOL     OW36751   4.344   2.354   7.671 -0.1291 -0.1206 -0.1315
 8372SOL    HW136752   4.417   2.306   7.632  1.4763  0.7716  1.7600
 8372SOL    HW236753   4.276   2.287   7.662  1.1978 -1.5111  0.2051
 8373SOL     OW36754   1.260   0.581   1.965 -0.2871  0.1211 -0.2137
 8373SOL    HW136755   1.184   0.580   1.906 -1.0204  2.5578  0.7153
 8373SOL    HW236756   1.226   0.642   2.030  1.5942  0.9419 -0.0208
 8374SOL     OW36757   4.514   1.044   8.076 -0.4238  0.4314  0.9687
 8374SOL    HW136758   4.554   0.962   8.103 -1.0181 -0.5921 -1.3212
 8374SOL    HW236759   4.428   1.035   8.118  0.0425 -1.5862  1.4886
 8375SOL     OW36760   2.617   2.844   5.944  0.1822  0.2945  0.3058
 8375SOL    HW136761   2.675   2.832   6.019 -0.0050 -0.6625  0.2899
 8375SOL    HW236762   2.679   2.852   5.871  0.9453 -1.3069  0.7962
 8376SOL     OW36763   4.717   1.972   2.859 -0.1924  0.3859  0.3939
 8376SOL    HW136764   4.645   1.942   2.915 -0.9933 -1.3837 -1.5872
 8376SOL    HW236765   0.047   1.928   2.907 -0.3068  0.2094  0.4015
 8377SOL     OW36766   0.234   1.443   2.316 -0.2640  0.4771 -0.3505
 8377SOL    HW136767   0.270   1.442   2.405  0.2616 -1.3031 -0.5775
 8377SOL    HW236768   0.281   1.520   2.285 -0.2908  0.4681 -0.4125
 8378SOL     OW36769   0.415   3.609   2.635  0.0752 -0.7519  0.5180
 8378SOL    HW136770   0.356   3.681   2.658  0.1252 -0.9508  1.2524
 8378SOL    HW236771   0.498   3.648   2.661 -0.6588  1.9544 -1.1243
 8379SOL     OW36772   1.644   2.210   7.350 -0.6923 -0.3337  0.2714
 8379SOL    HW136773   1.699   2.216   7.429  1.4795  0.9887 -1.3403
 8379SOL    HW236774   1.705   2.241   7.283 -0.5609 -0.1973  0.4536
 8380SOL     OW36775   2.570   0.008   4.318 -0.4719 -0.9492  0.2399
 8380SOL    HW136776   2.614   0.024   4.235  0.5374  2.2052  1.3702
 8380SOL    HW236777   2.629   4.686   4.359  0.3548 -0.8125 -0.7399
 8381SOL     OW36778   4.243   0.254   4.993 -0.3587 -0.3269  0.0001
 8381SOL    HW136779   4.329   0.275   4.955  0.1531  0.3029  1.5064
 8381SOL    HW236780   4.196   0.334   4.973 -0.7857 -0.6189 -0.1596
 8382SOL     OW36781   4.442   0.067   8.637 -0.2395 -0.7995 -0.3074
 8382SOL    HW136782   4.530   0.029   8.623 -1.5475 -4.4134  1.2260
 8382SOL    HW236783   4.410   0.049   8.549 -2.3426  0.5236  0.2177
 8383SOL     OW36784   0.145   3.463   5.218  0.0809  0.5404 -0.3420
 8383SOL    HW136785   0.226   3.440   5.264  0.8600  1.0893 -1.4231
 8383SOL    HW236786   0.075   3.405   5.248  0.5418  2.1498  3.9184
 8384SOL     OW36787   3.350   4.314   5.470  0.1041 -0.2307 -0.1031
 8384SOL    HW136788   3.336   4.271   5.555  0.6758 -1.9957 -0.9009
 8384SOL    HW236789   3.315   4.247   5.411 -0.3430 -1.7316  1.8444
 8385SOL     OW36790   1.361   4.512   7.270 -0.4642 -0.6275 -0.4604
 8385SOL    HW136791   1.402   4.444   7.322  0.3886  0.3828  0.2045
 8385SOL    HW236792   1.424   4.585   7.277 -1.5674  0.2295  0.6177
 8386SOL     OW36793   3.182   0.063  17.672 -0.0185  0.5384 -0.0122
 8386SOL    HW136794   3.273   0.083  17.647 -0.7316 -0.3359 -3.2749
 8386SOL    HW236795   3.169   4.741  17.602  1.3012  2.0008 -1.5692
 8387SOL     OW36796   0.293   2.265   0.668  0.3792 -0.5665  0.3032
 8387SOL    HW136797   0.244   2.329   0.719  1.5399 -0.3960  1.2036
 8387SOL    HW236798   0.352   2.329   0.628 -1.4807  0.6018 -0.5630
 8388SOL     OW36799   0.376   3.395   6.593 -0.9393 -0.2066 -0.9759
 8388SOL    HW136800   0.291   3.403   6.635 -0.3150  1.9115 -0.0888
 8388SOL    HW236801   0.371   3.309   6.550  0.7106 -1.1640  0.7719
 8389SOL     OW36802   0.165   0.540  10.364  0.0758  0.4125 -0.2869
 8389SOL    HW136803   0.198   0.629  10.381  0.5511  0.3058 -0.6525
 8389SOL    HW236804   0.252   0.502  10.378  0.4037  0.5943 -1.8469
 8390SOL     OW36805   3.998   3.434   9.418 -0.0151  0.2292 -0.1850
 8390SOL    HW136806   4.024   3.518   9.380 -0.7661  0.5047 -0.0895
 8390SOL    HW236807   4.040   3.372   9.358  1.3295  1.9368 -1.0422
 8391SOL     OW36808   0.307   0.736  13.117  0.0453 -0.6781 -0.5022
 8391SOL    HW136809   0.261   0.701  13.041  0.0612 -1.2126 -0.2686
 8391SOL    HW236810   0.303   0.656  13.170  2.1008  0.2132  0.9706
 8392SOL     OW36811   0.961   2.849  17.639  0.1917 -0.4193  0.1952
 8392SOL    HW136812   1.037   2.836  17.695  0.0692  0.8636  0.6693
 8392SOL    HW236813   0.953   2.944  17.648  3.0184 -0.2659  1.0764
 8393SOL     OW36814   4.584   0.037  10.342  0.7771 -0.2312  0.5901
 8393SOL    HW136815   4.571   0.107  10.279 -0.6444 -0.8169  0.2266
 8393SOL    HW236816   4.492   0.020  10.362  0.5502  1.8522  1.2753
 8394SOL     OW36817   4.019   0.828   0.391  0.4324  0.2135 -0.1908
 8394SOL    HW136818   4.063   0.849   0.308 -0.7271  0.2460 -0.7923
 8394SOL    HW236819   3.954   0.769   0.353  2.5217 -2.5524  0.5462
 8395SOL     OW36820   4.571   1.327   1.825 -0.0589 -0.2468  0.4318
 8395SOL    HW136821   4.628   1.367   1.891 -2.7469  0.1127  2.5418
 8395SOL    HW236822   4.562   1.244   1.871 -2.9095  0.8452  1.8340
 8396SOL     OW36823   2.932   0.664   6.750 -0.4100  0.4514 -0.0789
 8396SOL    HW136824   2.951   0.635   6.839 -1.3080 -1.6267 -0.5698
 8396SOL    HW236825   2.973   0.751   6.753 -1.1684  0.8046 -0.1301
 8397SOL     OW36826   0.837   1.960   5.213  1.0121 -0.2914 -0.1460
 8397SOL    HW136827   0.845   1.950   5.307  2.1989 -1.0915 -0.3432
 8397SOL    HW236828   0.767   2.026   5.207  0.5252 -0.8829 -1.1452
 8398SOL     OW36829   0.080   0.006   9.334  0.6148 -0.6009  0.3174
 8398SOL    HW136830   0.004   4.688   9.327 -0.2633  0.5975 -0.1273
 8398SOL    HW236831   0.076   0.018   9.429 -0.9807  0.3681  0.1223
 8399SOL     OW36832   3.561   2.301   6.437 -0.1820 -0.2369  0.5355
 8399SOL    HW136833   3.524   2.357   6.368  3.0319 -0.4522 -1.3683
 8399SOL    HW236834   3.490   2.300   6.501 -1.1993  0.1347 -0.5891
 8400SOL     OW36835   3.728   3.886   7.034  0.3873 -0.3651  0.3680
 8400SOL    HW136836   3.701   3.843   6.953  1.3155 -1.0797  0.4335
 8400SOL    HW236837   3.822   3.880   7.018  0.4517  0.2327  0.5259
 8401SOL     OW36838   0.422   0.876   4.355 -0.3717  0.6256 -0.4045
 8401SOL    HW136839   0.508   0.863   4.315  0.0152 -1.4593  1.0990
 8401SOL    HW236840   0.376   0.849   4.275  0.8163  0.9489 -1.1966
 8402SOL     OW36841   0.312   2.856  11.195  0.3804  0.2609  0.0529
 8402SOL    HW136842   0.249   2.890  11.258 -0.5381 -2.2927  0.5144
 8402SOL    HW236843   0.306   2.925  11.129 -1.0660  0.4121  0.3406
 8403SOL     OW36844   0.718   3.149   1.843  0.0315 -0.7811 -0.2646
 8403SOL    HW136845   0.682   3.062   1.826 -1.2305 -0.4087  0.4746
 8403SOL    HW236846   0.648   3.197   1.798 -1.7954 -0.9426  2.3600
 8404SOL     OW36847   0.210   4.101   1.527  0.4151  0.0542  0.3297
 8404SOL    HW136848   0.194   4.184   1.572  0.0982 -0.2795  0.8376
 8404SOL    HW236849   0.296   4.078   1.562  0.5898  1.8071  1.0552
 8405SOL     OW36850   4.321   3.377   5.962  0.6713 -0.3208  0.1250
 8405SOL    HW136851   4.227   3.368   5.979  0.7600  0.8234  1.2606
 8405SOL    HW236852   4.326   3.470   5.940 -2.0488 -0.1788  0.1185
 8406SOL     OW36853   3.459   0.895   2.470  0.3280 -0.3002 -0.1925
 8406SOL    HW136854   3.519   0.861   2.405  0.1524  0.6384 -0.8515
 8406SOL    HW236855   3.466   0.824   2.534  4.0212  0.1378 -0.1023
 8407SOL     OW36856   2.786   1.247  16.170 -0.5991  0.2305  0.2029
 8407SOL    HW136857   2.791   1.330  16.123 -0.1702  0.5079  0.7349
 8407SOL    HW236858   2.697   1.221  16.148 -0.9376 -0.5840  2.4896
 8408SOL     OW36859   0.708   4.663   4.905 -0.4435  0.8292  0.3346
 8408SOL    HW136860   0.661   4.587   4.939 -3.0633  1.5945 -1.6030
 8408SOL    HW236861   0.800   4.647   4.929 -0.0530  0.5266 -1.3597
 8409SOL     OW36862   4.072   0.979  10.562  0.0101  0.2137  0.5607
 8409SOL    HW136863   4.158   1.019  10.578  0.5717 -1.1601  0.9671
 8409SOL    HW236864   4.102   0.896  10.525 -1.8142 -0.8839  1.5487
 8410SOL     OW36865   3.116   1.351   9.502  0.3523  0.5714  0.3392
 8410SOL    HW136866   3.166   1.428   9.527  1.0458  0.6113 -1.1374
 8410SOL    HW236867   3.158   1.280   9.551  0.1861 -1.1005 -1.9146
 8411SOL     OW36868   4.060   4.376   3.953 -0.4318  0.1801  0.2655
 8411SOL    HW136869   4.034   4.457   3.998  0.1176 -0.1771  1.2186
 8411SOL    HW236870   3.976   4.331   3.961  0.4890 -1.4284  0.8604
 8412SOL     OW36871   2.508   0.794   5.873  0.2296  0.2637  0.7087
 8412SOL    HW136872   2.449   0.769   5.802 -0.4842  2.9424  0.3702
 8412SOL    HW236873   2.529   0.716   5.925  2.2209 -0.1130 -0.6484
 8413SOL     OW36874   4.285   3.956   3.322  0.1543  0.4740 -0.0654
 8413SOL    HW136875   4.251   3.959   3.411  0.6105  0.6453  0.1058
 8413SOL    HW236876   4.366   4.008   3.329  0.8969 -0.5624 -0.9627
 8414SOL     OW36877   0.857   0.549   8.403  0.5741  0.2089 -0.0571
 8414SOL    HW136878   0.802   0.620   8.434  0.1559 -1.9493  4.1674
 8414SOL    HW236879   0.939   0.598   8.411  1.5725 -1.9457  3.0946
 8415SOL     OW36880   0.669   0.749   8.151  0.4745 -0.0717 -0.5911
 8415SOL    HW136881   0.597   0.764   8.089 -0.2227 -1.2736 -0.0590
 8415SOL    HW236882   0.647   0.657   8.167 -4.0659  1.2474  0.9685
 8416SOL     OW36883   2.498   0.884   3.912 -0.0444 -0.2717 -0.0996
 8416SOL    HW136884   2.448   0.922   3.983 -0.5666 -2.1422  0.5192
 8416SOL    HW236885   2.472   0.793   3.925 -3.0065  0.9836  2.4244
 8417SOL     OW36886   2.653   3.202   3.321 -0.1253  0.1446  0.0725
 8417SOL    HW136887   2.717   3.155   3.268  0.5389  0.7101  0.3866
 8417SOL    HW236888   2.623   3.258   3.249  0.0568 -1.1524 -1.0169
 8418SOL     OW36889   3.961   4.468   5.442  0.2033 -0.2439 -0.2305
 8418SOL    HW136890   3.973   4.374   5.457  1.0420 -0.2168 -0.7168
 8418SOL    HW236891   4.027   4.495   5.506 -2.0834  2.8399  0.8058
 8419SOL     OW36892   1.970   1.054   7.337 -0.0625  0.1213 -0.0979
 8419SOL    HW136893   1.884   1.095   7.344 -0.0054 -0.1696  2.3066
 8419SOL    HW236894   1.968   1.001   7.416 -0.0197  0.4143  0.1010
 8420SOL     OW36895   4.211   2.713   0.992 -0.1187  0.2882  0.6670
 8420SOL    HW136896   4.193   2.668   1.075  1.9476 -0.2984  0.7921
 8420SOL    HW236897   4.298   2.749   1.009  0.2533  0.9241 -2.5585
 8421SOL     OW36898   1.327   3.407   8.438  0.0888  0.1760  0.5198
 8421SOL    HW136899   1.410   3.363   8.454 -0.6109 -0.7573  1.5887
 8421SOL    HW236900   1.263   3.338   8.456 -0.0337  0.2445  0.3534
 8422SOL     OW36901   4.319   1.065   5.094  0.6249  0.5484 -0.7481
 8422SOL    HW136902   4.365   1.146   5.070  2.2090 -0.6379 -1.6895
 8422SOL    HW236903   4.257   1.100   5.158 -1.0066  0.1786 -2.1224
 8423SOL     OW36904   2.170   0.773   3.240  0.1350 -0.0238 -0.1576
 8423SOL    HW136905   2.182   0.688   3.197 -0.0412 -0.6348  1.0019
 8423SOL    HW236906   2.211   0.755   3.325 -0.1846  0.3774  0.0794
 8424SOL     OW36907   2.155   4.421  12.098 -0.0281  0.0564  0.4583
 8424SOL    HW136908   2.241   4.415  12.141 -0.2865  1.3096  1.1633
 8424SOL    HW236909   2.177   4.496  12.044  0.1936 -0.4204 -0.1089
 8425SOL     OW36910   3.450   2.634   3.894  0.7122 -0.0398 -0.2869
 8425SOL    HW136911   3.425   2.714   3.848  3.8702  0.5172 -1.0170
 8425SOL    HW236912   3.397   2.570   3.845  1.2561 -1.1566  0.5799
 8426SOL     OW36913   2.746   2.932  16.628 -0.3544 -0.5216  0.1019
 8426SOL    HW136914   2.788   2.955  16.545  2.3513 -3.2296  0.7416
 8426SOL    HW236915   2.659   2.967  16.608 -0.5380 -0.7807  0.4511
 8427SOL     OW36916   1.879   2.361  12.535 -0.0209 -0.0183  0.4033
 8427SOL    HW136917   1.800   2.384  12.584  1.2094 -0.4350  2.5816
 8427SOL    HW236918   1.920   2.318  12.610 -2.9604  1.6711  2.9651
 8428SOL     OW36919   4.269   3.218   5.303  0.4430  0.3271 -0.2071
 8428SOL    HW136920   4.184   3.238   5.263  0.3236  0.1254 -0.0508
 8428SOL    HW236921   4.257   3.152   5.371  0.4714  0.2495 -0.2758
 8429SOL     OW36922   1.409   0.585   6.584  0.2923  0.5613  0.1624
 8429SOL    HW136923   1.326   0.614   6.547  0.0736  0.5176  0.6174
 8429SOL    HW236924   1.395   0.600   6.678  1.6042  3.0041 -0.0342
 8430SOL     OW36925   3.285   3.505   7.508  0.0325  0.2604  0.3741
 8430SOL    HW136926   3.294   3.584   7.454  0.8425 -0.8311 -1.1045
 8430SOL    HW236927   3.264   3.444   7.438 -0.6154  0.7078  0.1726
 8431SOL     OW36928   3.952   3.789   4.366  0.4420  0.0020  0.2616
 8431SOL    HW136929   4.029   3.750   4.408  1.2700  0.5693 -0.7297
 8431SOL    HW236930   3.897   3.712   4.378 -0.7349  0.6710 -0.7733
 8432SOL     OW36931   2.983   1.867  11.751  0.0231 -0.2832  0.3876
 8432SOL    HW136932   2.945   1.899  11.833  0.6934 -1.5056  1.1714
 8432SOL    HW236933   2.905   1.853  11.698 -0.9831  1.3550  1.4228
 8433SOL     OW36934   3.151   4.564  14.580  0.5512  0.6154 -0.3504
 8433SOL    HW136935   3.116   4.584  14.667 -0.3218  0.7089 -0.7301
 8433SOL    HW236936   3.232   4.516  14.598 -0.4197 -0.2216  1.8464
 8434SOL     OW36937   2.047   3.609   9.167  0.0719 -0.5200 -0.6634
 8434SOL    HW136938   2.044   3.702   9.190 -1.4185 -0.6299 -0.4170
 8434SOL    HW236939   2.134   3.590   9.201  0.0218 -0.4029 -0.4746
 8435SOL     OW36940   0.773   2.193   9.502  0.5113 -0.1374 -0.1853
 8435SOL    HW136941   0.860   2.211   9.539  0.2939  2.0691 -0.7578
 8435SOL    HW236942   0.722   2.244   9.565 -0.5049  2.2570 -2.9765
 8436SOL     OW36943   3.894   2.240   3.463  0.3580  0.3870 -0.5601
 8436SOL    HW136944   3.842   2.263   3.540  0.8625  0.9291 -0.3838
 8436SOL    HW236945   3.823   2.206   3.409  0.4304  0.8270 -0.9300
 8437SOL     OW36946   4.653   2.754   6.231  0.6398 -0.1509 -0.3917
 8437SOL    HW136947   4.732   2.703   6.245  0.7014  0.4336  1.4537
 8437SOL    HW236948   4.591   2.686   6.257 -1.7884  2.0859 -0.2445
 8438SOL     OW36949   1.625   1.850   6.015  0.3647 -0.1606  0.0658
 8438SOL    HW136950   1.714   1.838   6.049  0.4019 -1.1532 -0.3931
 8438SOL    HW236951   1.576   1.867   6.095 -0.4659  0.0583 -0.4923
 8439SOL     OW36952   4.540   0.789   5.634  0.9033  0.7604  0.0594
 8439SOL    HW136953   4.634   0.783   5.649  0.4513 -2.4213  1.8676
 8439SOL    HW236954   4.504   0.741   5.709 -0.2256  2.7496  0.7741
 8440SOL     OW36955   0.345   1.298   6.900 -0.8340 -0.8528 -0.3438
 8440SOL    HW136956   0.377   1.210   6.921  1.2516  0.1643  0.7959
 8440SOL    HW236957   0.272   1.287   6.839 -1.9681  0.6588  0.7374
 8441SOL     OW36958   2.114   4.034   6.072 -0.0016  0.3706  0.3826
 8441SOL    HW136959   2.046   3.970   6.053  0.1937 -0.0420  1.1219
 8441SOL    HW236960   2.099   4.047   6.165  0.4449  1.8080  0.2638
 8442SOL     OW36961   0.914   1.910   6.472  0.5424  0.2391 -0.0279
 8442SOL    HW136962   0.821   1.912   6.497  0.4079  0.2605 -0.5418
 8442SOL    HW236963   0.944   2.001   6.472 -1.3269  0.8833  3.8803
 8443SOL     OW36964   1.242   3.950   6.260  0.1847  0.2155 -0.1745
 8443SOL    HW136965   1.240   4.035   6.303 -0.4093  0.9137 -1.5705
 8443SOL    HW236966   1.337   3.947   6.244 -0.0583  1.0810 -1.7573
 8444SOL     OW36967   1.576   4.026   3.952 -0.3841  0.2188 -0.6070
 8444SOL    HW136968   1.531   3.951   3.913 -0.2274  0.1458 -0.6461
 8444SOL    HW236969   1.524   4.039   4.031  1.8054 -1.9824  1.1995
 8445SOL     OW36970   3.595   2.093   3.000 -0.1729 -0.5206 -0.2022
 8445SOL    HW136971   3.685   2.106   3.031 -0.0081 -3.0820  0.3692
 8445SOL    HW236972   3.593   2.024   2.934  0.1449  0.3116 -1.0946
 8446SOL     OW36973   2.185   3.671  16.759  0.5348  0.1028  0.2967
 8446SOL    HW136974   2.169   3.708  16.671 -0.6866 -0.7042  0.1729
 8446SOL    HW236975   2.275   3.641  16.746  1.1622  2.7703 -1.6479
 8447SOL     OW36976   1.281   0.959  17.126  1.0482  0.6659  0.6042
 8447SOL    HW136977   1.279   1.038  17.179 -0.7865  1.7614 -1.1068
 8447SOL    HW236978   1.292   0.994  17.038 -0.1311 -1.9804 -0.6059
 8448SOL     OW36979   2.980   1.832   4.918  0.2536  0.6447 -0.2633
 8448SOL    HW136980   3.040   1.887   4.867  0.8033  0.3221  0.0463
 8448SOL    HW236981   2.903   1.826   4.861  0.9767 -0.0116 -1.1811
 8449SOL     OW36982   2.231   4.679  13.567  0.6290  0.3691 -0.1982
 8449SOL    HW136983   2.258   0.022  13.605  2.2121 -0.6936  0.9614
 8449SOL    HW236984   2.145   4.666  13.608  2.3732 -3.5448  2.1932
 8450SOL     OW36985   4.012   0.631   3.778  0.2486 -0.2049  0.0978
 8450SOL    HW136986   3.946   0.597   3.839 -0.1259 -0.2115 -0.3119
 8450SOL    HW236987   4.008   0.724   3.801 -0.4307 -0.0990 -0.4479
 8451SOL     OW36988   4.659   0.529   6.321  0.1300 -0.1088  0.3143
 8451SOL    HW136989   4.606   0.549   6.244 -0.1567 -0.2945  0.4593
 8451SOL    HW236990   4.732   0.487   6.277  1.3013  1.0531  1.1757
 8452SOL     OW36991   0.231   4.474   4.766  0.0646 -0.1685 -0.0413
 8452SOL    HW136992   0.242   4.384   4.734  0.8871  0.2801 -1.0072
 8452SOL    HW236993   0.213   4.518   4.683  0.4210  2.7340  1.4389
 8453SOL     OW36994   3.537   0.745   2.266 -0.3231  0.7097 -0.3274
 8453SOL    HW136995   3.629   0.743   2.238 -0.9655  0.4215 -2.3993
 8453SOL    HW236996   3.534   0.660   2.309 -2.2089  0.3785 -1.1013
 8454SOL     OW36997   3.850   0.881   4.435 -0.2067  0.0560  0.6224
 8454SOL    HW136998   3.801   0.903   4.514  0.0666 -1.1104  1.1147
 8454SOL    HW236999   3.938   0.910   4.457 -0.2574  0.7351 -0.0951
 8455SOL     OW37000   2.704   4.147  15.872  0.2605  0.5021 -0.3920
 8455SOL    HW137001   2.758   4.218  15.908  1.2234  0.1040 -1.0438
 8455SOL    HW237002   2.726   4.076  15.933  1.0531  0.9298 -0.1743
 8456SOL     OW37003   4.198   0.078   7.175  0.3582 -0.2657 -0.5193
 8456SOL    HW137004   4.284   0.118   7.193 -0.3762  1.5708 -1.0820
 8456SOL    HW237005   4.142   0.133   7.230  1.2458  0.2603 -0.1401
 8457SOL     OW37006   1.735   1.589  12.487  0.9308  0.4467  0.3918
 8457SOL    HW137007   1.682   1.511  12.502 -0.3329  1.3727  0.6864
 8457SOL    HW237008   1.785   1.565  12.409  0.4242  0.9662 -0.0841
 8458SOL     OW37009   0.015   3.169  10.063  0.0008  0.4248  0.1416
 8458SOL    HW137010   4.677   3.222  10.051  0.2730  0.3795 -1.9301
 8458SOL    HW237011   0.034   3.165  10.156 -0.2808 -3.2499  0.0223
 8459SOL     OW37012   4.589   2.781   2.700 -0.1304  0.4769 -0.3618
 8459SOL    HW137013   4.536   2.725   2.644  0.0251 -0.5269  0.5043
 8459SOL    HW237014   4.674   2.739   2.685  0.8424  2.8493 -1.5766
 8460SOL     OW37015   1.745   3.788   6.777 -0.2230 -0.1966  0.1052
 8460SOL    HW137016   1.812   3.831   6.830 -0.2828 -0.0496  0.0606
 8460SOL    HW237017   1.721   3.717   6.836  1.1716 -0.9630 -0.2298
 8461SOL     OW37018   1.979   2.802   8.946  0.3350 -0.1883 -0.3329
 8461SOL    HW137019   1.994   2.893   8.970 -0.4188 -0.0206 -0.5081
 8461SOL    HW237020   2.047   2.800   8.878  0.3456  1.3203 -0.3757
 8462SOL     OW37021   2.486   1.259   7.282  0.1340  0.2335  0.2205
 8462SOL    HW137022   2.405   1.210   7.271 -0.2205  0.9398 -0.2928
 8462SOL    HW237023   2.527   1.223   7.204  0.7502 -1.4563  1.3215
 8463SOL     OW37024   2.814   2.077   4.675 -0.2683  0.0180  0.0720
 8463SOL    HW137025   2.789   2.115   4.760  0.0173 -1.3686  0.7787
 8463SOL    HW237026   2.786   2.146   4.615  0.9495  0.7664  0.3555
 8464SOL     OW37027   1.729   4.294   3.579  0.2825 -0.3542  0.7695
 8464SOL    HW137028   1.754   4.278   3.670  0.1635 -0.9186  0.7034
 8464SOL    HW237029   1.731   4.390   3.572 -1.9205 -0.4224 -0.5953
 8465SOL     OW37030   4.095   0.754   7.414  0.5627  0.4345  0.0388
 8465SOL    HW137031   4.151   0.790   7.482  2.5970 -0.3632 -1.2059
 8465SOL    HW237032   4.012   0.725   7.452 -0.2923  1.1624 -1.2557
 8466SOL     OW37033   4.186   4.333   7.082 -0.2193  0.2292  0.0652
 8466SOL    HW137034   4.189   4.298   7.171  0.3057 -0.5585 -0.2554
 8466SOL    HW237035   4.095   4.328   7.053 -1.1166  0.8169  2.8246
 8467SOL     OW37036   2.355   3.960  14.438 -0.4550  0.0914  0.1570
 8467SOL    HW137037   2.354   4.029  14.372 -0.5617 -0.3143 -0.2707
 8467SOL    HW237038   2.423   3.978  14.503  0.4322 -0.3820 -0.6418
 8468SOL     OW37039   0.911   0.858   8.260 -0.2568 -0.0339  0.3036
 8468SOL    HW137040   0.830   0.808   8.272  0.9002 -2.2157 -0.9016
 8468SOL    HW237041   0.935   0.905   8.340 -1.5432  2.0654 -0.5418
 8469SOL     OW37042   2.204   4.676   8.008  0.4312 -0.0840  0.5941
 8469SOL    HW137043   2.124   4.720   7.978  0.9976  0.4771 -0.0835
 8469SOL    HW237044   2.238   4.649   7.923 -0.0078 -1.0529  0.7218
 8470SOL     OW37045   1.698   3.388   5.929 -0.4468 -0.3076 -0.2528
 8470SOL    HW137046   1.607   3.373   5.907 -0.4664 -0.9334  0.2602
 8470SOL    HW237047   1.714   3.476   5.894  1.8369 -0.6871 -0.2007
 8471SOL     OW37048   2.251   0.743  14.763 -0.1431  0.3927  0.5733
 8471SOL    HW137049   2.216   0.783  14.843  0.2869  2.1085 -0.1096
 8471SOL    HW237050   2.295   0.819  14.725  0.5730 -0.5825 -0.5639
 8472SOL     OW37051   1.251   0.991   4.048 -0.2264 -0.4186 -0.5417
 8472SOL    HW137052   1.193   1.048   3.996  2.3905  3.5873  0.9180
 8472SOL    HW237053   1.328   0.995   3.991 -0.3249  0.4043 -0.6161
 8473SOL     OW37054   1.557   2.983   9.171 -0.0540  0.4069 -0.0348
 8473SOL    HW137055   1.516   3.065   9.199 -2.0365 -0.1571 -1.2394
 8473SOL    HW237056   1.620   3.010   9.104  2.2370  1.6725  2.6171
 8474SOL     OW37057   4.630   1.004   9.214  0.1131 -0.0173 -0.1677
 8474SOL    HW137058   4.687   1.055   9.157  0.1856  1.7806  1.5108
 8474SOL    HW237059   4.555   0.982   9.159 -0.2269  1.5976 -0.3442
 8475SOL     OW37060   4.306   4.400   5.352 -0.2888 -1.0221 -0.0695
 8475SOL    HW137061   4.335   4.468   5.292 -0.4982 -0.7762  0.1078
 8475SOL    HW237062   4.212   4.414   5.339 -0.4548 -0.4841  1.8330
 8476SOL     OW37063   4.174   0.818  16.661  0.1452 -0.0491  0.7894
 8476SOL    HW137064   4.204   0.906  16.637  1.0325 -0.3197  0.9161
 8476SOL    HW237065   4.238   0.792  16.727 -1.4621  0.6182  2.6057
 8477SOL     OW37066   0.460   3.983   1.604  0.2097 -0.3909  0.1785
 8477SOL    HW137067   0.548   4.012   1.580 -0.0758  0.1494 -0.2296
 8477SOL    HW237068   0.467   3.977   1.699  0.3424 -0.7003  0.1488
 8478SOL     OW37069   4.662   1.075   3.368  0.2965 -0.2854  1.1494
 8478SOL    HW137070   4.611   0.995   3.355 -0.0730  0.2894 -0.9577
 8478SOL    HW237071   4.619   1.138   3.310 -0.9436 -4.1960 -2.1903
 8479SOL     OW37072   3.300   2.296  10.846  0.9657  0.4696 -0.5023
 8479SOL    HW137073   3.237   2.225  10.858  0.1739  1.3939  0.7989
 8479SOL    HW237074   3.363   2.252  10.788 -0.3620  1.1916 -2.4891
 8480SOL     OW37075   3.546   0.934   8.555 -0.2205  0.0674 -0.4270
 8480SOL    HW137076   3.526   0.856   8.607 -1.7859  1.1169  0.5478
 8480SOL    HW237077   3.618   0.899   8.503  0.3551  1.1108 -0.3202
 8481SOL     OW37078   0.665   0.879   7.185 -0.1014  0.3422 -0.2282
 8481SOL    HW137079   0.692   0.798   7.141  0.4340  0.5375 -0.2579
 8481SOL    HW237080   0.607   0.918   7.119  0.4830 -0.1080 -1.0064
 8482SOL     OW37081   0.042   0.432   6.933  0.3597  0.1207  0.0231
 8482SOL    HW137082   0.078   0.448   6.846  2.4333  1.8303  1.2137
 8482SOL    HW237083   0.039   0.514   6.982 -2.1414  0.3868 -0.5654
 8483SOL     OW37084   4.143   3.959   6.289 -0.3194  0.4580 -0.2849
 8483SOL    HW137085   4.220   3.927   6.241 -1.1216 -1.1866 -0.4970
 8483SOL    HW237086   4.177   3.944   6.378 -1.1225  2.0539  0.2814
 8484SOL     OW37087   1.021   4.152   6.933  0.1749  0.0162 -0.0473
 8484SOL    HW137088   0.935   4.119   6.906 -0.5977  0.1124  2.2756
 8484SOL    HW237089   1.028   4.221   6.867  0.2819  0.4065  0.3703
 8485SOL     OW37090   3.138   4.492   9.402 -0.2556 -0.4614  0.2871
 8485SOL    HW137091   3.052   4.495   9.360  0.9479 -1.4363 -2.2351
 8485SOL    HW237092   3.181   4.563   9.354  1.5060 -0.0934  2.4192
 8486SOL     OW37093   2.672   3.871   9.553 -0.5012  0.2869 -0.3433
 8486SOL    HW137094   2.613   3.799   9.529  0.9962  0.2618 -3.9885
 8486SOL    HW237095   2.688   3.916   9.470 -1.7775 -1.1700 -1.3779
 8487SOL     OW37096   3.534   0.808   7.011 -0.5300  0.1820  0.2476
 8487SOL    HW137097   3.542   0.735   7.072 -2.0859 -0.6865 -0.5593
 8487SOL    HW237098   3.438   0.813   7.005 -0.4205  0.7278 -1.0505
 8488SOL     OW37099   3.406   3.402  15.837  0.0152  0.2112 -0.3042
 8488SOL    HW137100   3.362   3.447  15.765 -0.6195 -0.4993 -0.3585
 8488SOL    HW237101   3.333   3.402  15.900 -0.7622  0.9746 -1.2122
 8489SOL     OW37102   2.325   0.012   5.312  0.3806 -0.2348  0.0540
 8489SOL    HW137103   2.304   0.064   5.390 -1.3045  1.1363 -1.3330
 8489SOL    HW237104   2.299   0.084   5.255  1.2453  0.0430  0.0037
 8490SOL     OW37105   0.923   1.392   8.048  0.0982  0.2774 -0.0285
 8490SOL    HW137106   0.940   1.303   8.078 -0.7374  0.0194 -0.3075
 8490SOL    HW237107   0.888   1.374   7.961 -0.3676 -3.3453  0.9241
 8491SOL     OW37108   3.474   0.377   8.055 -1.2084 -0.5415  0.4522
 8491SOL    HW137109   3.520   0.461   8.054 -1.7530 -0.2471  0.4420
 8491SOL    HW237110   3.541   0.308   8.058 -0.2876  0.4752  3.1766
 8492SOL     OW37111   0.682   1.466   0.657  0.3915  0.0828 -0.1059
 8492SOL    HW137112   0.739   1.506   0.592 -1.4509  0.4362 -1.4702
 8492SOL    HW237113   0.730   1.484   0.738  1.8494 -0.3486 -0.8612
 8493SOL     OW37114   3.665   1.671   4.242 -0.0398  0.0892  0.6463
 8493SOL    HW137115   3.639   1.719   4.163 -0.7777  1.3110  1.6361
 8493SOL    HW237116   3.737   1.717   4.283  0.6803 -0.0396 -0.4786
 8494SOL     OW37117   1.739   1.131   9.229  0.1837  0.1698  0.4142
 8494SOL    HW137118   1.775   1.148   9.143 -0.9803 -1.5283 -0.4222
 8494SOL    HW237119   1.810   1.121   9.293 -0.0993 -1.0045  0.5569
 8495SOL     OW37120   4.678   1.891   4.002 -0.1029  0.2760  0.5952
 8495SOL    HW137121   0.027   1.909   3.973 -0.6679  1.8247 -0.2243
 8495SOL    HW237122   4.671   1.800   3.973 -0.2884  0.3754  0.3233
 8496SOL     OW37123   0.865   4.296   8.973  0.4152  0.6373  0.2493
 8496SOL    HW137124   0.772   4.274   8.964  1.3794 -2.8305 -1.0169
 8496SOL    HW237125   0.899   4.257   8.893 -0.0130 -0.6976  0.7178
 8497SOL     OW37126   3.655   3.887   3.499 -0.5800  0.1019  0.0366
 8497SOL    HW137127   3.678   3.800   3.467  1.0837  0.6526 -0.2778
 8497SOL    HW237128   3.661   3.938   3.417 -0.8467  0.2487  0.1095
 8498SOL     OW37129   0.567   3.765  17.563 -0.1669  0.2876  0.3383
 8498SOL    HW137130   0.616   3.847  17.557 -0.2997  0.2977 -0.7036
 8498SOL    HW237131   0.639   3.706  17.543 -0.5859 -0.4678  1.0355
 8499SOL     OW37132   4.189   3.966   2.521 -0.1654 -0.1183 -1.0493
 8499SOL    HW137133   4.205   4.026   2.449 -1.9945 -0.1086 -1.4523
 8499SOL    HW237134   4.180   4.019   2.601 -0.9626  0.9978 -1.8869
 8500SOL     OW37135   3.216   4.693   5.266  0.4298 -0.1747  0.6513
 8500SOL    HW137136   3.168   4.639   5.203  2.3885  0.4652 -1.3736
 8500SOL    HW237137   3.239   4.627   5.331 -0.5756 -0.7477  0.4307
 8501SOL     OW37138   1.711   1.478   6.150 -0.1834 -0.0498  0.0730
 8501SOL    HW137139   1.633   1.487   6.096 -0.2431  0.8313  0.3039
 8501SOL    HW237140   1.692   1.524   6.232  0.7959 -1.0822  0.8800
 8502SOL     OW37141   1.789   4.413   4.901 -0.1476  0.4353 -0.4403
 8502SOL    HW137142   1.743   4.482   4.852  1.0328 -1.2639 -3.9749
 8502SOL    HW237143   1.871   4.403   4.852  0.9030  0.1000  1.3931
 8503SOL     OW37144   2.763   1.019  13.142 -0.0852 -0.0973  0.2000
 8503SOL    HW137145   2.748   1.105  13.104  0.7047  0.1252  0.3891
 8503SOL    HW237146   2.721   0.957  13.083 -0.8232 -0.9612  1.6447
 8504SOL     OW37147   1.347   3.094   2.062 -0.0092 -0.3098 -0.9156
 8504SOL    HW137148   1.383   3.083   1.974  0.6260 -0.5471 -0.6345
 8504SOL    HW237149   1.311   3.182   2.056  1.8220  0.4717 -0.6629
 8505SOL     OW37150   3.784   1.914  11.436 -0.5354 -0.2250  0.2038
 8505SOL    HW137151   3.734   1.842  11.397 -2.3106  1.0614  0.1394
 8505SOL    HW237152   3.864   1.909  11.383 -1.2139  1.1098 -0.9562
 8506SOL     OW37153   2.827   3.621   2.437  0.1909 -0.0706  0.3643
 8506SOL    HW137154   2.835   3.526   2.429 -2.8114 -0.3783  0.6854
 8506SOL    HW237155   2.757   3.630   2.372 -0.7330  1.0469  1.4988
 8507SOL     OW37156   0.280   4.243   5.528 -0.1144  0.1066  0.1090
 8507SOL    HW137157   0.336   4.296   5.470  0.1322 -0.2348  0.0353
 8507SOL    HW237158   0.244   4.175   5.471  0.3307 -0.5124  0.5674
 8508SOL     OW37159   0.737   2.275   4.535 -0.2526  0.2290  0.0063
 8508SOL    HW137160   0.674   2.339   4.502 -0.8538  0.5280  1.7274
 8508SOL    HW237161   0.680   2.228   4.596 -0.4258 -1.1174 -1.1871
 8509SOL     OW37162   4.418   0.558   1.489  0.5841 -0.3906  0.0677
 8509SOL    HW137163   4.348   0.496   1.509  0.6250 -1.3730 -2.8813
 8509SOL    HW237164   4.366   0.638   1.480 -0.5844 -0.6800  4.0212
 8510SOL     OW37165   1.903   2.211   3.860  0.1215  0.1843  0.2264
 8510SOL    HW137166   1.878   2.168   3.779  0.7987  1.7883 -0.8248
 8510SOL    HW237167   1.851   2.166   3.927  0.0740 -0.5870 -0.3282
 8511SOL     OW37168   0.056   0.275   3.629 -0.0544 -0.4988  0.0806
 8511SOL    HW137169   0.004   0.344   3.670  4.0467  2.3614  0.4301
 8511SOL    HW237170   0.139   0.290   3.674 -1.1292  1.3705  1.4260
 8512SOL     OW37171   1.790   3.936  16.872  0.2080  0.3114  0.0334
 8512SOL    HW137172   1.783   3.988  16.792 -2.1108 -0.8877 -0.5445
 8512SOL    HW237173   1.861   3.986  16.912  0.8445 -0.6578  0.1261
 8513SOL     OW37174   2.980   4.529  14.359  0.0931  0.2835  0.0302
 8513SOL    HW137175   3.039   4.553  14.430  0.2559  1.2892 -0.4450
 8513SOL    HW237176   3.034   4.467  14.310  1.0634  1.5181 -0.4672
 8514SOL     OW37177   0.479   0.357   2.765  0.3446 -0.6511 -0.2668
 8514SOL    HW137178   0.492   0.315   2.680 -0.4255 -1.7572  0.1508
 8514SOL    HW237179   0.387   0.342   2.786  0.9474 -0.4654  2.4958
 8515SOL     OW37180   0.148   1.434   5.947  0.0120  0.5376  0.2264
 8515SOL    HW137181   0.147   1.484   5.866 -0.6205 -2.3827 -1.5561
 8515SOL    HW237182   0.204   1.359   5.928  0.4893  1.1656 -0.8442
 8516SOL     OW37183   2.511   3.406  11.565 -0.1690  0.0186 -0.2641
 8516SOL    HW137184   2.516   3.499  11.588  0.5682 -0.0290 -0.2373
 8516SOL    HW237185   2.474   3.367  11.644  3.2530  1.0164  1.8298
 8517SOL     OW37186   0.426   0.807   3.037 -0.2994 -0.1475 -0.1928
 8517SOL    HW137187   0.399   0.767   2.955  0.3213 -0.8447 -0.0548
 8517SOL    HW237188   0.363   0.755   3.087 -0.5328  1.0489  0.7602
 8518SOL     OW37189   4.041   3.330   3.118 -0.2152 -0.0697  0.2696
 8518SOL    HW137190   4.056   3.417   3.080  2.6926 -1.1968 -1.0747
 8518SOL    HW237191   4.047   3.282   3.036  1.1486  1.4973 -0.5537
 8519SOL     OW37192   0.933   2.614   1.605  0.2175 -0.4776  0.1255
 8519SOL    HW137193   0.840   2.595   1.591  0.2921  0.3873 -1.4453
 8519SOL    HW237194   0.943   2.708   1.591  0.2655 -0.5422 -0.2748
 8520SOL     OW37195   0.134   0.130   1.431 -0.4616  0.7324  0.1348
 8520SOL    HW137196   0.226   0.107   1.414 -0.3523  0.7402  0.7190
 8520SOL    HW237197   0.146   0.216   1.472 -1.4386  1.0461 -0.2446
 8521SOL     OW37198   4.386   1.658  12.496  0.0726  0.7519  0.1489
 8521SOL    HW137199   4.438   1.584  12.525  0.8675  0.6918 -1.5025
 8521SOL    HW237200   4.301   1.615  12.483  1.3729 -1.5423 -0.6248
 8522SOL     OW37201   0.272   3.579   4.989  0.6685 -0.1469  0.4016
 8522SOL    HW137202   0.288   3.520   4.915 -0.2923  1.5422 -1.1437
 8522SOL    HW237203   0.235   3.519   5.054 -0.1539 -0.4760 -0.3652
 8523SOL     OW37204   0.241   2.968   6.253 -0.6188 -0.3906  0.8270
 8523SOL    HW137205   0.166   2.994   6.200  0.5947  1.5756  0.0710
 8523SOL    HW237206   0.292   2.921   6.187 -1.0440  0.1642  0.0991
 8524SOL     OW37207   4.642   0.254  12.664  0.6479 -0.0723 -0.0962
 8524SOL    HW137208   4.653   0.346  12.640 -1.3676  1.3522  4.4182
 8524SOL    HW237209   4.730   0.221  12.646  0.5524  0.0608 -0.8089
 8525SOL     OW37210   1.777   2.267  14.883  0.1727 -0.7417 -0.4095
 8525SOL    HW137211   1.818   2.226  14.807  0.8855 -0.4151 -0.2075
 8525SOL    HW237212   1.842   2.336  14.901 -1.7444  1.4127 -1.9027
 8526SOL     OW37213   4.205   4.573   1.190 -0.1557  0.2882 -0.3693
 8526SOL    HW137214   4.253   4.632   1.249  0.6089  1.0826 -1.7898
 8526SOL    HW237215   4.125   4.622   1.170  0.0844  0.3678 -1.1250
 8527SOL     OW37216   2.138   0.062   6.957  0.2693  0.0609 -0.0233
 8527SOL    HW137217   2.115   0.036   6.868  0.8847  0.6420 -0.3481
 8527SOL    HW237218   2.079   0.135   6.975 -0.4795 -0.0536 -2.0574
 8528SOL     OW37219   0.545   2.109   3.404  0.2867 -0.0712 -0.1241
 8528SOL    HW137220   0.598   2.029   3.409  0.2499  0.0218  1.7126
 8528SOL    HW237221   0.560   2.140   3.494  1.8130 -1.0224 -0.0359
 8529SOL     OW37222   1.104   1.686  13.884  0.5136 -0.1146 -0.1922
 8529SOL    HW137223   1.031   1.745  13.899  0.8400  0.0346  0.7920
 8529SOL    HW237224   1.060   1.625  13.826 -0.8010 -0.1244  0.8394
 8530SOL     OW37225   4.042   0.521   1.202 -0.0904 -0.3844  0.5266
 8530SOL    HW137226   3.961   0.527   1.252  0.2827 -0.6152  1.1496
 8530SOL    HW237227   4.074   0.607   1.229  0.7832 -1.1750  2.0033
 8531SOL     OW37228   3.405   1.627   9.782  0.2234  0.1167  0.4927
 8531SOL    HW137229   3.443   1.630   9.870  0.3740 -1.0934  0.4663
 8531SOL    HW237230   3.380   1.536   9.770 -0.3321  0.3779 -0.3389
 8532SOL     OW37231   4.376   2.737  12.899  0.4220 -0.2973  0.3100
 8532SOL    HW137232   4.422   2.677  12.958  1.1774  0.0771  0.1040
 8532SOL    HW237233   4.284   2.719  12.916  0.4239 -1.2941 -0.6843
 8533SOL     OW37234   2.045   3.760   5.764 -1.0080 -0.1203  0.1014
 8533SOL    HW137235   2.068   3.794   5.678 -1.0860  1.7627  0.8302
 8533SOL    HW237236   2.110   3.691   5.780 -0.7151  0.2624  0.6054
 8534SOL     OW37237   2.381   0.609   5.705  0.2081 -0.1376 -0.3596
 8534SOL    HW137238   2.415   0.533   5.657 -1.9954 -0.6566 -1.1063
 8534SOL    HW237239   2.338   0.663   5.638  0.4701  1.0562  0.4344
 8535SOL     OW37240   2.613   1.184   7.951  0.7521 -0.3393 -0.0180
 8535SOL    HW137241   2.628   1.198   8.045 -0.4162  1.8719 -0.1575
 8535SOL    HW237242   2.689   1.232   7.916 -0.0043  1.5031  0.8286
 8536SOL     OW37243   3.227   3.688  10.728  0.0924  0.1493  0.3455
 8536SOL    HW137244   3.264   3.609  10.767 -0.4398 -0.8062 -1.0525
 8536SOL    HW237245   3.290   3.720  10.664 -0.2682 -0.0634 -0.1203
 8537SOL     OW37246   2.884   1.127   9.794 -0.0949  0.4034  0.0773
 8537SOL    HW137247   2.855   1.197   9.853 -0.1731 -0.8169  1.4580
 8537SOL    HW237248   2.929   1.063   9.848  1.0375  1.0431 -0.0991
 8538SOL     OW37249   1.412   4.376   9.059  0.3454 -0.3439  0.5062
 8538SOL    HW137250   1.430   4.431   9.135 -3.2507  0.1906  0.9525
 8538SOL    HW237251   1.397   4.441   8.991  1.1239 -0.3871  0.2929
 8539SOL     OW37252   4.427   2.684   7.289 -0.0821 -0.3746  0.1229
 8539SOL    HW137253   4.373   2.640   7.354  0.2270  0.2413  0.8052
 8539SOL    HW237254   4.491   2.613   7.298  0.7361  0.6339  2.3386
 8540SOL     OW37255   1.356   4.715   5.485  0.6599 -0.1453  0.0968
 8540SOL    HW137256   1.446   4.730   5.455 -0.0616  2.6198 -0.6523
 8540SOL    HW237257   1.359   4.625   5.517 -2.0447 -0.6898 -1.1859
 8541SOL     OW37258   0.161   2.417  10.442 -0.1008 -0.4194 -0.3600
 8541SOL    HW137259   0.128   2.480  10.378 -0.0547 -0.0292  0.0064
 8541SOL    HW237260   0.251   2.447  10.453 -0.4474 -0.2020  1.9635
 8542SOL     OW37261   4.168   3.707   3.438  0.4441 -0.4295  0.5116
 8542SOL    HW137262   4.157   3.613   3.452 -1.7695 -0.0546  1.2787
 8542SOL    HW237263   4.254   3.736   3.469  0.6307  0.8713 -1.2391
 8543SOL     OW37264   1.309   1.175   8.435  0.3175  0.2281  0.3729
 8543SOL    HW137265   1.223   1.209   8.411 -0.5967 -1.4379  1.2784
 8543SOL    HW237266   1.320   1.209   8.524  1.0290  0.4976  0.1830
 8544SOL     OW37267   0.362   1.823   4.211 -0.1286  0.2713  0.4824
 8544SOL    HW137268   0.441   1.769   4.206  0.9072  1.8431 -0.2273
 8544SOL    HW237269   0.397   1.909   4.187 -1.2065  0.6557  0.3129
 8545SOL     OW37270   2.260   1.680   8.729 -0.1898  0.2560 -0.4529
 8545SOL    HW137271   2.291   1.766   8.701  0.5854 -1.0580 -3.5370
 8545SOL    HW237272   2.333   1.624   8.703  0.4391  0.9910 -0.2759
 8546SOL     OW37273   3.507   1.210   8.232 -0.3938  0.5466  0.4652
 8546SOL    HW137274   3.476   1.201   8.322 -3.0425 -0.0527 -0.5145
 8546SOL    HW237275   3.496   1.127   8.186  1.2797 -0.6434  2.2642
 8547SOL     OW37276   4.479   0.140   0.040  0.0188  0.0543 -0.0124
 8547SOL    HW137277   4.563   0.145   0.085  0.0756 -0.7456 -0.0259
 8547SOL    HW237278   4.499   0.211  17.738  0.4205 -1.5787 -1.7820
 8548SOL     OW37279   2.908   0.777   4.928 -0.4673 -0.0866 -0.0248
 8548SOL    HW137280   2.843   0.788   4.998  0.8750 -1.8585  1.5118
 8548SOL    HW237281   2.882   0.691   4.895 -2.4730  0.6357 -0.3385
 8549SOL     OW37282   4.155   4.114   0.378  0.5305 -0.0203 -0.0306
 8549SOL    HW137283   4.094   4.107   0.304 -0.2648  0.2602  0.5916
 8549SOL    HW237284   4.097   4.152   0.443 -0.7949  1.3606 -2.0374
 8550SOL     OW37285   0.982   2.855   3.392 -0.2307 -0.1420  0.2957
 8550SOL    HW137286   0.950   2.804   3.466  0.4309 -2.2703 -0.8817
 8550SOL    HW237287   0.896   2.882   3.359 -0.6872  0.0945  1.7017
 8551SOL     OW37288   1.561   2.272   4.229 -0.7112 -0.3516  0.2639
 8551SOL    HW137289   1.517   2.333   4.170 -1.0677 -2.1366 -1.3146
 8551SOL    HW237290   1.542   2.186   4.192  1.0077  0.2177 -1.9740
 8552SOL     OW37291   4.429   4.616  11.188  0.1237 -0.5270 -0.0339
 8552SOL    HW137292   4.420   4.594  11.280 -0.0352 -0.1515  0.0410
 8552SOL    HW237293   4.393   4.544  11.137 -0.7663 -0.0032 -0.1525
 8553SOL     OW37294   2.863   1.015   9.194  0.7234 -0.1998  0.5419
 8553SOL    HW137295   2.922   0.954   9.150 -1.0502  0.7296 -3.0955
 8553SOL    HW237296   2.898   1.019   9.283  2.2769  1.3134 -0.1428
 8554SOL     OW37297   0.073   3.698   3.417  0.3456 -0.3538 -0.1092
 8554SOL    HW137298   0.108   3.781   3.447  0.4948 -0.5968  0.3873
 8554SOL    HW237299   0.017   3.676   3.491  0.6852 -0.2147  0.1901
 8555SOL     OW37300   2.694   3.113   6.260 -0.5202  0.0378 -0.4301
 8555SOL    HW137301   2.736   3.182   6.312 -1.3689 -0.7131  1.2754
 8555SOL    HW237302   2.771   3.080   6.214 -0.6147  0.4599 -0.8898
 8556SOL     OW37303   0.558   0.082   2.043  0.1467 -0.0378  0.0711
 8556SOL    HW137304   0.615   0.159   2.050 -0.6626  0.6307 -0.6731
 8556SOL    HW237305   0.610   0.010   2.077 -0.4119 -0.6652 -0.4074
 8557SOL     OW37306   0.476   0.727   9.453  0.0883  0.0653 -0.1069
 8557SOL    HW137307   0.496   0.648   9.403 -0.4210  0.2553 -0.6150
 8557SOL    HW237308   0.530   0.794   9.409  1.0052 -0.7945 -0.3008
 8558SOL     OW37309   3.254   0.980  10.682  0.8127  0.4233 -0.5619
 8558SOL    HW137310   3.342   0.988  10.643  1.0454  0.3289 -0.0525
 8558SOL    HW237311   3.203   0.984  10.601  1.7602  1.4580 -1.1045
 8559SOL     OW37312   4.223   2.998   4.445 -0.6604 -0.2621 -0.0898
 8559SOL    HW137313   4.236   3.069   4.382  0.2446 -0.5976 -0.2888
 8559SOL    HW237314   4.306   2.951   4.429 -0.2167  0.0013  1.4380
 8560SOL     OW37315   1.648   2.659  13.189  0.5395  0.1947 -0.0214
 8560SOL    HW137316   1.621   2.747  13.218  2.4855  1.3117 -1.6084
 8560SOL    HW237317   1.742   2.679  13.194  0.8357 -1.6037  1.4822
 8561SOL     OW37318   4.217   4.378   2.495 -0.2360 -0.4445 -0.1075
 8561SOL    HW137319   4.176   4.465   2.498 -3.6936 -2.1029  0.7090
 8561SOL    HW237320   4.253   4.386   2.406  0.0607 -0.6920 -0.0050
 8562SOL     OW37321   0.264   1.169  16.405  0.8198 -0.5855  0.1843
 8562SOL    HW137322   0.266   1.208  16.318  1.0839 -1.5525 -0.2492
 8562SOL    HW237323   0.259   1.247  16.459  1.1218  0.3231 -1.1045
 8563SOL     OW37324   3.448   1.016   2.963 -0.1386  0.1359  0.2782
 8563SOL    HW137325   3.543   1.022   2.962 -0.1490  0.1743 -0.2024
 8563SOL    HW237326   3.427   1.074   2.890 -0.7325  1.8324  1.7852
 8564SOL     OW37327   4.352   3.577  17.748  0.1775 -0.2286 -0.0972
 8564SOL    HW137328   4.269   3.624  17.735  1.4867  2.0387 -0.1900
 8564SOL    HW237329   4.376   3.556  17.658 -1.9435  1.4288 -1.0440
 8565SOL     OW37330   1.580   0.053   9.200 -0.3385  0.2817  0.3083
 8565SOL    HW137331   1.638   0.010   9.137 -0.5595 -0.2372  0.4677
 8565SOL    HW237332   1.629   0.036   9.280 -1.6093 -2.4264  0.4853
 8566SOL     OW37333   3.617   3.056   6.926 -0.2010 -0.5714 -0.0539
 8566SOL    HW137334   3.540   3.031   6.876  0.6785 -3.5710  0.1098
 8566SOL    HW237335   3.618   2.985   6.990  1.2721  0.8484  1.5155
 8567SOL     OW37336   1.887   2.799   3.697  0.2625  0.6193  0.4430
 8567SOL    HW137337   1.931   2.718   3.672 -2.5546 -0.7169 -0.2095
 8567SOL    HW237338   1.795   2.776   3.689 -0.5125  3.0421  2.1276
 8568SOL     OW37339   4.317   4.090   4.282 -0.4473 -0.5262 -0.4894
 8568SOL    HW137340   4.251   4.067   4.216 -1.6550  0.2290  0.4628
 8568SOL    HW237341   4.270   4.165   4.318 -0.6149 -0.0990 -1.5804
 8569SOL     OW37342   2.102   0.839  13.698  0.0622 -0.3255 -0.2888
 8569SOL    HW137343   2.079   0.868  13.786  0.1992 -0.0725 -0.3351
 8569SOL    HW237344   2.128   0.917  13.648 -1.6419 -0.1110 -0.8263
 8570SOL     OW37345   3.947   4.472   6.230  0.7184  0.0496 -0.0637
 8570SOL    HW137346   3.990   4.396   6.270  2.0402  1.6718  1.6185
 8570SOL    HW237347   4.010   4.542   6.245  0.5643  0.0599  0.5513
 8571SOL     OW37348   3.342   0.516   7.610 -0.5317 -0.2424 -0.4831
 8571SOL    HW137349   3.251   0.534   7.587 -0.2230  0.6883 -1.0003
 8571SOL    HW237350   3.369   0.471   7.530  1.3789 -1.5719  0.9127
 8572SOL     OW37351   1.691   3.583  17.335 -0.0312  0.6371  0.1650
 8572SOL    HW137352   1.631   3.557  17.264  0.5845  2.6677 -1.1109
 8572SOL    HW237353   1.753   3.623  17.274 -0.0947  0.8654  0.2503
 8573SOL     OW37354   0.313   4.483   1.882  0.1751 -0.4816  0.1099
 8573SOL    HW137355   0.356   4.567   1.893 -0.9278  0.4202 -2.3336
 8573SOL    HW237356   0.378   4.443   1.824 -0.1495  0.6799 -1.0624
 8574SOL     OW37357   2.440   0.418   3.363  0.0088 -0.2457  0.6001
 8574SOL    HW137358   2.350   0.436   3.391 -0.5680  0.9132 -1.9193
 8574SOL    HW237359   2.477   0.497   3.401 -0.0135  0.9449 -1.8210
 8575SOL     OW37360   2.465   1.416   9.820 -0.1376 -0.3928  0.3351
 8575SOL    HW137361   2.486   1.500   9.861  3.1047 -0.2631 -1.6267
 8575SOL    HW237362   2.369   1.418   9.812 -0.1340 -0.0530  0.3853
 8576SOL     OW37363   1.340   0.470   2.346  0.1002 -0.3622 -0.4488
 8576SOL    HW137364   1.336   0.385   2.389 -1.2955  0.1344  0.4181
 8576SOL    HW237365   1.252   0.506   2.356 -0.1154 -0.5695 -1.5797
 8577SOL     OW37366   1.171   3.560   4.576  0.3735  0.0968 -0.3617
 8577SOL    HW137367   1.080   3.586   4.562  0.2053 -1.4911 -2.1805
 8577SOL    HW237368   1.184   3.610   4.657  1.6857 -0.7701 -0.0317
 8578SOL     OW37369   2.910   0.135  14.267  0.1298  0.0571  0.0680
 8578SOL    HW137370   2.997   0.122  14.304  0.4945  0.1903 -0.7395
 8578SOL    HW237371   2.883   0.054  14.224  1.0849  0.2663 -0.9086
 8579SOL     OW37372   3.278   3.362   9.212  0.1254  0.3236 -0.2294
 8579SOL    HW137373   3.304   3.305   9.284 -1.5093  1.3825  1.1896
 8579SOL    HW237374   3.302   3.302   9.142  0.9163  2.1066 -1.4870
 8580SOL     OW37375   3.899   0.698   5.467 -0.2139  0.2440 -0.0132
 8580SOL    HW137376   3.849   0.618   5.455 -0.9421  0.6824  0.0600
 8580SOL    HW237377   3.949   0.701   5.385  0.2046  0.7925  0.2627
 8581SOL     OW37378   0.397   3.848   2.999  0.5044 -0.0085 -0.2435
 8581SOL    HW137379   0.421   3.938   3.018 -1.7651  0.6812 -0.6587
 8581SOL    HW237380   0.410   3.811   3.086 -0.6652 -2.2186 -0.9987
 8582SOL     OW37381   0.733   2.635   9.036 -0.2660 -0.2651 -0.2348
 8582SOL    HW137382   0.785   2.580   9.095 -2.8768 -0.5394  1.8011
 8582SOL    HW237383   0.802   2.674   8.983 -1.2267  0.0452 -1.2475
 8583SOL     OW37384   0.620   3.423   2.841  0.0512  0.1453  0.3610
 8583SOL    HW137385   0.586   3.378   2.763 -2.0297 -0.3235  1.5482
 8583SOL    HW237386   0.543   3.456   2.888 -1.1318  0.9190 -2.1320
 8584SOL     OW37387   2.745   4.176   2.779  0.0083 -0.0014 -0.0721
 8584SOL    HW137388   2.769   4.258   2.822 -1.3930  0.4313 -0.1023
 8584SOL    HW237389   2.700   4.148   2.859 -2.7948 -0.3132 -1.7761
 8585SOL     OW37390   4.134   2.896   2.834  0.3744  0.2453 -0.3210
 8585SOL    HW137391   4.179   2.857   2.758 -1.8282 -1.5857 -0.6954
 8585SOL    HW237392   4.042   2.897   2.806 -0.3729  2.0919  2.2115
 8586SOL     OW37393   1.028   1.225   2.150 -0.4778  0.7500  0.3226
 8586SOL    HW137394   1.031   1.131   2.134  0.3828  1.1217 -1.5898
 8586SOL    HW237395   0.949   1.250   2.102  0.0986 -2.3547 -2.2027
 8587SOL     OW37396   2.225   1.595   4.146 -0.0321 -0.1182  0.2073
 8587SOL    HW137397   2.237   1.562   4.057 -0.9755 -1.1726  0.4666
 8587SOL    HW237398   2.253   1.686   4.140 -1.2452  0.3412  1.5518
 8588SOL     OW37399   3.217   3.924   5.587  0.4273  0.1279  0.1104
 8588SOL    HW137400   3.141   3.866   5.598  0.8538 -0.9482 -2.5127
 8588SOL    HW237401   3.232   3.914   5.493 -0.4981 -0.1728 -0.0101
 8589SOL     OW37402   4.224   0.067   1.984  0.2972 -0.1110 -0.4463
 8589SOL    HW137403   4.281   0.141   2.003  1.7870 -1.1773 -0.7295
 8589SOL    HW237404   4.156   0.085   2.049  0.1376  0.0289 -0.6494
 8590SOL     OW37405   0.439   2.257   9.189 -0.3037  0.4362 -0.1140
 8590SOL    HW137406   0.499   2.195   9.148 -2.0599 -0.8140 -0.7795
 8590SOL    HW237407   0.437   2.322   9.120 -0.1485  0.3058 -0.2407
 8591SOL     OW37408   2.200   2.412  14.299  0.8615 -0.0664  0.2442
 8591SOL    HW137409   2.231   2.351  14.232 -2.6138 -1.3397 -0.2029
 8591SOL    HW237410   2.107   2.418  14.279  0.4928  0.5586  2.1416
 8592SOL     OW37411   3.763   3.438   6.924 -0.3624 -0.2600  0.8725
 8592SOL    HW137412   3.692   3.459   6.984  0.9023  2.8975  1.2443
 8592SOL    HW237413   3.711   3.414   6.847 -2.0092  0.9594  1.5967
 8593SOL     OW37414   1.747   1.940   7.614  0.4778 -0.1280  0.2029
 8593SOL    HW137415   1.729   1.968   7.703  1.3003  1.1851 -0.0434
 8593SOL    HW237416   1.658   1.943   7.578 -1.0478  1.1439  4.0767
 8594SOL     OW37417   1.580   2.551   2.180 -0.0900 -0.1381 -0.2398
 8594SOL    HW137418   1.561   2.552   2.274 -0.1490  1.5111 -0.2623
 8594SOL    HW237419   1.558   2.464   2.146 -0.3852 -1.0040  2.1488
 8595SOL     OW37420   2.242   1.726   2.788  0.5087  0.1690 -0.3141
 8595SOL    HW137421   2.228   1.632   2.795 -1.9637  0.6262  0.6230
 8595SOL    HW237422   2.334   1.729   2.761  1.0298  2.5872  1.7079
 8596SOL     OW37423   0.319   2.890   7.272  0.4778 -0.2152  0.0868
 8596SOL    HW137424   0.274   2.919   7.352 -0.4833  0.1881 -0.6082
 8596SOL    HW237425   0.249   2.899   7.207 -0.0489 -1.5609  0.4653
 8597SOL     OW37426   2.078   4.243  10.844 -0.4674  0.4583 -0.5602
 8597SOL    HW137427   2.167   4.216  10.820 -1.2654 -0.1950 -2.7434
 8597SOL    HW237428   2.036   4.178  10.788 -1.6195  0.9277 -0.2335
 8598SOL     OW37429   1.498   1.790   7.160  0.0586 -0.3189 -0.3367
 8598SOL    HW137430   1.436   1.736   7.209 -1.4380  1.6470 -0.0795
 8598SOL    HW237431   1.478   1.878   7.192  2.9564 -0.5168  1.9508
 8599SOL     OW37432   0.066   3.292  12.306  0.9248  0.1453 -0.3711
 8599SOL    HW137433   0.093   3.229  12.373  0.4278  1.1052  0.7183
 8599SOL    HW237434   0.149   3.337  12.285  1.4067 -1.2287 -1.4236
 8600SOL     OW37435   0.833   3.225  11.156  0.1398 -0.1201  0.2570
 8600SOL    HW137436   0.839   3.190  11.067 -1.2421  2.6411 -0.9193
 8600SOL    HW237437   0.818   3.318  11.137  1.9065  0.1182  0.0240
 8601SOL     OW37438   0.507   1.880   9.509 -0.2964  0.4768 -0.0962
 8601SOL    HW137439   0.584   1.827   9.530 -1.5474 -1.3265 -0.0113
 8601SOL    HW237440   0.501   1.921   9.595  1.2690  1.2807 -0.3811
 8602SOL     OW37441   3.622   2.537   7.110  0.6606  0.0959 -0.4374
 8602SOL    HW137442   3.529   2.538   7.088  0.5164 -0.5967  0.1478
 8602SOL    HW237443   3.652   2.495   7.029 -1.3843  0.4088 -1.3525
 8603SOL     OW37444   4.019   2.567   5.565 -0.0331  0.3181 -0.3751
 8603SOL    HW137445   4.022   2.659   5.592 -1.0327 -0.4595  2.4657
 8603SOL    HW237446   4.013   2.577   5.470 -2.8861  0.4753 -0.1924
 8604SOL     OW37447   1.903   1.738  11.477 -0.1453 -0.3747  0.4190
 8604SOL    HW137448   1.809   1.749  11.494 -0.2200 -0.5196  0.0922
 8604SOL    HW237449   1.908   1.643  11.482  2.1749 -0.1182  2.6633
 8605SOL     OW37450   1.287   4.595  14.725  0.2121  0.0270  0.5575
 8605SOL    HW137451   1.375   4.631  14.711  0.6976 -1.4065 -0.1424
 8605SOL    HW237452   1.291   4.566  14.816 -0.0652  0.1049  0.5932
 8606SOL     OW37453   3.002   3.324   9.276 -0.4518 -0.3357 -0.5558
 8606SOL    HW137454   3.077   3.365   9.234  0.2826  1.0026  2.0312
 8606SOL    HW237455   2.929   3.370   9.233 -0.6571  1.0112  1.2121
 8607SOL     OW37456   2.997   3.764  14.963  0.4608 -0.1822 -0.0773
 8607SOL    HW137457   2.997   3.673  14.993 -0.3648  0.7440  2.8095
 8607SOL    HW237458   2.908   3.795  14.979 -0.6438 -2.7826 -1.0707
 8608SOL     OW37459   3.248   4.551   8.456 -0.0993 -0.1071 -0.3448
 8608SOL    HW137460   3.284   4.596   8.380 -2.2704 -3.9177 -3.5977
 8608SOL    HW237461   3.155   4.571   8.448 -0.7166 -2.4592  0.9373
 8609SOL     OW37462   3.040   2.156  10.854  0.4412 -0.4250 -0.0586
 8609SOL    HW137463   2.964   2.097  10.853 -0.8108  1.2391 -1.6713
 8609SOL    HW237464   3.065   2.157  10.946  2.0724 -1.6283 -0.4948
 8610SOL     OW37465   3.723   2.565  10.140 -0.2888  0.3462 -0.4257
 8610SOL    HW137466   3.631   2.588  10.154 -0.2184 -0.1746  0.8945
 8610SOL    HW237467   3.768   2.649  10.134 -1.3904  0.9283 -0.6524
 8611SOL     OW37468   1.516   0.568   3.724 -0.1415  0.0514  0.3237
 8611SOL    HW137469   1.596   0.520   3.703 -0.6526 -0.7518  0.1924
 8611SOL    HW237470   1.561   0.637   3.774 -0.1677 -0.0895  0.5420
 8612SOL     OW37471   0.014   4.198   5.380  0.3826  0.0744  0.3736
 8612SOL    HW137472   4.723   4.202   5.289 -1.0584  1.7368  0.9436
 8612SOL    HW237473   0.101   4.160   5.368  0.3181 -0.0631  0.3386
 8613SOL     OW37474   2.618   1.878   1.628  0.3257  0.1672  0.4302
 8613SOL    HW137475   2.593   1.831   1.548 -0.3386 -0.1716  0.8386
 8613SOL    HW237476   2.673   1.950   1.598 -0.2925  0.5919  0.3166
 8614SOL     OW37477   1.053   3.917   3.510 -0.2062  0.4038 -0.2779
 8614SOL    HW137478   1.043   3.986   3.576 -0.1891 -0.1514  0.3030
 8614SOL    HW237479   1.022   3.977   3.441  3.5717 -0.4983 -2.7603
 8615SOL     OW37480   2.747   3.412   4.923  0.2071 -0.2039 -1.1250
 8615SOL    HW137481   2.664   3.384   4.883  1.3151 -1.4963 -2.5166
 8615SOL    HW237482   2.714   3.470   4.992 -0.0520 -1.3953 -0.2572
 8616SOL     OW37483   4.661   0.260   4.646  0.4683 -0.3642 -0.4021
 8616SOL    HW137484   4.662   0.335   4.706  1.7398 -0.2838 -0.5240
 8616SOL    HW237485   4.623   0.196   4.707  1.6245 -1.2547 -0.6277
 8617SOL     OW37486   1.963   0.635   7.396 -0.6153  0.1899  0.3381
 8617SOL    HW137487   1.891   0.591   7.351  0.1871 -1.9734  1.2097
 8617SOL    HW237488   1.957   0.592   7.482  1.2428  0.6037  0.6727
 8618SOL     OW37489   1.105   0.622  15.051 -0.1548  0.2297 -0.5658
 8618SOL    HW137490   1.034   0.571  15.089  0.0953 -0.1845 -0.6520
 8618SOL    HW237491   1.082   0.612  14.959 -0.8281  0.0572 -0.3765
 8619SOL     OW37492   3.361   4.325  11.708 -0.1313  0.3688 -0.6845
 8619SOL    HW137493   3.302   4.333  11.783 -1.2073 -2.1987 -1.2854
 8619SOL    HW237494   3.406   4.242  11.726 -0.0509  0.5574 -0.0100
 8620SOL     OW37495   0.451   1.920   3.079  0.3999  0.4041  0.4895
 8620SOL    HW137496   0.463   1.920   2.984  1.8166  0.8228  0.6761
 8620SOL    HW237497   0.524   1.865   3.109 -0.9346 -0.9644  1.2392
 8621SOL     OW37498   2.330   0.414   9.667 -0.4151  0.5013 -0.0569
 8621SOL    HW137499   2.409   0.371   9.700  0.0747 -0.2011 -2.1782
 8621SOL    HW237500   2.362   0.499   9.635  0.0088  0.6154  0.6681
 8622SOL     OW37501   3.350   0.713  14.197 -0.0938 -0.1336 -0.0677
 8622SOL    HW137502   3.435   0.712  14.241 -1.5438 -0.2722  2.7058
 8622SOL    HW237503   3.300   0.656  14.256 -2.0900  0.8368 -0.8055
 8623SOL     OW37504   0.597   3.023  12.178 -0.3051 -0.1192  0.1118
 8623SOL    HW137505   0.682   3.066  12.187 -0.6551  0.6847 -0.4359
 8623SOL    HW237506   0.601   2.982  12.092  0.3622  1.0544 -0.4226
 8624SOL     OW37507   3.167   4.387   4.614  0.3144  0.3327  0.5521
 8624SOL    HW137508   3.117   4.357   4.691 -3.2664  0.2699 -1.7810
 8624SOL    HW237509   3.242   4.328   4.606 -0.4008 -0.8545  2.2895
 8625SOL     OW37510   0.750   2.773   6.237  0.0045  0.1614 -0.2032
 8625SOL    HW137511   0.737   2.780   6.142 -0.0229  2.6365 -0.0041
 8625SOL    HW237512   0.826   2.830   6.247  0.2898 -0.4981  1.2710
 8626SOL     OW37513   2.692   4.244   9.623  0.1713 -0.3637  0.1120
 8626SOL    HW137514   2.665   4.260   9.533  1.5359  0.9791 -0.0571
 8626SOL    HW237515   2.692   4.336   9.647 -3.3798 -0.8522  1.9095
 8627SOL     OW37516   1.226   3.146  11.288  0.4551  0.0915 -0.1442
 8627SOL    HW137517   1.294   3.089  11.255  2.3664  1.8912  0.7062
 8627SOL    HW237518   1.236   3.151  11.383 -2.0870 -3.2381  0.2824
 8628SOL     OW37519   0.623   2.923   1.781 -0.7389  0.4861 -0.4650
 8628SOL    HW137520   0.604   2.829   1.774  1.2094  0.1327 -0.9754
 8628SOL    HW237521   0.685   2.935   1.710 -0.3742 -0.4297 -0.3004
 8629SOL     OW37522   0.299   3.282   3.969  0.3152  0.3091  0.2048
 8629SOL    HW137523   0.244   3.245   4.038  1.4536 -3.0863 -0.7074
 8629SOL    HW237524   0.360   3.333   4.021  0.6971 -0.6158  0.6722
 8630SOL     OW37525   1.354   2.424   5.944 -0.2743 -0.1682 -0.1871
 8630SOL    HW137526   1.304   2.407   5.864 -0.1845 -2.6232  0.2847
 8630SOL    HW237527   1.348   2.336   5.980 -2.3134 -0.4245 -1.1634
 8631SOL     OW37528   0.827   4.034   6.567  0.3487 -0.3148 -0.0422
 8631SOL    HW137529   0.769   3.966   6.533 -2.4189  1.7431  0.5722
 8631SOL    HW237530   0.878   4.045   6.487 -1.1472 -3.1581 -1.3657
 8632SOL     OW37531   4.706   2.243   2.802  0.2345 -0.6905  0.2235
 8632SOL    HW137532   4.672   2.265   2.889  0.1413 -0.7021  0.1905
 8632SOL    HW237533   4.726   2.150   2.801 -0.0698 -0.7761  1.4176
 8633SOL     OW37534   4.590   1.165   4.364  0.5855 -0.2070  0.0945
 8633SOL    HW137535   4.555   1.178   4.453  0.1726  0.5134 -0.1693
 8633SOL    HW237536   4.550   1.242   4.322 -1.4722 -0.7169  1.1197
 8634SOL     OW37537   4.445   3.287  11.842  0.5372  0.5249 -0.8247
 8634SOL    HW137538   4.365   3.240  11.818  0.6261 -0.9420  1.6724
 8634SOL    HW237539   4.503   3.212  11.857 -0.4276 -0.0239  0.2713
 8635SOL     OW37540   3.941   4.474  15.201  0.4504 -0.4129 -0.5235
 8635SOL    HW137541   3.980   4.473  15.113 -0.1365 -1.4791 -0.7656
 8635SOL    HW237542   3.853   4.446  15.178  0.3753  1.0804 -2.1297
 8636SOL     OW37543   2.750   1.749  14.443 -0.0364 -0.3485 -0.2689
 8636SOL    HW137544   2.827   1.752  14.499  0.4826 -1.6890 -0.9027
 8636SOL    HW237545   2.776   1.766  14.353 -0.5005  2.5717  0.1590
 8637SOL     OW37546   0.805   2.188   2.435 -0.2115  0.2623  0.3436
 8637SOL    HW137547   0.789   2.109   2.486 -0.9290  0.4545  0.4164
 8637SOL    HW237548   0.712   2.192   2.412  0.3717 -0.5143 -2.1021
 8638SOL     OW37549   0.713   3.754   4.671 -0.2875  0.0263 -0.1199
 8638SOL    HW137550   0.739   3.846   4.681  0.7061 -0.4345  1.6541
 8638SOL    HW237551   0.708   3.724   4.762 -0.3374 -1.8657 -0.7517
 8639SOL     OW37552   0.775   3.565  10.034 -0.2004  0.1558 -0.4873
 8639SOL    HW137553   0.795   3.645   9.985  2.2839 -0.5481 -0.5939
 8639SOL    HW237554   0.690   3.544   9.994  0.8624 -3.2690 -0.9162
 8640SOL     OW37555   0.156   0.361   5.635  0.1335 -0.1014  0.4146
 8640SOL    HW137556   0.156   0.278   5.588  3.6116  1.2824 -1.9886
 8640SOL    HW237557   0.177   0.420   5.563  1.0091  0.2226  0.9391
 8641SOL     OW37558   0.890   0.589  10.439  0.0000  0.7745  0.0864
 8641SOL    HW137559   0.809   0.579  10.389  0.3217 -1.5875  0.0247
 8641SOL    HW237560   0.855   0.586  10.528  2.1780  1.0409  0.9570
 8642SOL     OW37561   4.377   2.032   4.340 -0.3299 -0.0301 -0.1239
 8642SOL    HW137562   4.437   2.022   4.266 -0.3632  1.2085 -0.3288
 8642SOL    HW237563   4.350   2.124   4.329 -0.1338 -0.0605 -0.8422
 8643SOL     OW37564   3.383   3.568   8.257 -0.2525 -0.5761  0.2070
 8643SOL    HW137565   3.291   3.570   8.229 -1.1715 -0.0833  3.1739
 8643SOL    HW237566   3.433   3.581   8.177  1.4138 -2.8887  0.8828
 8644SOL     OW37567   1.902   1.593   4.751  0.1194 -0.1565 -1.1020
 8644SOL    HW137568   1.851   1.607   4.831 -1.2605 -2.2145 -1.6190
 8644SOL    HW237569   1.985   1.554   4.777 -0.6024 -0.4611  0.7672
 8645SOL     OW37570   1.339   2.955  16.032  0.2077 -0.4826 -0.3957
 8645SOL    HW137571   1.408   2.910  15.983  1.1706  1.8435 -1.1887
 8645SOL    HW237572   1.263   2.941  15.976  0.3421 -0.5681 -0.5588
 8646SOL     OW37573   3.168   0.264   2.197  0.4622 -0.2056 -0.2251
 8646SOL    HW137574   3.172   0.179   2.242 -0.2087  0.0102  0.2420
 8646SOL    HW237575   3.109   0.240   2.125 -0.4778 -1.4225  0.9549
 8647SOL     OW37576   3.448   2.137  11.557  0.1696 -0.0688 -0.2124
 8647SOL    HW137577   3.424   2.166  11.644  0.3592 -0.2507 -0.0985
 8647SOL    HW237578   3.410   2.049  11.563 -1.7857  0.6093 -2.5914
 8648SOL     OW37579   0.659   3.515   3.841 -0.5245 -0.1104 -0.2741
 8648SOL    HW137580   0.588   3.450   3.845  0.0260 -0.7470 -0.7732
 8648SOL    HW237581   0.629   3.588   3.895  2.3489  0.7294  0.1891
 8649SOL     OW37582   2.328   4.224   6.527 -0.2092 -0.3209 -0.1003
 8649SOL    HW137583   2.411   4.190   6.493  1.4220  0.5791  2.8715
 8649SOL    HW237584   2.273   4.227   6.449  0.0949 -2.0200 -0.3936
 8650SOL     OW37585   3.904   4.249   6.987  0.0370 -0.3118 -0.2033
 8650SOL    HW137586   3.868   4.221   6.903  1.3870 -1.8641 -0.2736
 8650SOL    HW237587   3.940   4.166   7.019 -1.0786 -1.3994 -1.8050
 8651SOL     OW37588   2.222   2.588   8.695  0.4355 -0.7556 -0.4196
 8651SOL    HW137589   2.210   2.677   8.729 -0.9839 -0.8816 -0.6054
 8651SOL    HW237590   2.284   2.597   8.622 -2.3840  0.9508 -2.6109
 8652SOL     OW37591   1.214   0.061   1.115 -0.8220 -0.1222  0.2066
 8652SOL    HW137592   1.144   4.740   1.138 -2.2755  1.3963 -0.1094
 8652SOL    HW237593   1.272   4.735   1.079 -1.0531 -0.4054  0.3512
 8653SOL     OW37594   4.034   0.743   8.144  0.1808  0.0574 -0.4418
 8653SOL    HW137595   3.952   0.700   8.124 -0.5546  0.5302  1.5259
 8653SOL    HW237596   4.018   0.808   8.212  1.0974  0.4067 -0.5517
 8654SOL     OW37597   2.650   3.964   9.281  0.1678  0.0039 -0.3466
 8654SOL    HW137598   2.577   3.904   9.271  0.5839 -0.4455 -0.6645
 8654SOL    HW237599   2.623   4.051   9.251 -0.0634  0.3055  0.7387
 8655SOL     OW37600   0.659   3.926   3.706  0.2042 -0.0616  0.0322
 8655SOL    HW137601   0.719   3.889   3.771  2.3188  1.0476 -1.2682
 8655SOL    HW237602   0.577   3.879   3.712 -0.2403  0.1181 -4.1015
 8656SOL     OW37603   0.996   4.185   9.200  0.5439  0.2359  0.5897
 8656SOL    HW137604   0.950   4.221   9.124  2.5754 -2.2945 -1.8225
 8656SOL    HW237605   0.977   4.245   9.272  2.8651  2.0731 -0.3446
 8657SOL     OW37606   4.693   3.122   3.710  0.3485 -0.1550 -0.0623
 8657SOL    HW137607   4.663   3.183   3.777  0.6050  0.2134 -0.2885
 8657SOL    HW237608   4.690   3.182   3.635 -0.1202  1.2629  1.0965
 8658SOL     OW37609   4.304   3.039  16.449 -0.3923 -0.0065  0.6465
 8658SOL    HW137610   4.341   2.951  16.463  0.1389  0.0044 -0.6945
 8658SOL    HW237611   4.213   3.023  16.472 -1.2444  3.4574 -0.2960
 8659SOL     OW37612   2.908   2.174   8.397  0.1138 -0.1466  0.0183
 8659SOL    HW137613   2.958   2.151   8.319  1.8973  1.3320  0.7458
 8659SOL    HW237614   2.820   2.186   8.359 -0.2089 -0.8055  0.5439
 8660SOL     OW37615   1.862   1.812   2.983  0.2302 -0.2624  0.2519
 8660SOL    HW137616   1.800   1.878   2.951  1.4292  0.0694 -1.3970
 8660SOL    HW237617   1.946   1.849   2.956  0.0910  0.0834  0.3046
 8661SOL     OW37618   3.072   2.275   3.588  0.0661 -0.7197 -0.0723
 8661SOL    HW137619   3.084   2.368   3.570  0.4095 -0.5962  0.7758
 8661SOL    HW237620   3.063   2.233   3.502  2.0880 -0.3234 -0.4822
 8662SOL     OW37621   3.979   4.618   1.374  0.2604 -0.0000  0.3393
 8662SOL    HW137622   3.911   4.636   1.440 -0.3311 -0.1533 -0.2315
 8662SOL    HW237623   3.938   4.550   1.320  0.3316  1.4303 -1.4983
 8663SOL     OW37624   3.708   3.691   5.867  0.1221 -0.2024  0.3265
 8663SOL    HW137625   3.680   3.617   5.922  0.3859  0.3900  1.2537
 8663SOL    HW237626   3.620   3.726   5.854  0.0536  0.0049  1.3954
 8664SOL     OW37627   4.345   0.182  12.806 -0.3679 -0.1752 -0.8307
 8664SOL    HW137628   4.431   0.199  12.767 -0.5909  0.8754 -0.8570
 8664SOL    HW237629   4.356   0.210  12.897 -0.9467 -0.7690 -0.5793
 8665SOL     OW37630   2.574   3.770   2.477 -0.1057  0.0780 -0.4478
 8665SOL    HW137631   2.636   3.753   2.549 -0.9311  1.1205  0.5119
 8665SOL    HW237632   2.644   3.790   2.415  2.3097 -0.7212  2.0458
 8666SOL     OW37633   0.546   4.158   4.846 -0.1524 -0.2587  0.5619
 8666SOL    HW137634   0.566   4.221   4.916  0.5524 -0.1743  0.2804
 8666SOL    HW237635   0.558   4.073   4.888  3.0826 -0.4953 -0.8614
 8667SOL     OW37636   1.147   3.706   5.647  0.1655  0.0599  0.4849
 8667SOL    HW137637   1.126   3.617   5.675  0.6767 -0.1368  0.2430
 8667SOL    HW237638   1.242   3.704   5.660  0.1603  2.1328  0.8257
 8668SOL     OW37639   4.281   3.710  10.749 -0.5275 -0.2812  0.0595
 8668SOL    HW137640   4.371   3.693  10.779  0.0991  2.6643 -0.1677
 8668SOL    HW237641   4.229   3.698  10.828  0.9865 -0.0947  1.0884
 8669SOL     OW37642   2.033   4.546   5.307 -0.2623  0.7315  0.0740
 8669SOL    HW137643   2.063   4.553   5.216  0.0847 -0.8155  0.0754
 8669SOL    HW237644   2.016   4.637   5.331 -2.4597 -0.2496  2.2081
 8670SOL     OW37645   2.596   2.282   0.373 -0.0835  1.0681  0.0773
 8670SOL    HW137646   2.517   2.333   0.356 -2.6866 -2.3544  1.8025
 8670SOL    HW237647   2.644   2.355   0.411  0.1453 -0.1334  2.0698
 8671SOL     OW37648   4.700   4.229   5.843 -0.3033 -0.1265  0.0758
 8671SOL    HW137649   4.643   4.185   5.779 -3.2344  2.2771  1.0168
 8671SOL    HW237650   0.043   4.197   5.809  0.1782 -1.6638  2.7242
 8672SOL     OW37651   3.002   4.085  17.371  0.2661  0.3789  0.9717
 8672SOL    HW137652   2.970   4.021  17.308 -0.4747  1.7577 -0.0399
 8672SOL    HW237653   2.923   4.107  17.420  0.7915 -0.4498  2.1971
 8673SOL     OW37654   2.581   4.694   5.193  0.4143  0.0131  0.6565
 8673SOL    HW137655   2.506   4.728   5.241  2.6079  3.6432  1.4642
 8673SOL    HW237656   2.542   4.631   5.132  1.8643  1.4618 -1.7471
 8674SOL     OW37657   2.054   3.217   6.828  0.0050 -0.0097  0.2102
 8674SOL    HW137658   2.042   3.128   6.795  1.8891 -1.0149  2.1929
 8674SOL    HW237659   2.040   3.275   6.753 -1.9544  0.5555  1.0126
 8675SOL     OW37660   3.175   1.770   2.538 -0.1336  0.0722 -0.5479
 8675SOL    HW137661   3.155   1.747   2.629 -2.3166 -1.4214 -1.4000
 8675SOL    HW237662   3.256   1.720   2.528  1.6760  2.5011  1.8811
 8676SOL     OW37663   1.977   1.990   0.815  0.2754  0.7202 -0.1640
 8676SOL    HW137664   1.885   2.016   0.816  0.3301  0.8929  0.5006
 8676SOL    HW237665   1.966   1.903   0.854 -3.5955  0.5447 -1.6465
 8677SOL     OW37666   0.809   4.514  17.565 -0.6172 -0.4761  0.5945
 8677SOL    HW137667   0.736   4.525  17.504  0.1587 -1.5205 -0.5071
 8677SOL    HW237668   0.812   4.419  17.567  0.8777 -0.4463  0.0629
 8678SOL     OW37669   1.394   3.838  14.645  0.3131  0.3835 -0.1661
 8678SOL    HW137670   1.370   3.873  14.731  3.5527 -0.3720  1.0247
 8678SOL    HW237671   1.335   3.884  14.584 -0.0945  0.9975  0.7022
 8679SOL     OW37672   0.735   0.809   6.773  0.1417  0.1725  0.0344
 8679SOL    HW137673   0.815   0.849   6.739 -0.1479  0.3462 -0.4429
 8679SOL    HW237674   0.705   0.885   6.822 -0.2787  0.1779 -0.2235
 8680SOL     OW37675   4.387   2.630   4.476  0.0317 -0.0717 -0.3027
 8680SOL    HW137676   4.390   2.651   4.382  0.8889  0.4332 -0.1542
 8680SOL    HW237677   4.354   2.540   4.483  0.6585 -0.3063 -0.3861
 8681SOL     OW37678   3.637   4.730   8.556  0.4415  0.0197 -0.4313
 8681SOL    HW137679   3.699   0.033   8.614  0.1260  0.2784 -0.2866
 8681SOL    HW237680   3.568   4.712   8.620  0.1115 -0.8166 -1.0247
 8682SOL     OW37681   2.316   1.954  10.284 -0.1046 -0.6024  0.4755
 8682SOL    HW137682   2.301   2.029  10.342  3.9793 -0.0927  0.8825
 8682SOL    HW237683   2.385   1.982  10.223  0.1405  0.8518  1.4159
 8683SOL     OW37684   1.041   3.150   7.852  0.1496 -0.8992 -0.0903
 8683SOL    HW137685   0.959   3.100   7.848  0.1889 -0.8654 -1.3881
 8683SOL    HW237686   1.057   3.164   7.759  0.6335  2.4542  0.5017
 8684SOL     OW37687   0.603   4.255   8.920  0.3860  0.4410 -0.5265
 8684SOL    HW137688   0.539   4.207   8.868  0.7461  1.7098 -2.1485
 8684SOL    HW237689   0.552   4.290   8.993  2.1052  0.7877  0.5192
 8685SOL     OW37690   3.106   0.883  10.913 -0.1504 -0.5468  0.0602
 8685SOL    HW137691   3.178   0.907  10.854 -0.0210 -0.6737  0.1684
 8685SOL    HW237692   3.045   0.837  10.856  1.2083 -0.5430 -1.3995
 8686SOL     OW37693   3.988   4.385  11.182 -0.8033 -0.3388  0.3046
 8686SOL    HW137694   4.032   4.464  11.151 -1.9962  0.4075  0.5069
 8686SOL    HW237695   4.028   4.386  11.269  0.2542  0.8643 -0.1921
 8687SOL     OW37696   2.363   2.383   8.013 -0.1003  0.0585 -0.3804
 8687SOL    HW137697   2.374   2.357   8.105 -1.3993  0.9909  0.0408
 8687SOL    HW237698   2.450   2.418   7.998 -0.6059  2.2692  1.8433
 8688SOL     OW37699   2.002   3.616   3.608 -0.1621  0.2407  0.1108
 8688SOL    HW137700   1.923   3.657   3.572  0.9820 -0.5702 -3.2423
 8688SOL    HW237701   2.052   3.697   3.596  0.8318 -0.7648 -2.4030
 8689SOL     OW37702   2.402   3.664   2.753  0.2040 -0.1182 -0.4367
 8689SOL    HW137703   2.433   3.576   2.729 -0.2490 -0.1882 -0.7540
 8689SOL    HW237704   2.392   3.699   2.664  0.6495 -0.6412 -0.6968
 8690SOL     OW37705   1.406   2.199  17.339  0.4723 -0.4679 -0.3376
 8690SOL    HW137706   1.314   2.217  17.319  0.6709  1.6480  0.5713
 8690SOL    HW237707   1.429   2.121  17.289  0.4006 -1.8730  1.8296
 8691SOL     OW37708   1.350   1.139   7.613  0.3044  0.6304 -0.1919
 8691SOL    HW137709   1.393   1.091   7.543  2.9409  0.8947  1.2462
 8691SOL    HW237710   1.392   1.225   7.616  1.4067 -0.0038  2.8499
 8692SOL     OW37711   3.949   0.750   2.802  0.4065 -0.4712  0.5321
 8692SOL    HW137712   4.042   0.752   2.825  1.2646  0.9387 -2.9517
 8692SOL    HW237713   3.905   0.716   2.880  1.2583 -0.5802  0.9659
 8693SOL     OW37714   3.818   4.008   4.473 -0.1100  0.2180 -0.3953
 8693SOL    HW137715   3.880   4.079   4.490 -0.7301  0.7556 -0.4107
 8693SOL    HW237716   3.863   3.946   4.415  2.4164  1.7620 -0.1045
 8694SOL     OW37717   3.418   1.566   0.278  0.7047 -0.1870 -0.1756
 8694SOL    HW137718   3.478   1.556   0.352  0.4651  0.6924  0.1350
 8694SOL    HW237719   3.335   1.529   0.308  0.1921  1.9336  1.0158
 8695SOL     OW37720   0.316   3.947  17.401 -0.0812  0.0171 -0.6815
 8695SOL    HW137721   0.332   3.919  17.311  0.8410  2.9260 -1.4539
 8695SOL    HW237722   0.395   3.920  17.447 -1.0743 -0.3200  0.8155
 8696SOL     OW37723   1.849   1.197   4.588 -0.2173  0.3929  0.2710
 8696SOL    HW137724   1.804   1.252   4.525  2.2009  3.8151  1.5255
 8696SOL    HW237725   1.914   1.152   4.534  0.9102  2.0899  0.2492
 8697SOL     OW37726   1.341   1.083   5.084  0.5372  0.1545  0.7445
 8697SOL    HW137727   1.321   1.169   5.121 -0.2105  0.4476 -0.3445
 8697SOL    HW237728   1.436   1.090   5.074  0.7920 -2.2564  1.3581
 8698SOL     OW37729   3.230   0.153   7.225  0.1255 -0.3250  0.2550
 8698SOL    HW137730   3.209   0.070   7.267 -0.5914  1.3030  3.1441
 8698SOL    HW237731   3.322   0.139   7.201 -0.5648 -1.2448 -1.7911
 8699SOL     OW37732   0.705   0.967  12.685 -0.1927 -0.2987  0.3776
 8699SOL    HW137733   0.747   1.052  12.689 -0.0695 -0.4345  2.0477
 8699SOL    HW237734   0.629   0.992  12.633  1.8871  0.0206 -2.4409
 8700SOL     OW37735   1.210   2.384   2.290  0.3490  0.4406 -0.1338
 8700SOL    HW137736   1.155   2.313   2.323  0.6889  0.3330  0.2094
 8700SOL    HW237737   1.290   2.332   2.277 -1.0515 -1.4476 -1.1882
 8701SOL     OW37738   2.865   2.117  17.579 -0.7720  0.7435 -0.6538
 8701SOL    HW137739   2.825   2.046  17.528  2.1885 -0.7790 -0.8878
 8701SOL    HW237740   2.950   2.118  17.534 -0.3851 -0.7568  0.0647
 8702SOL     OW37741   0.905   3.425  12.105 -0.3173 -0.2419  0.0120
 8702SOL    HW137742   0.924   3.429  12.199 -0.1855 -0.6037  0.0022
 8702SOL    HW237743   0.831   3.365  12.104  0.0823 -0.7127 -1.1387
 8703SOL     OW37744   2.830   2.036  12.629  0.2442 -0.8686 -0.8891
 8703SOL    HW137745   2.772   2.097  12.585 -0.5461 -0.5141  0.6348
 8703SOL    HW237746   2.763   1.971  12.647 -1.5177  0.8483 -1.2451
 8704SOL     OW37747   3.550   0.297   5.744 -0.5825  0.2452  0.4864
 8704SOL    HW137748   3.503   0.219   5.774  2.6322 -2.3259 -1.1855
 8704SOL    HW237749   3.613   0.304   5.816  0.3279 -1.3649 -0.1652
 8705SOL     OW37750   1.805   3.162  10.857  0.0666  0.1237 -0.1757
 8705SOL    HW137751   1.834   3.247  10.890  1.5749 -0.9737  1.3550
 8705SOL    HW237752   1.865   3.100  10.898 -0.1684  0.4535  0.6715
 8706SOL     OW37753   2.616   2.341   6.351  0.8185 -0.0846 -0.1377
 8706SOL    HW137754   2.592   2.421   6.398 -0.4310 -1.6845  1.9393
 8706SOL    HW237755   2.568   2.273   6.398 -1.0366  1.3236 -0.0039
 8707SOL     OW37756   2.886   3.186   6.036 -1.2453 -0.1078  0.4696
 8707SOL    HW137757   2.968   3.154   6.073 -1.1113 -0.2034  0.0858
 8707SOL    HW237758   2.896   3.155   5.946  0.9263  0.0358  0.6599
 8708SOL     OW37759   0.903   0.613   2.573  0.2746  0.7301  0.5308
 8708SOL    HW137760   0.811   0.622   2.598  0.0617 -0.8711  0.3023
 8708SOL    HW237761   0.934   0.545   2.632 -1.7250  0.2497  1.0053
 8709SOL     OW37762   0.503   1.832   5.972  0.1357  0.5374 -0.2967
 8709SOL    HW137763   0.568   1.762   5.968  0.1379  0.6161 -1.7218
 8709SOL    HW237764   0.432   1.798   6.026 -0.5662  0.9856 -0.9362
 8710SOL     OW37765   1.229   0.966  16.448  0.2592 -0.1691  0.1829
 8710SOL    HW137766   1.178   0.908  16.391  0.9773  0.1594 -0.7896
 8710SOL    HW237767   1.264   1.023  16.379 -1.8042 -2.5266 -2.8088
 8711SOL     OW37768   1.754   3.860  15.720  0.1524 -0.0615 -0.0874
 8711SOL    HW137769   1.824   3.817  15.670  1.8270  1.9616  0.5462
 8711SOL    HW237770   1.808   3.931  15.755  1.2774 -0.2911 -1.3295
 8712SOL     OW37771   2.422   4.196   7.683  1.0413  0.0502 -0.0878
 8712SOL    HW137772   2.484   4.127   7.661 -0.2433 -0.5092 -1.8645
 8712SOL    HW237773   2.361   4.202   7.609  0.8956  1.3388  0.1340
 8713SOL     OW37774   3.340   4.111  15.623 -0.0358 -0.5878 -0.4979
 8713SOL    HW137775   3.419   4.057  15.630 -0.4834 -1.3055 -1.0747
 8713SOL    HW237776   3.283   4.083  15.694 -0.8084 -0.3646 -1.0324
 8714SOL     OW37777   3.543   2.929   8.467 -0.0641  0.3325 -0.2420
 8714SOL    HW137778   3.462   2.936   8.517  0.4521  2.5303  0.2914
 8714SOL    HW237779   3.602   2.936   8.542 -0.0802 -0.8099 -0.1252
 8715SOL     OW37780   3.724   3.002   9.239 -0.1365 -0.0608 -0.1741
 8715SOL    HW137781   3.816   2.976   9.247 -0.7327 -2.1192 -0.1511
 8715SOL    HW237782   3.716   3.050   9.322 -0.4743  0.8473 -0.7358
 8716SOL     OW37783   2.620   2.213  15.457  0.6218  0.3727  0.7516
 8716SOL    HW137784   2.654   2.123  15.455  2.2055  0.9517  2.2639
 8716SOL    HW237785   2.531   2.182  15.439  0.2655 -0.0719  3.3711
 8717SOL     OW37786   2.717   1.551   4.893 -0.4804 -0.2332  0.5562
 8717SOL    HW137787   2.759   1.571   4.809 -0.1730  0.4872  0.8838
 8717SOL    HW237788   2.643   1.505   4.853  0.4156  0.8012 -2.3134
 8718SOL     OW37789   1.548   4.029   9.338 -0.2476  0.1087  0.3316
 8718SOL    HW137790   1.478   3.966   9.322  1.1968 -1.9058  1.9531
 8718SOL    HW237791   1.604   4.025   9.260 -0.3256 -2.3356  0.3964
 8719SOL     OW37792   0.323   3.799   8.820  0.3981 -0.0999  0.1722
 8719SOL    HW137793   0.350   3.707   8.822  1.0122  0.1007  1.1569
 8719SOL    HW237794   0.385   3.842   8.879  0.2153 -0.5918  0.7223
 8720SOL     OW37795   2.696   1.260   3.671  0.1742 -0.3483 -0.2309
 8720SOL    HW137796   2.644   1.189   3.634  0.0141 -0.2947 -0.1086
 8720SOL    HW237797   2.782   1.217   3.669 -0.0379 -0.7639 -0.3479
 8721SOL     OW37798   3.369   3.149   9.377 -0.2950 -0.4988  0.1072
 8721SOL    HW137799   3.460   3.175   9.391 -0.7979  0.6234  1.2944
 8721SOL    HW237800   3.385   3.069   9.327  0.7895 -1.2667  1.6919
 8722SOL     OW37801   0.086   4.053   2.817 -0.2326  0.2169  0.8845
 8722SOL    HW137802   0.072   4.087   2.728  0.9833 -1.4130  0.0740
 8722SOL    HW237803   0.016   4.097   2.866  1.1280  1.0192  2.0991
 8723SOL     OW37804   3.054   4.355   0.437 -0.5506  0.0068  0.0587
 8723SOL    HW137805   2.968   4.314   0.425  0.3982 -2.0028  0.0655
 8723SOL    HW237806   3.031   4.443   0.468  2.2410  0.4519  0.8537
 8724SOL     OW37807   1.091   4.540   8.744  0.1091 -0.3339  0.5459
 8724SOL    HW137808   1.003   4.505   8.749 -0.3826  0.9816  1.1332
 8724SOL    HW237809   1.071   4.625   8.706  2.5325 -0.1594 -0.3204
 8725SOL     OW37810   0.240   4.253  17.221 -0.3212 -0.3186 -0.0139
 8725SOL    HW137811   0.297   4.215  17.154 -1.7582 -2.7459  0.1150
 8725SOL    HW237812   0.171   4.285  17.165 -1.0431 -0.2560  0.9082
 8726SOL     OW37813   0.108   4.443   7.049  0.2363  0.5075  0.0733
 8726SOL    HW137814   0.016   4.431   7.074  0.4154  0.8141  0.8774
 8726SOL    HW237815   0.111   4.413   6.959  0.2008 -1.0816  0.6018
 8727SOL     OW37816   2.333   1.916   2.389  0.1546  0.0887 -0.2576
 8727SOL    HW137817   2.377   1.883   2.311  0.4430  1.1275 -0.5407
 8727SOL    HW237818   2.262   1.970   2.353 -0.2711 -0.3050 -0.0001
 8728SOL     OW37819   3.889   4.287  16.485 -0.2068  0.0219  0.1167
 8728SOL    HW137820   3.882   4.295  16.580  0.2790  0.0340  0.1516
 8728SOL    HW237821   3.984   4.288  16.472 -0.3220 -0.1153 -0.7192
 8729SOL     OW37822   0.857   3.618   8.139  0.1405 -0.2197  0.0021
 8729SOL    HW137823   0.809   3.681   8.086 -0.1431 -1.5059 -1.2518
 8729SOL    HW237824   0.855   3.554   8.069 -1.2507  0.5643 -0.6735
 8730SOL     OW37825   3.703   2.255   9.883 -0.7697 -0.2152  0.3563
 8730SOL    HW137826   3.717   2.349   9.872  2.7045 -0.6988  0.5022
 8730SOL    HW237827   3.778   2.207   9.847  0.3926  2.8700 -1.2727
 8731SOL     OW37828   3.910   0.175   0.142 -0.1908 -0.7547 -0.4732
 8731SOL    HW137829   3.939   0.210   0.226 -1.1662 -1.0464 -0.0099
 8731SOL    HW237830   3.994   0.147   0.106  1.0372  0.7120  1.2810
 8732SOL     OW37831   4.078   0.401  14.102 -0.2569 -0.1280 -0.2403
 8732SOL    HW137832   4.115   0.420  14.016 -0.6641  1.3804 -0.0773
 8732SOL    HW237833   4.142   0.452  14.152 -2.5552 -0.1464  2.7318
 8733SOL     OW37834   3.531   4.464   4.853 -0.1078 -0.0842  0.0527
 8733SOL    HW137835   3.575   4.389   4.814  0.9345  1.0723 -0.9766
 8733SOL    HW237836   3.483   4.501   4.780 -0.7002 -0.0512  0.4594
 8734SOL     OW37837   0.510   4.042  13.611 -0.1002 -0.2630  0.0599
 8734SOL    HW137838   0.498   3.961  13.661  1.7298 -0.6046 -0.0293
 8734SOL    HW237839   0.563   4.095  13.671  0.2457 -0.1018 -0.3843
 8735SOL     OW37840   0.891   3.308   7.353 -0.6239 -0.2033  0.3421
 8735SOL    HW137841   0.899   3.362   7.432  1.9867 -1.0040  0.6026
 8735SOL    HW237842   0.979   3.314   7.318 -0.0500  2.5362  2.2173
 8736SOL     OW37843   0.859   1.020  15.500  0.3385 -0.6615 -0.0950
 8736SOL    HW137844   0.772   1.000  15.466 -0.5465  2.6963  0.1559
 8736SOL    HW237845   0.902   0.936  15.516 -1.6728 -1.5560  0.6376
 8737SOL     OW37846   4.192   2.784   2.574  0.6099  0.3581 -0.0227
 8737SOL    HW137847   4.281   2.773   2.542  1.2359 -0.7085  2.0638
 8737SOL    HW237848   4.140   2.797   2.494  0.8405  1.1075 -0.0473
 8738SOL     OW37849   1.845   4.081   9.586 -0.3319  0.0659  0.0751
 8738SOL    HW137850   1.899   4.036   9.651 -0.4779  0.3678  0.4035
 8738SOL    HW237851   1.827   4.171   9.614 -2.7199 -0.5601  0.5554
 8739SOL     OW37852   3.992   1.948   7.743  0.5377  0.3279  0.1560
 8739SOL    HW137853   3.911   1.987   7.711  1.0031  0.5591 -0.7554
 8739SOL    HW237854   3.981   1.939   7.837 -0.7906 -1.0810 -0.1367
 8740SOL     OW37855   0.306   3.438   2.186 -0.1059 -0.2806  0.6655
 8740SOL    HW137856   0.256   3.506   2.141 -1.1626 -2.7071 -1.7948
 8740SOL    HW237857   0.379   3.492   2.216 -0.8890  0.4200  1.3270
 8741SOL     OW37858   0.595   1.218  10.443 -0.0579 -0.1740 -0.1313
 8741SOL    HW137859   0.525   1.282  10.429  0.5377  0.5123  0.0525
 8741SOL    HW237860   0.548   1.137  10.422  0.9435 -1.1838  1.4924
 8742SOL     OW37861   4.305   2.474   2.405  0.3212  0.1496 -0.3068
 8742SOL    HW137862   4.218   2.452   2.371  0.5677 -0.6953 -0.3942
 8742SOL    HW237863   4.292   2.446   2.496  0.7739  1.2529  0.0936
 8743SOL     OW37864   4.458   2.126   2.317 -0.1969 -0.0977 -1.3175
 8743SOL    HW137865   4.454   2.210   2.271 -1.5160  0.2515 -0.5756
 8743SOL    HW237866   4.364   2.113   2.331  0.3448 -1.6133  0.8325
 8744SOL     OW37867   3.176   1.574   5.432  0.2102  0.0858  0.2566
 8744SOL    HW137868   3.190   1.532   5.347  2.0384 -2.0244  1.5877
 8744SOL    HW237869   3.175   1.494   5.485  1.1657  0.9780  1.5971
 8745SOL     OW37870   1.347   3.407   4.707 -0.0245 -0.4686  0.4590
 8745SOL    HW137871   1.363   3.480   4.767  2.7421 -2.1905  1.8128
 8745SOL    HW237872   1.267   3.447   4.672 -1.2920 -2.4436  1.0323
 8746SOL     OW37873   4.482   3.077   4.360  0.1777  0.0863  0.5066
 8746SOL    HW137874   4.458   3.164   4.393  1.6823  0.7842 -0.2134
 8746SOL    HW237875   4.577   3.070   4.364  0.0856 -0.7486  1.1437
 8747SOL     OW37876   4.445   1.948   3.212  0.5130  0.1294 -0.1465
 8747SOL    HW137877   4.404   2.034   3.201  1.6421  0.1642 -4.0676
 8747SOL    HW237878   4.535   1.982   3.220  0.8161 -0.7828  0.2754
 8748SOL     OW37879   1.807   0.248   1.673 -0.1311  0.5359 -0.2267
 8748SOL    HW137880   1.714   0.245   1.652 -0.1121  1.2278 -0.4063
 8748SOL    HW237881   1.811   0.340   1.701  0.1496 -0.4517  3.0438
 8749SOL     OW37882   1.836   3.389  16.621  0.5682  0.4395 -0.7541
 8749SOL    HW137883   1.751   3.361  16.656 -0.0155 -1.1248 -3.4064
 8749SOL    HW237884   1.811   3.472  16.581 -3.1021  0.2145  1.0513
 8750SOL     OW37885   2.735   4.474   9.739 -0.1801 -0.2657  0.0423
 8750SOL    HW137886   2.669   4.538   9.712 -0.3325 -0.0481  0.9102
 8750SOL    HW237887   2.766   4.522   9.815  2.7086 -1.7374 -0.2150
 8751SOL     OW37888   1.055   3.874   5.821  0.1627 -0.1496  0.3950
 8751SOL    HW137889   0.962   3.894   5.805 -0.1582 -1.0759  1.0995
 8751SOL    HW237890   1.082   3.832   5.740  1.0998 -0.4136  0.8501
 8752SOL     OW37891   0.899   1.771   8.836 -0.2567  0.5867 -0.3465
 8752SOL    HW137892   0.856   1.842   8.885  1.0891  1.9265 -1.0873
 8752SOL    HW237893   0.987   1.768   8.874 -1.0045 -3.8979  1.0651
 8753SOL     OW37894   4.355   0.218   5.563  0.2461  0.0865  0.4549
 8753SOL    HW137895   4.433   0.215   5.508  0.9956  0.3717  1.4765
 8753SOL    HW237896   4.287   0.258   5.510 -0.4356  1.6247  2.4719
 8754SOL     OW37897   1.325   3.935   9.056  0.1162 -0.2525  0.2717
 8754SOL    HW137898   1.295   3.968   9.140 -1.7393 -1.6047  0.1261
 8754SOL    HW237899   1.363   4.014   9.017 -1.4898  1.0356  1.3639
 8755SOL     OW37900   3.035   3.427   3.998  0.5494  0.2606  0.3602
 8755SOL    HW137901   3.102   3.414   3.931 -0.6556 -0.7827 -0.6496
 8755SOL    HW237902   3.089   3.469   4.064  0.2941  1.0317  0.0730
 8756SOL     OW37903   0.619   0.454   6.946  0.0716  0.3593  0.5534
 8756SOL    HW137904   0.568   0.379   6.916  1.3103  0.0331 -0.7688
 8756SOL    HW237905   0.661   0.477   6.863 -0.5468  2.1837  0.7469
 8757SOL     OW37906   4.490   3.409  15.471  0.0664 -0.0723 -0.1080
 8757SOL    HW137907   4.562   3.360  15.431 -0.7757 -0.6934 -0.8595
 8757SOL    HW237908   4.545   3.473  15.518 -1.6858 -0.4231  2.3774
 8758SOL     OW37909   3.120   2.935   0.057  0.6030 -0.1495 -0.0462
 8758SOL    HW137910   3.213   2.912   0.052  0.3631 -1.0150 -0.6325
 8758SOL    HW237911   3.080   2.886  17.744  0.6678 -1.0427  0.5221
 8759SOL     OW37912   4.098   4.451   1.573 -0.2023 -0.7706 -0.3504
 8759SOL    HW137913   4.104   4.510   1.498 -0.8431 -1.1523 -0.7019
 8759SOL    HW237914   4.022   4.397   1.552 -0.4549 -0.0012 -1.4075
 8760SOL     OW37915   1.276   1.959   6.443 -0.3436 -0.2760  0.8247
 8760SOL    HW137916   1.235   1.885   6.488  0.1949 -0.4661  0.9999
 8760SOL    HW237917   1.211   2.028   6.460 -0.0894  0.1173  0.2068
 8761SOL     OW37918   3.805   1.907   7.351  0.5654  0.3620  0.6840
 8761SOL    HW137919   3.885   1.930   7.304  0.1558 -1.3127 -0.8703
 8761SOL    HW237920   3.746   1.980   7.333 -0.4933 -0.5753  0.3085
 8762SOL     OW37921   1.255   1.420   3.745 -0.2284 -0.0710  0.0629
 8762SOL    HW137922   1.214   1.504   3.724  1.1077  0.3256 -0.9715
 8762SOL    HW237923   1.332   1.451   3.792 -0.4114  0.5899 -0.0739
 8763SOL     OW37924   0.679   2.598  10.869  0.2952 -0.2043 -0.2299
 8763SOL    HW137925   0.645   2.612  10.781 -0.3020 -0.4628 -0.0404
 8763SOL    HW237926   0.613   2.648  10.918 -0.6777 -0.9856 -0.7459
 8764SOL     OW37927   0.174   0.897  13.308  0.5397 -0.4144 -0.4885
 8764SOL    HW137928   0.169   0.992  13.297  0.4622 -0.5480 -1.5589
 8764SOL    HW237929   0.217   0.863  13.230  0.7212  1.2131 -1.0924
 8765SOL     OW37930   0.571   4.474  11.114  0.0706 -0.1453  0.1485
 8765SOL    HW137931   0.493   4.420  11.125 -1.1768  1.5102 -0.5585
 8765SOL    HW237932   0.596   4.449  11.025  0.4643  2.5441 -0.5209
 8766SOL     OW37933   3.349   0.869   7.670 -0.6520  0.1708 -0.2807
 8766SOL    HW137934   3.387   0.860   7.582  0.3118 -1.7536  0.3267
 8766SOL    HW237935   3.350   0.778   7.700 -1.3391  0.9946  2.2033
 8767SOL     OW37936   0.350   1.003  11.302  0.0705 -0.6521  0.4943
 8767SOL    HW137937   0.410   0.991  11.228  1.6480  1.0124  1.5181
 8767SOL    HW237938   0.270   1.022  11.253  0.8446  0.0753 -0.4942
 8768SOL     OW37939   4.337   4.376   0.204 -0.3146  0.5702 -0.0635
 8768SOL    HW137940   4.373   4.465   0.210  2.6648 -0.6956  1.2552
 8768SOL    HW237941   4.294   4.376   0.290 -1.4708 -0.1973 -0.6507
 8769SOL     OW37942   2.597   2.922  11.297 -0.5256 -0.2745 -0.0368
 8769SOL    HW137943   2.648   3.002  11.284  1.4112 -1.7681 -1.6386
 8769SOL    HW237944   2.660   2.862  11.258  0.1970 -1.2974  2.6633
 8770SOL     OW37945   0.468   0.507   2.072 -0.6005 -0.2051 -0.1454
 8770SOL    HW137946   0.455   0.436   2.136 -2.7104  0.5062  0.2179
 8770SOL    HW237947   0.400   0.476   2.012 -2.4871  0.3618  1.6771
 8771SOL     OW37948   2.379   0.467   8.072 -0.2273 -0.2631  0.9687
 8771SOL    HW137949   2.338   0.383   8.051  1.0515 -0.6907  0.1868
 8771SOL    HW237950   2.354   0.516   7.994 -0.2136 -0.7824  0.6391
 8772SOL     OW37951   0.191   1.558   5.684 -0.1804 -0.4601  0.1150
 8772SOL    HW137952   0.260   1.523   5.628  2.3383  2.6694  1.2850
 8772SOL    HW237953   0.135   1.604   5.621  0.2214  1.7999  1.4054
 8773SOL     OW37954   3.825   1.948  10.979 -0.1582  0.2502  0.3982
 8773SOL    HW137955   3.860   2.032  10.948 -0.1819 -0.0796 -0.5263
 8773SOL    HW237956   3.839   1.958  11.073  1.7217  0.3258  0.1236
 8774SOL     OW37957   1.488   4.684  17.046  0.2258 -0.7996  0.0333
 8774SOL    HW137958   1.479   0.019  16.989 -0.6543 -2.4189 -1.9733
 8774SOL    HW237959   1.560   4.640  17.001  0.1912 -0.0940 -0.7061
 8775SOL     OW37960   3.413   2.588   6.253  0.1756 -0.2266 -0.3236
 8775SOL    HW137961   3.430   2.676   6.220 -1.7241  0.7416  1.2714
 8775SOL    HW237962   3.432   2.532   6.178  1.0214 -0.9040  0.3961
 8776SOL     OW37963   0.135   3.620   7.851  0.1457  0.0545 -0.1093
 8776SOL    HW137964   0.055   3.576   7.823  1.1567 -1.2364 -1.0066
 8776SOL    HW237965   0.126   3.708   7.817 -1.5646 -0.1084 -0.0584
 8777SOL     OW37966   2.157   3.745   4.315  0.4427 -0.0938  0.0548
 8777SOL    HW137967   2.200   3.663   4.338 -0.3814 -0.3427  0.6858
 8777SOL    HW237968   2.102   3.700   4.251  1.2000  0.9476 -1.3307
 8778SOL     OW37969   1.692   1.975  17.245 -0.0383  0.4622  0.1744
 8778SOL    HW137970   1.711   1.884  17.269 -0.6255  0.6424  1.2973
 8778SOL    HW237971   1.610   1.970  17.195 -0.8652 -2.8125  1.8791
 8779SOL     OW37972   1.486   3.218  14.679  0.2755  0.0169  0.9893
 8779SOL    HW137973   1.406   3.192  14.634 -0.8380  1.3617  2.2124
 8779SOL    HW237974   1.512   3.285  14.616 -0.6935  0.4080  1.0169
 8780SOL     OW37975   2.651   1.336   4.194 -0.1623  0.6333  1.0623
 8780SOL    HW137976   2.638   1.355   4.101  1.2924 -0.3989  0.6439
 8780SOL    HW237977   2.566   1.298   4.218  0.1285 -0.6367  0.0752
 8781SOL     OW37978   2.161   3.880   8.499 -0.3151  0.2089  0.0870
 8781SOL    HW137979   2.211   3.961   8.509 -0.4441  0.3349 -0.3118
 8781SOL    HW237980   2.197   3.829   8.572  2.9159  0.7490 -1.1370
 8782SOL     OW37981   2.556   0.162  10.527 -0.5808  0.3335 -0.1972
 8782SOL    HW137982   2.508   0.108  10.465 -0.2823 -1.5627  1.2254
 8782SOL    HW237983   2.538   0.126  10.614  0.5593 -1.5746 -0.7619
 8783SOL     OW37984   1.680   1.178   3.892 -1.2851  0.0657 -0.4788
 8783SOL    HW137985   1.701   1.245   3.826 -0.0802 -1.0797 -1.2406
 8783SOL    HW237986   1.765   1.176   3.935 -0.8694  0.7450 -1.2584
 8784SOL     OW37987   0.075   3.379   3.823 -0.3640  0.3394  0.9231
 8784SOL    HW137988   0.130   3.358   3.899  0.3251  1.6300  0.7819
 8784SOL    HW237989   4.731   3.360   3.863 -1.8574  5.5344  0.3167
 8785SOL     OW37990   4.195   0.759   6.656  0.0314 -0.1283  0.2360
 8785SOL    HW137991   4.174   0.724   6.570  0.1719 -1.0043  0.5601
 8785SOL    HW237992   4.127   0.730   6.717 -0.7209 -0.0676 -0.5835
 8786SOL     OW37993   4.603   3.309   3.160 -0.1289  0.2247 -0.1128
 8786SOL    HW137994   4.645   3.393   3.179 -1.0505  0.8180 -0.7404
 8786SOL    HW237995   4.563   3.285   3.244 -1.6569 -0.9183 -1.1620
 8787SOL     OW37996   2.757   2.918   3.470 -0.0173  0.5289  0.4486
 8787SOL    HW137997   2.714   2.939   3.387  0.4946  0.2324  0.1110
 8787SOL    HW237998   2.748   2.995   3.527  0.1930 -1.0466  2.5840
 8788SOL     OW37999   2.731   4.237   4.827 -0.1016  0.6306 -0.4913
 8788SOL    HW138000   2.716   4.143   4.827 -0.7570  0.7333 -0.8514
 8788SOL    HW238001   2.724   4.257   4.920 -0.5941  0.9115 -0.5915
 8789SOL     OW38002   2.912   2.097   7.239  0.7870 -0.1400  0.2330
 8789SOL    HW138003   2.976   2.105   7.310 -0.1979 -2.2292  1.3232
 8789SOL    HW238004   2.848   2.165   7.259  1.1937  0.7172 -1.3435
 8790SOL     OW38005   0.394   0.216  10.764 -0.3373  0.1666 -0.6365
 8790SOL    HW138006   0.344   0.193  10.685  2.1755 -2.5170 -1.4862
 8790SOL    HW238007   0.464   0.150  10.770 -0.2330  0.4354  0.9872
 8791SOL     OW38008   1.037   0.020   8.606  0.2163  0.3063  0.2720
 8791SOL    HW138009   1.010   0.009   8.515  0.2339  0.9903  0.1778
 8791SOL    HW238010   1.089   0.101   8.613  3.5489 -1.7448 -0.6657
 8792SOL     OW38011   4.557   4.464  17.606 -0.1258 -0.3479  0.4080
 8792SOL    HW138012   4.631   4.460  17.667  0.0012 -1.8014  0.1610
 8792SOL    HW238013   4.578   4.386  17.555 -0.4929  0.7834 -1.4343
 8793SOL     OW38014   3.643   2.008  14.823  0.0268  0.0361  0.3040
 8793SOL    HW138015   3.566   1.968  14.863  0.3407 -3.0303 -2.1211
 8793SOL    HW238016   3.670   2.068  14.892 -1.5878  0.0175  0.9559
 8794SOL     OW38017   4.480   0.541  13.719  0.4352  0.2061 -0.4444
 8794SOL    HW138018   4.555   0.483  13.729  1.2625  1.5189  0.8874
 8794SOL    HW238019   4.476   0.555  13.625  0.7361  0.8624 -0.3605
 8795SOL     OW38020   2.513   4.114  15.278 -1.3379  0.0470 -0.3896
 8795SOL    HW138021   2.500   4.020  15.276 -1.5260  0.0594  0.1285
 8795SOL    HW238022   2.423   4.140  15.297 -0.3674  1.9151  1.7766
 8796SOL     OW38023   2.742   4.578   2.015  0.0809  0.5946 -0.2453
 8796SOL    HW138024   2.830   4.545   2.035 -0.5893 -0.1088  1.5053
 8796SOL    HW238025   2.724   4.638   2.088  1.9222  1.2240 -0.3145
 8797SOL     OW38026   2.142   2.019  16.983 -0.5713 -0.1939 -0.2934
 8797SOL    HW138027   2.176   2.108  16.992 -1.0394 -0.1572  1.1299
 8797SOL    HW238028   2.072   2.045  16.924 -0.7832  0.5135  0.2699
 8798SOL     OW38029   3.248   2.079   5.408  0.1215 -0.0187 -0.4670
 8798SOL    HW138030   3.275   1.997   5.366 -0.2729 -0.1853 -0.3957
 8798SOL    HW238031   3.250   2.141   5.335  1.1136 -0.5881 -0.9201
 8799SOL     OW38032   1.721   2.364   6.686  0.4732 -0.1490  0.2320
 8799SOL    HW138033   1.640   2.411   6.704  1.3229  1.3843  0.0272
 8799SOL    HW238034   1.690   2.284   6.643 -2.6144  0.2183  1.7718
 8800SOL     OW38035   3.206   3.967   3.332 -0.4342  0.0010 -0.0898
 8800SOL    HW138036   3.289   3.929   3.303 -0.0933 -0.6260  1.7141
 8800SOL    HW238037   3.236   4.050   3.369 -4.0584  1.3825 -0.2366
 8801SOL     OW38038   1.352   4.717   8.034  0.0982  0.0725 -0.1885
 8801SOL    HW138039   1.291   4.731   8.106  0.5862  2.1818 -0.2045
 8801SOL    HW238040   1.318   4.647   7.978 -1.3224 -0.4420  1.3328
 8802SOL     OW38041   3.504   2.192   8.274 -0.6088  0.1498 -0.0799
 8802SOL    HW138042   3.543   2.244   8.204  0.4739  2.8370  2.5022
 8802SOL    HW238043   3.432   2.253   8.288  0.1134  1.1214 -0.5703
 8803SOL     OW38044   2.389   0.175   1.549  0.4349 -0.1364 -0.2907
 8803SOL    HW138045   2.446   0.108   1.587 -0.8998  0.0501  2.0861
 8803SOL    HW238046   2.447   0.226   1.493 -1.9023 -0.1371 -2.6948
 8804SOL     OW38047   3.869   0.315   2.345 -0.6305  0.3281 -0.1707
 8804SOL    HW138048   3.776   0.298   2.331 -0.4952  0.3229 -1.0726
 8804SOL    HW238049   3.885   0.280   2.432  0.2304 -1.5926 -1.0791
 8805SOL     OW38050   1.249   4.216   2.920  0.4921 -0.2144 -0.0227
 8805SOL    HW138051   1.302   4.174   2.987 -0.9853 -2.0510 -0.0283
 8805SOL    HW238052   1.247   4.147   2.854  1.3100 -0.2973  0.0388
 8806SOL     OW38053   0.618   2.921  11.928 -0.2015 -0.6015 -0.3082
 8806SOL    HW138054   0.554   2.882  11.868 -1.3298  0.5158  0.1873
 8806SOL    HW238055   0.692   2.927  11.868 -0.0311  1.4380  0.1262
 8807SOL     OW38056   2.892   3.331   6.715 -0.4669 -0.0519 -0.0818
 8807SOL    HW138057   2.911   3.420   6.686 -1.1459  0.1473  0.0763
 8807SOL    HW238058   2.879   3.343   6.809 -0.5291 -1.2513  0.0637
 8808SOL     OW38059   3.157   1.743   7.963 -0.6184 -0.0906 -0.2993
 8808SOL    HW138060   3.150   1.712   7.873  0.9999  0.3089 -0.5678
 8808SOL    HW238061   3.108   1.825   7.959 -0.9558 -0.4126 -2.4002
 8809SOL     OW38062   1.627   1.280   9.866 -0.0369  0.1892 -0.5413
 8809SOL    HW138063   1.693   1.337   9.828  0.2778 -1.8820 -3.0861
 8809SOL    HW238064   1.608   1.323   9.949  4.0890  2.2016 -0.6899
 8810SOL     OW38065   3.733   3.373   2.646  0.0161 -0.2531  0.4442
 8810SOL    HW138066   3.777   3.391   2.729  1.1657  1.1101 -0.4578
 8810SOL    HW238067   3.735   3.462   2.611 -0.1156 -0.2842  0.3578
 8811SOL     OW38068   0.236   0.603   3.361  0.0688 -0.0668  0.4064
 8811SOL    HW138069   0.257   0.579   3.271  2.4274  0.9938  0.6549
 8811SOL    HW238070   0.145   0.577   3.367 -0.3114  1.6401  2.2569
 8812SOL     OW38071   4.325   3.189  15.543  0.0345 -0.3155 -0.3254
 8812SOL    HW138072   4.350   3.281  15.535 -0.8201  0.1078  1.9136
 8812SOL    HW238073   4.243   3.200  15.591 -0.7020 -1.2845 -1.3732
 8813SOL     OW38074   4.702   2.059   1.443  0.6660 -0.3566 -0.1258
 8813SOL    HW138075   4.730   2.011   1.521 -1.4804  0.2488  1.0193
 8813SOL    HW238076   4.699   2.150   1.472 -0.1864 -0.1928 -0.7225
 8814SOL     OW38077   0.401   4.663  15.087 -0.0478 -0.0614  0.7012
 8814SOL    HW138078   0.345   4.634  15.158 -0.6289  0.4855  0.4658
 8814SOL    HW238079   0.488   4.636  15.117  0.3774  2.3481  1.6547
 8815SOL     OW38080   1.387   4.713   2.452  0.4740 -0.2555  0.0998
 8815SOL    HW138081   1.378   4.623   2.422  1.5911 -0.2024 -0.3864
 8815SOL    HW238082   1.462   4.693   2.507  0.7606 -0.4487 -0.3707
 8816SOL     OW38083   2.750   4.353   2.535  0.7187  0.2933 -0.2213
 8816SOL    HW138084   2.753   4.264   2.568  2.0187 -0.7138 -3.0422
 8816SOL    HW238085   2.668   4.385   2.573 -0.8011  0.0458 -3.3065
 8817SOL     OW38086   1.361   2.231   6.377  0.2111 -0.1894 -0.2122
 8817SOL    HW138087   1.404   2.148   6.356  0.1582 -0.4154  0.5739
 8817SOL    HW238088   1.354   2.247   6.471 -0.0886 -0.4763 -0.1908
 8818SOL     OW38089   0.290   1.261  16.142 -0.3382 -0.6802 -0.0860
 8818SOL    HW138090   0.274   1.175  16.103  0.4747 -0.5356 -0.7457
 8818SOL    HW238091   0.236   1.311  16.080 -1.1989 -0.1082  1.1280
 8819SOL     OW38092   4.649   2.910   7.125 -0.1358 -0.0137  0.0359
 8819SOL    HW138093   4.588   2.945   7.190  2.0983  2.5628  0.7502
 8819SOL    HW238094   4.587   2.916   7.052  0.1956 -0.3427 -0.2730
 8820SOL     OW38095   2.116   3.611  13.117 -0.1499 -0.0894 -0.0431
 8820SOL    HW138096   2.139   3.522  13.145  1.9331  0.4231 -0.0862
 8820SOL    HW238097   2.023   3.605  13.137 -0.5363  2.9745 -0.8996
 8821SOL     OW38098   1.361   4.664   3.237  0.5092  0.3408  0.1513
 8821SOL    HW138099   1.336   4.611   3.313 -0.3392 -0.5545 -0.7474
 8821SOL    HW238100   1.280   4.710   3.214  1.3520  0.9596 -1.4961
 8822SOL     OW38101   1.067   3.627   8.715 -0.0064 -0.2692 -0.1737
 8822SOL    HW138102   1.028   3.699   8.764 -0.2018 -0.1047 -0.5677
 8822SOL    HW238103   1.142   3.672   8.677  0.0222 -0.3383 -0.2004
 8823SOL     OW38104   3.756   1.069   7.405 -0.1859  0.2997 -0.0633
 8823SOL    HW138105   3.727   1.068   7.497  1.4562 -0.5474  0.4478
 8823SOL    HW238106   3.679   1.036   7.358  0.0670  0.2498 -0.4406
 8824SOL     OW38107   3.828   1.748   2.228 -0.0074 -0.0081  0.1003
 8824SOL    HW138108   3.801   1.764   2.318 -0.1102  0.5020 -0.0218
 8824SOL    HW238109   3.769   1.810   2.185  2.0418  0.2550 -2.3152
 8825SOL     OW38110   0.806   0.805   5.044 -0.0951  0.0249  0.1469
 8825SOL    HW138111   0.829   0.791   4.952 -2.4180  2.9256 -0.8682
 8825SOL    HW238112   0.793   0.899   5.051 -0.3488 -0.0660  0.9168
 8826SOL     OW38113   0.705   2.650   5.581 -0.0803 -0.1674 -0.9609
 8826SOL    HW138114   0.721   2.578   5.642  1.8833  0.6213 -0.5386
 8826SOL    HW238115   0.703   2.608   5.495  1.1732  0.3757 -1.2461
 8827SOL     OW38116   0.610   2.851   4.856 -0.0647  0.2289  0.2177
 8827SOL    HW138117   0.669   2.824   4.926  2.9228  0.7266 -2.1362
 8827SOL    HW238118   0.638   2.787   4.791 -0.3827  0.2137  0.0973
 8828SOL     OW38119   1.650   4.287   2.511 -0.0100 -0.1216 -0.0885
 8828SOL    HW138120   1.603   4.344   2.571  1.3576 -1.1741  1.9809
 8828SOL    HW238121   1.654   4.345   2.435  0.2530 -0.4191 -0.3079
 8829SOL     OW38122   4.258   1.748   9.314 -0.5016  0.1095 -0.3550
 8829SOL    HW138123   4.282   1.680   9.250 -1.5542 -0.1519 -0.4655
 8829SOL    HW238124   4.236   1.696   9.392 -0.9915  0.0223 -0.5552
 8830SOL     OW38125   3.502   0.335   6.315  0.2633 -0.1594  0.1093
 8830SOL    HW138126   3.555   0.280   6.257 -1.8090 -1.7115 -0.3184
 8830SOL    HW238127   3.544   0.420   6.310 -0.8417  0.2904 -1.5063
 8831SOL     OW38128   2.181   2.834   9.886 -0.0261 -0.5778  0.2317
 8831SOL    HW138129   2.128   2.896   9.836  0.3653 -0.9421 -0.6387
 8831SOL    HW238130   2.107   2.793   9.930  0.8532 -0.7654  1.5100
 8832SOL     OW38131   2.023   3.704  15.201 -0.1055  0.1495  0.7891
 8832SOL    HW138132   1.980   3.696  15.115  2.0445  1.7842 -0.4562
 8832SOL    HW238133   2.060   3.791  15.187 -2.1441  0.8304 -0.4215
 8833SOL     OW38134   2.155   1.558   1.999  0.4716  0.2332 -0.8640
 8833SOL    HW138135   2.187   1.469   1.991 -1.0876 -0.4409  0.3018
 8833SOL    HW238136   2.071   1.546   2.043  1.0188  1.5487  0.5612
 8834SOL     OW38137   4.457   3.794   5.603  0.3428 -0.3378  0.6920
 8834SOL    HW138138   4.377   3.742   5.589  0.7106 -0.9501  0.8492
 8834SOL    HW238139   4.516   3.764   5.535 -0.5945  0.3516 -0.4182
 8835SOL     OW38140   3.365   2.203   7.249 -0.0624  0.1249 -1.1259
 8835SOL    HW138141   3.424   2.184   7.321 -0.5331 -0.1741 -0.8226
 8835SOL    HW238142   3.435   2.206   7.185  0.4270 -0.4581 -0.6070
 8836SOL     OW38143   4.002   3.077   4.741 -0.2993  0.7609 -0.1202
 8836SOL    HW138144   3.999   2.985   4.713 -1.6951  0.4060  1.1895
 8836SOL    HW238145   3.910   3.098   4.722 -0.0133  0.8245 -1.4510
 8837SOL     OW38146   1.499   1.374   6.922 -0.1486 -0.1961  0.1973
 8837SOL    HW138147   1.413   1.415   6.930  0.1072  0.0695  1.6488
 8837SOL    HW238148   1.477   1.290   6.882  1.6809  0.0715 -1.3177
 8838SOL     OW38149   3.098   0.156   8.276 -0.3353 -0.5413 -0.1968
 8838SOL    HW138150   3.185   0.158   8.316 -1.1242 -0.3943  1.4832
 8838SOL    HW238151   3.082   0.242   8.237  0.6601  0.3343  1.3344
 8839SOL     OW38152   4.487   2.105   6.275  0.1069 -0.0240  0.3519
 8839SOL    HW138153   4.536   2.128   6.196  0.5854  0.4519  0.7936
 8839SOL    HW238154   4.500   2.010   6.269 -1.3988 -0.3619  2.4009
 8840SOL     OW38155   2.948   0.539   8.543  0.0496 -0.1516 -0.6221
 8840SOL    HW138156   2.990   0.456   8.565 -0.8975 -0.4055  0.2380
 8840SOL    HW238157   2.895   0.507   8.469 -0.0435 -1.8450  0.1832
 8841SOL     OW38158   3.999   0.488  10.345 -0.3588 -0.1059  0.6383
 8841SOL    HW138159   3.966   0.414  10.397 -1.1030  0.4043  0.8994
 8841SOL    HW238160   3.936   0.557  10.367 -0.3553  0.2736 -0.5359
 8842SOL     OW38161   0.969   2.160   8.228  0.6732 -0.2385 -0.0531
 8842SOL    HW138162   0.911   2.084   8.223  0.4492 -0.0460 -0.4311
 8842SOL    HW238163   0.962   2.192   8.138 -0.7573 -0.3334  0.0143
 8843SOL     OW38164   2.344   2.436   6.427  0.9390 -0.0747 -0.1836
 8843SOL    HW138165   2.260   2.451   6.384  0.3922 -2.4136  0.0800
 8843SOL    HW238166   2.332   2.367   6.492 -0.4865  0.0917 -0.2771
 8844SOL     OW38167   3.925   0.902   1.115 -0.5106 -0.3342  0.6771
 8844SOL    HW138168   3.853   0.949   1.073  0.0333 -1.0190 -1.0240
 8844SOL    HW238169   4.004   0.946   1.084 -0.1643  0.3199  2.4759
 8845SOL     OW38170   4.118   4.726   0.838 -0.6142  0.0141 -0.0760
 8845SOL    HW138171   4.031   4.737   0.877 -0.8160  1.2585 -0.8704
 8845SOL    HW238172   4.177   0.042   0.887  0.5732 -1.7886  0.5776
 8846SOL     OW38173   1.441   2.790   2.779  0.0119  0.3854  0.2842
 8846SOL    HW138174   1.441   2.794   2.683 -0.5222 -2.5696  0.1596
 8846SOL    HW238175   1.349   2.767   2.796 -0.0651  1.0589  0.7724
 8847SOL     OW38176   2.952   0.309   4.242  0.8454 -0.4153 -0.2847
 8847SOL    HW138177   3.010   0.265   4.304 -0.9661 -0.4691  1.3921
 8847SOL    HW238178   2.911   0.236   4.196 -0.8011  1.6456 -2.0797
 8848SOL     OW38179   2.289   2.920  11.123 -0.0261 -0.4755  0.2057
 8848SOL    HW138180   2.362   2.947  11.067 -0.9565  1.1415 -0.2258
 8848SOL    HW238181   2.230   2.889  11.055  0.6048  1.8571 -1.3835
 8849SOL     OW38182   3.130   0.801   6.486 -0.4144  0.0048  0.0333
 8849SOL    HW138183   3.128   0.873   6.550 -1.2753  1.6790 -1.8666
 8849SOL    HW238184   3.201   0.840   6.435  2.5836 -3.3411  1.6397
 8850SOL     OW38185   3.371   4.063   1.805 -0.1705  0.6129 -0.0867
 8850SOL    HW138186   3.429   4.139   1.799  0.6960 -0.1048 -0.9011
 8850SOL    HW238187   3.436   3.993   1.814  0.3506  0.7761 -2.6290
 8851SOL     OW38188   3.343   0.110   7.690 -0.4764 -0.1060  0.1395
 8851SOL    HW138189   3.394   0.176   7.738 -3.9901  0.8038  2.5554
 8851SOL    HW238190   3.326   0.053   7.765 -0.1056 -1.9793 -1.1883
 8852SOL     OW38191   4.228   1.336   1.719  0.0947 -0.0084  0.2024
 8852SOL    HW138192   4.132   1.337   1.709  0.3542  1.9663 -2.0062
 8852SOL    HW238193   4.251   1.319   1.627 -1.6292 -2.4859  0.2237
 8853SOL     OW38194   2.955   2.635   8.772 -0.2120 -0.3459 -0.0505
 8853SOL    HW138195   2.999   2.698   8.714  1.0444 -1.7438 -0.6087
 8853SOL    HW238196   2.932   2.559   8.719 -2.9613  0.5411 -0.0801
 8854SOL     OW38197   1.068   1.175   6.465  0.3674  0.3814 -0.1528
 8854SOL    HW138198   1.103   1.222   6.540  1.1334 -0.5905  0.1104
 8854SOL    HW238199   1.149   1.138   6.430  0.4001  1.1594 -0.9088
 8855SOL     OW38200   3.595   4.554   7.234  0.2741 -0.3476  0.4100
 8855SOL    HW138201   3.665   4.490   7.221 -0.6074 -0.3932 -3.8106
 8855SOL    HW238202   3.602   4.556   7.330 -1.3563 -0.8861  0.5315
 8856SOL     OW38203   0.639   3.452   7.049  0.2291  0.2659  0.3998
 8856SOL    HW138204   0.645   3.462   6.954  3.6259 -2.2298  0.3653
 8856SOL    HW238205   0.591   3.533   7.067 -0.5064 -0.3803  1.3722
 8857SOL     OW38206   2.639   2.978   2.526  0.0431 -0.0825 -0.2475
 8857SOL    HW138207   2.569   2.992   2.590  0.6823  1.5433  0.1052
 8857SOL    HW238208   2.668   2.889   2.542  1.9395  0.3334 -1.3725
 8858SOL     OW38209   2.444   3.785   3.823 -0.5332  0.3021  0.0243
 8858SOL    HW138210   2.417   3.859   3.876  0.0585  0.2096  0.4554
 8858SOL    HW238211   2.407   3.715   3.877  1.1341 -1.3205 -0.9134
 8859SOL     OW38212   3.798   1.732  16.093  0.1813  0.0380  0.3336
 8859SOL    HW138213   3.806   1.736  16.188  0.4211 -1.0877  0.3641
 8859SOL    HW238214   3.753   1.816  16.087  0.0248 -0.1215 -0.8006
 8860SOL     OW38215   0.614   4.167   2.695 -0.2939 -0.3672 -0.1433
 8860SOL    HW138216   0.537   4.220   2.677 -0.6335 -0.0674  2.1965
 8860SOL    HW238217   0.674   4.236   2.722 -2.3661  2.3308 -2.3577
 8861SOL     OW38218   3.131   4.096   2.575 -0.0404  0.4423 -0.0788
 8861SOL    HW138219   3.050   4.056   2.606 -1.2972 -0.6962 -4.7516
 8861SOL    HW238220   3.094   4.165   2.520 -1.8213 -1.0275 -0.7437
 8862SOL     OW38221   4.551   0.422   9.164  0.3218 -0.1801 -0.4160
 8862SOL    HW138222   4.573   0.494   9.224 -0.5877  0.5050 -0.8966
 8862SOL    HW238223   4.553   0.468   9.080  1.4203 -2.1172 -1.4305
 8863SOL     OW38224   4.633   1.865   5.542 -0.5662 -0.6053  0.0372
 8863SOL    HW138225   4.614   1.798   5.607  2.8247 -1.9012 -0.3382
 8863SOL    HW238226   4.548   1.911   5.540 -2.0226 -3.3646 -1.3375
 8864SOL     OW38227   0.008   2.389  15.807 -0.0242  0.3077 -0.2362
 8864SOL    HW138228   0.089   2.353  15.771 -0.0097 -0.8423  0.9285
 8864SOL    HW238229   0.056   2.450  15.864 -0.5777 -0.5071  1.1135
 8865SOL     OW38230   3.872   3.474   1.797 -0.4356  0.0258  0.5232
 8865SOL    HW138231   3.960   3.485   1.833 -0.8444  2.4279  0.7735
 8865SOL    HW238232   3.822   3.486   1.878  0.0162  0.6954  0.7036
 8866SOL     OW38233   2.534   2.710   5.472 -0.2482 -0.8406  0.0131
 8866SOL    HW138234   2.440   2.690   5.467 -0.6392  0.8461  0.5953
 8866SOL    HW238235   2.523   2.782   5.533  0.5683 -0.2558 -0.5249
 8867SOL     OW38236   2.906   2.540   9.712  0.0469  0.6327  0.9177
 8867SOL    HW138237   2.993   2.578   9.723 -0.1342  0.8266  1.6454
 8867SOL    HW238238   2.870   2.597   9.644  0.3270  0.2326  0.4272
 8868SOL     OW38239   3.854   3.711  13.209  0.3355 -0.3597 -0.2739
 8868SOL    HW138240   3.782   3.772  13.196 -1.3770 -2.3906 -0.4133
 8868SOL    HW238241   3.925   3.765  13.175 -0.0524  0.6154  0.4879
 8869SOL     OW38242   2.495   3.424   3.775  0.3175 -0.4245 -0.4820
 8869SOL    HW138243   2.444   3.498   3.743  2.7587  0.5543 -2.1177
 8869SOL    HW238244   2.587   3.451   3.768  0.1613  0.1897 -0.1072
 8870SOL     OW38245   0.373   1.378   4.238 -0.1207 -0.0533 -0.3128
 8870SOL    HW138246   0.290   1.341   4.268 -1.1274 -0.6096 -3.8212
 8870SOL    HW238247   0.436   1.311   4.265  1.0636  1.1979  0.0363
 8871SOL     OW38248   4.397   1.715   6.451 -0.6773  0.1993 -0.1033
 8871SOL    HW138249   4.451   1.770   6.508  0.9294 -1.7220  0.2267
 8871SOL    HW238250   4.429   1.745   6.366  1.2775  0.2366  0.6410
 8872SOL     OW38251   1.817   2.944   9.472  0.2549  0.7710  0.0148
 8872SOL    HW138252   1.820   2.891   9.392 -1.1942  0.1532  0.3761
 8872SOL    HW238253   1.889   3.004   9.452 -1.0916  2.1792 -0.6101
 8873SOL     OW38254   0.727   4.496   7.578 -0.3953 -0.2247  0.2634
 8873SOL    HW138255   0.801   4.541   7.538 -0.1634 -0.1651  0.7552
 8873SOL    HW238256   0.747   4.499   7.672 -0.7133  0.6655  0.3035
 8874SOL     OW38257   0.949   3.157  11.572 -0.2230 -0.1116  0.1790
 8874SOL    HW138258   0.962   3.078  11.520  1.9204  0.7877 -0.6723
 8874SOL    HW238259   0.867   3.196  11.540 -0.3503  0.9090  1.7405
 8875SOL     OW38260   2.318   1.198   2.706  0.4065 -0.1567  0.7437
 8875SOL    HW138261   2.342   1.169   2.794  2.5440 -2.9679 -0.7780
 8875SOL    HW238262   2.319   1.293   2.717 -0.3511 -0.0793  0.0931
 8876SOL     OW38263   3.865   4.437   9.962  0.3996 -1.0039  0.0041
 8876SOL    HW138264   3.924   4.440   9.887 -0.8874 -1.2141 -1.0094
 8876SOL    HW238265   3.799   4.372   9.938 -1.3799  1.5816 -2.1121
 8877SOL     OW38266   1.502   0.083   6.338  0.3668 -0.2634 -0.2875
 8877SOL    HW138267   1.528   0.030   6.262 -1.5274  0.8855 -1.7303
 8877SOL    HW238268   1.583   0.134   6.345 -0.2345  0.4734  1.2069
 8878SOL     OW38269   2.034   3.589  10.068  0.5154  0.4308  0.2592
 8878SOL    HW138270   2.016   3.650   9.997  2.6235  2.3011  1.2990
 8878SOL    HW238271   2.106   3.540  10.028 -0.7614 -1.0779 -0.1820
 8879SOL     OW38272   2.140   1.385   3.067 -0.3529 -0.2075  0.4661
 8879SOL    HW138273   2.071   1.450   3.077 -0.0776  0.3164 -1.0206
 8879SOL    HW238274   2.098   1.307   3.103  1.0919 -2.6524 -3.1225
 8880SOL     OW38275   4.344   2.599   5.144 -0.4926 -0.2693 -0.0118
 8880SOL    HW138276   4.414   2.663   5.131 -1.8595  1.4126  0.8935
 8880SOL    HW238277   4.311   2.641   5.223 -1.7016  0.9541 -1.1669
 8881SOL     OW38278   1.065   3.423   5.668  0.0065  0.2205 -0.0647
 8881SOL    HW138279   1.087   3.333   5.645 -1.2202 -0.1861  0.3079
 8881SOL    HW238280   0.971   3.436   5.655 -0.2986  0.7577  2.5177
 8882SOL     OW38281   0.446   2.865   5.067  0.2116 -0.3391 -0.4970
 8882SOL    HW138282   0.466   2.810   4.991  0.0289 -2.4625  0.9862
 8882SOL    HW238283   0.398   2.931   5.017  0.7283  0.3641 -0.0590
 8883SOL     OW38284   3.706   2.733  17.182  0.3101 -0.4115  0.5697
 8883SOL    HW138285   3.628   2.775  17.218 -0.4660 -1.2540 -0.1220
 8883SOL    HW238286   3.756   2.705  17.259 -1.3702 -1.7607  1.1443
 8884SOL     OW38287   0.855   1.489   1.683  0.5125 -0.6015 -0.1630
 8884SOL    HW138288   0.769   1.477   1.641  0.4808 -0.1764 -0.2242
 8884SOL    HW238289   0.874   1.401   1.713 -1.3673 -1.0561 -0.2724
 8885SOL     OW38290   1.085   0.366   4.510  0.0073 -0.0793  0.9819
 8885SOL    HW138291   1.059   0.311   4.436  0.1854  0.8856  0.2012
 8885SOL    HW238292   1.008   0.365   4.566 -1.7869 -0.0542 -1.5006
 8886SOL     OW38293   0.607   2.243   3.655 -0.5889 -0.0283 -0.0412
 8886SOL    HW138294   0.537   2.304   3.678 -1.9068 -1.0287 -1.3711
 8886SOL    HW238295   0.684   2.298   3.643 -0.4032  0.1890  2.2036
 8887SOL     OW38296   1.723   2.210   1.912  0.4658  0.3982  0.2250
 8887SOL    HW138297   1.747   2.263   1.836 -0.6395 -1.9429 -1.7778
 8887SOL    HW238298   1.692   2.131   1.867  0.5389  0.5468 -0.0869
 8888SOL     OW38299   0.579   4.227   3.257 -0.2000 -0.1876  0.2435
 8888SOL    HW138300   0.560   4.146   3.305 -0.1233 -0.5427 -0.3261
 8888SOL    HW238301   0.672   4.209   3.248 -0.2485  1.1190 -2.7983
 8889SOL     OW38302   2.020   1.029   3.984  0.4525  0.3036 -0.2896
 8889SOL    HW138303   2.006   0.936   3.968  1.5280 -0.2561  2.0159
 8889SOL    HW238304   2.070   1.051   3.905 -0.1589 -0.1490 -0.8018
 8890SOL     OW38305   2.262   0.883  10.034 -0.1457 -0.0482  0.3843
 8890SOL    HW138306   2.326   0.901  10.103  1.1529  0.2168 -0.8735
 8890SOL    HW238307   2.251   0.974  10.007 -0.9151 -0.6563 -1.4021
 8891SOL     OW38308   1.958   0.175  16.739  1.0952  0.4301 -0.8730
 8891SOL    HW138309   1.971   0.212  16.826  0.8581  2.3430 -1.6572
 8891SOL    HW238310   1.927   0.252  16.692 -1.1321 -1.1936 -2.0515
 8892SOL     OW38311   3.978   0.933   8.772  0.1776  0.0498  0.6434
 8892SOL    HW138312   3.914   0.950   8.703  0.5225  2.2892  0.8606
 8892SOL    HW238313   3.967   1.011   8.827 -1.1683 -0.8951  1.7069
 8893SOL     OW38314   1.931   1.998   8.903 -0.3164 -0.2320 -0.5343
 8893SOL    HW138315   1.868   1.940   8.860  1.5948 -1.3251 -1.8096
 8893SOL    HW238316   1.998   2.001   8.835  1.9153 -2.6224  1.5726
 8894SOL     OW38317   2.259   4.503   2.974 -0.0178 -0.1160  0.1543
 8894SOL    HW138318   2.245   4.479   2.883  1.0258 -1.2761  0.2903
 8894SOL    HW238319   2.333   4.447   2.999 -0.9853 -1.6421 -0.3920
 8895SOL     OW38320   3.095   2.585   7.118 -0.3812 -0.1554  0.0699
 8895SOL    HW138321   3.028   2.636   7.162 -0.0269  1.5039 -1.3173
 8895SOL    HW238322   3.092   2.495   7.152  0.9050 -1.4621 -3.2517
 8896SOL     OW38323   0.023   2.240   5.709 -0.2012  0.1327  0.4203
 8896SOL    HW138324   4.671   2.220   5.695  0.3262 -0.3923 -2.3634
 8896SOL    HW238325   0.056   2.182   5.778 -0.1891 -0.5701 -0.1787
 8897SOL     OW38326   2.688   3.133   3.682 -0.4566 -0.3590 -0.2919
 8897SOL    HW138327   2.751   3.196   3.715  1.4099 -2.6342  0.4506
 8897SOL    HW238328   2.626   3.118   3.753  0.1178  2.2599  0.7617
 8898SOL     OW38329   2.738   0.756   2.104  0.5855  0.2035 -0.4374
 8898SOL    HW138330   2.824   0.750   2.063  1.7153 -1.1755  2.2051
 8898SOL    HW238331   2.759   0.704   2.182  1.6482  1.6631  0.2570
 8899SOL     OW38332   0.825   3.470   5.581 -0.0857 -0.3062  0.1875
 8899SOL    HW138333   0.804   3.447   5.491  0.6030  2.9091 -0.8187
 8899SOL    HW238334   0.754   3.421   5.622 -1.9243  0.9451 -1.5020
 8900SOL     OW38335   2.807   1.548   6.730  0.3260 -0.0524 -0.2995
 8900SOL    HW138336   2.791   1.486   6.659  0.1812  1.5351 -1.6355
 8900SOL    HW238337   2.825   1.484   6.799  0.8300 -1.3602 -1.6392
 8901SOL     OW38338   2.273   0.871   9.736 -0.3247  0.2907  0.4002
 8901SOL    HW138339   2.267   0.833   9.823  0.4888 -1.2393 -0.2107
 8901SOL    HW238340   2.313   0.954   9.761  1.1131 -0.3933  0.3748
 8902SOL     OW38341   2.519   1.401   2.587  0.1530  0.8148  0.0604
 8902SOL    HW138342   2.561   1.316   2.604 -1.4771  0.3312  1.6411
 8902SOL    HW238343   2.538   1.452   2.665 -1.3301 -0.5040  1.2744
 8903SOL     OW38344   0.452   4.550   7.725 -0.0716  0.2086  0.1943
 8903SOL    HW138345   0.394   4.474   7.721 -1.8646  1.5473  0.6572
 8903SOL    HW238346   0.520   4.521   7.665  0.4669 -0.7288  1.2606
 8904SOL     OW38347   0.467   4.702  12.471 -0.1743 -0.7535 -0.4733
 8904SOL    HW138348   0.561   4.707  12.487 -0.0840  0.4188 -1.3716
 8904SOL    HW238349   0.451   4.608  12.462 -0.7772 -0.9470  2.6014
 8905SOL     OW38350   3.445   1.512   2.323  0.8050 -0.5942 -0.2240
 8905SOL    HW138351   3.468   1.419   2.325 -0.5545 -0.9558 -1.1627
 8905SOL    HW238352   3.350   1.504   2.317  0.7525  0.0442 -0.2688
 8906SOL     OW38353   0.826   4.162   8.354 -0.0484  0.0883  0.3059
 8906SOL    HW138354   0.765   4.148   8.426 -0.1534 -2.3767 -0.2548
 8906SOL    HW238355   0.844   4.069   8.336  1.3481  0.5448 -0.7200
 8907SOL     OW38356   1.304   4.322   4.443 -0.2635  0.3540  0.1674
 8907SOL    HW138357   1.375   4.331   4.380 -1.3453  2.1300 -0.8110
 8907SOL    HW238358   1.232   4.274   4.402  0.1791  0.4332 -0.7139
 8908SOL     OW38359   0.914   1.776  13.400  0.1661  0.6419 -0.0243
 8908SOL    HW138360   0.992   1.800  13.450  0.2101  0.1272  0.1540
 8908SOL    HW238361   0.928   1.682  13.413 -1.6243  0.3133 -0.4855
 8909SOL     OW38362   0.089   2.508   8.159 -0.7359 -0.2001  0.1060
 8909SOL    HW138363   0.016   2.474   8.210 -0.1096  0.5841  1.5558
 8909SOL    HW238364   0.066   2.601   8.164 -0.6993 -0.2477  1.2519
 8910SOL     OW38365   1.268   3.929   3.018 -0.3717 -0.7329  0.4126
 8910SOL    HW138366   1.180   3.916   2.982  0.4531 -0.0604 -1.8618
 8910SOL    HW238367   1.319   3.863   2.971 -0.2970  0.5604 -1.3298
 8911SOL     OW38368   1.635   2.401   1.309 -0.0123 -0.0421  0.5171
 8911SOL    HW138369   1.598   2.482   1.343 -0.6526  0.8266 -2.1938
 8911SOL    HW238370   1.713   2.393   1.364  0.9299  1.9811 -0.5215
 8912SOL     OW38371   0.664   0.869   4.216  0.2676 -0.2573 -0.0599
 8912SOL    HW138372   0.733   0.808   4.242  0.9287 -0.6567 -2.6905
 8912SOL    HW238373   0.706   0.914   4.142  2.6966  0.1389  1.5475
 8913SOL     OW38374   0.350   2.611   7.970 -0.5757  0.2410 -0.1260
 8913SOL    HW138375   0.341   2.553   8.045 -0.4655  1.8032  1.0926
 8913SOL    HW238376   0.372   2.691   8.018  1.6746 -0.7112  0.4423
 8914SOL     OW38377   3.020   0.870   3.377  0.1967  1.2341 -0.0768
 8914SOL    HW138378   2.970   0.887   3.297 -0.8693 -0.9947  0.1127
 8914SOL    HW238379   3.041   0.778   3.365 -1.2700  0.8676  0.1127
 8915SOL     OW38380   0.715   4.468   6.563  0.6659  0.4503 -0.6010
 8915SOL    HW138381   0.775   4.399   6.595 -1.6568 -0.3692  1.9514
 8915SOL    HW238382   0.683   4.500   6.647 -1.1546 -2.2891 -0.2558
 8916SOL     OW38383   1.833   2.779   4.543 -0.0076  0.0753 -0.3129
 8916SOL    HW138384   1.851   2.848   4.479  1.0791  0.9876  0.9744
 8916SOL    HW238385   1.874   2.817   4.622  1.0469 -1.5543 -0.0744
 8917SOL     OW38386   1.691   3.346   3.589 -0.3261  0.6781 -1.0588
 8917SOL    HW138387   1.688   3.400   3.510 -2.5198 -0.0460 -1.4771
 8917SOL    HW238388   1.619   3.286   3.566 -0.4600  1.3366 -2.3637
 8918SOL     OW38389   0.608   2.358  12.295 -0.1766 -0.0516 -0.1927
 8918SOL    HW138390   0.701   2.368  12.274  0.7946 -2.0571  3.1015
 8918SOL    HW238391   0.607   2.361  12.390  0.8567  2.5014 -0.2619
 8919SOL     OW38392   0.697   0.332   8.471  0.4485  0.6039 -0.2289
 8919SOL    HW138393   0.767   0.397   8.460  0.6887 -0.0438 -2.5977
 8919SOL    HW238394   0.742   0.255   8.436 -0.8662  0.0963 -0.7756
 8920SOL     OW38395   2.138   1.728   5.396  0.7750 -0.1718 -0.2696
 8920SOL    HW138396   2.217   1.781   5.407  0.6159 -0.1814  0.9051
 8920SOL    HW238397   2.165   1.656   5.339 -0.5775  0.1652 -1.3205
 8921SOL     OW38398   3.871   2.946   1.835  0.0565  0.4455 -0.1622
 8921SOL    HW138399   3.949   2.894   1.853 -1.4260 -1.6635  0.1125
 8921SOL    HW238400   3.891   2.988   1.751  1.1553  0.2496 -0.0005
 8922SOL     OW38401   3.701   3.845   6.193  0.0200  0.0364 -0.2426
 8922SOL    HW138402   3.787   3.826   6.155  0.1121 -0.4456  0.2052
 8922SOL    HW238403   3.705   3.806   6.281  0.8170  2.6126  0.8561
 8923SOL     OW38404   1.436   1.975   9.150  0.0939  0.0994  0.2748
 8923SOL    HW138405   1.348   1.968   9.187  0.3644 -2.3483  0.4633
 8923SOL    HW238406   1.423   2.033   9.075  0.7466  0.0308  0.1078
 8924SOL     OW38407   3.344   3.905  15.389  0.3867  0.1996 -0.6264
 8924SOL    HW138408   3.333   3.840  15.320 -1.4282 -1.3700  1.1519
 8924SOL    HW238409   3.254   3.911  15.421  0.6444 -1.4704  0.4323
 8925SOL     OW38410   2.158   2.724   7.241  0.3588  0.3605 -0.6102
 8925SOL    HW138411   2.149   2.818   7.258 -0.9586  0.0916  0.2224
 8925SOL    HW238412   2.065   2.709   7.222 -0.5929  3.5123  1.5437
 8926SOL     OW38413   2.480   2.960   5.618 -0.1483  0.2868  0.2772
 8926SOL    HW138414   2.421   2.961   5.694 -0.6407 -0.0014 -0.1044
 8926SOL    HW238415   2.556   2.992   5.667  1.1335  0.1557 -1.6237
 8927SOL     OW38416   4.331   2.241   1.325  0.1682  0.1110  0.1902
 8927SOL    HW138417   4.305   2.163   1.374 -1.7214  0.2723 -0.5691
 8927SOL    HW238418   4.275   2.244   1.248  0.7391 -0.1865 -0.2355
 8928SOL     OW38419   3.798   4.090   1.878  0.1192  0.5457  0.2190
 8928SOL    HW138420   3.802   4.124   1.789  1.2923  2.0662  0.8621
 8928SOL    HW238421   3.779   4.162   1.937  1.2757  0.2014  1.0110
 8929SOL     OW38422   2.651   2.721  17.288 -0.0717  0.0713  0.4827
 8929SOL    HW138423   2.703   2.770  17.352  1.0400  0.5001 -0.7417
 8929SOL    HW238424   2.579   2.783  17.277  1.2730  1.4406 -0.6538
 8930SOL     OW38425   2.431   1.737   6.562 -0.0643  0.4633 -0.5801
 8930SOL    HW138426   2.406   1.653   6.600  1.1779  0.1997 -0.3335
 8930SOL    HW238427   2.526   1.731   6.569 -0.0425  0.7575 -0.6226
 8931SOL     OW38428   2.917   3.852   6.954  0.6526 -0.0938  0.2105
 8931SOL    HW138429   2.909   3.930   6.900 -1.0731 -0.1408  0.4255
 8931SOL    HW238430   2.827   3.819   6.954  0.5236  0.2886 -2.4313
 8932SOL     OW38431   1.196   1.020  17.431 -0.6303  0.1715 -0.1867
 8932SOL    HW138432   1.286   0.999  17.452 -0.6330  0.5815  0.2283
 8932SOL    HW238433   1.171   1.087  17.494 -0.2980 -0.0222  0.1489
 8933SOL     OW38434   1.109   3.081   4.018  0.1354 -0.2586 -0.1731
 8933SOL    HW138435   1.120   3.150   3.953  2.2767  0.0316  0.5044
 8933SOL    HW238436   1.162   3.115   4.090 -0.4281  0.0762  0.0880
 8934SOL     OW38437   4.400   0.829   8.703  0.8120  0.3136  0.5984
 8934SOL    HW138438   4.466   0.837   8.635 -0.9005  1.6215 -0.9063
 8934SOL    HW238439   4.448   0.865   8.778  0.9892  3.2836 -0.9319
 8935SOL     OW38440   1.620   3.163   6.186 -0.2149  0.1657  0.5763
 8935SOL    HW138441   1.615   3.132   6.276  0.8047 -4.6228 -0.9943
 8935SOL    HW238442   1.711   3.191   6.181 -0.9233  2.2633 -0.7147
 8936SOL     OW38443   2.247   2.235   6.591 -0.1850 -0.3788 -0.6803
 8936SOL    HW138444   2.216   2.223   6.681 -0.7810 -0.1959 -0.8636
 8936SOL    HW238445   2.162   2.233   6.547 -1.4052  2.1998  1.5856
 8937SOL     OW38446   1.923   0.518   5.394  0.1531  0.3672  0.5955
 8937SOL    HW138447   1.972   0.492   5.316  0.1895 -1.1462  1.1220
 8937SOL    HW238448   1.895   0.435   5.434 -2.5792  0.7880 -0.4254
 8938SOL     OW38449   1.737   1.928   0.521 -0.3152 -0.9199 -0.0842
 8938SOL    HW138450   1.688   1.993   0.470 -2.2266 -1.2223  1.3348
 8938SOL    HW238451   1.703   1.842   0.495 -0.5106 -1.2322  1.2044
 8939SOL     OW38452   4.637   1.637   3.930 -0.0360  0.6285 -0.1654
 8939SOL    HW138453   4.718   1.586   3.941 -0.5371  0.6644  3.7750
 8939SOL    HW238454   4.577   1.591   3.988  0.5132 -0.6499 -0.6231
 8940SOL     OW38455   4.056   2.511   5.856 -0.4171 -0.3171  0.2396
 8940SOL    HW138456   4.052   2.493   5.762  2.3412 -0.6996  0.2107
 8940SOL    HW238457   4.146   2.543   5.851 -0.6210  0.5863  2.2787
 8941SOL     OW38458   3.244   3.138   2.952  0.4889 -0.2194 -0.5330
 8941SOL    HW138459   3.189   3.216   2.962  0.1369 -0.8393  2.3451
 8941SOL    HW238460   3.205   3.103   2.872 -1.8323  0.3726  0.3465
 8942SOL     OW38461   0.479   0.979   5.836  0.0129  0.0972 -0.4534
 8942SOL    HW138462   0.448   0.961   5.747 -1.8436  1.2096 -0.0332
 8942SOL    HW238463   0.451   1.069   5.848 -1.6202 -0.3582 -0.7736
 8943SOL     OW38464   3.813   1.904  11.691  0.1492  0.1764 -0.4238
 8943SOL    HW138465   3.797   1.902  11.597  1.2875  0.4626 -0.6224
 8943SOL    HW238466   3.851   1.991  11.699  0.6901 -0.2480  1.6924
 8944SOL     OW38467   4.621   1.060   1.943 -0.7195  0.0651  0.0421
 8944SOL    HW138468   4.709   1.078   1.911 -1.8669 -0.0199 -3.1978
 8944SOL    HW238469   4.622   1.002   2.019 -1.1312  0.4882  0.3739
 8945SOL     OW38470   0.120   0.675   0.535 -0.0647 -0.0343  0.8522
 8945SOL    HW138471   0.104   0.734   0.608 -0.3370  1.2506 -0.2593
 8945SOL    HW238472   0.134   0.590   0.577  1.1664 -0.0441  0.4086
 8946SOL     OW38473   1.212   3.459   9.395 -0.3308 -0.4622  0.2393
 8946SOL    HW138474   1.305   3.482   9.387 -1.1491  0.9134 -5.5521
 8946SOL    HW238475   1.183   3.548   9.413 -1.0668 -0.9172  1.3023
 8947SOL     OW38476   4.150   4.665  10.617 -0.4104  0.0038  0.8516
 8947SOL    HW138477   4.077   4.692  10.673 -2.1590  1.0976 -1.9490
 8947SOL    HW238478   4.208   4.620  10.679  2.2220  2.8010  0.3938
 8948SOL     OW38479   4.657   0.335   7.231  0.2431 -0.2202  0.0182
 8948SOL    HW138480   4.600   0.365   7.160  1.3903 -0.9563 -1.2192
 8948SOL    HW238481   4.605   0.260   7.259  2.2720 -0.8764  2.0115
 8949SOL     OW38482   4.693   0.173  14.839 -0.1925  0.3569 -0.2768
 8949SOL    HW138483   4.645   0.221  14.907  2.6415  0.9057  1.3349
 8949SOL    HW238484   4.623   0.125  14.797 -1.7366  0.8472  1.7301
 8950SOL     OW38485   1.099   3.914  15.428 -0.3925  0.6782  0.4654
 8950SOL    HW138486   1.149   3.938  15.506  1.5527  0.7750 -0.8224
 8950SOL    HW238487   1.156   3.928  15.353 -0.3491 -1.4998  0.0765
 8951SOL     OW38488   0.195   1.179   6.684  0.2325  0.6565 -0.0677
 8951SOL    HW138489   0.129   1.122   6.644 -0.8969  0.0384  2.6458
 8951SOL    HW238490   0.260   1.110   6.696 -1.5356 -1.0027  0.0355
 8952SOL     OW38491   4.415   0.401   8.652 -0.3045  0.6726 -0.6493
 8952SOL    HW138492   4.446   0.314   8.627  2.9112  0.5542  3.8078
 8952SOL    HW238493   4.494   0.452   8.636  0.4907 -0.1968  0.5121
 8953SOL     OW38494   0.951   0.212   9.251 -0.4630 -0.0931  0.4718
 8953SOL    HW138495   0.978   0.130   9.291  0.4605 -0.0963 -0.1620
 8953SOL    HW238496   1.036   0.257   9.252 -1.2435  1.3852  1.4214
 8954SOL     OW38497   2.617   0.576  13.189  0.0555  0.4473 -0.7483
 8954SOL    HW138498   2.614   0.531  13.104  3.4864  0.8213 -1.0823
 8954SOL    HW238499   2.682   0.522  13.234 -1.2904  0.2566  0.9439
 8955SOL     OW38500   3.045   1.758   9.428 -0.0843  0.7450  0.0688
 8955SOL    HW138501   3.001   1.840   9.449  0.6061  0.7394  1.5056
 8955SOL    HW238502   3.032   1.703   9.505 -1.0590  1.1409  0.1850
 8956SOL     OW38503   1.693   2.124   6.560 -0.1846  0.3959 -0.0458
 8956SOL    HW138504   1.760   2.088   6.618  0.7043  1.5566 -0.3609
 8956SOL    HW238505   1.688   2.057   6.492  1.4326 -2.1342  2.3240
 8957SOL     OW38506   1.606   4.502   6.321 -0.3307  0.0325 -0.1836
 8957SOL    HW138507   1.572   4.500   6.410  0.9915  2.4320  0.3512
 8957SOL    HW238508   1.697   4.527   6.337 -0.2231  0.5300 -1.5417
 8958SOL     OW38509   2.093   4.389   8.083 -0.3420 -0.3662 -1.0175
 8958SOL    HW138510   2.050   4.432   8.009  0.6231 -0.8962 -1.8794
 8958SOL    HW238511   2.152   4.463   8.099 -1.6697  0.5650 -0.3956
 8959SOL     OW38512   4.186   2.280   4.754  0.1069 -0.1283 -0.0983
 8959SOL    HW138513   4.106   2.326   4.730  1.5994  2.8643  0.7065
 8959SOL    HW238514   4.239   2.349   4.795 -1.1048  1.4634 -1.2119
 8960SOL     OW38515   2.604   3.842   5.100 -0.0944  0.5070  0.6405
 8960SOL    HW138516   2.513   3.844   5.073 -0.0331  0.4932  0.4337
 8960SOL    HW238517   2.605   3.912   5.167 -0.4379  1.1996 -0.0824
 8961SOL     OW38518   4.191   2.925   9.444 -0.5683  0.2626 -0.7662
 8961SOL    HW138519   4.262   2.988   9.456 -1.1410  0.6477  0.6495
 8961SOL    HW238520   4.234   2.855   9.494  1.1583  1.1531 -1.0128
 8962SOL     OW38521   1.848   4.632   5.881  0.2087 -0.6940 -0.4455
 8962SOL    HW138522   1.770   4.616   5.935  0.7404 -1.0369  0.2280
 8962SOL    HW238523   1.904   4.659   5.954 -1.3274  1.3976 -0.0443
 8963SOL     OW38524   4.707   2.482   6.935 -0.1603 -0.2485 -0.2368
 8963SOL    HW138525   4.731   2.574   6.949 -0.7192 -0.2437  0.7088
 8963SOL    HW238526   4.669   2.484   6.848 -3.1871  0.8158  1.1293
 8964SOL     OW38527   2.545   1.283   5.035  0.5351  0.1297  0.1642
 8964SOL    HW138528   2.521   1.374   5.015  2.2803  0.6956  0.6230
 8964SOL    HW238529   2.553   1.246   4.948 -2.1496  0.2103 -0.1080
 8965SOL     OW38530   1.603   3.855  13.010  0.0711  0.2654  0.2759
 8965SOL    HW138531   1.571   3.778  13.057  1.5835 -0.8367 -0.5321
 8965SOL    HW238532   1.694   3.859  13.037  0.2353 -1.4125 -0.0390
 8966SOL     OW38533   3.432   3.547   4.821  0.1205 -0.5089  0.0030
 8966SOL    HW138534   3.525   3.545   4.845  0.3022 -0.5802 -0.6907
 8966SOL    HW238535   3.384   3.566   4.901 -1.3357  0.0224 -0.9872
 8967SOL     OW38536   3.271   0.861  13.167 -0.5357  0.4000 -0.1525
 8967SOL    HW138537   3.249   0.775  13.202 -1.1050 -0.1687 -1.9155
 8967SOL    HW238538   3.198   0.910  13.205 -0.3931 -2.1334  3.3853
 8968SOL     OW38539   2.589   2.096  13.183  0.3675 -0.2155  0.5990
 8968SOL    HW138540   2.662   2.137  13.136 -0.5321  1.0441  0.3283
 8968SOL    HW238541   2.591   2.007  13.147 -0.9575  0.7796 -1.9250
 8969SOL     OW38542   3.886   2.208   8.198 -0.0566  0.1200 -0.0258
 8969SOL    HW138543   3.949   2.237   8.132  0.8287 -0.0520  0.7481
 8969SOL    HW238544   3.831   2.287   8.198  0.7211  0.6604 -0.4307
 8970SOL     OW38545   1.577   2.655   0.096  0.1065  0.3744  0.3378
 8970SOL    HW138546   1.607   2.737   0.135 -1.7959  1.2638 -0.0617
 8970SOL    HW238547   1.529   2.704   0.029  0.2154 -0.2987 -0.2371
 8971SOL     OW38548   2.340   2.861   8.252 -0.1027  0.4173 -0.1948
 8971SOL    HW138549   2.260   2.844   8.202  0.3613  2.1711 -1.5726
 8971SOL    HW238550   2.363   2.941   8.205 -1.7050  2.5196  2.6183
 8972SOL     OW38551   4.135   1.299   2.757  0.0437  0.4481 -0.3320
 8972SOL    HW138552   4.062   1.284   2.817 -0.1436 -0.0667 -0.6909
 8972SOL    HW238553   4.106   1.260   2.674 -0.0017 -0.9691  0.3419
 8973SOL     OW38554   1.340   2.034   8.614 -0.2326 -0.2755  0.0781
 8973SOL    HW138555   1.304   2.061   8.530 -0.6151 -1.0791 -0.0125
 8973SOL    HW238556   1.267   2.064   8.669  0.6052  0.2504  0.9090
 8974SOL     OW38557   3.029   2.954  11.896  0.3950 -0.1302 -0.2229
 8974SOL    HW138558   2.986   2.904  11.826 -0.1193 -1.3119  0.9225
 8974SOL    HW238559   2.958   3.014  11.920 -1.2884 -1.3157 -2.2138
 8975SOL     OW38560   2.092   4.428   9.469  0.1098  0.3895 -0.4741
 8975SOL    HW138561   2.156   4.489   9.432  0.7830 -0.7434 -1.1668
 8975SOL    HW238562   2.100   4.452   9.561  1.1586 -1.0900 -0.1722
 8976SOL     OW38563   1.917   3.650  12.013 -0.1375  0.0193 -0.0498
 8976SOL    HW138564   1.922   3.724  11.952 -1.3545 -0.9198 -1.2990
 8976SOL    HW238565   1.931   3.573  11.959 -0.8759 -1.2641  1.6108
 8977SOL     OW38566   1.213   2.952   3.286  0.1567 -0.1346  0.0728
 8977SOL    HW138567   1.194   2.919   3.199  1.0435  2.0297 -0.9388
 8977SOL    HW238568   1.137   2.922   3.336 -0.3544  0.8463 -0.1045
 8978SOL     OW38569   0.725   2.759  16.350  0.5681 -0.2244 -0.3880
 8978SOL    HW138570   0.687   2.780  16.435  0.1684  1.1529 -0.9107
 8978SOL    HW238571   0.727   2.663  16.343  0.1000 -0.3782  1.5122
 8979SOL     OW38572   3.736   3.494   5.371 -0.2232  0.1465  0.5633
 8979SOL    HW138573   3.758   3.507   5.463  0.4328  0.7288  0.3211
 8979SOL    HW238574   3.715   3.401   5.358 -0.2600  0.3309 -0.7041
 8980SOL     OW38575   4.325   3.868   7.362 -0.2525  0.9322  0.8497
 8980SOL    HW138576   4.375   3.805   7.415 -0.3054  0.6211  0.5288
 8980SOL    HW238577   4.308   3.809   7.289  0.4531  0.6953  0.8722
 8981SOL     OW38578   0.014   2.544  12.163 -0.1068 -0.3211  0.1780
 8981SOL    HW138579   0.096   2.515  12.123  0.3733  1.2383  0.0700
 8981SOL    HW238580   0.022   2.636  12.140 -0.5540 -0.5033 -0.7212
 8982SOL     OW38581   3.519   1.328   9.587 -0.2208 -0.0846 -0.4449
 8982SOL    HW138582   3.563   1.243   9.587 -1.3066 -0.6478  2.0672
 8982SOL    HW238583   3.465   1.322   9.666 -1.7118  0.6679 -1.4003
 8983SOL     OW38584   1.630   2.168   2.366 -0.3024  0.1839  0.5639
 8983SOL    HW138585   1.681   2.181   2.286  1.4502 -1.3642  1.4181
 8983SOL    HW238586   1.550   2.127   2.336 -1.5979  0.9255  3.0303
 8984SOL     OW38587   2.356   4.426   7.046 -0.0698 -0.2798 -0.4405
 8984SOL    HW138588   2.448   4.406   7.029 -0.2545 -1.1458 -0.4096
 8984SOL    HW238589   2.321   4.413   6.958 -1.9029  3.1170 -0.2295
 8985SOL     OW38590   4.201   3.602   1.514  0.5536 -0.1460  0.7923
 8985SOL    HW138591   4.234   3.622   1.602  0.3690  1.6789  0.4386
 8985SOL    HW238592   4.237   3.515   1.500 -1.0472 -0.9123  1.4686
 8986SOL     OW38593   1.981   0.062  17.180  0.3651 -0.0586  0.3551
 8986SOL    HW138594   1.913   0.095  17.237 -0.4479 -1.4702  0.2136
 8986SOL    HW238595   1.950   4.712  17.182  3.2660 -1.0776  0.2932
 8987SOL     OW38596   1.856   3.395  10.120 -0.2369  0.6043 -0.1435
 8987SOL    HW138597   1.925   3.460  10.105 -0.8468  0.6501 -2.8187
 8987SOL    HW238598   1.838   3.372  10.029 -1.1609  1.1311 -0.0982
 8988SOL     OW38599   1.890   2.488   8.603  0.1654  0.4287  0.3835
 8988SOL    HW138600   1.874   2.475   8.510  0.0183  2.6821  0.0917
 8988SOL    HW238601   1.831   2.425   8.644 -1.8103  2.1186  0.1565
 8989SOL     OW38602   4.117   0.438   6.748  0.1936  0.0575  0.4087
 8989SOL    HW138603   4.033   0.423   6.704 -0.3195  2.4959  0.5598
 8989SOL    HW238604   4.094   0.526   6.776  0.5078  0.0434  0.7087
 8990SOL     OW38605   2.978   1.183   6.184 -0.3376  0.0255 -0.4263
 8990SOL    HW138606   2.927   1.253   6.225  1.0478  1.3940 -1.0587
 8990SOL    HW238607   2.974   1.212   6.093  0.9539  0.0911 -0.4553
 8991SOL     OW38608   1.052   1.534   7.748 -0.2021  0.3740 -0.2563
 8991SOL    HW138609   1.115   1.515   7.817 -2.0570  2.4076  2.0151
 8991SOL    HW238610   0.972   1.482   7.759 -2.3745  3.4901 -1.0511
 8992SOL     OW38611   3.942   2.386  17.214 -0.2727 -0.3732  0.1728
 8992SOL    HW138612   3.944   2.342  17.299 -0.8279 -0.7484 -0.0122
 8992SOL    HW238613   3.936   2.479  17.236  2.0826  0.4888 -2.7424
 8993SOL     OW38614   1.480   3.975   0.109  0.0155 -0.1783 -0.1602
 8993SOL    HW138615   1.490   3.886   0.142  1.0738  0.2394  0.6434
 8993SOL    HW238616   1.521   3.972   0.023 -2.9551 -0.2039 -1.5826
 8994SOL     OW38617   0.818   1.973   1.721  0.1993  0.0800  0.4442
 8994SOL    HW138618   0.823   2.027   1.642  4.2715  1.4096  1.5987
 8994SOL    HW238619   0.832   2.041   1.787 -2.4035  1.1530 -0.1152
 8995SOL     OW38620   1.518   0.599  17.109 -0.0670 -0.0486  0.4607
 8995SOL    HW138621   1.532   0.627  17.199  1.4049  1.9835 -0.4172
 8995SOL    HW238622   1.432   0.557  17.117  1.2254 -2.6554  0.8732
 8996SOL     OW38623   1.720   2.324   7.786 -0.3383  0.1318  0.1214
 8996SOL    HW138624   1.773   2.278   7.722 -0.5270  0.0938 -0.0062
 8996SOL    HW238625   1.637   2.327   7.740 -0.2078  1.4798 -0.0372
 8997SOL     OW38626   0.108   3.580  15.415  0.2504 -0.1393  0.1032
 8997SOL    HW138627   0.028   3.584  15.362 -1.5426  0.8007  2.8002
 8997SOL    HW238628   0.069   3.539  15.492 -0.0914  1.2991  0.6990
 8998SOL     OW38629   4.389   3.644   5.893  0.0295  0.2299 -0.2579
 8998SOL    HW138630   4.479   3.630   5.922  0.5787  1.6424 -1.3125
 8998SOL    HW238631   4.401   3.731   5.856 -0.9603  0.8841  0.9763
 8999SOL     OW38632   3.691   3.703  11.980  0.4488 -0.4547  0.2658
 8999SOL    HW138633   3.772   3.657  11.958 -0.1637 -0.4126 -2.1190
 8999SOL    HW238634   3.627   3.649  12.026 -1.0171 -1.4551 -2.9340
 9000SOL     OW38635   2.585   2.387   4.746  0.3669  0.0807 -0.7340
 9000SOL    HW138636   2.659   2.371   4.687  1.3315  0.0322  0.4689
 9000SOL    HW238637   2.518   2.422   4.688  0.0793  0.4924 -0.1534
 9001SOL     OW38638   3.614   2.972   7.979  0.2014 -0.5192  0.4431
 9001SOL    HW138639   3.594   3.039   7.914 -0.0177 -0.6209  0.4045
 9001SOL    HW238640   3.571   2.900   7.932  0.9669 -0.8936  0.3141
 9002SOL     OW38641   2.665   3.494   2.844  0.3351 -0.1418  0.5426
 9002SOL    HW138642   2.573   3.485   2.869  0.1831 -0.1836 -0.0263
 9002SOL    HW238643   2.712   3.518   2.924 -1.2399  0.0590  1.3943
 9003SOL     OW38644   4.568   2.403   9.442 -0.3165 -0.7754  0.2188
 9003SOL    HW138645   4.655   2.375   9.472 -0.0428 -1.5979 -1.3568
 9003SOL    HW238646   4.587   2.489   9.404 -1.1306 -0.0055  1.5822
 9004SOL     OW38647   3.386   1.905   4.674  0.5392  0.0134  0.0497
 9004SOL    HW138648   3.409   1.822   4.632 -3.5613 -1.4246  0.5997
 9004SOL    HW238649   3.469   1.950   4.663 -0.1412  1.2537 -0.0680
 9005SOL     OW38650   1.377   4.085  16.861 -0.4133  0.7862  0.2565
 9005SOL    HW138651   1.454   4.125  16.901  0.0562  1.9323 -1.8016
 9005SOL    HW238652   1.306   4.129  16.909 -0.4511 -0.6518  1.5220
 9006SOL     OW38653   2.862   1.201   2.112 -0.3133 -0.0093  0.0129
 9006SOL    HW138654   2.786   1.144   2.103  0.2160 -0.6298 -0.4641
 9006SOL    HW238655   2.807   1.277   2.131 -0.5034 -0.0607 -0.3409
 9007SOL     OW38656   3.205   3.870   0.418  0.0089 -0.6225 -0.1220
 9007SOL    HW138657   3.144   3.878   0.344  0.2859  0.7832 -0.2135
 9007SOL    HW238658   3.187   3.777   0.428  1.2761 -0.7311  1.0482
 9008SOL     OW38659   4.239   0.679   2.865 -0.4364  0.6556  0.1591
 9008SOL    HW138660   4.217   0.661   2.956 -1.0956 -1.9265 -0.5096
 9008SOL    HW238661   4.261   0.772   2.871  0.4049  0.3757  1.4847
 9009SOL     OW38662   0.998   1.145   5.044  0.1532 -0.2826  0.2519
 9009SOL    HW138663   0.918   1.170   5.091  1.6154  2.5674  1.1851
 9009SOL    HW238664   1.047   1.098   5.111  0.1008 -1.5337 -0.5866
 9010SOL     OW38665   4.433   4.069   4.567 -0.3542 -0.2213 -0.0688
 9010SOL    HW138666   4.441   4.039   4.476  1.6840  0.6217 -0.1660
 9010SOL    HW238667   4.489   4.145   4.581  0.3065 -0.9886  1.4699
 9011SOL     OW38668   2.137   3.519   0.912  0.1986  1.0379 -0.0830
 9011SOL    HW138669   2.111   3.588   0.973  0.3388  1.3195 -0.3414
 9011SOL    HW238670   2.128   3.445   0.972  0.4694 -0.5074 -1.9572
 9012SOL     OW38671   1.325   2.340   3.167 -0.3738 -0.1894 -0.0615
 9012SOL    HW138672   1.263   2.269   3.187 -1.7087  0.8425 -0.5145
 9012SOL    HW238673   1.390   2.291   3.117 -1.2364 -2.3899  0.9548
 9013SOL     OW38674   0.695   0.696   3.152 -0.1072 -0.0332 -0.1571
 9013SOL    HW138675   0.615   0.718   3.104 -1.2953 -1.8238  1.0072
 9013SOL    HW238676   0.736   0.642   3.085 -2.4779 -1.1855 -0.6669
 9014SOL     OW38677   3.338   4.525   6.776  0.1833  0.6072 -0.0629
 9014SOL    HW138678   3.391   4.446   6.765 -0.4707  0.4516 -2.0763
 9014SOL    HW238679   3.377   4.556   6.858  1.6574  2.0910 -1.3143
 9015SOL     OW38680   3.357   0.202   5.495  0.5562 -0.2506  0.1437
 9015SOL    HW138681   3.403   0.190   5.412  2.2495  2.9706  0.6029
 9015SOL    HW238682   3.364   0.296   5.512 -0.6952 -0.1140 -0.0933
 9016SOL     OW38683   0.484   1.877   6.314  0.6948 -0.0230  0.2842
 9016SOL    HW138684   0.405   1.831   6.345 -0.1682  1.5605  0.4136
 9016SOL    HW238685   0.542   1.872   6.390 -0.4060 -2.2098  0.9946
 9017SOL     OW38686   2.819   2.559  10.074 -0.1756  0.4127  0.6418
 9017SOL    HW138687   2.891   2.608  10.114 -1.2217  2.1296  0.4475
 9017SOL    HW238688   2.868   2.479  10.061  1.5923  1.3029  1.7644
 9018SOL     OW38689   0.987   0.963   8.520  0.1215 -0.1210  0.2488
 9018SOL    HW138690   1.038   1.036   8.555  2.6631 -0.8157 -1.9870
 9018SOL    HW238691   0.948   0.928   8.600  1.7783  0.4438  1.3042
 9019SOL     OW38692   0.251   3.325   7.133 -0.0916  0.1747 -0.1578
 9019SOL    HW138693   0.255   3.419   7.115  0.1180 -0.0113 -1.0642
 9019SOL    HW238694   0.159   3.307   7.115  0.3507 -2.6742  0.4696
 9020SOL     OW38695   3.295   0.545   9.128  0.1039 -0.2749  0.2051
 9020SOL    HW138696   3.283   0.620   9.070  1.4040  0.3989  0.7846
 9020SOL    HW238697   3.320   0.596   9.206  0.1218  0.8637 -0.5451
 9021SOL     OW38698   3.605   1.845   8.487  0.0981 -0.8499 -0.2326
 9021SOL    HW138699   3.665   1.837   8.561 -0.7976  0.8952  0.6743
 9021SOL    HW238700   3.639   1.929   8.456  0.5944 -1.1430 -0.4788
 9022SOL     OW38701   2.014   0.515   2.855  0.1720 -0.2749 -0.2126
 9022SOL    HW138702   2.009   0.524   2.951 -0.6502  2.3376 -0.5084
 9022SOL    HW238703   2.003   0.420   2.848 -0.5881 -0.3376  1.8601
 9023SOL     OW38704   4.483   0.512   7.030  0.6984 -0.3242 -0.0228
 9023SOL    HW138705   4.397   0.471   7.042  0.3533  0.0280 -1.2687
 9023SOL    HW238706   4.484   0.521   6.935  3.3219  1.4068  0.1996
 9024SOL     OW38707   3.712   1.234   1.859 -0.0669 -0.1238 -0.6203
 9024SOL    HW138708   3.806   1.218   1.873  0.0310  1.8662  1.0201
 9024SOL    HW238709   3.684   1.143   1.850 -1.2945  0.1675  0.3811
 9025SOL     OW38710   2.327   1.602   1.486  0.0064 -0.1910 -0.1277
 9025SOL    HW138711   2.286   1.678   1.443  0.2792  0.2371  0.3657
 9025SOL    HW238712   2.261   1.578   1.551 -1.2574 -1.0857 -1.7184
 9026SOL     OW38713   3.443   0.375   7.381 -0.0110  0.2569  0.2990
 9026SOL    HW138714   3.436   0.349   7.289 -1.2618 -1.6598  0.9394
 9026SOL    HW238715   3.459   0.289   7.419 -0.1142 -0.2351 -0.7654
 9027SOL     OW38716   3.437   3.188   5.131 -0.6377  0.3734  0.1927
 9027SOL    HW138717   3.398   3.102   5.113  0.8366 -0.4438  0.8399
 9027SOL    HW238718   3.357   3.239   5.121 -0.6635  0.0488 -1.3132
 9028SOL     OW38719   0.211   4.002  14.208 -0.3120  0.6604 -0.4392
 9028SOL    HW138720   0.270   4.050  14.149  0.8381 -1.4323 -0.9734
 9028SOL    HW238721   0.211   4.069  14.277  2.6259  0.2782 -0.0480
 9029SOL     OW38722   2.968   3.736   5.905 -0.4011 -0.1422  0.3416
 9029SOL    HW138723   2.897   3.674   5.890  1.0416 -1.5260 -0.8076
 9029SOL    HW238724   2.979   3.730   6.000  0.5942 -0.0167  0.2354
 9030SOL     OW38725   3.070   0.137   5.428  0.7223 -0.4031 -0.1675
 9030SOL    HW138726   3.159   0.171   5.438  0.8773 -0.4332 -1.4779
 9030SOL    HW238727   3.084   0.057   5.378  0.6472  0.4300 -1.5284
 9031SOL     OW38728   0.692   4.020   2.893 -0.0388 -0.6081 -0.2725
 9031SOL    HW138729   0.687   3.928   2.870 -1.3669 -0.8260  0.8742
 9031SOL    HW238730   0.637   4.062   2.828  1.3882 -0.1374 -1.1719
 9032SOL     OW38731   0.002   3.044   2.688 -0.0664 -0.1733 -0.0038
 9032SOL    HW138732   4.664   3.089   2.656 -0.0638  0.2167  0.5254
 9032SOL    HW238733   4.708   2.959   2.714  0.6613 -0.8289 -1.1663
 9033SOL     OW38734   2.665   3.878  15.031 -0.1587  0.3593  0.4018
 9033SOL    HW138735   2.602   3.841  15.093 -0.4410  0.0722 -0.0538
 9033SOL    HW238736   2.625   3.860  14.946 -0.8375  3.1889  0.1317
 9034SOL     OW38737   3.254   2.029   5.024  0.3758 -0.3086  0.1497
 9034SOL    HW138738   3.262   1.939   5.054  1.6007  0.1430  1.1656
 9034SOL    HW238739   3.251   2.022   4.929  0.0329 -0.7895  0.1985
 9035SOL     OW38740   0.936   0.385  14.307 -0.4747 -0.1232  0.1093
 9035SOL    HW138741   0.957   0.362  14.216  0.4628 -0.0650  0.3115
 9035SOL    HW238742   1.020   0.382  14.353 -0.5260 -2.3104  0.0591
 9036SOL     OW38743   2.812   3.295   9.553  0.3909  0.0902 -0.4465
 9036SOL    HW138744   2.878   3.227   9.541  0.6594  0.2632  0.0806
 9036SOL    HW238745   2.867   3.372   9.537 -1.0478  0.9550 -1.2885
 9037SOL     OW38746   2.851   2.052   3.741 -0.2063 -0.4504 -0.4142
 9037SOL    HW138747   2.815   2.115   3.679 -0.1386 -1.4260 -1.4379
 9037SOL    HW238748   2.916   2.001   3.692  2.1518  0.3920  1.8011
 9038SOL     OW38749   1.129   3.509   5.983  0.5293 -0.7312  0.0631
 9038SOL    HW138750   1.178   3.445   6.034 -2.5127 -2.0298  1.3549
 9038SOL    HW238751   1.123   3.476   5.894  0.9918  0.2584 -0.3365
 9039SOL     OW38752   2.461   2.387  15.610  0.5927 -0.8429 -0.4102
 9039SOL    HW138753   2.403   2.447  15.562  0.4017  0.6738  1.6852
 9039SOL    HW238754   2.518   2.357  15.540 -0.3531  0.1783 -1.6352
 9040SOL     OW38755   3.542   0.435   2.088  0.2456  0.3023  0.2212
 9040SOL    HW138756   3.568   0.368   2.152 -0.6348  0.9499  1.2424
 9040SOL    HW238757   3.535   0.378   2.011 -0.3928 -2.8963  2.6660
 9041SOL     OW38758   1.488   2.987   8.342 -0.0015  0.2506  0.8742
 9041SOL    HW138759   1.535   3.043   8.281  1.5928  1.0757  2.8460
 9041SOL    HW238760   1.422   2.935   8.296  0.7561 -2.6554  3.0578
 9042SOL     OW38761   1.391   3.234   9.252 -0.0494 -0.2271 -0.2283
 9042SOL    HW138762   1.449   3.255   9.325 -0.8700 -1.2861  0.7230
 9042SOL    HW238763   1.432   3.287   9.183  1.9064 -0.7310  0.5468
 9043SOL     OW38764   0.562   2.669   2.208  0.0778 -0.2933 -0.2537
 9043SOL    HW138765   0.597   2.604   2.147 -1.0357 -0.4123 -0.7637
 9043SOL    HW238766   0.589   2.742   2.153  1.3152 -0.3815  0.2334
 9044SOL     OW38767   1.766   0.212   9.627  0.2314 -0.0326 -0.7375
 9044SOL    HW138768   1.751   0.250   9.540 -2.3016  0.5936 -0.0076
 9044SOL    HW238769   1.690   0.244   9.676  0.7397 -1.2747  0.8476
 9045SOL     OW38770   3.639   3.100   3.257 -0.5961  0.3968  0.3623
 9045SOL    HW138771   3.597   3.141   3.182  0.2859  0.2367 -0.2238
 9045SOL    HW238772   3.591   3.145   3.326 -2.3021  1.0273 -1.2480
 9046SOL     OW38773   1.845   2.287   3.242  0.7534 -0.3243 -0.2868
 9046SOL    HW138774   1.784   2.282   3.169  0.6232 -1.1567 -0.1262
 9046SOL    HW238775   1.830   2.377   3.272  0.8218  0.6665 -3.2639
 9047SOL     OW38776   0.935   0.204   3.093 -0.4970  0.3203 -0.0238
 9047SOL    HW138777   0.872   0.222   3.022 -1.4131 -0.2798  0.6242
 9047SOL    HW238778   1.003   0.270   3.079 -0.0628  0.6721  3.8552
 9048SOL     OW38779   0.373   3.372   4.237 -0.6086 -0.4540  0.2765
 9048SOL    HW138780   0.335   3.454   4.269  2.5500  0.0656  2.7059
 9048SOL    HW238781   0.450   3.357   4.291 -0.8335  0.7414  0.9351
 9049SOL     OW38782   0.375   1.679   7.348 -0.2840 -0.0070 -0.3006
 9049SOL    HW138783   0.417   1.621   7.411  2.8162  2.7319  0.1619
 9049SOL    HW238784   0.290   1.636   7.354 -0.1879 -0.3136 -1.1298
 9050SOL     OW38785   4.678   4.205   6.272  0.0503 -0.1989  0.0602
 9050SOL    HW138786   4.599   4.186   6.322  0.6637 -1.0905  0.6970
 9050SOL    HW238787   0.002   4.136   6.286 -0.8616 -0.6326  2.1850
 9051SOL     OW38788   1.786   3.293  13.322 -0.3539  0.5490  0.1596
 9051SOL    HW138789   1.811   3.232  13.253 -0.1967 -0.0219  0.7215
 9051SOL    HW238790   1.798   3.232  13.396  0.6521  0.3848 -0.1442
 9052SOL     OW38791   1.375   4.277   1.649 -0.0896 -0.1195 -0.1809
 9052SOL    HW138792   1.351   4.282   1.742 -1.9485 -0.1024 -0.6495
 9052SOL    HW238793   1.466   4.306   1.653 -0.4336  1.0869 -1.0255
 9053SOL     OW38794   3.854   2.695   9.420 -0.2282  0.3516 -0.0142
 9053SOL    HW138795   3.823   2.655   9.339  1.4301 -0.7851 -0.0930
 9053SOL    HW238796   3.892   2.777   9.390  2.9427 -1.6616 -1.4642
 9054SOL     OW38797   1.719   0.295   9.329 -0.8240 -0.0117  0.3100
 9054SOL    HW138798   1.697   0.346   9.252  2.7698  0.0421 -0.6904
 9054SOL    HW238799   1.794   0.243   9.300 -1.1960  0.8751 -2.2281
 9055SOL     OW38800   0.350   1.814  13.841 -0.1416  0.2685 -0.1093
 9055SOL    HW138801   0.359   1.720  13.856  0.2687  0.3224 -0.0198
 9055SOL    HW238802   0.265   1.815  13.798 -0.4938  0.5122  0.5875
 9056SOL     OW38803   0.083   1.702   9.139  0.0202  0.0154  0.0178
 9056SOL    HW138804   0.153   1.709   9.204  0.2139  0.2278 -0.2179
 9056SOL    HW238805   0.015   1.757   9.180  0.7219 -1.1053  2.6752
 9057SOL     OW38806   4.598   4.186   3.661 -0.0638 -0.3266  0.1044
 9057SOL    HW138807   4.666   4.250   3.640 -2.1132  1.4071 -1.2570
 9057SOL    HW238808   4.600   4.196   3.756 -0.0214 -1.7047  0.2544
 9058SOL     OW38809   2.555   2.913   4.707  0.7871 -0.5535  0.8032
 9058SOL    HW138810   2.503   2.968   4.766  2.8351  1.9046  0.2632
 9058SOL    HW238811   2.645   2.939   4.727  1.1441 -0.5354 -0.8236
 9059SOL     OW38812   0.810   2.519   1.175  0.1187 -0.0363  0.9293
 9059SOL    HW138813   0.738   2.583   1.176  1.1521  1.0924  2.9989
 9059SOL    HW238814   0.766   2.449   1.127  1.2522 -1.6912  2.3255
 9060SOL     OW38815   4.046   2.214   1.626  0.0658 -0.1056  0.2573
 9060SOL    HW138816   4.106   2.267   1.573 -0.4858 -0.6147 -0.8783
 9060SOL    HW238817   4.105   2.199   1.700 -0.4670  0.6828  0.8427
 9061SOL     OW38818   2.400   0.081   6.852  0.1852 -0.6730 -0.1273
 9061SOL    HW138819   2.439   0.113   6.934 -1.0119  1.0837 -0.2336
 9061SOL    HW238820   2.311   0.067   6.883  0.0590  1.8140  0.6613
 9062SOL     OW38821   3.588   4.173   2.950  0.1576  0.4843  0.1189
 9062SOL    HW138822   3.585   4.267   2.932  1.1362  0.1106 -1.9768
 9062SOL    HW238823   3.682   4.165   2.968  0.3704 -0.0474 -1.2518
 9063SOL     OW38824   1.210   4.135   5.625 -0.1554  0.0069 -0.0090
 9063SOL    HW138825   1.287   4.097   5.668 -0.9314  0.0780  1.4414
 9063SOL    HW238826   1.214   4.229   5.641  0.7769 -0.2184  1.1075
 9064SOL     OW38827   4.282   3.902  15.322 -0.2250 -0.5097  0.1836
 9064SOL    HW138828   4.221   3.862  15.384 -1.9527  3.2073  0.8806
 9064SOL    HW238829   4.233   3.977  15.289  2.2560  0.0716 -2.1818
 9065SOL     OW38830   3.806   1.430   7.373  0.1300  0.6874  0.6202
 9065SOL    HW138831   3.763   1.355   7.332  0.4740  0.6668  0.3047
 9065SOL    HW238832   3.790   1.403   7.464 -1.2415  2.2000  0.8246
 9066SOL     OW38833   1.928   3.084  10.144  0.4206 -0.7747 -0.3943
 9066SOL    HW138834   1.843   3.096  10.101 -0.5639  2.3844  2.4380
 9066SOL    HW238835   1.939   3.167  10.190  1.6891 -1.7312  1.0423
 9067SOL     OW38836   2.957   1.426  13.351 -0.5680 -0.4824 -0.1654
 9067SOL    HW138837   3.016   1.351  13.355 -0.7251 -0.7872 -3.0738
 9067SOL    HW238838   2.873   1.382  13.342  0.5376 -2.5467 -0.3204
 9068SOL     OW38839   4.339   1.424   5.820  0.2998 -0.0001 -0.1059
 9068SOL    HW138840   4.255   1.391   5.790  1.2318 -2.3231 -0.1270
 9068SOL    HW238841   4.385   1.340   5.817  0.5653  0.1433 -0.1433
 9069SOL     OW38842   3.404   2.824  12.993  0.5232  0.0095  0.0702
 9069SOL    HW138843   3.357   2.841  13.075 -1.4397 -2.0385 -0.6109
 9069SOL    HW238844   3.387   2.897  12.934  4.2829  0.6705 -0.1566
 9070SOL     OW38845   2.804   4.033  12.514  0.0110 -0.0303  0.2970
 9070SOL    HW138846   2.801   4.009  12.607  0.2471  0.4297  0.4220
 9070SOL    HW238847   2.721   4.079  12.501 -1.2953 -3.1997 -2.5525
 9071SOL     OW38848   3.627   3.322   5.696  0.3050  0.5412 -0.2665
 9071SOL    HW138849   3.713   3.349   5.727  0.8837 -1.2662 -0.2586
 9071SOL    HW238850   3.587   3.404   5.667  2.1492  1.3967 -0.3885
 9072SOL     OW38851   3.209   4.548   3.283 -0.1288 -0.2048 -0.1478
 9072SOL    HW138852   3.150   4.516   3.215  0.0129  1.1691 -0.9198
 9072SOL    HW238853   3.237   4.467   3.325 -2.1000 -0.8738 -0.1225
 9073SOL     OW38854   3.856   1.673   8.594 -0.5517  0.0753 -0.5047
 9073SOL    HW138855   3.894   1.627   8.669 -1.2165 -0.6605 -0.6165
 9073SOL    HW238856   3.803   1.598   8.566  0.3353 -1.3399  1.5587
 9074SOL     OW38857   4.395   4.363   7.496 -0.4576  0.5462  0.7391
 9074SOL    HW138858   4.320   4.316   7.533 -0.8657  1.2858  0.8562
 9074SOL    HW238859   4.443   4.290   7.457 -1.5438  0.6802 -0.8607
 9075SOL     OW38860   2.571   1.901   4.023 -0.1099 -0.4074 -0.1546
 9075SOL    HW138861   2.538   1.823   3.977 -1.4760  2.0870 -3.4565
 9075SOL    HW238862   2.667   1.897   4.025 -0.1915 -2.3853 -0.1236
 9076SOL     OW38863   2.798   2.579   8.980  0.1677 -1.2630 -0.0225
 9076SOL    HW138864   2.862   2.601   8.913 -0.6711  0.1736 -0.3475
 9076SOL    HW238865   2.716   2.594   8.933  0.9044 -0.1728 -0.9431
 9077SOL     OW38866   2.786   3.844  14.538 -0.1950 -0.2586 -0.3006
 9077SOL    HW138867   2.797   3.768  14.480 -0.9611  0.3387 -1.2224
 9077SOL    HW238868   2.873   3.851  14.578 -0.7112  2.2919  0.3923
 9078SOL     OW38869   2.138   3.138   8.735  0.1697  0.3297 -0.0801
 9078SOL    HW138870   2.132   3.223   8.780 -2.2208 -0.4344  1.0643
 9078SOL    HW238871   2.171   3.162   8.648 -0.5095 -0.6226 -0.6002
 9079SOL     OW38872   4.311   1.451   6.563 -0.3959 -0.2173 -0.1321
 9079SOL    HW138873   4.364   1.457   6.642 -0.8574 -0.7169  0.2147
 9079SOL    HW238874   4.355   1.521   6.515  1.3661  1.3332  3.7930
 9080SOL     OW38875   4.740   1.172   8.998 -0.2005 -0.3553  0.0529
 9080SOL    HW138876   0.069   1.197   8.937 -2.3271 -0.5022 -2.4450
 9080SOL    HW238877   4.730   1.251   9.051  0.4223  1.5511 -2.6744
 9081SOL     OW38878   3.307   3.589  16.235 -0.0459 -0.7563 -0.4303
 9081SOL    HW138879   3.386   3.543  16.208  0.0768  0.1070 -1.5197
 9081SOL    HW238880   3.284   3.627  16.150 -0.1064  1.0136  0.3879
 9082SOL     OW38881   3.152   4.515  16.807  0.2210 -0.3012  0.2245
 9082SOL    HW138882   3.100   4.507  16.887 -1.0488  3.0986 -0.2792
 9082SOL    HW238883   3.089   4.561  16.752 -0.2217  1.3236  2.0939
 9083SOL     OW38884   2.537   4.392   7.985  0.1302 -0.9035 -0.1417
 9083SOL    HW138885   2.546   4.379   8.080 -1.6647  1.2410  0.3156
 9083SOL    HW238886   2.580   4.312   7.954  1.1328 -0.2936 -0.3459
 9084SOL     OW38887   3.590   2.594   8.022  0.1271 -0.4280  0.0991
 9084SOL    HW138888   3.682   2.620   8.022  0.8607 -3.0369 -1.0341
 9084SOL    HW238889   3.544   2.662   8.071 -0.4488  0.5404 -1.7857
 9085SOL     OW38890   3.530   2.825   3.275 -0.0632 -0.5371 -0.2203
 9085SOL    HW138891   3.551   2.911   3.310 -0.5615 -0.8627  0.8966
 9085SOL    HW238892   3.437   2.829   3.300  0.6029 -1.1110  2.4364
 9086SOL     OW38893   0.887   3.436   7.594 -0.0602 -0.1939 -0.3049
 9086SOL    HW138894   0.897   3.531   7.603  0.4154 -0.1032 -1.6673
 9086SOL    HW238895   0.801   3.427   7.634  0.5683 -0.1131  1.0595
 9087SOL     OW38896   1.208   1.441   4.099 -0.7083  0.0224  0.8013
 9087SOL    HW138897   1.131   1.477   4.145 -0.4686  2.0536 -0.4153
 9087SOL    HW238898   1.272   1.510   4.119  0.6277 -0.4566 -1.9095
 9088SOL     OW38899   1.108   4.308  17.697 -0.4986 -0.2179 -0.6734
 9088SOL    HW138900   1.149   4.372  17.638  0.1113  0.1840  0.1891
 9088SOL    HW238901   1.186   4.272  17.738 -1.6695 -1.7123  0.2163
 9089SOL     OW38902   2.260   1.381   7.961 -0.3236  0.2102 -0.0458
 9089SOL    HW138903   2.336   1.413   8.010 -1.7437  1.2951  1.4218
 9089SOL    HW238904   2.303   1.320   7.901 -0.0072  1.7522 -1.3782
 9090SOL     OW38905   1.281   0.650  16.950  0.1539  0.2353  0.1940
 9090SOL    HW138906   1.247   0.566  16.919 -0.3572  1.4704 -2.7008
 9090SOL    HW238907   1.210   0.680  17.007 -1.5415 -0.0615 -1.7451
 9091SOL     OW38908   4.600   0.660   2.299 -0.2940 -0.4566  0.1341
 9091SOL    HW138909   4.690   0.629   2.286 -0.0370 -0.4145  1.8745
 9091SOL    HW238910   4.553   0.591   2.252  0.6072 -0.5726 -0.6077
 9092SOL     OW38911   4.238   4.343   4.337  0.2743  0.2675 -0.3848
 9092SOL    HW138912   4.199   4.396   4.406  0.3742 -1.4990  1.0042
 9092SOL    HW238913   4.257   4.405   4.266  0.6032  0.0708 -0.4672
 9093SOL     OW38914   3.134   2.689   6.035 -0.2084 -0.1271 -0.4527
 9093SOL    HW138915   3.064   2.638   5.993  0.1359  0.3222 -1.5896
 9093SOL    HW238916   3.212   2.649   5.997  0.6303 -0.3549  1.5120
 9094SOL     OW38917   2.089   1.634  14.156  0.3430  0.1092  0.1520
 9094SOL    HW138918   2.105   1.648  14.249 -0.9242  1.3467  0.1780
 9094SOL    HW238919   1.993   1.639  14.154  0.2704 -1.6327 -1.1546
 9095SOL     OW38920   4.653   2.088   9.620  0.0499  0.7802 -0.3577
 9095SOL    HW138921   4.652   2.095   9.716 -1.9267  0.5810 -0.3675
 9095SOL    HW238922   4.562   2.069   9.598  0.4355  0.1590 -1.4004
 9096SOL     OW38923   0.422   2.094   6.168  0.2071  0.0004 -0.0781
 9096SOL    HW138924   0.487   2.077   6.100  0.1101  2.2712 -0.7302
 9096SOL    HW238925   0.446   2.024   6.229  0.6768  0.3549  0.1532
 9097SOL     OW38926   0.163   2.795  15.298 -0.2257 -0.0887 -0.4479
 9097SOL    HW138927   0.100   2.725  15.316  0.9838 -0.7386  1.3938
 9097SOL    HW238928   0.237   2.743  15.331  0.7640 -0.2141 -2.8881
 9098SOL     OW38929   2.543   1.544   8.708  0.2404  0.6683 -0.0128
 9098SOL    HW138930   2.522   1.488   8.634 -4.1456 -0.5818  2.1700
 9098SOL    HW238931   2.629   1.509   8.731 -0.2723  0.4456  1.5604
 9099SOL     OW38932   3.762   3.267   6.563  0.8829  0.6514  0.6931
 9099SOL    HW138933   3.850   3.299   6.543 -0.1648  1.4390 -2.6690
 9099SOL    HW238934   3.777   3.199   6.629  0.2199 -0.6259 -0.4983
 9100SOL     OW38935   3.692   0.893   0.223  0.4169  0.4778  0.0767
 9100SOL    HW138936   3.765   0.955   0.220 -0.0390  0.9857 -0.5713
 9100SOL    HW238937   3.741   0.812   0.235 -1.3382 -0.7423 -0.8583
 9101SOL     OW38938   2.836   3.296   6.397  0.1507  0.1588 -0.4019
 9101SOL    HW138939   2.755   3.293   6.448 -0.3739 -1.0798 -1.2977
 9101SOL    HW238940   2.897   3.288   6.471 -1.3048 -1.9300  0.5654
 9102SOL     OW38941   0.233   4.176   2.550  0.0982 -0.0569  0.1912
 9102SOL    HW138942   0.205   4.264   2.574 -1.3308 -0.2579 -0.7446
 9102SOL    HW238943   0.295   4.205   2.483 -1.8959 -0.4772 -1.8346
 9103SOL     OW38944   1.030   4.075  17.206 -0.1690  0.1835 -0.2574
 9103SOL    HW138945   0.997   4.156  17.244  0.2622  0.4344 -0.4150
 9103SOL    HW238946   1.079   4.042  17.281 -1.6860 -0.9315  0.2316
 9104SOL     OW38947   1.321   1.453  15.670 -0.0324 -0.5640  0.1692
 9104SOL    HW138948   1.334   1.485  15.759  2.2189  2.5118 -1.2806
 9104SOL    HW238949   1.291   1.534  15.630  0.0938 -1.4639 -1.7642
 9105SOL     OW38950   2.432   3.672   7.436 -0.3821 -0.3453  0.5072
 9105SOL    HW138951   2.512   3.667   7.489 -2.0689  1.7435  3.2687
 9105SOL    HW238952   2.440   3.606   7.367  1.4901  0.7993 -0.3635
 9106SOL     OW38953   4.286   3.560  14.549 -0.0235 -0.4801 -0.3160
 9106SOL    HW138954   4.255   3.488  14.604  1.3306 -1.4600 -0.8287
 9106SOL    HW238955   4.228   3.633  14.571 -1.0615 -0.7123 -2.2459
 9107SOL     OW38956   0.567   2.067   4.880  0.1086  0.0004  0.7943
 9107SOL    HW138957   0.662   2.063   4.890  0.1926  1.9506  0.8004
 9107SOL    HW238958   0.552   2.011   4.804  0.5327 -0.1583  0.8271
 9108SOL     OW38959   0.240   1.492  16.807  0.1596 -0.3267 -0.1745
 9108SOL    HW138960   0.191   1.571  16.784  0.8793  0.0124 -0.5426
 9108SOL    HW238961   0.171   1.426  16.814 -0.5977  0.4416 -0.5298
 9109SOL     OW38962   3.364   1.864   8.763 -0.1727  0.1613 -0.5284
 9109SOL    HW138963   3.307   1.939   8.781 -1.4545 -0.5263 -1.6899
 9109SOL    HW238964   3.449   1.906   8.773  0.8028 -1.9857  0.1883
 9110SOL     OW38965   0.639   0.392   3.810  0.5604 -0.5661  0.2002
 9110SOL    HW138966   0.721   0.438   3.828  1.8891 -2.3038 -1.3919
 9110SOL    HW238967   0.671   0.323   3.752  1.1745  1.3971 -1.7982
 9111SOL     OW38968   2.988   0.570   4.070  0.2095  0.0769  0.0448
 9111SOL    HW138969   2.985   0.492   4.126  0.8864 -0.1442 -0.2161
 9111SOL    HW238970   2.974   0.530   3.984 -2.1860  0.9655  0.0316
 9112SOL     OW38971   0.418   1.366  15.897 -0.2942 -0.2196  0.3805
 9112SOL    HW138972   0.401   1.457  15.921 -0.9697  0.0368 -1.0495
 9112SOL    HW238973   0.334   1.320  15.892 -0.5695  0.2870  0.3912
 9113SOL     OW38974   0.961   0.277   5.866 -0.1164  0.2569 -0.0290
 9113SOL    HW138975   0.882   0.239   5.827 -1.3905  0.2392  2.5231
 9113SOL    HW238976   1.014   0.259   5.789 -0.7856  0.6404 -0.5796
 9114SOL     OW38977   1.025   1.906   2.300 -0.8586  0.3663  0.0766
 9114SOL    HW138978   1.060   1.891   2.388 -0.0873 -0.6187 -0.3993
 9114SOL    HW238979   0.979   1.824   2.284 -2.5948  1.2360  0.6424
 9115SOL     OW38980   3.399   1.307   3.969  0.0483 -0.0836 -0.4822
 9115SOL    HW138981   3.490   1.335   3.955  0.8973 -2.2336  0.7132
 9115SOL    HW238982   3.401   1.266   4.056  0.6946 -0.2844 -0.5942
 9116SOL     OW38983   3.231   1.380   8.262  0.2628 -0.3183  0.5908
 9116SOL    HW138984   3.327   1.385   8.264  0.0908  2.5737  0.3438
 9116SOL    HW238985   3.202   1.471   8.265 -0.2358 -0.4672  0.2957
 9117SOL     OW38986   1.917   0.505   4.989 -0.1247 -0.2049  0.2268
 9117SOL    HW138987   1.969   0.509   4.909  0.2574 -1.7367  0.3875
 9117SOL    HW238988   1.838   0.462   4.955  0.5711 -3.4024  2.6752
 9118SOL     OW38989   2.721   2.323   4.499  0.3136 -0.0825 -0.1304
 9118SOL    HW138990   2.670   2.395   4.462 -0.3507  0.7871  2.4457
 9118SOL    HW238991   2.736   2.269   4.422  1.8636  0.2143 -0.0379
 9119SOL     OW38992   4.722   4.499   5.233 -0.6239 -0.0812  0.2293
 9119SOL    HW138993   0.037   4.432   5.194 -0.4742 -0.4655  1.0967
 9119SOL    HW238994   4.708   4.465   5.321  1.3282 -0.1011  0.5464
 9120SOL     OW38995   4.134   2.050   3.462  0.7587 -0.0460  0.1629
 9120SOL    HW138996   4.164   2.026   3.549  1.1023 -0.7756 -0.1516
 9120SOL    HW238997   4.084   2.130   3.475  0.9578 -0.0151  0.7234
 9121SOL     OW38998   4.187   3.117   5.650 -0.2859  0.6591 -0.5059
 9121SOL    HW138999   4.104   3.154   5.620  0.2113  1.4224 -0.9497
 9121SOL    HW239000   4.247   3.179   5.609  2.0413 -1.3586 -0.1210
 9122SOL     OW39001   3.021   2.228   6.754  0.2648  0.0148  0.1916
 9122SOL    HW139002   3.007   2.241   6.848 -0.5325 -1.6579  0.2986
 9122SOL    HW239003   3.034   2.321   6.733  0.2289 -0.0873 -0.2908
 9123SOL     OW39004   4.196   0.821   0.799 -0.1411 -0.0186  0.6836
 9123SOL    HW139005   4.160   0.888   0.858  0.5940 -0.5596  1.7536
 9123SOL    HW239006   4.248   0.772   0.863 -1.0520 -1.7761  0.0527
 9124SOL     OW39007   4.532   2.673   5.858 -0.1427  0.1120 -0.8807
 9124SOL    HW139008   4.559   2.746   5.914  0.2288  0.0742 -1.0085
 9124SOL    HW239009   4.571   2.698   5.774  0.8589 -0.6716 -0.6472
 9125SOL     OW39010   2.855   3.977   8.844 -0.1210 -0.2563  0.3828
 9125SOL    HW139011   2.908   3.917   8.897  0.9065  0.9675  0.7437
 9125SOL    HW239012   2.925   4.015   8.792  0.3173 -0.5725  0.7444
 9126SOL     OW39013   4.207   2.844   6.557  0.4063 -0.1500  0.5043
 9126SOL    HW139014   4.207   2.851   6.653  0.2122  3.8493  0.2118
 9126SOL    HW239015   4.119   2.811   6.541  0.3215 -0.0069  0.6738
 9127SOL     OW39016   1.707   1.866  16.978 -0.6531  0.0656  0.4785
 9127SOL    HW139017   1.692   1.911  17.062 -0.1628  0.9449  0.0896
 9127SOL    HW239018   1.700   1.943  16.922  0.1579  0.0129  0.3041
 9128SOL     OW39019   4.066   3.457   5.599 -0.6417  0.0217 -0.1572
 9128SOL    HW139020   4.123   3.520   5.554  1.3506 -0.7879  1.2166
 9128SOL    HW239021   4.033   3.516   5.667 -1.7800 -1.5201  0.6095
 9129SOL     OW39022   2.748   1.332   9.929  0.2003 -0.1855 -0.2433
 9129SOL    HW139023   2.783   1.368  10.011 -3.3746  1.6649  0.5082
 9129SOL    HW239024   2.656   1.360   9.926 -0.2311 -1.9129 -2.9227
 9130SOL     OW39025   2.328   0.647   6.673  0.9939 -0.1950  0.4480
 9130SOL    HW139026   2.243   0.605   6.682  0.5650  0.6504  0.2837
 9130SOL    HW239027   2.304   0.731   6.713 -0.3695  0.5346 -1.9455
 9131SOL     OW39028   2.020   1.280   8.091  0.0180  0.2958  0.4658
 9131SOL    HW139029   1.990   1.189   8.095 -2.8547  1.2308 -0.1187
 9131SOL    HW239030   2.114   1.277   8.071  0.1654  2.8529  0.8087
 9132SOL     OW39031   4.200   0.594   0.405 -0.2444 -0.6086  0.7253
 9132SOL    HW139032   4.110   0.565   0.420 -0.3845 -0.4602  0.1769
 9132SOL    HW239033   4.187   0.672   0.350 -0.5601 -0.9745  0.2814
 9133SOL     OW39034   2.693   2.650  16.594 -0.0166 -0.7781 -0.1111
 9133SOL    HW139035   2.723   2.741  16.580  0.4714 -0.7163  1.3266
 9133SOL    HW239036   2.741   2.626  16.673 -1.0261 -1.4840  0.2832
 9134SOL     OW39037   4.596   2.368   8.233  0.2048  0.2106 -0.2730
 9134SOL    HW139038   4.534   2.439   8.248 -0.9326 -0.2533 -2.7494
 9134SOL    HW239039   4.592   2.362   8.137  0.1806  0.1816 -0.2701
 9135SOL     OW39040   2.344   4.234  15.666 -0.1976  0.2352 -0.8003
 9135SOL    HW139041   2.326   4.283  15.585  1.9534 -1.4514 -2.2830
 9135SOL    HW239042   2.318   4.146  15.639  2.0625 -0.6657 -0.0491
 9136SOL     OW39043   2.791   2.648   3.844 -0.1805 -0.3020 -0.6174
 9136SOL    HW139044   2.720   2.702   3.809  0.1067 -0.0989 -0.8884
 9136SOL    HW239045   2.734   2.588   3.892 -0.1126  0.1192 -0.0125
 9137SOL     OW39046   2.687   0.636   8.609 -0.3550 -0.3687 -0.2436
 9137SOL    HW139047   2.770   0.632   8.561 -1.2725 -1.0482 -1.7949
 9137SOL    HW239048   2.707   0.711   8.665 -3.2138  0.3202 -0.1603
 9138SOL     OW39049   3.574   1.669   5.193  1.1254 -0.4408  0.3823
 9138SOL    HW139050   3.603   1.591   5.146 -0.2433 -0.2006 -0.8565
 9138SOL    HW239051   3.552   1.633   5.280  1.4394 -1.0322  0.2174
 9139SOL     OW39052   0.888   4.354   0.111 -0.6236 -0.0831  0.8448
 9139SOL    HW139053   0.936   4.339   0.193  3.5619  1.6432 -1.2740
 9139SOL    HW239054   0.961   4.346   0.050 -0.8186  1.7174  0.3876
 9140SOL     OW39055   4.282   0.702   5.418 -0.0955  0.3185 -0.4529
 9140SOL    HW139056   4.241   0.676   5.502  0.6690 -0.1496 -0.2263
 9140SOL    HW239057   4.276   0.624   5.363 -0.9040 -1.2287  1.8045
 9141SOL     OW39058   0.021   2.604  16.671 -0.5217  0.5026  0.0714
 9141SOL    HW139059   0.057   2.692  16.675  0.0556  0.2835 -0.2796
 9141SOL    HW239060   4.726   2.620  16.584 -2.8343 -0.3987  0.8561
 9142SOL     OW39061   2.372   2.559   2.265 -0.0390 -0.5774  0.0918
 9142SOL    HW139062   2.396   2.474   2.302  0.5506 -0.0883  0.8202
 9142SOL    HW239063   2.347   2.611   2.342  0.5335 -0.7656  0.4084
 9143SOL     OW39064   4.429   3.290   4.991  0.0166  0.1522 -0.0696
 9143SOL    HW139065   4.341   3.328   4.988 -0.1321 -0.1768  0.2869
 9143SOL    HW239066   4.472   3.355   5.046  1.0482  0.6226 -1.4143
 9144SOL     OW39067   1.249   0.059  17.153 -0.2081 -0.0047 -0.0553
 9144SOL    HW139068   1.284   0.102  17.231 -0.5487  1.5891 -0.7748
 9144SOL    HW239069   1.322   0.006  17.121  0.0832 -0.9538  2.1892
 9145SOL     OW39070   0.666   0.969  13.583  0.5267  0.0386 -0.3300
 9145SOL    HW139071   0.692   1.059  13.562  0.2857  0.0945 -0.3869
 9145SOL    HW239072   0.631   0.932  13.502  0.7901  0.0365 -0.4428
 9146SOL     OW39073   3.649   3.417   9.738 -0.2627  0.4470  0.0373
 9146SOL    HW139074   3.734   3.460   9.736  0.5617 -1.2255 -0.3137
 9146SOL    HW239075   3.625   3.428   9.646 -1.9249  0.5797  0.4685
 9147SOL     OW39076   4.373   3.672  10.205  0.3155  0.2618 -0.3895
 9147SOL    HW139077   4.373   3.638  10.295 -1.0464  1.0363 -0.1058
 9147SOL    HW239078   4.302   3.619  10.170 -0.6792  1.3910 -0.0866
 9148SOL     OW39079   0.077   2.359  16.719 -0.0377 -0.0003  0.5064
 9148SOL    HW139080   0.085   2.376  16.813 -0.0007 -2.1917  0.9029
 9148SOL    HW239081   0.027   2.437  16.697 -0.6890 -0.5590 -0.0226
 9149SOL     OW39082   4.589   3.131   7.797  0.5945  0.0799  0.2260
 9149SOL    HW139083   4.624   3.074   7.866  0.2307  0.1950  0.5081
 9149SOL    HW239084   4.556   3.205   7.849  0.3113  0.0247  0.1255
 9150SOL     OW39085   4.123   0.283  13.094  0.2402  0.3085 -0.0496
 9150SOL    HW139086   4.213   0.271  13.123  0.0711  0.2275  0.4395
 9150SOL    HW239087   4.118   0.363  13.043 -0.4056  0.0936 -0.3302
 9151SOL     OW39088   1.139   1.431  14.075 -0.2384  0.1800 -0.2842
 9151SOL    HW139089   1.117   1.521  14.099  0.3568  0.1530  0.3723
 9151SOL    HW239090   1.052   1.390  14.077 -0.3288  0.3337 -0.9890
 9152SOL     OW39091   3.725   0.929   8.217  0.8355  0.1150 -0.2204
 9152SOL    HW139092   3.814   0.959   8.234 -0.0955  2.4100  0.5021
 9152SOL    HW239093   3.708   0.883   8.299  1.9553  0.5475  0.2342
 9153SOL     OW39094   0.879   3.696   8.387 -0.5106 -0.2905  0.5082
 9153SOL    HW139095   0.871   3.613   8.433  0.8167 -0.5797  0.2127
 9153SOL    HW239096   0.878   3.661   8.298  0.7378 -1.2052  0.8556
 9154SOL     OW39097   4.136   3.764  14.567 -0.6055  0.2717 -0.2312
 9154SOL    HW139098   4.162   3.776  14.658  2.2332 -0.2512 -0.9593
 9154SOL    HW239099   4.190   3.834  14.529 -2.2227  1.6902  0.0835
 9155SOL     OW39100   4.141   3.011  11.051  0.4134  0.2882  0.1306
 9155SOL    HW139101   4.133   2.974  11.139  1.4964 -0.9320 -0.2817
 9155SOL    HW239102   4.227   2.976  11.029  0.5503  1.4226 -1.1108
 9156SOL     OW39103   4.109   4.737  15.442 -0.0530  0.2016 -0.0944
 9156SOL    HW139104   4.173   4.680  15.398 -1.2194 -0.6255 -0.7377
 9156SOL    HW239105   4.104   4.694  15.527  1.2067 -0.0710 -0.1552
 9157SOL     OW39106   2.969   0.207   1.356 -0.6330 -0.2006 -0.1296
 9157SOL    HW139107   3.016   0.135   1.399 -0.1234 -1.0407 -2.0832
 9157SOL    HW239108   2.994   0.191   1.265  1.5352 -0.6577  0.5561
 9158SOL     OW39109   4.484   1.135   4.016 -0.0839  0.2449  0.0066
 9158SOL    HW139110   4.527   1.213   3.981  0.2167  0.8850  1.8003
 9158SOL    HW239111   4.426   1.179   4.078 -0.2246  0.3223 -0.1820
 9159SOL     OW39112   4.461   1.369   3.770  0.2008 -0.4355  0.2915
 9159SOL    HW139113   4.447   1.405   3.857  1.2835  1.7988 -0.4612
 9159SOL    HW239114   4.551   1.339   3.782 -0.4724 -2.8961 -0.7364
 9160SOL     OW39115   3.760   2.519   8.292 -0.3622  0.7330 -0.3698
 9160SOL    HW139116   3.665   2.531   8.294 -0.4398  0.3878 -1.7278
 9160SOL    HW239117   3.774   2.452   8.358 -1.4174  1.3960  0.5361
 9161SOL     OW39118   1.432   2.817   5.675 -0.4051 -0.2630  0.1934
 9161SOL    HW139119   1.524   2.812   5.653 -0.5314 -0.7837 -0.2017
 9161SOL    HW239120   1.415   2.734   5.719 -0.4273 -1.5202 -2.2532
 9162SOL     OW39121   1.188   0.372   9.170  0.3063  0.2758  0.5813
 9162SOL    HW139122   1.282   0.375   9.185  0.7759 -2.2369 -1.8908
 9162SOL    HW239123   1.187   0.375   9.075 -1.5070  1.3510  0.6326
 9163SOL     OW39124   4.223   0.862   5.737  0.4434  0.0367 -0.1338
 9163SOL    HW139125   4.158   0.915   5.691 -0.3101 -0.7035  0.0769
 9163SOL    HW239126   4.226   0.777   5.692  1.6147 -0.5366  1.0336
 9164SOL     OW39127   0.974   3.010  11.297  0.3260  0.0973 -0.1706
 9164SOL    HW139128   0.916   3.075  11.259  0.2532 -0.6122 -1.2967
 9164SOL    HW239129   1.058   3.036  11.258  0.5967  0.2267  0.5009
 9165SOL     OW39130   1.101   1.175   3.430 -0.0840  0.3301 -0.0736
 9165SOL    HW139131   1.119   1.082   3.417  1.1696  0.0277  3.7552
 9165SOL    HW239132   1.189   1.210   3.447  0.4097 -0.4816 -1.0010
 9166SOL     OW39133   1.265   4.504   5.234 -0.3796  0.5357 -0.5224
 9166SOL    HW139134   1.342   4.557   5.257  0.5174 -0.0726 -2.1754
 9166SOL    HW239135   1.284   4.466   5.148  0.0326 -2.7706  1.0420
 9167SOL     OW39136   1.474   2.293   2.069 -0.7975  0.1580  0.1619
 9167SOL    HW139137   1.531   2.242   2.010  0.8333  0.4653  1.4742
 9167SOL    HW239138   1.452   2.364   2.009 -1.8388 -1.2476 -1.1177
 9168SOL     OW39139   3.554   0.256   1.888 -0.2422  0.2103 -0.5101
 9168SOL    HW139140   3.597   0.171   1.896  0.5791  0.8434  1.6839
 9168SOL    HW239141   3.471   0.237   1.843 -1.8038  2.6650  1.3129
 9169SOL     OW39142   1.607   3.934   9.588 -0.3821  0.4196  0.0169
 9169SOL    HW139143   1.601   3.941   9.492  1.8216 -0.1559 -0.1702
 9169SOL    HW239144   1.692   3.977   9.595 -1.1341  1.6528  1.5029
 9170SOL     OW39145   1.355   1.690   9.840  0.4233 -0.1521 -0.4717
 9170SOL    HW139146   1.398   1.660   9.760 -2.5451 -0.6178 -1.8784
 9170SOL    HW239147   1.376   1.783   9.839 -0.3152  0.0740  2.6215
 9171SOL     OW39148   4.543   2.809   4.649  0.0320  0.2636  0.3914
 9171SOL    HW139149   4.536   2.741   4.717  1.0059  0.1257  0.3507
 9171SOL    HW239150   4.485   2.773   4.582  0.9112 -1.6077  0.6427
 9172SOL     OW39151   1.866   4.605   0.057 -0.1179 -0.7358 -0.2251
 9172SOL    HW139152   1.927   4.535   0.036  0.6224  0.2651 -1.3601
 9172SOL    HW239153   1.916   4.646   0.128 -0.3970 -0.9539  0.1025
 9173SOL     OW39154   2.019   0.867   2.353 -0.6429  0.2762  0.0190
 9173SOL    HW139155   2.063   0.797   2.402 -0.6147 -0.4432 -1.0244
 9173SOL    HW239156   1.939   0.875   2.404 -3.5129  3.3468 -5.0456
 9174SOL     OW39157   3.478   0.730   3.791  0.5085 -0.8075  0.3905
 9174SOL    HW139158   3.443   0.649   3.827 -0.6803 -0.8360 -0.8383
 9174SOL    HW239159   3.523   0.762   3.870 -0.5281 -0.7104  0.9421
 9175SOL     OW39160   3.843   1.272   5.652 -0.1304 -0.2667 -0.6246
 9175SOL    HW139161   3.762   1.278   5.703  0.3896  2.0125 -0.0384
 9175SOL    HW239162   3.810   1.215   5.583 -1.0457  0.1666 -0.5402
 9176SOL     OW39163   1.610   3.277   2.422 -0.3212 -0.3395 -0.0225
 9176SOL    HW139164   1.520   3.249   2.440 -0.6858 -0.3108 -1.8187
 9176SOL    HW239165   1.641   3.189   2.399  1.3419 -0.0099  0.9204
 9177SOL     OW39166   3.771   3.379   2.272  0.3303  0.6421 -0.7917
 9177SOL    HW139167   3.783   3.450   2.335  1.2144 -0.0117 -0.2309
 9177SOL    HW239168   3.831   3.309   2.295  2.7128  2.6273 -0.9529
 9178SOL     OW39169   1.371   4.501  15.272  0.2308  0.0749  0.3554
 9178SOL    HW139170   1.427   4.428  15.245  1.0265  1.9209 -2.9120
 9178SOL    HW239171   1.339   4.464  15.354 -2.4074  2.5460  0.4471
 9179SOL     OW39172   0.557   2.453   4.447  0.6912 -0.7310  0.0031
 9179SOL    HW139173   0.496   2.517   4.483  0.2644  0.0508 -2.1467
 9179SOL    HW239174   0.600   2.505   4.380  0.9212 -2.3345 -1.1078
 9180SOL     OW39175   1.865   2.734  13.315  0.1928 -0.1552 -0.4003
 9180SOL    HW139176   1.912   2.816  13.326 -0.5241  0.1221  0.5415
 9180SOL    HW239177   1.940   2.676  13.323 -0.8910 -1.1591  2.4170
 9181SOL     OW39178   2.677   3.216   7.979  0.1172  0.7536  0.0818
 9181SOL    HW139179   2.706   3.230   7.889  0.3923 -0.6873 -0.0494
 9181SOL    HW239180   2.672   3.121   7.975  1.2982  0.6023  1.9054
 9182SOL     OW39181   0.092   0.095   7.543 -0.0124 -0.3925 -0.3105
 9182SOL    HW139182   0.174   0.055   7.514  1.5968  1.3345  1.7620
 9182SOL    HW239183   0.126   0.144   7.618 -0.1280  0.6888 -0.9634
 9183SOL     OW39184   3.240   2.250   3.316 -0.6402 -0.2385  0.1379
 9183SOL    HW139185   3.270   2.203   3.238  0.0607 -1.0722  0.9093
 9183SOL    HW239186   3.149   2.276   3.306 -0.1721  0.8574 -1.3275
 9184SOL     OW39187   0.539   3.035   0.085 -0.0946  0.0799  0.0690
 9184SOL    HW139188   0.540   3.062   0.177 -0.8767 -1.5185  0.5426
 9184SOL    HW239189   0.512   3.123   0.058  1.2819  0.3491 -0.4332
 9185SOL     OW39190   0.889   2.839   2.200 -0.0883  0.2009 -0.4354
 9185SOL    HW139191   0.818   2.899   2.177 -1.2520 -0.6195  1.0718
 9185SOL    HW239192   0.956   2.849   2.132 -0.1695  0.8481 -0.4172
 9186SOL     OW39193   0.870   4.459   8.398  0.1242  0.1976 -0.3718
 9186SOL    HW139194   0.869   4.372   8.359 -2.3081  0.8796 -1.7844
 9186SOL    HW239195   0.777   4.481   8.402  0.2604  0.6969  0.0202
 9187SOL     OW39196   1.348   0.876   8.491  0.4121  0.5791  0.1121
 9187SOL    HW139197   1.412   0.884   8.562 -0.1830  2.3231  0.4517
 9187SOL    HW239198   1.359   0.958   8.444 -1.0222  1.0219  0.5497
 9188SOL     OW39199   3.876   4.524  14.483 -0.5019  0.0823  1.1206
 9188SOL    HW139200   3.784   4.517  14.455 -0.2847 -0.0940  0.4554
 9188SOL    HW239201   3.921   4.542  14.400 -1.3763 -1.8200  0.2204
 9189SOL     OW39202   0.204   0.752  12.043 -0.2881  0.4366  0.5041
 9189SOL    HW139203   0.284   0.804  12.046 -0.1690  0.1919  1.4839
 9189SOL    HW239204   0.140   0.822  12.060 -0.0254  0.3636  1.7880
 9190SOL     OW39205   4.273   1.097  16.874 -0.4065 -0.3556  0.1365
 9190SOL    HW139206   4.224   1.130  16.798  0.3318 -0.3068 -0.3211
 9190SOL    HW239207   4.246   1.154  16.946 -0.1790 -0.5582  0.3793
 9191SOL     OW39208   2.537   0.376  13.025  0.0350 -0.6520  0.0582
 9191SOL    HW139209   2.599   0.309  12.996 -0.3309 -0.0411 -2.1698
 9191SOL    HW239210   2.524   0.345  13.115 -1.6668 -0.5874 -0.1554
 9192SOL     OW39211   0.450   0.772  10.556 -0.0505 -0.2940  0.0480
 9192SOL    HW139212   0.435   0.857  10.598  0.0400  0.5103 -1.5190
 9192SOL    HW239213   0.362   0.752  10.524 -0.9425  1.4573  1.4276
 9193SOL     OW39214   4.102   2.448   1.438  0.2689  0.4734  0.0478
 9193SOL    HW139215   4.057   2.528   1.465 -2.0549 -0.4949 -1.0066
 9193SOL    HW239216   4.107   2.455   1.343  0.6909  0.1603  0.0478
 9194SOL     OW39217   0.070   1.626   2.755  0.4253 -0.9081  0.4326
 9194SOL    HW139218   0.076   1.651   2.847  1.4447 -0.3528  0.2183
 9194SOL    HW239219   0.164   1.634   2.739  0.5279 -0.5778  1.2010
 9195SOL     OW39220   2.463   0.125   9.517  0.1837  0.4256 -0.1603
 9195SOL    HW139221   2.410   0.205   9.522  0.9137  0.9182 -0.3934
 9195SOL    HW239222   2.467   0.118   9.421  1.2266  3.2199 -0.3166
 9196SOL     OW39223   3.734   1.493   5.917  0.3392  0.5248  0.7674
 9196SOL    HW139224   3.823   1.468   5.941 -0.7092 -2.7298  1.2384
 9196SOL    HW239225   3.728   1.587   5.938  2.2727  0.6947  0.5251
 9197SOL     OW39226   1.326   2.767   6.970 -0.5983 -0.5212 -0.4959
 9197SOL    HW139227   1.418   2.745   6.983 -0.6468 -0.4938 -0.1182
 9197SOL    HW239228   1.308   2.787   7.061  0.6574 -2.6902  0.2164
 9198SOL     OW39229   4.054   3.924   7.273 -0.2472  0.3572  0.1127
 9198SOL    HW139230   3.971   3.880   7.290  0.6491 -1.4290 -0.1012
 9198SOL    HW239231   4.111   3.853   7.243 -1.1034  0.1203 -0.9645
 9199SOL     OW39232   1.750   0.113   6.462  0.4359 -0.1544  0.0054
 9199SOL    HW139233   1.776   0.187   6.406 -0.0268  1.4200  1.8551
 9199SOL    HW239234   1.699   0.161   6.527 -0.9537 -0.2852 -0.9877
 9200SOL     OW39235   2.500   1.822  13.187 -0.1862  0.6986 -0.6650
 9200SOL    HW139236   2.555   1.762  13.237  0.0162  0.0812 -1.6355
 9200SOL    HW239237   2.457   1.863  13.262 -1.6092 -0.4361 -0.8588
 9201SOL     OW39238   3.036   1.057   4.726  0.0854  0.1808  0.1181
 9201SOL    HW139239   3.003   1.144   4.703 -0.0535  0.2260  0.4886
 9201SOL    HW239240   3.119   1.073   4.770 -1.0241  2.5753  1.3269
 9202SOL     OW39241   2.936   0.338  14.800  0.2647  0.1110 -0.4724
 9202SOL    HW139242   2.989   0.414  14.825 -3.2443  1.9110  1.3507
 9202SOL    HW239243   2.883   0.331  14.879  1.1662 -1.0845  0.0251
 9203SOL     OW39244   3.437   1.144   7.044  0.2978 -0.0603  0.4941
 9203SOL    HW139245   3.351   1.185   7.041 -0.2577 -1.3945 -2.1456
 9203SOL    HW239246   3.452   1.127   6.951  2.3454  0.8635  0.6514
 9204SOL     OW39247   1.083   0.487   1.138 -0.0886 -0.0315 -0.3255
 9204SOL    HW139248   1.004   0.502   1.085 -0.3183 -1.1620 -0.2929
 9204SOL    HW239249   1.145   0.548   1.098  1.5661 -1.5971 -0.1681
 9205SOL     OW39250   1.051   0.419   2.723  0.2327 -0.2261  0.0306
 9205SOL    HW139251   1.134   0.431   2.677 -0.8262 -0.9774 -2.0740
 9205SOL    HW239252   1.018   0.348   2.668 -0.8210 -0.2621  0.7167
 9206SOL     OW39253   0.715   2.146   2.080 -0.5867  1.3405 -0.0638
 9206SOL    HW139254   0.657   2.149   2.155  0.0954 -0.5685  0.5429
 9206SOL    HW239255   0.744   2.056   2.064 -0.9316  0.5094  4.0073
 9207SOL     OW39256   1.947   2.987   3.927  0.6776  0.1916 -0.3655
 9207SOL    HW139257   1.856   2.961   3.911  0.3313  1.1611 -0.0019
 9207SOL    HW239258   1.974   2.996   3.836 -2.2166  1.2609 -1.1462
 9208SOL     OW39259   3.500   1.214   0.635  0.8967  1.0447  0.2060
 9208SOL    HW139260   3.501   1.125   0.601  0.4583  0.6990  1.0885
 9208SOL    HW239261   3.471   1.266   0.560  1.0195  1.6292  0.5667
 9209SOL     OW39262   2.397   3.746   5.778 -0.2125  0.5018  0.4107
 9209SOL    HW139263   2.414   3.754   5.872 -1.9316  1.4832  0.6403
 9209SOL    HW239264   2.422   3.835   5.752 -1.7386  1.2236  1.3895
 9210SOL     OW39265   3.582   0.403   3.863  0.1832  0.1326  0.2436
 9210SOL    HW139266   3.573   0.347   3.940  0.7838 -1.5461 -0.8980
 9210SOL    HW239267   3.489   0.406   3.840 -0.3216  0.4917  2.3912
 9211SOL     OW39268   3.359   1.359   3.254  0.4180 -0.4017  0.2539
 9211SOL    HW139269   3.413   1.360   3.175  0.4534 -0.6962  0.2715
 9211SOL    HW239270   3.374   1.268   3.282 -2.7288 -2.0395 -3.3635
 9212SOL     OW39271   0.933   4.510   5.759  0.4383 -0.1042  0.6582
 9212SOL    HW139272   0.842   4.479   5.755  0.0841  1.2359 -1.6570
 9212SOL    HW239273   0.950   4.494   5.852  1.9941 -2.3786 -0.0167
 9213SOL     OW39274   0.716   4.321   9.688 -0.0272 -0.1492  0.0478
 9213SOL    HW139275   0.699   4.227   9.697  1.7256 -0.4892 -0.1682
 9213SOL    HW239276   0.694   4.354   9.775 -2.4656 -0.7282 -0.3476
 9214SOL     OW39277   2.970   3.715   2.040 -0.4870 -0.3696  0.2114
 9214SOL    HW139278   3.038   3.705   1.974 -1.2733 -1.2604 -0.4711
 9214SOL    HW239279   2.936   3.626   2.045  1.8922 -1.3219 -0.5772
 9215SOL     OW39280   2.549   1.714  16.640 -0.7169 -0.1214  0.4156
 9215SOL    HW139281   2.575   1.756  16.721 -1.4066 -1.0397  1.1121
 9215SOL    HW239282   2.546   1.619  16.655  1.3125 -0.3120 -0.3178
 9216SOL     OW39283   2.207   3.395   5.693 -0.4586 -0.3345  0.1498
 9216SOL    HW139284   2.223   3.423   5.603  1.5624  1.1155  0.9716
 9216SOL    HW239285   2.209   3.299   5.694  0.3324 -0.3169 -0.5814
 9217SOL     OW39286   0.030   0.800   7.657  0.0601  0.5355 -0.0563
 9217SOL    HW139287   4.697   0.826   7.602 -0.9557 -0.2280  0.9484
 9217SOL    HW239288   0.097   0.840   7.601  0.7040 -0.4335  0.0231
 9218SOL     OW39289   0.125   2.346   0.418 -0.9252  0.4953 -0.3122
 9218SOL    HW139290   0.109   2.426   0.367  0.7650 -0.6329 -2.6144
 9218SOL    HW239291   0.098   2.385   0.501  0.8021  2.1342 -0.5003
 9219SOL     OW39292   1.954   3.789  16.008 -0.3049  0.0332  0.1679
 9219SOL    HW139293   2.030   3.840  16.036 -1.6011  2.6764 -1.1323
 9219SOL    HW239294   1.965   3.778  15.914 -1.0109  2.8050 -0.2366
 9220SOL     OW39295   3.625   1.516   6.987  0.1676 -0.2624  0.2479
 9220SOL    HW139296   3.582   1.560   7.060  1.0749  0.2179  0.4925
 9220SOL    HW239297   3.623   1.434   7.036 -3.6007  0.0075  0.5520
 9221SOL     OW39298   4.382   0.429  16.028  0.3389 -0.1521  0.6499
 9221SOL    HW139299   4.301   0.424  16.078  0.7222 -0.8058  1.1997
 9221SOL    HW239300   4.429   0.413  16.109  0.7788  4.1624  1.2224
 9222SOL     OW39301   4.421   3.221  16.637  0.1992 -0.4747  0.2804
 9222SOL    HW139302   4.446   3.267  16.557 -1.8376 -0.4064 -0.3230
 9222SOL    HW239303   4.374   3.152  16.590 -2.3143  1.3710  0.0778
 9223SOL     OW39304   3.820   4.593   3.638 -0.4611 -0.2868 -0.5553
 9223SOL    HW139305   3.840   4.502   3.656  4.7490  0.5522 -2.1116
 9223SOL    HW239306   3.726   4.589   3.656 -0.2941  0.7639  0.6319
 9224SOL     OW39307   0.282   3.024   4.897 -0.0699 -0.6090  0.1087
 9224SOL    HW139308   0.210   3.068   4.852  0.6740 -0.2747 -0.7671
 9224SOL    HW239309   0.347   3.021   4.826 -1.6759  3.5965 -1.5366
 9225SOL     OW39310   2.704   0.754   4.394  0.0043 -0.2498  0.0465
 9225SOL    HW139311   2.764   0.763   4.319  0.3619 -1.5994  0.1746
 9225SOL    HW239312   2.747   0.691   4.452  2.0128 -0.1720 -1.3451
 9226SOL     OW39313   2.941   3.799  12.791  0.4292  0.0556  0.0080
 9226SOL    HW139314   2.885   3.773  12.718 -0.9459  3.3235 -0.0977
 9226SOL    HW239315   2.980   3.716  12.819  1.2799  0.4401 -0.0606
 9227SOL     OW39316   2.676   3.602   1.770 -0.5819 -0.1087  0.1961
 9227SOL    HW139317   2.725   3.682   1.791 -2.6136  1.3589 -0.6202
 9227SOL    HW239318   2.657   3.625   1.679  2.1386  0.4190 -0.2557
 9228SOL     OW39319   3.472   2.997   4.616  0.2247  0.0223  0.0343
 9228SOL    HW139320   3.433   2.973   4.532 -0.5697 -1.8141  0.9167
 9228SOL    HW239321   3.474   2.925   4.679 -1.0185  0.6865  0.8250
 9229SOL     OW39322   1.592   1.688  13.726 -0.0940 -0.1188 -0.3931
 9229SOL    HW139323   1.506   1.664  13.760 -0.6626  0.3392 -1.5024
 9229SOL    HW239324   1.598   1.780  13.753 -1.4878 -0.0550 -0.3175
 9230SOL     OW39325   4.662   2.268   9.200  0.2048 -0.0896 -0.3065
 9230SOL    HW139326   4.728   2.330   9.169  0.1812  1.1704  2.1864
 9230SOL    HW239327   4.640   2.303   9.286 -3.4819  0.4970 -1.4864
 9231SOL     OW39328   4.144   2.256   7.165 -0.1837  0.2109 -0.0617
 9231SOL    HW139329   4.231   2.249   7.203  0.5683 -1.3321 -2.0554
 9231SOL    HW239330   4.098   2.271   7.247 -1.8988 -0.1857 -0.9499
 9232SOL     OW39331   2.076   3.423  13.373  0.2224 -0.5992  0.0830
 9232SOL    HW139332   2.104   3.397  13.461  0.9568 -0.3618 -0.0857
 9232SOL    HW239333   1.981   3.419  13.388 -0.1447  1.6906 -1.8328
 9233SOL     OW39334   1.028   4.642  17.390 -0.4647 -0.4173 -0.1033
 9233SOL    HW139335   0.952   4.594  17.423 -1.7301  1.0471 -0.8802
 9233SOL    HW239336   0.977   4.710  17.345 -1.2204 -0.3308  0.8722
 9234SOL     OW39337   2.351   3.847   5.006 -0.4700  0.4851 -0.1792
 9234SOL    HW139338   2.276   3.906   4.999 -0.2150  0.4005 -3.9658
 9234SOL    HW239339   2.322   3.780   4.943  2.1040  0.3252 -1.2054
 9235SOL     OW39340   3.183   2.572   1.574  0.0781  0.0163  0.2771
 9235SOL    HW139341   3.089   2.565   1.561  0.3051 -1.6034 -0.5192
 9235SOL    HW239342   3.213   2.487   1.542  1.3801  0.7839 -0.5769
 9236SOL     OW39343   4.282   1.660   7.530 -0.2850 -0.4742 -0.1702
 9236SOL    HW139344   4.209   1.615   7.573  0.7447 -1.1254  0.8959
 9236SOL    HW239345   4.344   1.587   7.528  1.4050  0.9480  0.1309
 9237SOL     OW39346   3.508   1.276  16.223  0.0014 -0.1115  0.2137
 9237SOL    HW139347   3.423   1.236  16.241  0.3862 -1.7129 -1.4725
 9237SOL    HW239348   3.476   1.348  16.169 -2.1604  0.2416  1.9873
 9238SOL     OW39349   4.279   0.877   4.227  0.7440 -0.6191 -0.1460
 9238SOL    HW139350   4.213   0.945   4.217  1.4757  0.1369  0.2564
 9238SOL    HW239351   4.330   0.904   4.304 -1.1121 -1.1773  1.2926
 9239SOL     OW39352   2.819   1.074   4.365  0.3142 -0.0438 -0.0963
 9239SOL    HW139353   2.757   1.009   4.397 -0.5445  0.3823 -0.8911
 9239SOL    HW239354   2.777   1.149   4.405  1.3665  0.2899  0.3883
 9240SOL     OW39355   3.445   1.645   6.105  0.2929 -0.2306  0.1176
 9240SOL    HW139356   3.407   1.567   6.146 -0.9277 -1.1160 -2.6546
 9240SOL    HW239357   3.494   1.680   6.179 -1.2829 -1.1080  1.5704
 9241SOL     OW39358   0.959   2.926   9.003  0.5021  0.3739 -0.0810
 9241SOL    HW139359   0.987   3.011   8.970  0.1429 -0.1810 -1.8136
 9241SOL    HW239360   1.044   2.881   8.998  0.1575 -0.5695  2.3633
 9242SOL     OW39361   1.753   2.421   9.176  0.5883  0.1518 -0.0369
 9242SOL    HW139362   1.844   2.421   9.204  0.7879  1.4651 -0.6965
 9242SOL    HW239363   1.778   2.386   9.091  0.8542  0.6995 -0.1821
 9243SOL     OW39364   4.229   4.586   0.642  0.1347 -0.0662 -0.0899
 9243SOL    HW139365   4.270   4.666   0.610 -0.9988  1.7179  2.8669
 9243SOL    HW239366   4.176   4.632   0.707  0.7578  0.7000 -0.1250
 9244SOL     OW39367   3.426   4.636   7.009  0.4455  0.3753  0.1025
 9244SOL    HW139368   3.501   4.622   7.067 -0.4669  2.3200  1.7381
 9244SOL    HW239369   3.403   4.721   7.046  0.9394 -0.1713  1.6402
 9245SOL     OW39370   0.373   4.717  14.460 -0.3436 -0.0749 -0.3579
 9245SOL    HW139371   0.425   0.054  14.481  0.9978 -1.2051  0.5706
 9245SOL    HW239372   0.331   4.737  14.377 -0.3555  0.4370 -0.2268
 9246SOL     OW39373   0.486   2.440   6.188  0.1212 -0.6545 -0.5117
 9246SOL    HW139374   0.505   2.411   6.099  0.9891 -0.8267 -0.2712
 9246SOL    HW239375   0.560   2.409   6.240  0.9922  2.7870  0.3482
 9247SOL     OW39376   4.140   0.706   8.808 -0.1761 -0.1958 -0.0079
 9247SOL    HW139377   4.074   0.772   8.829 -0.4322 -0.5016  0.1658
 9247SOL    HW239378   4.224   0.751   8.802  0.7082 -1.7896  0.2090
 9248SOL     OW39379   1.916   2.186   5.457  0.1800 -0.0003  0.2800
 9248SOL    HW139380   1.847   2.166   5.394  0.9045  1.9045 -1.1675
 9248SOL    HW239381   1.857   2.188   5.532 -0.4039 -2.5131 -0.1437
 9249SOL     OW39382   3.522   0.244  14.130  0.1472 -0.3977 -0.3629
 9249SOL    HW139383   3.445   0.295  14.156 -0.6251 -0.9354 -1.6014
 9249SOL    HW239384   3.574   0.312  14.087  1.8331 -2.4352 -1.5254
 9250SOL     OW39385   0.178   3.570   6.061 -0.6253  0.0258 -0.3246
 9250SOL    HW139386   0.174   3.614   6.146  0.4210 -0.3542 -0.0767
 9250SOL    HW239387   0.246   3.618   6.014  0.2569 -0.6644  0.2418
 9251SOL     OW39388   0.269   3.384   9.162 -0.6830 -0.2498 -0.1646
 9251SOL    HW139389   0.348   3.394   9.107 -0.9716 -1.1500 -0.7455
 9251SOL    HW239390   0.297   3.308   9.214  2.0737  1.8003  1.3477
 9252SOL     OW39391   0.296   4.121  17.749 -0.0494 -0.1182  0.1034
 9252SOL    HW139392   0.235   4.113   0.062 -0.8741  0.7488 -0.4862
 9252SOL    HW239393   0.269   4.194  17.693 -2.5902 -1.9257 -1.0522
 9253SOL     OW39394   2.337   4.351   7.306 -0.1978  0.3589  0.0095
 9253SOL    HW139395   2.335   4.393   7.220 -0.6261 -0.0034 -0.1622
 9253SOL    HW239396   2.411   4.290   7.301 -0.0798  0.5645 -0.7331
 9254SOL     OW39397   3.183   4.461   4.973 -0.3065 -0.5233 -0.1639
 9254SOL    HW139398   3.107   4.508   5.008  0.9283 -1.3139  3.4848
 9254SOL    HW239399   3.138   4.393   4.922 -1.4436  0.2356 -0.1881
 9255SOL     OW39400   2.009   2.939   6.775  0.5154 -0.0059 -0.3425
 9255SOL    HW139401   2.042   2.862   6.821 -2.1609 -0.9077  0.0672
 9255SOL    HW239402   1.937   2.895   6.729 -0.7151  2.2915 -0.6421
 9256SOL     OW39403   3.966   3.814   2.583  0.0822  0.0683 -0.3551
 9256SOL    HW139404   4.042   3.863   2.554  0.5834  1.6803  3.6740
 9256SOL    HW239405   3.982   3.819   2.677  1.4400  1.4159 -0.6702
 9257SOL     OW39406   0.016   1.740   8.873 -0.6081 -0.3018  0.2530
 9257SOL    HW139407   0.028   1.721   8.966 -0.0041  2.4400  0.7197
 9257SOL    HW239408   0.075   1.815   8.864  0.1881 -1.0469 -0.7382
 9258SOL     OW39409   3.737   0.025   1.178  0.1406 -0.5163  0.2721
 9258SOL    HW139410   3.671   0.029   1.108  1.7180  0.8861 -1.1396
 9258SOL    HW239411   3.679   0.017   1.253  0.7436 -0.2872  0.7616
 9259SOL     OW39412   3.657   4.235   4.742  0.2375 -0.0399  0.4362
 9259SOL    HW139413   3.716   4.197   4.807 -1.2042 -1.1251  1.1134
 9259SOL    HW239414   3.687   4.196   4.660 -1.2108 -1.2029  0.4559
 9260SOL     OW39415   4.578   0.465  11.612  0.3250 -0.1696 -0.8389
 9260SOL    HW139416   4.630   0.516  11.550 -0.7396  1.4914 -0.3537
 9260SOL    HW239417   4.594   0.516  11.692  0.3154 -0.2147 -0.8082
 9261SOL     OW39418   4.096   2.344   3.835 -0.2890 -0.3280  0.4053
 9261SOL    HW139419   4.030   2.413   3.834 -0.0873 -0.1340  0.4083
 9261SOL    HW239420   4.083   2.298   3.918  0.4279  0.9503  1.2183
 9262SOL     OW39421   0.963   2.696   4.345  0.3979 -0.8321  0.2696
 9262SOL    HW139422   0.971   2.768   4.282  0.2689 -1.7884 -0.8263
 9262SOL    HW239423   1.029   2.721   4.410 -1.5523  0.6721  1.6788
 9263SOL     OW39424   3.657   1.357   2.094 -0.0330  0.4342 -0.0536
 9263SOL    HW139425   3.656   1.296   2.020  0.3041 -0.5063  0.7164
 9263SOL    HW239426   3.636   1.298   2.166 -0.9380 -1.2761 -1.7097
 9264SOL     OW39427   2.967   1.673  15.786  0.1077 -0.2621 -0.2928
 9264SOL    HW139428   3.061   1.655  15.776  0.3002 -0.1885  1.4349
 9264SOL    HW239429   2.963   1.649  15.878  1.6832 -1.9139 -0.6523
 9265SOL     OW39430   1.181   0.938   8.174  0.3241  0.1423 -0.5360
 9265SOL    HW139431   1.139   1.016   8.211  0.3636  0.9504 -2.2181
 9265SOL    HW239432   1.108   0.877   8.191  0.4647 -0.2490 -1.3775
 9266SOL     OW39433   3.513   4.490   5.366  0.2246 -0.2098 -0.4187
 9266SOL    HW139434   3.474   4.463   5.283 -1.9271  0.9006  0.2386
 9266SOL    HW239435   3.473   4.426   5.425  3.3862 -1.9003 -0.0962
 9267SOL     OW39436   0.212   4.092   8.099 -0.1282 -0.0749  0.3506
 9267SOL    HW139437   0.217   4.024   8.032  2.4808 -0.0484  0.5405
 9267SOL    HW239438   0.255   4.162   8.050  0.1190 -1.6215 -1.6310
 9268SOL     OW39439   2.311   2.133  14.766  0.2410  0.4461 -0.2327
 9268SOL    HW139440   2.387   2.185  14.792  1.3395 -1.2203 -0.0887
 9268SOL    HW239441   2.297   2.070  14.836 -0.9979  0.1943 -0.7180
 9269SOL     OW39442   1.162   2.291   9.448  0.4773  0.4587  0.2907
 9269SOL    HW139443   1.214   2.370   9.462 -0.7838  1.5458 -1.1729
 9269SOL    HW239444   1.146   2.272   9.540  0.4720  2.5716  0.7199
 9270SOL     OW39445   4.044   3.110  15.561  0.1342 -0.2544  0.7783
 9270SOL    HW139446   4.051   3.094  15.655 -1.3482  0.0610  0.9498
 9270SOL    HW239447   3.996   3.192  15.566 -2.2379 -1.4641 -1.8842
 9271SOL     OW39448   1.342   4.639   1.421  0.0324  0.6260  0.1368
 9271SOL    HW139449   1.309   4.727   1.401 -0.5838  0.7625  1.7257
 9271SOL    HW239450   1.296   4.627   1.504  0.2665  0.7211  0.2810
 9272SOL     OW39451   2.330   0.896   8.742  0.2494  0.1037 -0.3747
 9272SOL    HW139452   2.377   0.927   8.664 -1.1043 -0.4611 -1.4158
 9272SOL    HW239453   2.241   0.908   8.710 -1.3972  1.3835  4.6593
 9273SOL     OW39454   0.274   2.294   6.315 -0.2089  0.5946  0.1320
 9273SOL    HW139455   0.300   2.210   6.277  1.4911  2.0724 -2.0217
 9273SOL    HW239456   0.345   2.348   6.279  1.3862 -0.9295  1.0174
 9274SOL     OW39457   0.001   1.485   8.251 -0.4729 -0.4331 -0.0569
 9274SOL    HW139458   4.708   1.524   8.171  0.0325 -0.5813 -0.3402
 9274SOL    HW239459   4.714   1.546   8.319  0.5453  0.1437 -0.1554
 9275SOL     OW39460   0.556   2.379   3.241 -0.0243 -0.3214  0.2688
 9275SOL    HW139461   0.590   2.323   3.311  1.6690 -1.4975 -1.5124
 9275SOL    HW239462   0.475   2.412   3.281 -0.1718  1.1320 -1.2295
 9276SOL     OW39463   1.238   3.838   2.459 -0.1976  0.1269 -0.0422
 9276SOL    HW139464   1.283   3.919   2.435  0.4474 -0.8122 -2.0273
 9276SOL    HW239465   1.146   3.856   2.437  0.0063  2.9453  1.4624
 9277SOL     OW39466   2.638   0.325   7.262 -0.0867 -0.1283 -0.6692
 9277SOL    HW139467   2.569   0.271   7.300 -0.8050  2.1766  1.2843
 9277SOL    HW239468   2.638   0.285   7.175  3.3313 -0.6146 -0.4412
 9278SOL     OW39469   4.311   4.412   3.338 -0.5392 -0.0805  0.1249
 9278SOL    HW139470   4.258   4.474   3.387  0.0497  0.7143 -0.2593
 9278SOL    HW239471   4.285   4.429   3.248  0.2035  0.0318 -0.0674
 9279SOL     OW39472   4.426   3.460  11.613  0.1955 -0.3926  0.3219
 9279SOL    HW139473   4.513   3.441  11.578  0.3653  1.3385 -0.1965
 9279SOL    HW239474   4.446   3.433  11.703 -2.0805 -2.5662  0.1854
 9280SOL     OW39475   4.197   4.583   9.553 -0.1633 -0.1465  0.3158
 9280SOL    HW139476   4.219   4.550   9.466  1.5282  0.7524  0.4024
 9280SOL    HW239477   4.226   4.669   9.523  3.5964 -0.3495  3.4449
 9281SOL     OW39478   2.276   0.985   7.666  0.1938  0.3155  0.3918
 9281SOL    HW139479   2.208   1.033   7.619  0.0505 -0.2473  0.0285
 9281SOL    HW239480   2.342   0.970   7.599 -1.2502 -0.9678 -0.7354
 9282SOL     OW39481   4.710   1.379   6.159 -0.2960 -0.7761 -0.0730
 9282SOL    HW139482   0.003   1.295   6.190  1.9066  0.4662  0.9525
 9282SOL    HW239483   0.032   1.391   6.087 -1.3023 -1.0547 -0.9824
 9283SOL     OW39484   2.436   2.524   4.570 -0.1441 -0.2453 -0.3927
 9283SOL    HW139485   2.487   2.579   4.511 -1.2700  1.7890  0.5546
 9283SOL    HW239486   2.408   2.453   4.512 -2.7496  0.5475 -0.1114
 9284SOL     OW39487   0.670   4.703   2.536 -0.5906  0.2913 -0.1880
 9284SOL    HW139488   0.749   4.696   2.589  0.3713  0.1797 -1.6400
 9284SOL    HW239489   0.595   4.671   2.585 -0.0293  0.7880  1.0147
 9285SOL     OW39490   0.894   4.006   9.508  0.8504 -0.2174  0.1425
 9285SOL    HW139491   0.914   4.090   9.466  1.5294 -1.6557 -2.4025
 9285SOL    HW239492   0.906   4.030   9.600 -1.1213  1.8569 -0.1238
 9286SOL     OW39493   2.030   1.428  14.742  0.7099 -0.1702 -0.1648
 9286SOL    HW139494   2.030   1.415  14.647  2.1094 -1.3020 -0.0010
 9286SOL    HW239495   2.085   1.361  14.783  3.2027  1.0645 -1.5277
 9287SOL     OW39496   0.642   2.561  10.380 -0.4070  0.0418 -0.1701
 9287SOL    HW139497   0.721   2.591  10.424 -0.8365 -0.6847  1.0903
 9287SOL    HW239498   0.658   2.467  10.386 -2.3638 -0.1817  1.4415
 9288SOL     OW39499   0.060   4.431   5.524  0.1667  0.7837 -0.1246
 9288SOL    HW139500   0.152   4.419   5.549 -0.1479 -1.8433 -0.2117
 9288SOL    HW239501   0.051   4.356   5.465 -0.9567  0.4836  0.4361
 9289SOL     OW39502   2.748   1.382   6.531 -0.2252 -0.2773  0.3266
 9289SOL    HW139503   2.766   1.384   6.437  0.7566 -0.1827  0.5129
 9289SOL    HW239504   2.743   1.288   6.545 -1.8862 -0.3010 -0.3881
 9290SOL     OW39505   1.567   1.760   5.585 -0.3909  0.0294  0.0883
 9290SOL    HW139506   1.622   1.735   5.660 -1.0169 -1.5738  0.0089
 9290SOL    HW239507   1.515   1.685   5.560 -0.1104 -0.8127  2.0050
 9291SOL     OW39508   1.091   2.355   5.703 -0.2224  0.8861 -0.2443
 9291SOL    HW139509   1.112   2.448   5.701 -0.1876  0.9113  1.0739
 9291SOL    HW239510   1.176   2.313   5.709 -0.5174  0.5975  1.8347
 9292SOL     OW39511   1.984   2.877   2.064  0.5271  0.2630 -0.2029
 9292SOL    HW139512   2.075   2.907   2.066  0.5626  0.1522 -0.1652
 9292SOL    HW239513   1.963   2.890   2.157 -0.5515 -1.3485 -0.2171
 9293SOL     OW39514   1.957   2.201   7.263  0.2363 -0.2775 -0.1079
 9293SOL    HW139515   1.997   2.252   7.335  2.7331 -0.7271 -1.1652
 9293SOL    HW239516   1.984   2.254   7.188 -1.8100  1.0669  0.1116
 9294SOL     OW39517   1.383   1.784   1.207 -0.4590  0.1927  0.5849
 9294SOL    HW139518   1.336   1.706   1.238 -1.2498  1.4621  2.5723
 9294SOL    HW239519   1.356   1.858   1.262  2.5738  2.2384 -0.6607
 9295SOL     OW39520   0.051   3.378   5.691  0.2307 -0.0589 -0.5133
 9295SOL    HW139521   4.718   3.365   5.751 -0.8447  0.1787 -1.7752
 9295SOL    HW239522   0.061   3.286   5.663 -0.6429 -0.1813 -0.4379
 9296SOL     OW39523   4.346   0.175   0.283  0.2688  0.1999 -0.7625
 9296SOL    HW139524   4.394   0.170   0.200 -0.3721 -1.5163 -1.0268
 9296SOL    HW239525   4.387   0.255   0.316  1.7103 -0.3150 -1.2932
 9297SOL     OW39526   0.605   1.904  13.687 -0.3398  0.1100 -0.5197
 9297SOL    HW139527   0.584   1.871  13.600 -4.0070 -1.6152  1.0159
 9297SOL    HW239528   0.522   1.902  13.734 -0.0781 -0.5673 -0.0822
 9298SOL     OW39529   1.123   3.662   6.889 -0.1852  0.5206  0.1760
 9298SOL    HW139530   1.175   3.582   6.884  1.3796  1.7847 -4.0469
 9298SOL    HW239531   1.095   3.671   6.798 -0.9554 -1.3091  0.2273
 9299SOL     OW39532   1.656   1.069  17.119 -0.2750  0.2695  0.2603
 9299SOL    HW139533   1.605   1.146  17.092 -1.7681 -0.3857  1.2828
 9299SOL    HW239534   1.612   1.001  17.069  0.9822 -0.6717  0.4414
 9300SOL     OW39535   1.927   3.066  16.724 -0.1378  0.1001 -0.5828
 9300SOL    HW139536   1.943   3.034  16.635 -1.6911  1.2573 -1.2779
 9300SOL    HW239537   1.896   3.153  16.699  0.3879 -0.4517 -3.1050
 9301SOL     OW39538   0.847   1.781   9.427 -0.2836  0.7665 -0.7760
 9301SOL    HW139539   0.869   1.849   9.490  3.0742 -1.3503  0.3704
 9301SOL    HW239540   0.940   1.764   9.409 -0.8170 -2.8008 -0.3164
 9302SOL     OW39541   3.522   0.378   9.056  0.2819 -0.2002  0.1974
 9302SOL    HW139542   3.433   0.414   9.060  0.9413  1.6233 -1.1751
 9302SOL    HW239543   3.569   0.451   9.096  2.0282 -0.8717 -0.6204
 9303SOL     OW39544   2.148   3.824   5.505  0.1402 -0.2087 -0.0661
 9303SOL    HW139545   2.207   3.891   5.541  0.0936 -0.5788  0.6880
 9303SOL    HW239546   2.207   3.753   5.479 -1.7606 -1.5138 -0.7494
 9304SOL     OW39547   1.719   0.804   4.898 -0.3941 -0.2534 -0.3747
 9304SOL    HW139548   1.689   0.869   4.835  0.1865  0.5686  0.1965
 9304SOL    HW239549   1.632   0.767   4.914 -1.2968  1.5331 -1.1494
 9305SOL     OW39550   0.681   4.069   1.893 -0.7837  0.2619  0.3446
 9305SOL    HW139551   0.696   4.142   1.952  2.9127  1.6709 -2.3349
 9305SOL    HW239552   0.587   4.051   1.904 -0.9854 -1.5157 -3.8958
 9306SOL     OW39553   0.299   4.373   1.445  0.4192  0.2379 -0.2771
 9306SOL    HW139554   0.254   4.414   1.371  0.4227  0.2455 -0.2750
 9306SOL    HW239555   0.325   4.292   1.400  0.7297  1.0737 -1.5976
 9307SOL     OW39556   2.996   0.686   0.610  0.1537 -0.1232 -0.7618
 9307SOL    HW139557   3.040   0.748   0.551 -2.5598  0.4769 -2.1406
 9307SOL    HW239558   3.072   0.630   0.623  0.5617  1.2041  2.7198
 9308SOL     OW39559   0.337   1.742  10.875 -0.4675 -0.0632 -0.7485
 9308SOL    HW139560   0.274   1.673  10.897 -0.1850 -0.3922 -0.9770
 9308SOL    HW239561   0.288   1.823  10.866  0.9258  0.5686 -2.6240
 9309SOL     OW39562   4.698   1.255  12.625 -0.0497  0.2060 -0.1170
 9309SOL    HW139563   4.649   1.327  12.586 -0.7982 -0.0272  0.3989
 9309SOL    HW239564   0.047   1.287  12.614 -0.3861  1.3237  0.4803
 9310SOL     OW39565   1.234   3.870   2.100  0.3406 -0.8879  0.4406
 9310SOL    HW139566   1.287   3.842   2.175  0.6072  0.7810  0.8720
 9310SOL    HW239567   1.307   3.868   2.037  0.1005 -2.5979  0.2169
 9311SOL     OW39568   1.422   0.287   4.815  0.1720  0.1262 -0.3379
 9311SOL    HW139569   1.340   0.336   4.816  0.1546  0.0271  2.1807
 9311SOL    HW239570   1.421   0.252   4.726 -0.3669  0.5062 -0.4852
 9312SOL     OW39571   0.682   3.738   1.954 -0.3799  0.3285 -0.2211
 9312SOL    HW139572   0.608   3.790   1.986  0.4707  0.4679  1.5155
 9312SOL    HW239573   0.750   3.790   1.997 -0.5096  0.7587 -0.5297
 9313SOL     OW39574   1.521   2.406   4.616 -0.4672 -0.1255 -0.1417
 9313SOL    HW139575   1.615   2.423   4.611 -0.6346  0.7482 -0.2615
 9313SOL    HW239576   1.521   2.318   4.578 -1.3046  0.4451 -1.4492
 9314SOL     OW39577   0.221   0.153   6.903 -0.3685 -0.2163  0.1357
 9314SOL    HW139578   0.212   0.067   6.860 -0.6207 -0.2025  0.1594
 9314SOL    HW239579   0.135   0.189   6.879 -0.1011 -0.2176 -0.8604
 9315SOL     OW39580   2.582   3.263   5.465 -0.0352  0.0177 -0.2726
 9315SOL    HW139581   2.644   3.237   5.397  1.4349 -0.1134  1.1167
 9315SOL    HW239582   2.623   3.229   5.545 -1.0299  0.9405  0.6397
 9316SOL     OW39583   0.589   3.321   1.623  0.1179 -0.0001 -0.3174
 9316SOL    HW139584   0.518   3.381   1.648 -0.4783  0.5251 -3.2850
 9316SOL    HW239585   0.565   3.309   1.532  1.5712 -0.5281 -0.6300
 9317SOL     OW39586   0.094   1.124   1.450  0.6270  0.5225 -0.1271
 9317SOL    HW139587   0.101   1.093   1.540  0.3541  1.1496  0.1075
 9317SOL    HW239588   0.099   1.217   1.472 -0.5243  0.0666  2.0127
 9318SOL     OW39589   1.804   2.131   2.596 -0.2488 -0.5883 -0.2019
 9318SOL    HW139590   1.738   2.157   2.531 -1.8395 -6.0085 -0.7333
 9318SOL    HW239591   1.883   2.156   2.548 -0.2037 -1.1696 -0.4243
 9319SOL     OW39592   3.186   2.769  15.747 -0.2990  0.8071 -0.2323
 9319SOL    HW139593   3.093   2.777  15.726 -0.2633 -1.1010 -1.1192
 9319SOL    HW239594   3.226   2.778  15.660 -2.0827 -1.5173 -1.3151
 9320SOL     OW39595   0.165   4.244  11.421 -0.3501  0.2177  0.2764
 9320SOL    HW139596   0.149   4.189  11.345 -1.3000  0.6984  0.1271
 9320SOL    HW239597   0.256   4.273  11.411 -0.5186  0.2862 -0.9978
 9321SOL     OW39598   0.524   4.686   8.889  0.0093 -0.3145  0.4015
 9321SOL    HW139599   0.601   4.734   8.859 -2.6415  3.1255 -0.9921
 9321SOL    HW239600   0.554   4.678   8.979  0.5633 -1.0566  0.1405
 9322SOL     OW39601   2.882   4.694  14.005 -0.4214  0.1955  0.6971
 9322SOL    HW139602   2.878   0.031  13.949 -0.0260 -0.9477 -0.9139
 9322SOL    HW239603   2.968   4.714  14.042 -0.9562  0.0200  2.0099
 9323SOL     OW39604   3.693   4.416  10.725  0.1423 -0.0760  0.4845
 9323SOL    HW139605   3.773   4.424  10.777  1.9663  1.2392 -2.5370
 9323SOL    HW239606   3.744   4.439  10.647  0.8753 -0.4911  0.8382
 9324SOL     OW39607   4.000   3.277  12.656 -0.5785  0.6052  0.4745
 9324SOL    HW139608   3.967   3.367  12.655  0.6752  1.0598  1.0524
 9324SOL    HW239609   4.007   3.257  12.563 -0.9812 -0.8683  0.7477
 9325SOL     OW39610   4.571   2.709   3.232  0.4872  0.6189 -0.1029
 9325SOL    HW139611   4.562   2.625   3.277  2.7157  0.1523 -0.5398
 9325SOL    HW239612   4.506   2.699   3.162 -1.1929 -1.7806  1.8202
 9326SOL     OW39613   3.615   3.283   4.516 -0.3886 -0.2589 -0.6735
 9326SOL    HW139614   3.541   3.283   4.577 -0.0272  0.0865 -0.2275
 9326SOL    HW239615   3.564   3.324   4.446  1.9424 -0.0794 -2.2399
 9327SOL     OW39616   1.653   1.009   5.637  0.1069 -0.1069  0.3107
 9327SOL    HW139617   1.586   1.057   5.686 -0.8848  0.2659 -1.4162
 9327SOL    HW239618   1.662   1.068   5.563 -0.0932 -1.7356 -1.0243
 9328SOL     OW39619   3.289   4.719   3.484 -0.4947 -0.2880 -0.2846
 9328SOL    HW139620   3.266   4.686   3.397 -2.0981  1.3350 -0.4832
 9328SOL    HW239621   3.307   4.634   3.524  1.1280  1.0333  1.8339
 9329SOL     OW39622   1.645   2.342  12.304  0.0907  0.1098 -0.3464
 9329SOL    HW139623   1.665   2.350  12.398 -1.3084  0.7014 -0.1014
 9329SOL    HW239624   1.608   2.255  12.296 -1.6397  0.6792  1.3975
 9330SOL     OW39625   3.063   4.548   6.818  0.0742 -0.0968  0.5121
 9330SOL    HW139626   3.053   4.626   6.872  0.6930  0.9330 -0.8803
 9330SOL    HW239627   3.153   4.549   6.784  0.1122  2.4764  0.6851
 9331SOL     OW39628   0.202   4.535   9.510 -0.1123 -0.4669  0.8058
 9331SOL    HW139629   0.188   4.476   9.584  0.3356 -0.8949  0.5509
 9331SOL    HW239630   0.161   4.613   9.547  1.5881  0.1574  1.3457
 9332SOL     OW39631   2.458   3.802  15.216 -0.3240  0.6132  0.3549
 9332SOL    HW139632   2.446   3.726  15.159  0.4206  0.8917 -0.1842
 9332SOL    HW239633   2.401   3.788  15.290 -2.6440  0.9576 -1.3675
 9333SOL     OW39634   2.006   0.189   0.658  0.2811  0.0051 -0.1174
 9333SOL    HW139635   2.049   0.113   0.697  0.4370  0.3848  0.4537
 9333SOL    HW239636   1.938   0.145   0.607  1.3017 -1.2386 -0.3724
 9334SOL     OW39637   0.059   2.005   5.829  0.2914  0.3914  0.8056
 9334SOL    HW139638   0.141   1.970   5.794 -0.2811  1.0531 -1.2142
 9334SOL    HW239639   0.014   1.923   5.850  1.8185 -0.6908 -0.1085
 9335SOL     OW39640   3.269   0.620  16.511  0.4112  0.2093  0.1046
 9335SOL    HW139641   3.216   0.668  16.574  1.6752  1.2094  0.4143
 9335SOL    HW239642   3.341   0.597  16.569  1.1430  0.9058 -0.5261
 9336SOL     OW39643   0.935   1.863  17.082  0.3462 -0.3646 -0.2268
 9336SOL    HW139644   0.872   1.834  17.015 -1.3901  1.9089  0.4069
 9336SOL    HW239645   0.878   1.869  17.159  3.2783 -0.3967  1.9115
 9337SOL     OW39646   0.437   3.910   6.263  0.0714 -0.3044 -0.1919
 9337SOL    HW139647   0.394   3.982   6.215  0.3982 -0.3524 -0.5502
 9337SOL    HW239648   0.454   3.851   6.190  0.3065  1.2010 -1.3487
 9338SOL     OW39649   3.392   3.111  17.629  0.0041  0.8529  0.4061
 9338SOL    HW139650   3.376   3.039  17.690 -2.4285  1.6276  0.6886
 9338SOL    HW239651   3.327   3.097  17.561  0.4138  0.8357  0.0176
 9339SOL     OW39652   3.643   2.296   8.075  0.0201  0.4689  0.0219
 9339SOL    HW139653   3.606   2.382   8.056 -0.9097  0.1354  0.3532
 9339SOL    HW239654   3.709   2.276   8.008  0.0518  2.5419 -0.5475
 9340SOL     OW39655   2.521   0.651   7.117  0.0557  0.8305  0.5160
 9340SOL    HW139656   2.509   0.557   7.107 -1.3782  0.9396  1.1774
 9340SOL    HW239657   2.604   0.661   7.162  0.4662 -0.4838  0.0497
 9341SOL     OW39658   1.956   3.352   3.632  0.3916  0.1533 -0.2584
 9341SOL    HW139659   1.861   3.345   3.620  0.1977  0.9872  0.7411
 9341SOL    HW239660   1.965   3.447   3.638 -0.8345  0.2492 -0.0657
 9342SOL     OW39661   3.459   3.134   2.356  0.3529  0.1425 -0.3520
 9342SOL    HW139662   3.554   3.130   2.358  0.3775  0.2865 -1.5152
 9342SOL    HW239663   3.439   3.085   2.277 -1.6054 -1.0466  0.8755
 9343SOL     OW39664   0.833   4.700  11.438  0.0454 -0.3504 -0.6282
 9343SOL    HW139665   0.796   4.708  11.350  0.5344  0.4610 -0.7612
 9343SOL    HW239666   0.867   0.047  11.453 -3.5563  1.2202 -1.8131
 9344SOL     OW39667   4.247   3.574  15.866  0.7220 -0.0915  0.0196
 9344SOL    HW139668   4.227   3.644  15.928 -0.5011  0.8758 -1.4979
 9344SOL    HW239669   4.261   3.492  15.913  2.9494  0.5373  0.4448
 9345SOL     OW39670   1.090   4.102   1.977  0.2175  0.0983  0.0494
 9345SOL    HW139671   1.154   4.031   1.982  0.6654  0.5397  0.6388
 9345SOL    HW239672   1.139   4.172   1.931  1.8117 -1.7556 -1.0765
 9346SOL     OW39673   4.497   3.590   2.611  0.1813  0.3990 -0.3267
 9346SOL    HW139674   4.511   3.508   2.659 -1.3721  0.3629  0.0631
 9346SOL    HW239675   4.472   3.546   2.529 -1.8247 -0.0879  0.5530
 9347SOL     OW39676   4.233   0.133   9.465  0.1266 -0.7361 -0.1772
 9347SOL    HW139677   4.254   0.095   9.380  1.8435  1.7764 -0.8715
 9347SOL    HW239678   4.186   0.209   9.431  0.9307  1.0922  2.7646
 9348SOL     OW39679   4.291   2.366   0.848 -0.3890  0.0228 -0.6604
 9348SOL    HW139680   4.330   2.442   0.804 -0.5943  0.9753  0.8336
 9348SOL    HW239681   4.341   2.295   0.807  0.5907  0.1702  0.2847
 9349SOL     OW39682   4.683   0.012   3.687 -0.1175 -0.1086 -0.2244
 9349SOL    HW139683   4.726   0.087   3.729  2.4643 -1.1412 -1.0909
 9349SOL    HW239684   4.592   0.041   3.698  0.3125  0.6828  1.1972
 9350SOL     OW39685   4.547   0.148   8.170  0.0416  0.0571 -0.1517
 9350SOL    HW139686   4.467   0.118   8.127 -0.3522 -1.0525  1.3212
 9350SOL    HW239687   4.592   0.187   8.096  0.3307  0.6727  0.3435
 9351SOL     OW39688   1.124   0.311  17.254 -0.0086 -0.2481 -0.4437
 9351SOL    HW139689   1.131   0.264  17.171  2.1642  2.2802 -1.6781
 9351SOL    HW239690   1.029   0.315  17.260  0.1667 -0.5955  2.3832
 9352SOL     OW39691   1.982   0.066   3.521  0.6582 -0.4898 -0.0620
 9352SOL    HW139692   2.064   0.017   3.531 -0.3518 -2.0098  0.7526
 9352SOL    HW239693   2.019   0.130   3.461  2.8294 -0.3055  1.4544
 9353SOL     OW39694   3.750   4.390  11.872 -1.1735  0.2019  0.0307
 9353SOL    HW139695   3.817   4.456  11.885  0.8125 -1.6916 -0.5656
 9353SOL    HW239696   3.671   4.443  11.885 -2.0748 -1.0467 -0.3384
 9354SOL     OW39697   2.997   0.379   9.425  0.2090  0.1827  0.5513
 9354SOL    HW139698   2.966   0.290   9.440 -0.2430 -0.3088 -3.3852
 9354SOL    HW239699   3.091   0.374   9.445 -0.4952  0.8690  3.9821
 9355SOL     OW39700   3.734   1.842   1.867  0.1789  0.1733 -0.8859
 9355SOL    HW139701   3.732   1.938   1.863 -1.2231  0.1536 -0.7594
 9355SOL    HW239702   3.639   1.826   1.864  0.1989  0.1338 -1.3229
 9356SOL     OW39703   4.092   0.055   8.504 -0.6652  0.6091 -0.0646
 9356SOL    HW139704   4.161   0.103   8.458 -1.5196  2.1462  0.2346
 9356SOL    HW239705   4.052   0.132   8.546  1.0998  0.3910  2.0613
 9357SOL     OW39706   1.344   4.082   9.551 -0.0855 -0.1625  0.9877
 9357SOL    HW139707   1.425   4.032   9.558 -0.8116 -1.3867  0.6748
 9357SOL    HW239708   1.329   4.108   9.642  1.9138  0.5115  1.1153
 9358SOL     OW39709   0.587   4.589   6.758  0.7530 -0.2946  0.5587
 9358SOL    HW139710   0.588   4.629   6.845  0.9838  0.7072  0.0875
 9358SOL    HW239711   0.537   4.656   6.712  0.4624 -1.6487 -1.1016
 9359SOL     OW39712   2.290   0.545  14.361 -0.5130  0.4577  0.2393
 9359SOL    HW139713   2.308   0.636  14.336  0.9962 -0.6135 -2.5010
 9359SOL    HW239714   2.249   0.544  14.447 -2.0459 -1.0304 -0.5138
 9360SOL     OW39715   0.563   1.541   4.093  0.3211 -0.6032 -0.3529
 9360SOL    HW139716   0.633   1.476   4.081 -0.6329 -1.0973 -3.2974
 9360SOL    HW239717   0.499   1.496   4.148  0.0996  0.2238  0.0717
 9361SOL     OW39718   1.998   3.713  10.931  0.2652 -0.4773 -0.5950
 9361SOL    HW139719   1.941   3.766  10.874  0.0350  1.5410  1.5018
 9361SOL    HW239720   2.059   3.668  10.873 -0.4585 -0.2940 -1.4927
 9362SOL     OW39721   4.371   0.939   7.864  0.1850 -1.1014  0.0332
 9362SOL    HW139722   4.359   0.866   7.924  1.1687 -1.0289  0.3124
 9362SOL    HW239723   4.436   0.992   7.910  1.0638 -2.3155  0.1775
 9363SOL     OW39724   3.285   1.032   9.923  0.0653 -0.0697  0.7117
 9363SOL    HW139725   3.276   0.947   9.967 -1.1268 -0.1514  0.2862
 9363SOL    HW239726   3.234   1.092   9.977  2.3208  0.3645  2.3859
 9364SOL     OW39727   4.201   1.531   3.628  0.3155  0.1009 -0.4460
 9364SOL    HW139728   4.192   1.590   3.703  3.2115  0.8231 -0.6479
 9364SOL    HW239729   4.292   1.560   3.620  0.8989 -2.8827 -4.6739
 9365SOL     OW39730   4.017   2.588   7.439 -0.1918 -0.0679 -0.4716
 9365SOL    HW139731   4.032   2.683   7.447 -0.5911  0.0398 -0.9894
 9365SOL    HW239732   3.935   2.592   7.389 -1.0619 -2.5104  0.7969
 9366SOL     OW39733   2.495   3.403   8.328  0.1684 -0.0192 -0.0722
 9366SOL    HW139734   2.474   3.494   8.310 -0.7348 -0.3121 -0.5124
 9366SOL    HW239735   2.452   3.361   8.253  0.9273  1.6634 -1.4478
 9367SOL     OW39736   2.466   1.544   2.350 -0.3155 -0.0165  0.4048
 9367SOL    HW139737   2.380   1.570   2.383 -0.8758  1.7166 -2.4768
 9367SOL    HW239738   2.510   1.498   2.422 -1.4379 -1.1471  0.3901
 9368SOL     OW39739   2.943   2.114   5.025 -0.0980 -0.3778  0.3165
 9368SOL    HW139740   2.994   2.048   4.979  1.2301  1.6922 -1.2065
 9368SOL    HW239741   2.960   2.109   5.119  0.9767 -0.4122  0.1238
 9369SOL     OW39742   4.640   0.690   4.897 -0.1013  0.2209  0.4291
 9369SOL    HW139743   4.677   0.779   4.891  1.2209 -0.4197 -1.0162
 9369SOL    HW239744   4.642   0.689   4.993  0.6145  0.6950  0.4262
 9370SOL     OW39745   3.409   4.340   9.976  0.3771  0.4075 -0.1526
 9370SOL    HW139746   3.400   4.323  10.070 -0.1044  1.6123  0.0319
 9370SOL    HW239747   3.452   4.426   9.971  0.6769  0.3199  0.9826
 9371SOL     OW39748   2.676   2.091   8.152  0.2774 -0.3294 -0.2675
 9371SOL    HW139749   2.629   2.009   8.169 -0.1426 -0.1014 -0.3229
 9371SOL    HW239750   2.725   2.074   8.071 -0.6831  0.3306 -0.9821
 9372SOL     OW39751   4.338   4.235   5.558  0.3738  0.3657 -0.3678
 9372SOL    HW139752   4.335   4.297   5.485  1.8999 -0.1301 -0.8626
 9372SOL    HW239753   4.245   4.246   5.578  0.9048 -0.9040  2.7998
 9373SOL     OW39754   2.452   1.454   3.665 -0.1138  0.2175  0.0849
 9373SOL    HW139755   2.455   1.387   3.596 -2.0055 -1.7196  1.8869
 9373SOL    HW239756   2.538   1.495   3.667 -0.0155  0.0009  0.3419
 9374SOL     OW39757   4.672   4.030   1.999 -0.2527 -0.8758 -0.2027
 9374SOL    HW139758   4.619   4.085   2.057  0.3487  0.1630 -0.6393
 9374SOL    HW239759   4.663   3.948   2.049  0.1212 -1.3976 -0.9999
 9375SOL     OW39760   1.429   0.598   3.261  0.0660  0.3511  0.1617
 9375SOL    HW139761   1.421   0.693   3.252 -1.8180  0.2548  0.7763
 9375SOL    HW239762   1.517   0.577   3.292  0.6413 -0.1438 -1.8015
 9376SOL     OW39763   3.190   0.214   4.961 -0.2209 -0.4279  0.5572
 9376SOL    HW139764   3.187   0.229   5.056  1.2444 -1.5257  0.7819
 9376SOL    HW239765   3.200   0.120   4.951  0.5871 -0.4838  1.8568
 9377SOL     OW39766   2.787   2.171   4.266  0.0093  0.2521  0.1638
 9377SOL    HW139767   2.813   2.227   4.193 -2.5405 -0.0886 -0.9706
 9377SOL    HW239768   2.854   2.105   4.249  0.1412  0.5760 -0.5582
 9378SOL     OW39769   2.301   4.247   1.928  0.6803 -0.2767 -0.0023
 9378SOL    HW139770   2.300   4.243   2.023  1.4219 -0.3822  0.0012
 9378SOL    HW239771   2.361   4.320   1.915  0.5268 -0.4073 -1.4616
 9379SOL     OW39772   0.837   4.521   2.708 -0.2840 -0.3340  0.1513
 9379SOL    HW139773   0.819   4.559   2.794  0.9576 -1.3633  0.8760
 9379SOL    HW239774   0.844   4.427   2.727  1.8706 -0.1359  0.3927
 9380SOL     OW39775   0.670   3.074  16.651  0.0432 -0.0029 -0.1867
 9380SOL    HW139776   0.635   3.089  16.563 -0.2120 -2.3956 -0.5012
 9380SOL    HW239777   0.698   2.984  16.635 -0.7846 -0.1844 -0.6630
 9381SOL     OW39778   0.772   2.336   8.271 -0.1664  0.0849  0.1242
 9381SOL    HW139779   0.718   2.313   8.195  0.0667  3.2882 -0.9960
 9381SOL    HW239780   0.834   2.263   8.273  1.4605  1.3642 -3.2429
 9382SOL     OW39781   3.374   4.245  13.862 -0.1179 -0.1881  0.2472
 9382SOL    HW139782   3.442   4.248  13.795  0.8732 -0.0216  1.2808
 9382SOL    HW239783   3.373   4.335  13.892 -0.1470  0.3407 -1.3500
 9383SOL     OW39784   0.333   0.176   5.437  0.0297  0.2163  0.0251
 9383SOL    HW139785   0.369   0.123   5.366  1.2675  2.4251 -0.9896
 9383SOL    HW239786   0.264   0.222   5.390 -0.7788  2.4737  3.3612
 9384SOL     OW39787   0.632   1.774   8.289 -0.5666  0.3728  0.3706
 9384SOL    HW139788   0.575   1.771   8.212  1.1509 -2.3994 -0.7988
 9384SOL    HW239789   0.564   1.787   8.355  0.7307  0.7541  1.6414
 9385SOL     OW39790   1.998   2.798   1.181  0.4622  0.6220  0.0839
 9385SOL    HW139791   1.992   2.761   1.093 -0.8317  0.7805  0.1118
 9385SOL    HW239792   1.932   2.746   1.227  1.7876 -2.7401 -1.7737
 9386SOL     OW39793   0.957   2.476  16.595  0.2773  0.3342 -0.1616
 9386SOL    HW139794   0.993   2.440  16.676  0.0935  0.4663 -0.0212
 9386SOL    HW239795   0.931   2.564  16.621  2.7051  0.7650  0.7809
 9387SOL     OW39796   3.298   0.361   7.059 -0.3162 -0.1991 -1.3170
 9387SOL    HW139797   3.292   0.330   6.968 -0.6878 -0.1263 -1.3200
 9387SOL    HW239798   3.258   0.288   7.106 -0.8571  1.3753  0.6663
 9388SOL     OW39799   4.714   2.566  10.319 -0.3436 -0.6971 -0.4241
 9388SOL    HW139800   4.629   2.608  10.335  1.0803  1.6659  0.9482
 9388SOL    HW239801   4.703   2.543  10.227 -0.0343 -3.6382  0.2729
 9389SOL     OW39802   0.286   1.040   2.348  0.2843  0.0331 -0.6063
 9389SOL    HW139803   0.352   1.109   2.339  0.9482 -0.5607 -0.3815
 9389SOL    HW239804   0.238   1.079   2.421  0.0055  0.3903 -0.9827
 9390SOL     OW39805   2.939   1.792   5.205  0.7446  0.5541 -0.7641
 9390SOL    HW139806   2.895   1.714   5.171 -1.0023 -0.5200  3.9045
 9390SOL    HW239807   2.989   1.822   5.129  2.1183  0.9005  0.2794
 9391SOL     OW39808   2.683   0.176  12.945  0.2039  0.2797 -0.1531
 9391SOL    HW139809   2.708   0.089  12.914 -0.0759  0.0986  0.1262
 9391SOL    HW239810   2.757   0.196  13.003  0.4423 -0.3115 -0.2451
 9392SOL     OW39811   3.925   4.574  10.201  0.4063 -0.8457 -0.5597
 9392SOL    HW139812   3.974   4.653  10.180 -2.1706  0.7937 -0.4962
 9392SOL    HW239813   3.916   4.528  10.118 -3.2059  0.1766 -0.7261
 9393SOL     OW39814   0.680   0.464   6.145  0.7106  0.8747  0.2263
 9393SOL    HW139815   0.635   0.393   6.098  1.6697 -0.3198  1.1274
 9393SOL    HW239816   0.625   0.539   6.124 -2.2917 -1.8786 -1.8254
 9394SOL     OW39817   3.733   1.512   6.730  0.6537 -0.4050  0.0547
 9394SOL    HW139818   3.698   1.526   6.818  0.2489 -0.1878 -0.1367
 9394SOL    HW239819   3.684   1.579   6.681  0.4154 -1.2187 -0.8069
 9395SOL     OW39820   0.346   0.451   8.077 -0.1130  0.6753  0.5970
 9395SOL    HW139821   0.408   0.522   8.091  1.6906 -0.7970  0.0397
 9395SOL    HW239822   0.369   0.416   7.991 -0.6978 -0.1420  0.7756
 9396SOL     OW39823   0.344   2.991   4.183  0.0491  0.0749 -0.2771
 9396SOL    HW139824   0.307   2.924   4.240  2.1779 -1.3536 -0.6031
 9396SOL    HW239825   0.306   2.958   4.102  1.7205 -2.1294 -0.1365
 9397SOL     OW39826   3.769   4.017   2.168 -1.2771  0.2555  0.2875
 9397SOL    HW139827   3.814   4.081   2.224 -0.3729  1.2322 -1.5290
 9397SOL    HW239828   3.789   4.054   2.082  0.2455  0.3352  0.6763
 9398SOL     OW39829   3.650   4.245   7.887  0.2033 -0.4384  0.6751
 9398SOL    HW139830   3.581   4.268   7.949  1.3863  1.2029  1.3875
 9398SOL    HW239831   3.626   4.294   7.808  2.9279 -1.4134 -0.7565
 9399SOL     OW39832   4.731   2.351  13.720 -0.0560 -0.2564 -0.0201
 9399SOL    HW139833   4.699   2.438  13.743 -1.2676 -0.5681 -0.5434
 9399SOL    HW239834   0.086   2.351  13.717 -0.0743  1.2099 -0.4387
 9400SOL     OW39835   4.065   2.328  13.847 -0.1945  0.8070 -0.4207
 9400SOL    HW139836   4.131   2.382  13.890 -0.3468 -0.3993  1.3275
 9400SOL    HW239837   4.128   2.276  13.797  2.0578  0.4254  2.8101
 9401SOL     OW39838   2.202   1.638  13.320 -0.4118  0.1583 -0.4108
 9401SOL    HW139839   2.148   1.565  13.291 -1.3738 -0.0982  2.0006
 9401SOL    HW239840   2.186   1.628  13.414 -2.7660 -0.2244 -0.8538
 9402SOL     OW39841   2.599   4.687  14.193 -0.9310 -0.2184 -0.3084
 9402SOL    HW139842   2.615   0.032  14.234 -0.9288 -0.4799  0.2334
 9402SOL    HW239843   2.585   4.712  14.101  0.3441  0.4748 -0.3143
 9403SOL     OW39844   2.042   0.033   5.506  0.4893 -0.3806 -0.1842
 9403SOL    HW139845   2.124   0.082   5.509  0.1364  0.1664  0.6943
 9403SOL    HW239846   1.989   0.085   5.445  0.5012  1.1816  1.1255
 9404SOL     OW39847   3.888   3.754   1.496  0.7027  0.1661 -0.3788
 9404SOL    HW139848   3.884   3.690   1.425 -0.9234  0.1904 -0.3109
 9404SOL    HW239849   3.979   3.784   1.490  0.4081  0.7353 -2.0372
 9405SOL     OW39850   4.572   1.401   1.558  0.0763  0.2633  0.1322
 9405SOL    HW139851   4.552   1.384   1.650  0.9971  1.1309  0.4819
 9405SOL    HW239852   4.501   1.348   1.520  0.0367  0.5949 -0.2549
 9406SOL     OW39853   4.039   0.769   2.104 -0.0509  0.1049  0.4543
 9406SOL    HW139854   4.133   0.786   2.102  0.1558 -1.2971 -1.6207
 9406SOL    HW239855   4.026   0.708   2.177 -1.6492 -1.9764 -1.5537
 9407SOL     OW39856   1.891   2.844   2.337  0.1860 -0.0595  0.0096
 9407SOL    HW139857   1.964   2.835   2.399 -0.2455 -0.7911  0.4155
 9407SOL    HW239858   1.834   2.782   2.382 -1.7009  1.3006 -0.5429
 9408SOL     OW39859   1.241   0.291   0.943  0.8384  1.1226  0.2510
 9408SOL    HW139860   1.172   0.225   0.951  3.3272 -1.6306 -1.4013
 9408SOL    HW239861   1.201   0.364   0.991 -1.1492 -0.9507  1.7209
 9409SOL     OW39862   2.390   1.927   8.693 -0.8815 -0.7106  0.1201
 9409SOL    HW139863   2.434   1.997   8.644 -3.1075  0.3271 -0.4085
 9409SOL    HW239864   2.448   1.904   8.765 -1.5981 -0.4266  0.7949
 9410SOL     OW39865   2.368   3.651   8.013  0.0729  0.0638  0.0819
 9410SOL    HW139866   2.294   3.708   8.030  1.7772  1.5756  2.4478
 9410SOL    HW239867   2.362   3.637   7.919  2.1812 -1.2865  0.1507
 9411SOL     OW39868   3.977   1.423  10.038  0.5594 -0.1629 -0.2459
 9411SOL    HW139869   3.978   1.512  10.073  3.5242 -0.7704  1.2331
 9411SOL    HW239870   3.962   1.439   9.945  2.2210  1.3145 -0.2580
 9412SOL     OW39871   1.544   1.419   5.302 -0.5230  0.1867  0.0953
 9412SOL    HW139872   1.633   1.441   5.328 -0.4389 -2.8680  2.3375
 9412SOL    HW239873   1.543   1.327   5.326  1.5428  0.0466 -0.3510
 9413SOL     OW39874   0.494   3.830  14.262 -0.2033 -0.1708 -0.2197
 9413SOL    HW139875   0.400   3.817  14.251  0.2866 -0.6924 -3.7995
 9413SOL    HW239876   0.514   3.740  14.288 -2.5076 -1.3837 -2.6458
 9414SOL     OW39877   0.718   4.323   0.450 -0.0967  0.2052  0.2339
 9414SOL    HW139878   0.653   4.256   0.430  1.3344 -0.7743 -1.1731
 9414SOL    HW239879   0.792   4.283   0.405  0.7153  0.3481  1.4465
 9415SOL     OW39880   1.676   2.761   8.206 -0.2176  0.2574  0.3100
 9415SOL    HW139881   1.632   2.792   8.127 -0.3350  0.8767  0.6115
 9415SOL    HW239882   1.676   2.668   8.188 -0.8067  0.2785  0.1884
 9416SOL     OW39883   0.434   4.316   2.390  0.5146  0.0171  0.1302
 9416SOL    HW139884   0.401   4.310   2.300  1.4993  1.3496 -0.3171
 9416SOL    HW239885   0.526   4.338   2.373 -0.2171  2.9365  0.0178
 9417SOL     OW39886   3.641   0.752   1.457 -0.1594 -0.0038  0.3126
 9417SOL    HW139887   3.632   0.702   1.539  1.3794  0.4147  0.7309
 9417SOL    HW239888   3.550   0.777   1.442  0.0210  0.8167  0.6005
 9418SOL     OW39889   3.126   2.100  15.176 -0.4657  0.1190  0.1530
 9418SOL    HW139890   3.166   2.094  15.262 -2.8398 -1.9966  1.1073
 9418SOL    HW239891   3.041   2.134  15.201 -0.9017 -0.5967 -0.3534
 9419SOL     OW39892   0.830   3.338   1.277 -0.5530  0.6793 -0.1677
 9419SOL    HW139893   0.895   3.396   1.318  0.8437 -1.5148  0.7073
 9419SOL    HW239894   0.891   3.307   1.210  1.6919  0.6710  1.8806
 9420SOL     OW39895   2.612   2.127   2.429 -0.5128 -0.1783 -0.6531
 9420SOL    HW139896   2.633   2.054   2.370  0.2478 -0.7100  0.2935
 9420SOL    HW239897   2.702   2.160   2.428 -0.6833  0.2841 -0.6697
 9421SOL     OW39898   3.312   2.395   8.303 -0.0683 -0.3923  0.3732
 9421SOL    HW139899   3.272   2.451   8.237  1.1166  1.3433  1.1251
 9421SOL    HW239900   3.234   2.349   8.336  0.7779  0.5998  3.7529
 9422SOL     OW39901   1.452   3.596  16.130 -0.1583  0.0347 -0.1457
 9422SOL    HW139902   1.476   3.579  16.039  2.6959  1.1389  0.4226
 9422SOL    HW239903   1.409   3.514  16.156  1.7821 -0.6885  0.7530
 9423SOL     OW39904   0.946   0.104   5.196  0.3969 -0.1325  0.2498
 9423SOL    HW139905   1.021   0.124   5.252 -2.4296  0.7640  3.6689
 9423SOL    HW239906   0.989   0.095   5.111  0.6574  0.1106  0.3540
 9424SOL     OW39907   2.176   4.361  13.633 -0.7579 -0.3599  0.3398
 9424SOL    HW139908   2.090   4.378  13.595 -0.2013 -2.9323 -2.0400
 9424SOL    HW239909   2.230   4.335  13.558 -0.6699 -1.9542  0.9700
 9425SOL     OW39910   1.778   2.251   0.273 -0.6470 -0.0425 -0.0958
 9425SOL    HW139911   1.867   2.288   0.272  0.1583 -1.9407  0.8040
 9425SOL    HW239912   1.722   2.326   0.293 -1.4580 -0.3063 -1.4401
 9426SOL     OW39913   2.506   1.659  14.498 -0.2925  0.0105  0.2836
 9426SOL    HW139914   2.598   1.670  14.475  0.2834 -2.5818  1.4165
 9426SOL    HW239915   2.471   1.749  14.501 -0.2762  0.0741 -1.3120
 9427SOL     OW39916   0.950   3.168   2.993  0.5355 -0.0428 -0.6902
 9427SOL    HW139917   0.855   3.168   2.981  0.1645 -1.2733  2.3353
 9427SOL    HW239918   0.982   3.189   2.905 -1.0307  0.6586 -1.0807
 9428SOL     OW39919   3.971   4.521  17.212  0.4240  0.0005  0.1952
 9428SOL    HW139920   4.045   4.468  17.243  1.1532 -0.4134 -2.3011
 9428SOL    HW239921   3.967   4.595  17.272 -1.9267 -0.0435  0.1074
 9429SOL     OW39922   1.661   2.986   3.871 -0.2535  0.0764 -0.0613
 9429SOL    HW139923   1.607   3.048   3.822 -1.3294  0.0847  1.1308
 9429SOL    HW239924   1.638   2.899   3.838  1.2850  0.5964 -2.4714
 9430SOL     OW39925   1.110   2.595   6.508  0.2356 -0.8413 -0.1272
 9430SOL    HW139926   1.043   2.651   6.468 -0.1028 -1.6638 -0.6950
 9430SOL    HW239927   1.072   2.578   6.595 -1.7656  2.7876 -0.2692
 9431SOL     OW39928   1.815   0.724   9.328 -0.8377  0.0315 -0.0999
 9431SOL    HW139929   1.869   0.795   9.364 -0.0670 -0.8902  0.5564
 9431SOL    HW239930   1.769   0.682   9.400  3.3336  2.1778  3.8070
 9432SOL     OW39931   3.200   3.897   4.373 -0.2283 -0.0314  0.5668
 9432SOL    HW139932   3.281   3.914   4.326 -1.4338  1.2740 -1.0555
 9432SOL    HW239933   3.226   3.933   4.457  0.3753 -0.4272  0.5491
 9433SOL     OW39934   0.439   0.540  15.009 -0.5895  0.5254  0.3658
 9433SOL    HW139935   0.378   0.541  14.935  0.5824 -2.8644 -0.6426
 9433SOL    HW239936   0.525   0.558  14.970 -1.3991 -1.2794 -2.2643
 9434SOL     OW39937   0.664   2.597   5.304 -0.1707 -0.0897  0.3252
 9434SOL    HW139938   0.676   2.629   5.215  0.2552  0.7345  0.6845
 9434SOL    HW239939   0.570   2.579   5.311 -0.5254  2.3125  1.7622
 9435SOL     OW39940   1.024   1.581   4.312 -0.3030 -0.9363  0.5019
 9435SOL    HW139941   1.063   1.546   4.392  1.2288 -0.2453  0.0414
 9435SOL    HW239942   1.004   1.672   4.333 -1.1069 -0.5874 -1.7576
 9436SOL     OW39943   2.867   2.665   3.397  0.0716  0.4054  0.0926
 9436SOL    HW139944   2.805   2.732   3.423  0.0589  0.2600  0.4376
 9436SOL    HW239945   2.875   2.620   3.481 -0.8773 -0.4209 -0.2492
 9437SOL     OW39946   2.128   0.465   1.495  0.0885 -0.3732  0.0934
 9437SOL    HW139947   2.048   0.485   1.446  1.3507 -1.4689 -2.4163
 9437SOL    HW239948   2.162   0.384   1.459  1.8206  0.0925  0.6955
 9438SOL     OW39949   3.905   2.076  13.328  0.5383  0.1087  0.4381
 9438SOL    HW139950   3.820   2.083  13.371  1.1262  0.0624  1.6123
 9438SOL    HW239951   3.963   2.103  13.399  0.6493 -0.2610  0.4905
 9439SOL     OW39952   2.040   0.704   6.494 -0.2258  0.3782  0.3654
 9439SOL    HW139953   2.062   0.776   6.553  0.3957  1.6270 -1.4180
 9439SOL    HW239954   1.950   0.693   6.525  0.3676  0.7306  2.2239
 9440SOL     OW39955   0.984   0.317  10.857 -0.1744 -0.5000  0.0938
 9440SOL    HW139956   0.912   0.371  10.821  2.3809  3.0794  0.3732
 9440SOL    HW239957   1.016   0.373  10.927  0.1237  1.6079 -1.7198
 9441SOL     OW39958   0.654   2.444   2.068  0.3126 -0.0375  0.5175
 9441SOL    HW139959   0.667   2.357   2.108 -0.8648 -0.0947  0.7600
 9441SOL    HW239960   0.744   2.475   2.079 -0.1007  0.5282  2.3802
 9442SOL     OW39961   1.071   3.554   9.921  0.2295  0.1793 -0.1381
 9442SOL    HW139962   1.115   3.634   9.951 -0.0180  1.1769 -2.3570
 9442SOL    HW239963   1.040   3.512  10.001  0.3236  1.7382  0.7169
 9443SOL     OW39964   2.975   2.287   3.837 -0.6004 -0.6165 -0.2270
 9443SOL    HW139965   2.941   2.198   3.840 -0.2392 -0.8076 -1.7523
 9443SOL    HW239966   3.023   2.294   3.754 -0.4650  0.1670 -0.0886
 9444SOL     OW39967   2.042   3.061   3.112 -0.0404 -0.0628 -0.5380
 9444SOL    HW139968   1.959   3.077   3.067 -0.5046  1.9072  0.9920
 9444SOL    HW239969   2.052   3.148   3.151  1.9800 -0.2623 -0.5989
 9445SOL     OW39970   4.283   1.803   3.364  0.3683  0.1834 -0.4999
 9445SOL    HW139971   4.347   1.845   3.306 -0.9584  3.2518  0.2487
 9445SOL    HW239972   4.278   1.879   3.422 -1.7178  0.1452 -0.6026
 9446SOL     OW39973   1.739   3.404   1.703  0.0291 -0.1295  0.2101
 9446SOL    HW139974   1.690   3.478   1.668  0.6448  1.7216  3.1873
 9446SOL    HW239975   1.824   3.407   1.658  0.4569  1.5391  1.1182
 9447SOL     OW39976   2.774   1.476   7.639 -0.3916  0.1333 -0.7300
 9447SOL    HW139977   2.688   1.439   7.618 -0.9880  1.0928  0.0378
 9447SOL    HW239978   2.797   1.509   7.552 -1.3316 -1.9555 -1.7648
 9448SOL     OW39979   4.611   2.385   8.532  0.1989 -0.6303 -0.1947
 9448SOL    HW139980   4.516   2.388   8.529  0.2563 -0.1179 -1.4884
 9448SOL    HW239981   4.623   2.392   8.438  2.0181  0.6490  0.1295
 9449SOL     OW39982   1.509   2.291  10.350 -0.0930  0.0364  0.4329
 9449SOL    HW139983   1.508   2.342  10.269 -0.3832 -1.3115 -0.4168
 9449SOL    HW239984   1.415   2.294  10.367 -0.3153  2.8048 -1.1709
 9450SOL     OW39985   1.570   0.084   8.235  0.2038  0.8462  0.1513
 9450SOL    HW139986   1.510   0.027   8.284 -0.6996  1.9295  0.2964
 9450SOL    HW239987   1.638   0.017   8.229  0.6047  1.0678  2.2926
 9451SOL     OW39988   1.985   0.766   2.094 -0.4728 -0.0693  0.0383
 9451SOL    HW139989   2.000   0.831   2.163  1.1492 -2.6120  2.0698
 9451SOL    HW239990   1.995   0.832   2.025 -1.2155 -0.9032 -0.8770
 9452SOL     OW39991   2.757   4.714   1.769  0.1073 -1.0248 -0.2908
 9452SOL    HW139992   2.773   4.662   1.848  0.0432 -0.4244  0.1167
 9452SOL    HW239993   2.829   4.683   1.713  1.0025  0.4076  0.0629
 9453SOL     OW39994   4.573   1.551   8.743 -0.1637 -0.0599 -0.8815
 9453SOL    HW139995   4.635   1.614   8.779 -0.9279  0.4483 -0.4386
 9453SOL    HW239996   4.631   1.483   8.708  1.1112  0.9215 -0.6334
 9454SOL     OW39997   2.313   2.164  10.434  0.6115 -0.0371 -0.1591
 9454SOL    HW139998   2.348   2.161  10.523  0.1392 -0.4531  0.0111
 9454SOL    HW239999   2.350   2.247  10.405  0.9116 -0.0348  0.2380
 9455SOL     OW40000   3.645   1.049   7.681  0.6439 -0.5745  0.2573
 9455SOL    HW140001   3.552   1.043   7.704  0.5927  1.1021  0.4784
 9455SOL    HW240002   3.677   0.969   7.722  2.2964  0.4502  0.9238
 9456SOL     OW40003   2.539   1.257   9.517 -0.1728 -0.0877 -0.7602
 9456SOL    HW140004   2.511   1.284   9.430  1.2098  4.4529  0.1965
 9456SOL    HW240005   2.625   1.299   9.527 -1.1698  1.8418 -0.4090
 9457SOL     OW40006   2.278   1.159  10.022  0.6551  0.4017  0.3619
 9457SOL    HW140007   2.200   1.207   9.994  1.1632  1.1101  0.1665
 9457SOL    HW240008   2.346   1.216  10.057 -1.0245  3.0972 -0.7637
 9458SOL     OW40009   1.874   0.681   0.065  0.2304  0.0963 -0.3676
 9458SOL    HW140010   1.889   0.587   0.056 -0.2170 -0.1136  0.9451
 9458SOL    HW240011   1.782   0.698   0.042 -0.3830  0.2771  2.1735
 9459SOL     OW40012   2.555   0.386  15.656 -0.4571 -0.6141  0.1760
 9459SOL    HW140013   2.628   0.324  15.653 -0.4183 -0.5507 -0.2257
 9459SOL    HW240014   2.603   0.468  15.642 -0.0623 -0.5968  1.6044
 9460SOL     OW40015   2.479   4.146  17.289 -0.0621 -0.1728  0.6897
 9460SOL    HW140016   2.390   4.131  17.321  0.0331 -0.7201  0.7034
 9460SOL    HW240017   2.481   4.082  17.218 -0.0893  0.5484  0.0374
 9461SOL     OW40018   1.514   2.651   7.830 -0.3064  0.0661  0.2541
 9461SOL    HW140019   1.500   2.684   7.741 -0.1788  1.6106  0.8133
 9461SOL    HW240020   1.533   2.560   7.806 -0.2332  0.4121 -0.9893
 9462SOL     OW40021   1.735   2.707   8.865  0.4275  0.0873  0.5233
 9462SOL    HW140022   1.688   2.774   8.915 -0.0425  0.4421 -0.3925
 9462SOL    HW240023   1.825   2.722   8.894  0.5088  0.6663 -0.0387
 9463SOL     OW40024   0.726   3.539   4.367 -0.2751  0.3999 -0.4687
 9463SOL    HW140025   0.713   3.444   4.358 -1.0180  0.5113 -0.5650
 9463SOL    HW240026   0.643   3.555   4.411 -0.2362  1.5862 -0.8307
 9464SOL     OW40027   3.403   3.317   4.701 -0.6640  0.7275 -0.2153
 9464SOL    HW140028   3.398   3.402   4.745 -2.7787  0.0554  0.8604
 9464SOL    HW240029   3.460   3.267   4.759 -2.4567 -2.5620 -1.2293
 9465SOL     OW40030   2.419   4.303   2.905  0.5126  0.2727 -0.3917
 9465SOL    HW140031   2.466   4.262   2.978 -1.2967 -1.6106 -0.2905
 9465SOL    HW240032   2.377   4.229   2.861 -1.1811  0.7257  0.4931
 9466SOL     OW40033   1.720   4.256   3.853  0.0028 -0.6308  0.9048
 9466SOL    HW140034   1.671   4.174   3.865 -0.4404 -0.6294 -1.0225
 9466SOL    HW240035   1.799   4.236   3.903 -0.3147  0.0684  1.6998
 9467SOL     OW40036   2.346   2.642   7.842  0.2916  0.2087 -0.0901
 9467SOL    HW140037   2.425   2.694   7.858  0.3076  0.4146 -0.8369
 9467SOL    HW240038   2.301   2.698   7.778  2.3193  2.1343  0.1697
 9468SOL     OW40039   3.789   1.274   4.469  0.1612  0.3590 -0.1196
 9468SOL    HW140040   3.838   1.263   4.387 -0.4709  0.4498 -0.5025
 9468SOL    HW240041   3.703   1.239   4.444 -0.8925  0.7523  3.0580
 9469SOL     OW40042   1.392   3.299   2.739 -0.1646 -0.2306  0.3660
 9469SOL    HW140043   1.406   3.224   2.798  0.9255 -1.5111 -1.5302
 9469SOL    HW240044   1.469   3.350   2.763  1.8530 -2.6636 -0.9513
 9470SOL     OW40045   1.603   4.109  17.059  0.3040 -0.3601 -0.5772
 9470SOL    HW140046   1.585   4.037  17.119  0.0534  0.4339  0.2929
 9470SOL    HW240047   1.670   4.079  16.998  0.7678 -3.1795  1.3166
 9471SOL     OW40048   0.017   2.353   7.278 -0.0329 -0.1885 -0.0833
 9471SOL    HW140049   0.062   2.437   7.275 -0.4584  0.0863  1.2335
 9471SOL    HW240050   0.079   2.301   7.227 -1.6057 -0.3942 -1.7787
 9472SOL     OW40051   2.735   3.258   2.695  0.3965  0.6770 -0.6408
 9472SOL    HW140052   2.693   3.282   2.613  0.1442 -1.6211 -1.1937
 9472SOL    HW240053   2.712   3.336   2.747  1.5799 -1.3400  2.9454
 9473SOL     OW40054   1.012   0.725   3.363 -0.3853 -0.2405  0.2303
 9473SOL    HW140055   0.923   0.742   3.395 -0.5591  0.3602 -0.5582
 9473SOL    HW240056   1.064   0.805   3.367 -0.6248 -0.2015  2.5021
 9474SOL     OW40057   0.245   2.585  15.652  0.5947  0.2996  0.2623
 9474SOL    HW140058   0.309   2.598  15.581 -0.1621 -0.7906 -0.6290
 9474SOL    HW240059   0.304   2.543  15.715  0.8223 -3.0279 -2.1830
 9475SOL     OW40060   2.792   0.112   7.717 -0.7577 -0.7197 -0.0376
 9475SOL    HW140061   2.789   0.017   7.726  0.2252 -1.0758 -3.7825
 9475SOL    HW240062   2.814   0.135   7.808  0.9686 -0.8661 -0.4332
 9476SOL     OW40063   0.067   1.829  13.211  0.4020 -0.4439 -0.4991
 9476SOL    HW140064   4.724   1.782  13.206 -0.0092 -0.0604  2.7654
 9476SOL    HW240065   0.065   1.861  13.121 -2.2138 -0.5835 -0.4826
 9477SOL     OW40066   1.674   3.009  11.845  0.5129 -0.2348 -0.3569
 9477SOL    HW140067   1.757   3.055  11.854 -0.1002  1.4135 -2.9948
 9477SOL    HW240068   1.675   2.936  11.906  0.7313  0.1936  0.1524
 9478SOL     OW40069   3.487   4.242   0.248 -0.3558  0.0409  0.3656
 9478SOL    HW140070   3.535   4.305   0.301  0.9996 -0.5614 -0.1407
 9478SOL    HW240071   3.415   4.210   0.302  0.7216 -0.5706  1.4493
 9479SOL     OW40072   4.541   4.025   7.587 -0.7937 -0.3310 -0.2661
 9479SOL    HW140073   4.524   4.080   7.664 -2.2602  1.2627 -1.7404
 9479SOL    HW240074   4.455   3.984   7.585  0.2581 -2.3900 -3.0254
 9480SOL     OW40075   0.797   4.390   4.616  0.2363 -0.4697 -0.4786
 9480SOL    HW140076   0.726   4.437   4.660 -0.5064 -0.9543 -1.1489
 9480SOL    HW240077   0.837   4.352   4.693 -0.0755 -1.4434 -0.7948
 9481SOL     OW40078   2.868   0.600   9.513 -0.1661 -0.0560  0.0302
 9481SOL    HW140079   2.782   0.573   9.547 -2.0591  1.9515 -3.2261
 9481SOL    HW240080   2.903   0.512   9.495 -1.9223 -0.4898 -1.3683
 9482SOL     OW40081   3.615   2.882  10.299 -0.0707 -0.0951 -0.3278
 9482SOL    HW140082   3.544   2.834  10.342 -1.4138  1.9925 -0.2728
 9482SOL    HW240083   3.588   2.878  10.207  0.8452 -0.7181 -0.5677
 9483SOL     OW40084   4.641   3.818   6.407  0.5348  0.1591 -0.2669
 9483SOL    HW140085   4.717   3.834   6.463  0.1708  0.3603  0.1636
 9483SOL    HW240086   4.578   3.849   6.472 -0.5970  1.5112 -2.0064
 9484SOL     OW40087   1.764   3.929   8.623 -0.3712  0.3777  0.4145
 9484SOL    HW140088   1.679   3.966   8.598 -0.9155  0.6737  2.7082
 9484SOL    HW240089   1.796   3.899   8.537  0.2587  1.6498  0.1998
 9485SOL     OW40090   2.177   0.560   1.207 -0.0936  0.4692  0.0771
 9485SOL    HW140091   2.222   0.634   1.167  0.8604  0.5788  1.3564
 9485SOL    HW240092   2.110   0.538   1.142  0.7725 -1.5650 -0.1197
 9486SOL     OW40093   0.641   2.833   5.913 -0.0726  0.5022 -0.3936
 9486SOL    HW140094   0.611   2.911   5.866  0.6555  1.2604  0.4043
 9486SOL    HW240095   0.571   2.770   5.895  0.6372 -0.6850  1.0078
 9487SOL     OW40096   2.009   4.022   1.505  0.1647  0.2848 -0.4125
 9487SOL    HW140097   2.092   4.016   1.552  1.8633  2.1846 -3.1048
 9487SOL    HW240098   2.008   3.942   1.453 -1.3185 -0.6515  1.0716
 9488SOL     OW40099   4.721   1.171  16.135  0.6210 -0.2351 -0.3889
 9488SOL    HW140100   0.043   1.227  16.090  1.1656 -0.5244  0.0087
 9488SOL    HW240101   4.717   1.094  16.078 -0.5874 -0.9557  0.6507
 9489SOL     OW40102   3.731   0.524   6.300  0.2716  0.0808  0.0238
 9489SOL    HW140103   3.784   0.488   6.371 -0.6933 -2.2841 -0.4410
 9489SOL    HW240104   3.721   0.616   6.325  1.4012 -0.1162  1.1850
 9490SOL     OW40105   1.807   0.230   4.829 -0.6988 -0.1768 -0.3537
 9490SOL    HW140106   1.856   0.250   4.749  1.5408 -0.5350  0.9551
 9490SOL    HW240107   1.768   0.318   4.825 -2.0419 -0.6475  2.3933
 9491SOL     OW40108   2.267   0.479  13.717  0.6163  0.2211  0.2909
 9491SOL    HW140109   2.281   0.392  13.754 -0.5577  0.3368  1.0100
 9491SOL    HW240110   2.304   0.524  13.793 -1.3018 -0.7576  1.7955
 9492SOL     OW40111   1.100   0.059   6.614 -0.0240 -0.3561 -0.4046
 9492SOL    HW140112   1.095   0.151   6.588 -1.0589 -0.2843  0.0450
 9492SOL    HW240113   1.008   0.045   6.633  0.3969  0.3476  2.2298
 9493SOL     OW40114   1.741   1.062   6.831  0.5672  0.0563  0.1878
 9493SOL    HW140115   1.665   1.073   6.889  1.0918 -0.2472  0.9287
 9493SOL    HW240116   1.771   1.152   6.842  2.2067 -0.5087  0.2555
 9494SOL     OW40117   0.374   0.103   3.116  0.7792  0.9581 -0.1776
 9494SOL    HW140118   0.350   0.170   3.180  0.9605  0.8538 -0.0013
 9494SOL    HW240119   0.451   0.147   3.080 -0.5231  3.1603 -0.2728
 9495SOL     OW40120   2.950   3.754   4.062 -0.3407  0.2669 -0.3392
 9495SOL    HW140121   3.028   3.792   4.021 -1.2506  3.1252  0.6439
 9495SOL    HW240122   2.957   3.786   4.151 -0.4754  1.0755 -0.6227
 9496SOL     OW40123   1.800   3.067   1.930 -0.5430  0.0690  0.2411
 9496SOL    HW140124   1.853   3.012   1.989 -1.3493 -0.0389  0.8658
 9496SOL    HW240125   1.803   3.021   1.846  2.2748  0.0269  0.3385
 9497SOL     OW40126   4.275   1.297   6.258  0.6685  0.1504 -0.4650
 9497SOL    HW140127   4.350   1.341   6.297  2.2453 -1.8644 -1.2267
 9497SOL    HW240128   4.218   1.285   6.334  1.9790 -0.8179  0.3641
 9498SOL     OW40129   1.370   2.990   6.097 -0.0666  0.5078  0.1294
 9498SOL    HW140130   1.380   3.081   6.124  0.0641 -0.0652  2.0041
 9498SOL    HW240131   1.453   2.949   6.121 -1.0807 -2.5742 -1.6081
 9499SOL     OW40132   2.699   4.406   0.760  0.0362  0.0482 -0.3583
 9499SOL    HW140133   2.737   4.443   0.840 -0.2947 -0.9658  0.2631
 9499SOL    HW240134   2.604   4.416   0.767  0.2313  2.0671 -0.5688
 9500SOL     OW40135   0.614   2.908   2.386 -0.2155 -0.6018 -0.1225
 9500SOL    HW140136   0.623   2.840   2.454  1.3008  0.2250  0.4961
 9500SOL    HW240137   0.624   2.840   2.320  1.2348 -2.1807  1.7261
 9501SOL     OW40138   4.201   1.662   3.892 -0.0316 -0.4115 -1.0539
 9501SOL    HW140139   4.236   1.687   3.977 -0.8519  0.2182 -0.9088
 9501SOL    HW240140   4.261   1.702   3.829 -1.2733 -0.7375 -2.4441
 9502SOL     OW40141   2.233   2.674   3.056  0.6084  0.4327 -0.3364
 9502SOL    HW140142   2.194   2.628   2.982  0.7678 -1.3270  0.6863
 9502SOL    HW240143   2.233   2.765   3.025 -0.3674 -0.1431 -2.0471
 9503SOL     OW40144   2.187   2.405  12.874  0.0220  0.1059 -0.9135
 9503SOL    HW140145   2.278   2.374  12.869 -0.0328 -0.3944  0.9649
 9503SOL    HW240146   2.199   2.500  12.869  1.7353 -0.1775 -2.2899
 9504SOL     OW40147   4.685   3.014   8.005  0.0703  0.3653  1.0819
 9504SOL    HW140148   4.619   2.979   8.065 -0.2460 -0.2867  0.3638
 9504SOL    HW240149   4.726   2.935   7.970 -0.3541  1.5181 -2.1168
 9505SOL     OW40150   2.866   4.158  12.224 -0.6377  0.0962  0.4198
 9505SOL    HW140151   2.856   4.188  12.315  2.4493  0.1854  0.7048
 9505SOL    HW240152   2.868   4.063  12.230 -1.2360  0.1491  1.4999
 9506SOL     OW40153   0.809   1.367   1.971  0.1587  0.2690  0.2314
 9506SOL    HW140154   0.829   1.327   1.886 -1.6444  0.1103 -0.1128
 9506SOL    HW240155   0.721   1.334   1.988  1.3201 -2.8250  0.3191
 9507SOL     OW40156   3.404   2.135  12.244  0.5162 -0.3012  0.4000
 9507SOL    HW140157   3.457   2.058  12.264  1.6393  1.0748  2.8185
 9507SOL    HW240158   3.406   2.176  12.331  2.3835 -1.7806  1.0750
 9508SOL     OW40159   1.148   3.980  17.458 -0.3313  0.3852 -0.3649
 9508SOL    HW140160   1.209   3.933  17.514 -0.3372  0.7977 -0.0118
 9508SOL    HW240161   1.212   4.044  17.424 -1.5254  1.7703  0.0046
 9509SOL     OW40162   0.613   3.799   7.408 -0.4645 -0.0597 -0.0725
 9509SOL    HW140163   0.659   3.878   7.378 -0.8725 -0.4644 -1.7060
 9509SOL    HW240164   0.524   3.833   7.404  0.4407  2.3932  0.2795
 9510SOL     OW40165   1.427   2.189   9.421 -0.6768 -0.4531 -0.0486
 9510SOL    HW140166   1.398   2.204   9.511 -0.6345 -1.3144  0.1083
 9510SOL    HW240167   1.420   2.278   9.385  0.5483 -0.9220 -1.4700
 9511SOL     OW40168   3.215   2.658   1.999 -0.0688 -0.6205  0.2179
 9511SOL    HW140169   3.270   2.583   2.024 -1.9235 -2.1608 -0.3145
 9511SOL    HW240170   3.258   2.677   1.916 -0.2389 -0.0509  0.2634
 9512SOL     OW40171   1.976   3.923  17.233 -0.3148  0.3448  0.5337
 9512SOL    HW140172   1.978   3.969  17.149 -0.5120 -0.0264  0.3268
 9512SOL    HW240173   1.906   3.860  17.215  0.1334  0.2064 -0.7536
 9513SOL     OW40174   3.138   4.005   3.984  0.0135 -0.4964  1.1290
 9513SOL    HW140175   3.138   4.067   4.057  2.0068 -1.0952  1.6191
 9513SOL    HW240176   3.218   3.956   4.002  0.2013  0.6696  3.4742
 9514SOL     OW40177   0.186   2.723   9.766 -0.0454  0.4283  0.6869
 9514SOL    HW140178   0.236   2.803   9.751 -1.0137  0.2417 -3.5038
 9514SOL    HW240179   0.197   2.710   9.860  0.5771 -0.5647  0.4780
 9515SOL     OW40180   1.903   4.154   8.733  0.3382  0.3030  0.5083
 9515SOL    HW140181   1.905   4.172   8.639 -0.1800  1.2393  0.6799
 9515SOL    HW240182   1.846   4.078   8.731  0.7609  0.0068 -0.4226
 9516SOL     OW40183   0.250   3.912   1.261 -0.4257  0.7863  0.4329
 9516SOL    HW140184   0.172   3.942   1.308  0.0760  0.6723  1.3291
 9516SOL    HW240185   0.306   3.990   1.254 -0.7617  0.9735 -0.1864
 9517SOL     OW40186   3.522   1.829  17.254 -0.0105 -0.2015 -0.3968
 9517SOL    HW140187   3.452   1.870  17.305  0.5236  0.2977 -0.0650
 9517SOL    HW240188   3.462   1.798  17.186 -2.7087  0.5884  1.6129
 9518SOL     OW40189   3.826   2.127   5.318 -0.0203 -0.1226  0.7357
 9518SOL    HW140190   3.888   2.054   5.318 -0.8507 -0.8348 -1.7183
 9518SOL    HW240191   3.763   2.091   5.380  0.4640 -0.4413  1.0484
 9519SOL     OW40192   4.556   4.329   4.652  0.6101 -0.1381  0.1055
 9519SOL    HW140193   4.513   4.387   4.715  1.6153 -1.4042  1.9687
 9519SOL    HW240194   4.606   4.397   4.607 -0.5449  0.7573  0.1751
 9520SOL     OW40195   0.356   0.268  13.434 -0.0241 -0.6704  0.1669
 9520SOL    HW140196   0.407   0.194  13.467 -0.6498 -0.0558  2.5043
 9520SOL    HW240197   0.388   0.267  13.343  0.9184  1.1109  0.4819
 9521SOL     OW40198   0.507   4.058   2.180  0.0154 -0.4674  0.2537
 9521SOL    HW140199   0.593   4.064   2.221 -0.4251 -1.1917  1.2932
 9521SOL    HW240200   0.503   3.972   2.138  1.4352 -0.3554 -0.1158
 9522SOL     OW40201   2.872   0.058  16.916 -0.2704 -0.0229  0.4135
 9522SOL    HW140202   2.808   0.024  16.853  0.3314  1.8342 -1.1812
 9522SOL    HW240203   2.812   0.112  16.966  0.8843  2.2585 -0.6753
 9523SOL     OW40204   3.016   4.696   5.688 -0.0026 -0.3801  0.4642
 9523SOL    HW140205   3.034   4.645   5.609  0.2695 -0.9670  0.9091
 9523SOL    HW240206   3.028   0.043   5.652  1.0582 -1.3038 -1.4604
 9524SOL     OW40207   2.459   2.512   0.258  0.2882 -0.0327  0.1794
 9524SOL    HW140208   2.499   2.590   0.296 -0.2443 -0.3676  1.4239
 9524SOL    HW240209   2.503   2.509   0.173  0.5732 -1.1613  0.3618
 9525SOL     OW40210   1.353   1.966   8.154 -0.0774 -0.4116 -0.1901
 9525SOL    HW140211   1.281   1.902   8.158  0.2497 -0.7367  0.4408
 9525SOL    HW240212   1.374   1.954   8.061  0.2026  1.7096 -0.3866
 9526SOL     OW40213   2.420   1.655  10.194  0.2126 -0.1611  0.1877
 9526SOL    HW140214   2.368   1.719  10.243 -2.5487 -1.3302 -1.2027
 9526SOL    HW240215   2.498   1.647  10.249 -1.2854 -0.8009  2.2052
 9527SOL     OW40216   4.065   1.339   4.778 -0.3860 -0.6611  0.2264
 9527SOL    HW140217   4.123   1.402   4.820 -2.3963  1.0856  0.3378
 9527SOL    HW240218   3.985   1.390   4.768  0.6275  0.3936 -2.4766
 9528SOL     OW40219   3.567   0.697   2.740  0.3335 -0.1114  0.0432
 9528SOL    HW140220   3.628   0.627   2.765 -0.5066 -0.8553  0.0052
 9528SOL    HW240221   3.614   0.765   2.788  0.1765 -0.1263  0.2181
 9529SOL     OW40222   4.604   1.625   6.106 -0.1820 -0.1956  0.8297
 9529SOL    HW140223   4.522   1.594   6.145 -0.1041 -2.3086 -0.6565
 9529SOL    HW240224   4.659   1.547   6.118 -1.1194 -0.9094  0.5460
 9530SOL     OW40225   2.033   1.282   2.783  0.1149  0.0534  0.1875
 9530SOL    HW140226   2.013   1.207   2.727  0.0782  0.7060 -0.6614
 9530SOL    HW240227   2.009   1.256   2.872 -1.6107 -1.9044 -0.8463
 9531SOL     OW40228   1.992   1.259   3.304  0.1582  0.2604 -0.6742
 9531SOL    HW140229   2.011   1.165   3.301  1.3971  0.5487 -2.1016
 9531SOL    HW240230   1.900   1.284   3.301  0.3642  0.8249 -2.2361
 9532SOL     OW40231   2.183   2.651   8.108 -0.0724  0.3252  0.1181
 9532SOL    HW140232   2.097   2.661   8.067  1.0837 -0.4224 -2.4996
 9532SOL    HW240233   2.225   2.622   8.027  2.3226  3.8274  0.0926
 9533SOL     OW40234   2.106   1.108   2.998  0.1242 -0.2271 -0.3714
 9533SOL    HW140235   2.121   1.027   2.949  0.0954 -0.1018 -0.5850
 9533SOL    HW240236   2.056   1.074   3.072  1.5886 -3.0166 -0.6631
 9534SOL     OW40237   4.524   3.713   5.147  0.7006 -0.1505  0.0363
 9534SOL    HW140238   4.479   3.797   5.144 -1.9124 -1.5034  2.3073
 9534SOL    HW240239   4.466   3.668   5.086  0.8164  0.9737 -0.9025
 9535SOL     OW40240   3.458   2.274   8.924 -0.0491  0.0102  0.0145
 9535SOL    HW140241   3.410   2.227   8.857  0.8627  0.0172 -0.6376
 9535SOL    HW240242   3.402   2.346   8.955 -1.3690 -0.7241 -0.6775
 9536SOL     OW40243   1.876   0.408   0.105 -0.6988 -0.2898  0.3681
 9536SOL    HW140244   1.838   0.331   0.064 -1.7496 -0.1878  1.1533
 9536SOL    HW240245   1.807   0.420   0.171 -2.3954 -2.9461 -0.9449
 9537SOL     OW40246   0.455   0.065   9.415 -0.1869 -0.3580  0.2630
 9537SOL    HW140247   0.388   0.048   9.349 -0.2332  1.2654 -0.1098
 9537SOL    HW240248   0.445   4.726   9.467 -1.6572 -0.6254 -0.4493
 9538SOL     OW40249   2.806   0.674   6.201 -0.0896 -0.2851 -0.5809
 9538SOL    HW140250   2.785   0.611   6.270 -2.0476  1.1670  0.1244
 9538SOL    HW240251   2.819   0.748   6.260 -0.0614  1.0404 -2.2628
 9539SOL     OW40252   1.093   4.477   7.244 -0.1861 -0.1380  0.0580
 9539SOL    HW140253   1.052   4.499   7.161  1.1429  3.3996  0.3449
 9539SOL    HW240254   1.187   4.485   7.225 -0.5689  1.3532 -1.2714
 9540SOL     OW40255   0.612   4.669   4.295  0.0063  0.1184 -0.8772
 9540SOL    HW140256   0.651   4.615   4.227  1.8018  0.2529  0.0408
 9540SOL    HW240257   0.538   4.612   4.319 -1.3664  2.2514  0.0006
 9541SOL     OW40258   4.470   0.828   6.725  0.0396  0.7271  0.1193
 9541SOL    HW140259   4.481   0.886   6.800 -0.9572  1.1938 -0.0919
 9541SOL    HW240260   4.376   0.808   6.728  0.1036  0.5063  0.5923
 9542SOL     OW40261   1.991   2.873   4.762  0.5094 -0.0377  0.3225
 9542SOL    HW140262   2.077   2.898   4.727 -0.3774  1.1645 -1.0051
 9542SOL    HW240263   2.026   2.849   4.847  0.8709 -2.8125 -0.6107
 9543SOL     OW40264   3.545   3.438   5.956 -0.4818  0.2410  0.5122
 9543SOL    HW140265   3.589   3.378   5.897 -1.6224  2.0030 -2.1127
 9543SOL    HW240266   3.458   3.401   5.971  0.2907 -1.3370  1.1174
 9544SOL     OW40267   1.937   2.509   2.985  0.0874  0.2047 -0.6895
 9544SOL    HW140268   1.904   2.586   2.938  1.0938  2.1618  1.7901
 9544SOL    HW240269   1.977   2.459   2.914  1.8049 -1.3512  1.3778
 9545SOL     OW40270   4.121   2.814  17.327  0.0674 -0.6561  0.2461
 9545SOL    HW140271   4.045   2.758  17.340 -0.7603  0.3338 -0.2829
 9545SOL    HW240272   4.156   2.813  17.416  2.0316  0.0331 -0.5158
 9546SOL     OW40273   2.783   0.703   3.451  0.3428  0.2158 -0.2040
 9546SOL    HW140274   2.776   0.796   3.429 -0.5540 -0.0513 -1.0319
 9546SOL    HW240275   2.841   0.715   3.527 -0.5607  1.2468  0.3166
 9547SOL     OW40276   4.337   4.313  13.319 -0.5666 -0.0258 -0.0835
 9547SOL    HW140277   4.386   4.343  13.243 -1.8507 -1.0117 -1.2994
 9547SOL    HW240278   4.352   4.382  13.383  0.0825  0.1103 -0.3863
 9548SOL     OW40279   2.757   2.338   7.259 -0.0437  0.3087  0.3710
 9548SOL    HW140280   2.772   2.421   7.303  0.1996  0.2927  0.3198
 9548SOL    HW240281   2.809   2.365   7.183  1.3179 -0.4716  1.0217
 9549SOL     OW40282   0.741   3.572  17.425  0.2905 -0.1723  0.8622
 9549SOL    HW140283   0.817   3.514  17.429  1.2438  1.1038  0.8017
 9549SOL    HW240284   0.777   3.616  17.348 -2.4147  3.7430  1.8530
 9550SOL     OW40285   3.299   0.373  14.214 -0.9311  0.4949  0.0866
 9550SOL    HW140286   3.312   0.411  14.301 -1.5163  0.7725  0.0523
 9550SOL    HW240287   3.208   0.394  14.193 -1.9217 -2.2750  1.5687
 9551SOL     OW40288   3.874   0.390   6.619 -0.2173  0.3022  0.6110
 9551SOL    HW140289   3.784   0.419   6.635  0.4428  2.3168  0.6177
 9551SOL    HW240290   3.866   0.301   6.583 -1.4375  0.5812  0.1997
 9552SOL     OW40291   2.333   0.446   4.684 -0.9654 -0.4511  0.7859
 9552SOL    HW140292   2.368   0.409   4.603 -1.4481 -1.1591  0.9005
 9552SOL    HW240293   2.396   0.514   4.708  0.1864 -1.4267  0.5384
 9553SOL     OW40294   0.303   1.232   5.619  0.1840  0.4543  0.0647
 9553SOL    HW140295   0.361   1.291   5.571  0.5651 -0.1351 -0.2049
 9553SOL    HW240296   0.281   1.168   5.551  1.0787 -0.4429  0.6365
 9554SOL     OW40297   0.689   4.558  16.137 -0.2668  1.0446  0.0350
 9554SOL    HW140298   0.700   4.607  16.219  0.3149  0.5755  0.2387
 9554SOL    HW240299   0.747   4.604  16.077  1.9318 -1.5326  0.1654
 9555SOL     OW40300   0.751   0.390   4.382  0.5045  0.5692  0.7808
 9555SOL    HW140301   0.770   0.461   4.320 -2.0943 -1.0638 -1.8681
 9555SOL    HW240302   0.729   0.322   4.319  1.4114  1.3433 -0.3806
 9556SOL     OW40303   0.246   1.733   7.664 -0.2756 -0.2975  0.7296
 9556SOL    HW140304   0.236   1.801   7.730  0.2211  0.4315  0.0535
 9556SOL    HW240305   0.327   1.770   7.629 -0.9835  1.2059  0.6935
 9557SOL     OW40306   2.441   3.195   1.077 -0.1497  1.0003  0.3035
 9557SOL    HW140307   2.441   3.251   0.999 -1.3465  1.0349  0.3220
 9557SOL    HW240308   2.425   3.106   1.047 -1.9279  1.4070  0.0357
 9558SOL     OW40309   1.601   0.848   7.827 -0.1552 -0.3748  0.4991
 9558SOL    HW140310   1.540   0.791   7.780 -0.8039  3.2196 -3.0370
 9558SOL    HW240311   1.681   0.819   7.784 -0.2784  2.0639 -1.3733
 9559SOL     OW40312   2.762   1.842  16.169  0.0924 -0.1767 -0.2086
 9559SOL    HW140313   2.853   1.844  16.199  0.4522  1.4425 -1.3550
 9559SOL    HW240314   2.716   1.923  16.193 -1.1530 -0.5704 -1.2522
 9560SOL     OW40315   0.355   3.873  12.569  0.1487  0.4194  0.4033
 9560SOL    HW140316   0.418   3.805  12.546  0.0061 -0.0336  1.3839
 9560SOL    HW240317   0.312   3.903  12.489  1.5757 -0.5460 -0.7260
 9561SOL     OW40318   4.297   2.606   6.845  0.6376 -0.0868 -0.3291
 9561SOL    HW140319   4.291   2.583   6.752 -1.2629 -1.8497  0.2132
 9561SOL    HW240320   4.253   2.532   6.888 -1.1597 -1.5162 -4.6333
 9562SOL     OW40321   3.247   3.384   5.135  0.1323  0.4358 -0.3485
 9562SOL    HW140322   3.155   3.404   5.155  0.6769  0.7406  1.9173
 9562SOL    HW240323   3.290   3.439   5.201 -0.9555 -0.6900  1.3162
 9563SOL     OW40324   0.301   3.902  10.965  0.1141  1.2849 -1.0365
 9563SOL    HW140325   0.391   3.917  10.937  0.6173 -0.7608 -0.4763
 9563SOL    HW240326   0.315   3.953  11.045  2.3966 -2.9311  1.2230
 9564SOL     OW40327   3.198   4.224   9.267  0.2577 -0.1779 -0.4637
 9564SOL    HW140328   3.222   4.312   9.295  2.6395 -1.4526  1.5168
 9564SOL    HW240329   3.167   4.236   9.177 -1.8058 -0.6184  0.2087
 9565SOL     OW40330   2.255   4.609   9.334  0.2969  0.3395  0.2150
 9565SOL    HW140331   2.264   4.588   9.241 -1.0360 -3.1696  0.8957
 9565SOL    HW240332   2.333   4.659   9.359 -0.1674 -0.2325  2.7992
 9566SOL     OW40333   0.990   1.763   5.172 -0.0492  0.4433  0.4905
 9566SOL    HW140334   0.942   1.686   5.141  0.5416 -0.4468  1.7486
 9566SOL    HW240335   0.932   1.839   5.170  1.2856  1.3675 -2.3740
 9567SOL     OW40336   2.778   1.723   7.727  0.1214 -0.2031 -0.5511
 9567SOL    HW140337   2.693   1.762   7.747 -0.5602 -0.9434 -2.0861
 9567SOL    HW240338   2.761   1.630   7.715  0.7645 -0.4953  0.8351
 9568SOL     OW40339   0.761   2.979   3.920  0.2367 -0.2930 -0.2451
 9568SOL    HW140340   0.792   3.038   3.852  1.9598  0.5213  1.2806
 9568SOL    HW240341   0.687   3.026   3.959  0.4755  0.1329 -0.3128
 9569SOL     OW40342   0.807   3.447   3.055  0.1424  0.2104 -0.2613
 9569SOL    HW140343   0.753   3.456   3.134  0.8081 -0.6569  0.2899
 9569SOL    HW240344   0.746   3.436   2.982  1.6328  1.0877 -1.6281
   4.74060   4.74060  17.75983
